<event>
 6    1  0.4424270E-002  0.1258928E+03  0.7546771E-02  0.1233681E+00
         21   -1    0    0  504  502  0.00000000000E+00  0.00000000000E+00  0.55361598304E+03  0.55361598304E+03  0.00000000000E+00 0. -1.
         21   -1    0    0  502  503 -0.00000000000E+00 -0.00000000000E+00 -0.11941643651E+02  0.11941643651E+02  0.00000000000E+00 0. -1.
         25    2    1    2    0    0  0.95141113070E+01 -0.11597765777E+02  0.32757769462E+03  0.35093609985E+03  0.12499589464E+03 0.  0.
          5    1    3    3  501    0 -0.57768202695E+02 -0.97324989030E+00  0.15068320149E+03  0.16138014026E+03  0.10000000000E+00 0. -1.
         -5    1    3    3    0  501  0.67282314002E+02 -0.10624515887E+02  0.17689449313E+03  0.18955595959E+03  0.10000000000E+00 0. -1.
         21    1    1    2  504  503 -0.95141113070E+01  0.11597765777E+02  0.21409664477E+03  0.21462152685E+03  0.00000000000E+00 0. -1.
<mgrwt>
<rscale>  1 0.12589281E+03</rscale>
<asrwt>0</asrwt>
<pdfrwt beam="1">  1       21 0.85171670E-01 0.12589281E+03</pdfrwt>
<pdfrwt beam="2">  1       21 0.18371764E-02 0.12589281E+03</pdfrwt>
<totfact> 0.16843364E+06</totfact>
</mgrwt>
</event>
<event>
 6    1  0.4424270E-002  0.1280958E+03  0.7546771E-02  0.1230309E+00
         21   -1    0    0  504  502  0.00000000000E+00  0.00000000000E+00  0.17092818121E+04  0.17092818121E+04  0.00000000000E+00 0.  1.
         21   -1    0    0  502  503 -0.00000000000E+00 -0.00000000000E+00 -0.90395582960E+01  0.90395582960E+01  0.00000000000E+00 0.  1.
         25    2    1    2    0    0  0.24270185270E+02  0.13890703147E+02  0.45292137949E+03  0.47068706619E+03  0.12500617886E+03 0.  0.
          5    1    3    3  501    0  0.38529815925E+02 -0.35595973056E+02  0.90328733344E+02  0.10445530183E+03  0.10000000000E+00 0. -1.
         -5    1    3    3    0  501 -0.14259630654E+02  0.49486676204E+02  0.36259264614E+03  0.36623176436E+03  0.10000000000E+00 0. -1.
         21    1    1    2  504  503 -0.24270185270E+02 -0.13890703147E+02  0.12473208743E+04  0.12476343042E+04  0.00000000000E+00 0.  1.
<mgrwt>
<rscale>  1 0.12809582E+03</rscale>
<asrwt>0</asrwt>
<pdfrwt beam="1">  1       21 0.26296618E+00 0.12809582E+03</pdfrwt>
<pdfrwt beam="2">  1       21 0.13907026E-02 0.12809582E+03</pdfrwt>
<totfact> 0.13006706E+05</totfact>
</mgrwt>
</event>
<event>
 6    1  0.4424270E-002  0.1261032E+03  0.7546771E-02  0.1233355E+00
         21   -1    0    0  503  502  0.00000000000E+00  0.00000000000E+00  0.79839636122E+02  0.79839636122E+02  0.00000000000E+00 0. -1.
         21   -1    0    0  504  503 -0.00000000000E+00 -0.00000000000E+00 -0.15291593378E+03  0.15291593378E+03  0.00000000000E+00 0.  1.
         25    2    1    2    0    0  0.13129990087E+02  0.10198895980E+02 -0.12540826271E+03  0.17784611092E+03  0.12500237076E+03 0.  0.
          5    1    3    3  501    0  0.60884462443E+02 -0.19700038203E+02 -0.92872611273E+02  0.11278449005E+03  0.10000000000E+00 0.  1.
         -5    1    3    3    0  501 -0.47754472356E+02  0.29898934183E+02 -0.32535651440E+02  0.65061620867E+02  0.10000000000E+00 0.  1.
         21    1    1    2  504  502 -0.13129990087E+02 -0.10198895980E+02  0.52331965055E+02  0.54909458980E+02  0.00000000000E+00 0. -1.
<mgrwt>
<rscale>  1 0.12610316E+03</rscale>
<asrwt>0</asrwt>
<pdfrwt beam="1">  1       21 0.12283021E-01 0.12610316E+03</pdfrwt>
<pdfrwt beam="2">  1       21 0.23525528E-01 0.12610316E+03</pdfrwt>
<totfact> 0.95824140E+05</totfact>
</mgrwt>
</event>
<event>
 6    1  0.4424270E-002  0.1259090E+03  0.7546771E-02  0.1233655E+00
         21   -1    0    0  504  502  0.00000000000E+00  0.00000000000E+00  0.31358369451E+03  0.31358369451E+03  0.00000000000E+00 0. -1.
         21   -1    0    0  502  503 -0.00000000000E+00 -0.00000000000E+00 -0.34499046807E+02  0.34499046807E+02  0.00000000000E+00 0. -1.
         25    2    1    2    0    0 -0.11748950075E+02  0.94743615606E+01  0.81636690743E+02  0.15005876029E+03  0.12500112363E+03 0.  0.
          5    1    3    3  501    0  0.56859796901E+02  0.52801047496E+01  0.34601471829E+02  0.66769662741E+02  0.10000000000E+00 0.  1.
         -5    1    3    3    0  501 -0.68608746976E+02  0.41942568109E+01  0.47035218914E+02  0.83289097546E+02  0.10000000000E+00 0.  1.
         21    1    1    2  504  503  0.11748950075E+02 -0.94743615606E+01  0.19744795696E+03  0.19802398103E+03  0.00000000000E+00 0. -1.
<mgrwt>
<rscale>  1 0.12590902E+03</rscale>
<asrwt>0</asrwt>
<pdfrwt beam="1">  1       21 0.48243643E-01 0.12590902E+03</pdfrwt>
<pdfrwt beam="2">  1       21 0.53075459E-02 0.12590902E+03</pdfrwt>
<totfact> 0.99956172E+05</totfact>
</mgrwt>
</event>
<event>
 6    1  0.4424270E-002  0.1260983E+03  0.7546771E-02  0.1233363E+00
         21   -1    0    0  504  502  0.00000000000E+00  0.00000000000E+00  0.15242480800E+03  0.15242480800E+03  0.00000000000E+00 0.  1.
         21   -1    0    0  502  503 -0.00000000000E+00 -0.00000000000E+00 -0.35747893341E+02  0.35747893341E+02  0.00000000000E+00 0.  1.
         25    2    1    2    0    0 -0.14927965040E+02  0.76538918449E+01  0.84220817222E+02  0.15163745177E+03  0.12497737605E+03 0.  0.
          5    1    3    3  501    0 -0.28112291822E+02  0.48166197340E+02  0.92714224682E+02  0.10819529091E+03  0.10000000000E+00 0. -1.
         -5    1    3    3    0  501  0.13184326783E+02 -0.40512305495E+02 -0.84934074600E+01  0.43442160853E+02  0.10000000000E+00 0. -1.
         21    1    1    2  504  503  0.14927965040E+02 -0.76538918449E+01  0.32456097436E+02  0.36535249573E+02  0.00000000000E+00 0. -1.
<mgrwt>
<rscale>  1 0.12609826E+03</rscale>
<asrwt>0</asrwt>
<pdfrwt beam="1">  1       21 0.23449970E-01 0.12609826E+03</pdfrwt>
<pdfrwt beam="2">  1       21 0.54996760E-02 0.12609826E+03</pdfrwt>
<totfact> 0.38631067E+06</totfact>
</mgrwt>
</event>
<event>
 6    1  0.4424270E-002  0.1265656E+03  0.7546771E-02  0.1232643E+00
         21   -1    0    0  504  502  0.00000000000E+00  0.00000000000E+00  0.15097618286E+02  0.15097618286E+02  0.00000000000E+00 0. -1.
         21   -1    0    0  502  503 -0.00000000000E+00 -0.00000000000E+00 -0.36266019791E+03  0.36266019791E+03  0.00000000000E+00 0. -1.
         25    2    1    2    0    0 -0.10418296813E+02  0.16967647283E+02 -0.31642465011E+03  0.34079820828E+03  0.12498967001E+03 0.  0.
          5    1    3    3  501    0 -0.19744397375E+01  0.70674877001E+02 -0.15248707520E+03  0.16808079829E+03  0.10000000000E+00 0.  1.
         -5    1    3    3    0  501 -0.84438570752E+01 -0.53707229718E+02 -0.16393757491E+03  0.17271740999E+03  0.10000000000E+00 0.  1.
         21    1    1    2  504  503  0.10418296813E+02 -0.16967647283E+02 -0.31137929515E+02  0.36959607915E+02  0.00000000000E+00 0. -1.
<mgrwt>
<rscale>  1 0.12656563E+03</rscale>
<asrwt>0</asrwt>
<pdfrwt beam="1">  1       21 0.23227104E-02 0.12656563E+03</pdfrwt>
<pdfrwt beam="2">  1       21 0.55793880E-01 0.12656563E+03</pdfrwt>
<totfact> 0.28944670E+06</totfact>
</mgrwt>
</event>
<event>
 6    1  0.4424270E-002  0.1346015E+03  0.7546771E-02  0.1220783E+00
         21   -1    0    0  504  502  0.00000000000E+00  0.00000000000E+00  0.30058130509E+03  0.30058130509E+03  0.00000000000E+00 0.  1.
         21   -1    0    0  502  503 -0.00000000000E+00 -0.00000000000E+00 -0.30176399970E+02  0.30176399970E+02  0.00000000000E+00 0.  1.
         25    2    1    2    0    0 -0.45542308722E+02 -0.20465202163E+02  0.15669802211E+03  0.20657162844E+03  0.12499856463E+03 0.  0.
          5    1    3    3  501    0 -0.39070759109E+02 -0.32948160063E+02  0.19082076881E+01  0.51144469158E+02  0.10000000000E+00 0.  1.
         -5    1    3    3    0  501 -0.64715496131E+01  0.12482957899E+02  0.15478981443E+03  0.15542715928E+03  0.10000000000E+00 0.  1.
         21    1    1    2  504  503  0.45542308722E+02  0.20465202163E+02  0.11370688301E+03  0.12418607662E+03  0.00000000000E+00 0.  1.
<mgrwt>
<rscale>  1 0.13460151E+03</rscale>
<asrwt>0</asrwt>
<pdfrwt beam="1">  1       21 0.46243276E-01 0.13460151E+03</pdfrwt>
<pdfrwt beam="2">  1       21 0.46425233E-02 0.13460151E+03</pdfrwt>
<totfact> 0.13657811E+06</totfact>
</mgrwt>
</event>
<event>
 6    1  0.4424270E-002  0.1260668E+03  0.7546771E-02  0.1233411E+00
         21   -1    0    0  503  502  0.00000000000E+00  0.00000000000E+00  0.32732460267E+03  0.32732460267E+03  0.00000000000E+00 0.  1.
         21   -1    0    0  504  503 -0.00000000000E+00 -0.00000000000E+00 -0.24300134840E+02  0.24300134840E+02  0.00000000000E+00 0.  1.
         25    2    1    2    0    0  0.14385304182E+02 -0.78769673411E+01  0.14248352451E+03  0.19024822722E+03  0.12499539837E+03 0.  0.
          5    1    3    3  501    0  0.67175835243E+02  0.28638047174E+01  0.10476226728E+03  0.12448267696E+03  0.10000000000E+00 0. -1.
         -5    1    3    3    0  501 -0.52790531061E+02 -0.10740772059E+02  0.37721257236E+02  0.65765550264E+02  0.10000000000E+00 0. -1.
         21    1    1    2  504  502 -0.14385304182E+02  0.78769673411E+01  0.16054094332E+03  0.16137651029E+03  0.00000000000E+00 0.  1.
<mgrwt>
<rscale>  1 0.12606678E+03</rscale>
<asrwt>0</asrwt>
<pdfrwt beam="1">  1       21 0.50357628E-01 0.12606678E+03</pdfrwt>
<pdfrwt beam="2">  1       21 0.37384825E-02 0.12606678E+03</pdfrwt>
<totfact> 0.16425793E+06</totfact>
</mgrwt>
</event>
<event>
 6    1  0.4424270E-002  0.1262882E+03  0.7546771E-02  0.1233070E+00
         21   -1    0    0  503  502  0.00000000000E+00  0.00000000000E+00  0.48671476258E+01  0.48671476258E+01  0.00000000000E+00 0.  1.
         21   -1    0    0  504  503 -0.00000000000E+00 -0.00000000000E+00 -0.10888272674E+04  0.10888272674E+04  0.00000000000E+00 0.  1.
         25    2    1    2    0    0 -0.74299983546E+01 -0.16386024885E+02 -0.89246025855E+03  0.90135122295E+03  0.12500002938E+03 0.  0.
          5    1    3    3  501    0  0.36627398676E+02  0.36544414377E+02 -0.52084659960E+03  0.52341021281E+03  0.10000000000E+00 0.  1.
         -5    1    3    3    0  501 -0.44057397030E+02 -0.52930439261E+02 -0.37161365894E+03  0.37794101014E+03  0.10000000000E+00 0.  1.
         21    1    1    2  504  502  0.74299983546E+01  0.16386024885E+02 -0.19149986126E+03  0.19234319210E+03  0.00000000000E+00 0.  1.
<mgrwt>
<rscale>  1 0.12628822E+03</rscale>
<asrwt>0</asrwt>
<pdfrwt beam="1">  1       21 0.74879130E-03 0.12628822E+03</pdfrwt>
<pdfrwt beam="2">  1       21 0.16751203E+00 0.12628822E+03</pdfrwt>
<totfact> 0.13330975E+06</totfact>
</mgrwt>
</event>
<event>
 6    1  0.4424270E-002  0.1271939E+03  0.7546771E-02  0.1231680E+00
         21   -1    0    0  503  502  0.00000000000E+00  0.00000000000E+00  0.42999860390E+03  0.42999860390E+03  0.00000000000E+00 0. -1.
         21   -1    0    0  504  503 -0.00000000000E+00 -0.00000000000E+00 -0.16049204654E+02  0.16049204654E+02  0.00000000000E+00 0. -1.
         25    2    1    2    0    0 -0.19877501249E+01 -0.23426619964E+02  0.25076619487E+03  0.28117963133E+03  0.12500217161E+03 0.  0.
          5    1    3    3  501    0 -0.14471069707E+01 -0.74919434573E+02  0.13321845004E+03  0.15284692089E+03  0.10000000000E+00 0.  1.
         -5    1    3    3    0  501 -0.54064315423E+00  0.51492814609E+02  0.11754774483E+03  0.12833271043E+03  0.10000000000E+00 0.  1.
         21    1    1    2  504  502  0.19877501249E+01  0.23426619964E+02  0.16318320437E+03  0.16486817722E+03  0.00000000000E+00 0. -1.
<mgrwt>
<rscale>  1 0.12719395E+03</rscale>
<asrwt>0</asrwt>
<pdfrwt beam="1">  1       21 0.66153623E-01 0.12719395E+03</pdfrwt>
<pdfrwt beam="2">  1       21 0.24691087E-02 0.12719395E+03</pdfrwt>
<totfact> 0.18245592E+06</totfact>
</mgrwt>
</event>
<event>
 6    1  0.4424270E-002  0.1273986E+03  0.7546771E-02  0.1231368E+00
         21   -1    0    0  504  502  0.00000000000E+00  0.00000000000E+00  0.50922017653E+02  0.50922017653E+02  0.00000000000E+00 0. -1.
         21   -1    0    0  502  503 -0.00000000000E+00 -0.00000000000E+00 -0.14113514579E+03  0.14113514579E+03  0.00000000000E+00 0. -1.
         25    2    1    2    0    0 -0.76817422976E+01 -0.23382721397E+02 -0.10345051689E+03  0.16411097791E+03  0.12499857120E+03 0.  0.
          5    1    3    3  501    0  0.76947204377E+01 -0.39967363238E+02  0.15107707185E+02  0.43414878362E+02  0.10000000000E+00 0. -1.
         -5    1    3    3    0  501 -0.15376462735E+02  0.16584641841E+02 -0.11855822407E+03  0.12069609955E+03  0.10000000000E+00 0. -1.
         21    1    1    2  504  503  0.76817422976E+01  0.23382721397E+02  0.13237388753E+02  0.27946185529E+02  0.00000000000E+00 0. -1.
<mgrwt>
<rscale>  1 0.12739860E+03</rscale>
<asrwt>0</asrwt>
<pdfrwt beam="1">  1       21 0.78341565E-02 0.12739860E+03</pdfrwt>
<pdfrwt beam="2">  1       21 0.21713099E-01 0.12739860E+03</pdfrwt>
<totfact> 0.24423304E+06</totfact>
</mgrwt>
</event>
<event>
 6    1  0.4424270E-002  0.1302279E+03  0.7546771E-02  0.1227118E+00
         21   -1    0    0  504  502  0.00000000000E+00  0.00000000000E+00  0.20899058665E+02  0.20899058665E+02  0.00000000000E+00 0.  1.
         21   -1    0    0  502  503 -0.00000000000E+00 -0.00000000000E+00 -0.52825684757E+03  0.52825684757E+03  0.00000000000E+00 0.  1.
         25    2    1    2    0    0  0.11665213401E+02 -0.34580432061E+02 -0.49304673798E+03  0.50995527278E+03  0.12500964327E+03 0.  0.
          5    1    3    3  501    0  0.32241397862E+02  0.28761123926E+02 -0.74328279683E+02  0.85973328109E+02  0.10000000000E+00 0. -1.
         -5    1    3    3    0  501 -0.20576184461E+02 -0.63341555986E+02 -0.41871845830E+03  0.42398194467E+03  0.10000000000E+00 0. -1.
         21    1    1    2  504  503 -0.11665213401E+02  0.34580432061E+02 -0.14311050922E+02  0.39200633460E+02  0.00000000000E+00 0.  1.
<mgrwt>
<rscale>  1 0.13022786E+03</rscale>
<asrwt>0</asrwt>
<pdfrwt beam="1">  1       21 0.32152396E-02 0.13022786E+03</pdfrwt>
<pdfrwt beam="2">  1       21 0.81270290E-01 0.13022786E+03</pdfrwt>
<totfact> 0.75361224E+05</totfact>
</mgrwt>
</event>
<event>
 6    1  0.4424270E-002  0.1262588E+03  0.7546771E-02  0.1233115E+00
         21   -1    0    0  503  502  0.00000000000E+00  0.00000000000E+00  0.13263325459E+03  0.13263325459E+03  0.00000000000E+00 0.  1.
         21   -1    0    0  504  503 -0.00000000000E+00 -0.00000000000E+00 -0.15596384461E+03  0.15596384461E+03  0.00000000000E+00 0.  1.
         25    2    1    2    0    0 -0.16600020719E+02 -0.61816696426E+01 -0.12955686032E+03  0.18090404358E+03  0.12501007640E+03 0.  0.
          5    1    3    3  501    0 -0.16299812413E+02 -0.61860171697E+02 -0.39994257585E+02  0.75444783563E+02  0.10000000000E+00 0. -1.
         -5    1    3    3    0  501 -0.30020830512E+00  0.55678502054E+02 -0.89562602732E+02  0.10545926002E+03  0.10000000000E+00 0. -1.
         21    1    1    2  504  502  0.16600020719E+02  0.61816696426E+01  0.10622627030E+03  0.10769305562E+03  0.00000000000E+00 0.  1.
<mgrwt>
<rscale>  1 0.12625883E+03</rscale>
<asrwt>0</asrwt>
<pdfrwt beam="1">  1       21 0.20405116E-01 0.12625883E+03</pdfrwt>
<pdfrwt beam="2">  1       21 0.23994438E-01 0.12625883E+03</pdfrwt>
<totfact> 0.36835019E+05</totfact>
</mgrwt>
</event>
<event>
 6    1  0.4424270E-002  0.1875481E+03  0.7546771E-02  0.1160692E+00
         21   -1    0    0  504  502  0.00000000000E+00  0.00000000000E+00  0.52775063259E+02  0.52775063259E+02  0.00000000000E+00 0. -1.
         21   -1    0    0  502  503 -0.00000000000E+00 -0.00000000000E+00 -0.84083079990E+03  0.84083079990E+03  0.00000000000E+00 0. -1.
         25    2    1    2    0    0  0.21232887541E+02  0.13827300044E+03 -0.70801234216E+03  0.73243141369E+03  0.12491613563E+03 0.  0.
          5    1    3    3  501    0  0.36452745168E+02  0.13771641676E+02 -0.36736821611E+03  0.36942912304E+03  0.10000000000E+00 0.  1.
         -5    1    3    3    0  501 -0.15219857627E+02  0.12450135876E+03 -0.34064412605E+03  0.36300229064E+03  0.10000000000E+00 0.  1.
         21    1    1    2  504  503 -0.21232887541E+02 -0.13827300044E+03 -0.80043394484E+02  0.16117444948E+03  0.00000000000E+00 0. -1.
<mgrwt>
<rscale>  1 0.18754812E+03</rscale>
<asrwt>0</asrwt>
<pdfrwt beam="1">  1       21 0.81192418E-02 0.18754812E+03</pdfrwt>
<pdfrwt beam="2">  1       21 0.12935856E+00 0.18754812E+03</pdfrwt>
<totfact> 0.51323618E+04</totfact>
</mgrwt>
</event>
<event>
 6    1  0.4424270E-002  0.1920807E+03  0.7546771E-02  0.1156598E+00
         21   -1    0    0  503  502  0.00000000000E+00  0.00000000000E+00  0.15221608278E+03  0.15221608278E+03  0.00000000000E+00 0. -1.
         21   -1    0    0  504  503 -0.00000000000E+00 -0.00000000000E+00 -0.23004617462E+03  0.23004617462E+03  0.00000000000E+00 0. -1.
         25    2    1    2    0    0 -0.14284147078E+03 -0.29441519446E+02 -0.12477402219E+03  0.22904926370E+03  0.12499807898E+03 0.  0.
          5    1    3    3  501    0 -0.91297255468E+02 -0.68157925582E+02 -0.11832772953E+03  0.16426245235E+03  0.10000000000E+00 0.  1.
         -5    1    3    3    0  501 -0.51544215309E+02  0.38716406136E+02 -0.64462926527E+01  0.64786811350E+02  0.10000000000E+00 0.  1.
         21    1    1    2  504  502  0.14284147078E+03  0.29441519446E+02  0.46943930342E+02  0.15321299370E+03  0.00000000000E+00 0. -1.
<mgrwt>
<rscale>  1 0.19208073E+03</rscale>
<asrwt>0</asrwt>
<pdfrwt beam="1">  1       21 0.23417859E-01 0.19208073E+03</pdfrwt>
<pdfrwt beam="2">  1       21 0.35391719E-01 0.19208073E+03</pdfrwt>
<totfact> 0.13206659E+05</totfact>
</mgrwt>
</event>
<event>
 6    1  0.4424270E-002  0.1309621E+03  0.7546771E-02  0.1226035E+00
         21   -1    0    0  504  502  0.00000000000E+00  0.00000000000E+00  0.14611715771E+03  0.14611715771E+03  0.00000000000E+00 0.  1.
         21   -1    0    0  502  503 -0.00000000000E+00 -0.00000000000E+00 -0.28541718946E+03  0.28541718946E+03  0.00000000000E+00 0. -1.
         25    2    1    2    0    0  0.31180047208E+02  0.23541363348E+02 -0.26732510241E+03  0.29768065896E+03  0.12499869282E+03 0.  0.
          5    1    3    3  501    0 -0.33620524340E+02 -0.26898361065E+02 -0.53790356075E+02  0.68900463653E+02  0.10000000000E+00 0.  1.
         -5    1    3    3    0  501  0.64800571549E+02  0.50439724413E+02 -0.21353474633E+03  0.22878019530E+03  0.10000000000E+00 0.  1.
         21    1    1    2  504  503 -0.31180047208E+02 -0.23541363348E+02  0.12802507066E+03  0.13385368822E+03  0.00000000000E+00 0.  1.
<mgrwt>
<rscale>  1 0.13096207E+03</rscale>
<asrwt>0</asrwt>
<pdfrwt beam="1">  1       21 0.22479563E-01 0.13096207E+03</pdfrwt>
<pdfrwt beam="2">  1       21 0.43910336E-01 0.13096207E+03</pdfrwt>
<totfact> 0.94630838E+04</totfact>
</mgrwt>
</event>
<event>
 6    1  0.4424270E-002  0.1261854E+03  0.7546771E-02  0.1233228E+00
         21   -1    0    0  504  502  0.00000000000E+00  0.00000000000E+00  0.12474556482E+03  0.12474556482E+03  0.00000000000E+00 0.  1.
         21   -1    0    0  502  503 -0.00000000000E+00 -0.00000000000E+00 -0.45470164465E+02  0.45470164465E+02  0.00000000000E+00 0.  1.
         25    2    1    2    0    0  0.14278551743E+02  0.96636555686E+01  0.48980513488E+02  0.13535825592E+03  0.12500201385E+03 0.  0.
          5    1    3    3  501    0  0.42923407851E+02 -0.37895977127E+01 -0.28500725921E+02  0.51663152927E+02  0.10000000000E+00 0. -1.
         -5    1    3    3    0  501 -0.28644856108E+02  0.13453253281E+02  0.77481239409E+02  0.83695102997E+02  0.10000000000E+00 0. -1.
         21    1    1    2  504  503 -0.14278551743E+02 -0.96636555686E+01  0.30294886869E+02  0.34857473362E+02  0.00000000000E+00 0.  1.
<mgrwt>
<rscale>  1 0.12618545E+03</rscale>
<asrwt>0</asrwt>
<pdfrwt beam="1">  1       21 0.19191625E-01 0.12618545E+03</pdfrwt>
<pdfrwt beam="2">  1       21 0.69954100E-02 0.12618545E+03</pdfrwt>
<totfact> 0.37263095E+06</totfact>
</mgrwt>
</event>
<event>
 6    1  0.4424270E-002  0.1491704E+03  0.7546771E-02  0.1201496E+00
         21   -1    0    0  503  502  0.00000000000E+00  0.00000000000E+00  0.51022061782E+02  0.51022061782E+02  0.00000000000E+00 0.  1.
         21   -1    0    0  504  503 -0.00000000000E+00 -0.00000000000E+00 -0.28381128404E+03  0.28381128404E+03  0.00000000000E+00 0. -1.
         25    2    1    2    0    0 -0.72148176283E+02 -0.37708798017E+02 -0.19382407189E+03  0.24458039167E+03  0.12499793742E+03 0.  0.
          5    1    3    3  501    0 -0.12834113049E+02 -0.69546164684E+02 -0.52615989259E+02  0.88146672120E+02  0.10000000000E+00 0.  1.
         -5    1    3    3    0  501 -0.59314063234E+02  0.31837366668E+02 -0.14120808263E+03  0.15643371955E+03  0.10000000000E+00 0.  1.
         21    1    1    2  504  502  0.72148176283E+02  0.37708798017E+02 -0.38965150366E+02  0.90252954145E+02  0.00000000000E+00 0.  1.
<mgrwt>
<rscale>  1 0.14917036E+03</rscale>
<asrwt>0</asrwt>
<pdfrwt beam="1">  1       21 0.78495479E-02 0.14917036E+03</pdfrwt>
<pdfrwt beam="2">  1       21 0.43663275E-01 0.14917036E+03</pdfrwt>
<totfact> 0.62850476E+05</totfact>
</mgrwt>
</event>
<event>
 6    1  0.4424270E-002  0.1268014E+03  0.7546771E-02  0.1232281E+00
         21   -1    0    0  503  502  0.00000000000E+00  0.00000000000E+00  0.33213207017E+03  0.33213207017E+03  0.00000000000E+00 0.  1.
         21   -1    0    0  504  503 -0.00000000000E+00 -0.00000000000E+00 -0.16925058523E+02  0.16925058523E+02  0.00000000000E+00 0.  1.
         25    2    1    2    0    0  0.83051607491E+01 -0.19609370440E+02  0.24767801388E+03  0.27824986463E+03  0.12500034202E+03 0.  0.
          5    1    3    3  501    0  0.45436419567E+02 -0.38905211175E+02  0.55600873744E+02  0.81667318070E+02  0.10000000000E+00 0. -1.
         -5    1    3    3    0  501 -0.37131258818E+02  0.19295840735E+02  0.19207714013E+03  0.19658254656E+03  0.10000000000E+00 0. -1.
         21    1    1    2  504  502 -0.83051607491E+01  0.19609370440E+02  0.67528997775E+02  0.70807264066E+02  0.00000000000E+00 0.  1.
<mgrwt>
<rscale>  1 0.12680137E+03</rscale>
<asrwt>0</asrwt>
<pdfrwt beam="1">  1       21 0.51097236E-01 0.12680137E+03</pdfrwt>
<pdfrwt beam="2">  1       21 0.26038554E-02 0.12680137E+03</pdfrwt>
<totfact> 0.28869872E+06</totfact>
</mgrwt>
</event>
<event>
 6    1  0.4424270E-002  0.1265007E+03  0.7546771E-02  0.1232742E+00
         21   -1    0    0  503  502  0.00000000000E+00  0.00000000000E+00  0.11833288388E+03  0.11833288388E+03  0.00000000000E+00 0. -1.
         21   -1    0    0  504  503 -0.00000000000E+00 -0.00000000000E+00 -0.46109955389E+02  0.46109955389E+02  0.00000000000E+00 0. -1.
         25    2    1    2    0    0 -0.71907308672E+01  0.18023724403E+02  0.53083466909E+02  0.13718700977E+03  0.12500343971E+03 0.  0.
          5    1    3    3  501    0 -0.39210760001E+02 -0.64520907223E+01 -0.26649361519E+02  0.47846751655E+02  0.10000000000E+00 0. -1.
         -5    1    3    3    0  501  0.32020029134E+02  0.24475815125E+02  0.79732828429E+02  0.89340258120E+02  0.10000000000E+00 0. -1.
         21    1    1    2  504  502  0.71907308672E+01 -0.18023724403E+02  0.19139461582E+02  0.27255829494E+02  0.00000000000E+00 0. -1.
<mgrwt>
<rscale>  1 0.12650068E+03</rscale>
<asrwt>0</asrwt>
<pdfrwt beam="1">  1       21 0.18205059E-01 0.12650068E+03</pdfrwt>
<pdfrwt beam="2">  1       21 0.70938393E-02 0.12650068E+03</pdfrwt>
<totfact> 0.40089398E+06</totfact>
</mgrwt>
</event>
<event>
 6    1  0.4424270E-002  0.1373848E+03  0.7546771E-02  0.1216892E+00
         21   -1    0    0  504  502  0.00000000000E+00  0.00000000000E+00  0.13021448738E+04  0.13021448738E+04  0.00000000000E+00 0. -1.
         21   -1    0    0  502  503 -0.00000000000E+00 -0.00000000000E+00 -0.16119684221E+02  0.16119684221E+02  0.00000000000E+00 0. -1.
         25    2    1    2    0    0 -0.55916703463E+02 -0.11118045645E+02  0.29306520646E+03  0.32366925503E+03  0.12499713095E+03 0.  0.
          5    1    3    3  501    0 -0.90842534769E+02 -0.42409782519E+01  0.14321670489E+03  0.16965077830E+03  0.10000000000E+00 0.  1.
         -5    1    3    3    0  501  0.34925831306E+02 -0.68770673932E+01  0.14984850158E+03  0.15401847673E+03  0.10000000000E+00 0.  1.
         21    1    1    2  504  503  0.55916703463E+02  0.11118045645E+02  0.99295998309E+03  0.99459530296E+03  0.00000000000E+00 0. -1.
<mgrwt>
<rscale>  1 0.13738476E+03</rscale>
<asrwt>0</asrwt>
<pdfrwt beam="1">  1       21 0.20032990E+00 0.13738476E+03</pdfrwt>
<pdfrwt beam="2">  1       21 0.24799524E-02 0.13738476E+03</pdfrwt>
<totfact> 0.11950908E+05</totfact>
</mgrwt>
</event>
<event>
 6    1  0.4424270E-002  0.1489746E+03  0.7546771E-02  0.1201739E+00
         21   -1    0    0  504  502  0.00000000000E+00  0.00000000000E+00  0.10141158646E+02  0.10141158646E+02  0.00000000000E+00 0.  1.
         21   -1    0    0  502  503 -0.00000000000E+00 -0.00000000000E+00 -0.13516274960E+04  0.13516274960E+04  0.00000000000E+00 0.  1.
         25    2    1    2    0    0  0.97348106143E+01 -0.80448192587E+02 -0.98396908387E+03  0.99518269642E+03  0.12500705187E+03 0.  0.
          5    1    3    3  501    0  0.13803933851E+02  0.91744401934E+01 -0.15909390347E+02  0.22974717492E+02  0.10000000000E+00 0.  1.
         -5    1    3    3    0  501 -0.40691232371E+01 -0.89622632781E+02 -0.96805969352E+03  0.97220797893E+03  0.10000000000E+00 0.  1.
         21    1    1    2  504  503 -0.97348106143E+01  0.80448192587E+02 -0.35751725346E+03  0.36658595820E+03  0.00000000000E+00 0.  1.
<mgrwt>
<rscale>  1 0.14897463E+03</rscale>
<asrwt>0</asrwt>
<pdfrwt beam="1">  1       21 0.15601784E-02 0.14897463E+03</pdfrwt>
<pdfrwt beam="2">  1       21 0.20794267E+00 0.14897463E+03</pdfrwt>
<totfact> 0.22506991E+05</totfact>
</mgrwt>
</event>
<event>
 6    1  0.4424270E-002  0.1274289E+03  0.7546771E-02  0.1231321E+00
         21   -1    0    0  504  502  0.00000000000E+00  0.00000000000E+00  0.11833583467E+03  0.11833583467E+03  0.00000000000E+00 0.  1.
         21   -1    0    0  502  503 -0.00000000000E+00 -0.00000000000E+00 -0.56044074906E+02  0.56044074906E+02  0.00000000000E+00 0.  1.
         25    2    1    2    0    0 -0.78057639026E+01  0.23541428004E+02  0.25414930343E+02  0.12993860750E+03  0.12499197675E+03 0.  0.
          5    1    3    3  501    0 -0.11159550136E+02 -0.20571196311E+02 -0.42714426505E+02  0.48705666083E+02  0.10000000000E+00 0. -1.
         -5    1    3    3    0  501  0.33537862333E+01  0.44112624315E+02  0.68129356848E+02  0.81232941413E+02  0.10000000000E+00 0. -1.
         21    1    1    2  504  503  0.78057639026E+01 -0.23541428004E+02  0.36876829425E+02  0.44441302085E+02  0.00000000000E+00 0. -1.
<mgrwt>
<rscale>  1 0.12742889E+03</rscale>
<asrwt>0</asrwt>
<pdfrwt beam="1">  1       21 0.18205513E-01 0.12742889E+03</pdfrwt>
<pdfrwt beam="2">  1       21 0.86221654E-02 0.12742889E+03</pdfrwt>
<totfact> 0.28661935E+06</totfact>
</mgrwt>
</event>
<event>
 6    1  0.4424270E-002  0.1426965E+03  0.7546771E-02  0.1209746E+00
         21   -1    0    0  503  502  0.00000000000E+00  0.00000000000E+00  0.64035689691E+03  0.64035689691E+03  0.00000000000E+00 0. -1.
         21   -1    0    0  504  503 -0.00000000000E+00 -0.00000000000E+00 -0.61969660037E+02  0.61969660037E+02  0.00000000000E+00 0.  1.
         25    2    1    2    0    0 -0.60466455542E+02 -0.32887878006E+02  0.25237997676E+02  0.14491119513E+03  0.12499797271E+03 0.  0.
          5    1    3    3  501    0 -0.74604957596E+01 -0.69165914649E+02  0.38228386130E+02  0.79378852677E+02  0.10000000000E+00 0. -1.
         -5    1    3    3    0  501 -0.53005959782E+02  0.36278036643E+02 -0.12990388455E+02  0.65532342452E+02  0.10000000000E+00 0. -1.
         21    1    1    2  504  502  0.60466455542E+02  0.32887878006E+02  0.55314923920E+03  0.55741536182E+03  0.00000000000E+00 0. -1.
<mgrwt>
<rscale>  1 0.14269652E+03</rscale>
<asrwt>0</asrwt>
<pdfrwt beam="1">  1       21 0.98516441E-01 0.14269652E+03</pdfrwt>
<pdfrwt beam="2">  1       21 0.95337943E-02 0.14269652E+03</pdfrwt>
<totfact> 0.76812242E+04</totfact>
</mgrwt>
</event>
<event>
 6    1  0.4424270E-002  0.1288452E+03  0.7546771E-02  0.1229179E+00
         21   -1    0    0  504  502  0.00000000000E+00  0.00000000000E+00  0.13320371670E+02  0.13320371670E+02  0.00000000000E+00 0.  1.
         21   -1    0    0  502  503 -0.00000000000E+00 -0.00000000000E+00 -0.48375997320E+03  0.48375997320E+03  0.00000000000E+00 0.  1.
         25    2    1    2    0    0 -0.27756389332E+02  0.14353999706E+02 -0.39263419070E+03  0.41323443614E+03  0.12499854819E+03 0.  0.
          5    1    3    3  501    0  0.24082709913E+02  0.33947415007E+02 -0.31562489800E+03  0.31835748796E+03  0.10000000000E+00 0.  1.
         -5    1    3    3    0  501 -0.51839099245E+02 -0.19593415301E+02 -0.77009292691E+02  0.94876948173E+02  0.10000000000E+00 0.  1.
         21    1    1    2  504  503  0.27756389332E+02 -0.14353999706E+02 -0.77805410833E+02  0.83845908733E+02  0.00000000000E+00 0.  1.
<mgrwt>
<rscale>  1 0.12884522E+03</rscale>
<asrwt>0</asrwt>
<pdfrwt beam="1">  1       21 0.20492881E-02 0.12884522E+03</pdfrwt>
<pdfrwt beam="2">  1       21 0.74424607E-01 0.12884522E+03</pdfrwt>
<totfact> 0.19092136E+06</totfact>
</mgrwt>
</event>
<event>
 6    1  0.4424270E-002  0.1572791E+03  0.7546771E-02  0.1191803E+00
         21   -1    0    0  503  502  0.00000000000E+00  0.00000000000E+00  0.43033601620E+02  0.43033601620E+02  0.00000000000E+00 0. -1.
         21   -1    0    0  504  503 -0.00000000000E+00 -0.00000000000E+00 -0.41718926292E+03  0.41718926292E+03  0.00000000000E+00 0. -1.
         25    2    1    2    0    0  0.43149999580E+02  0.85149843762E+02 -0.30221347341E+03  0.34069003744E+03  0.12499719894E+03 0.  0.
          5    1    3    3  501    0 -0.16213557645E+02  0.54566981579E+01  0.49847397451E+01  0.17818884270E+02  0.10000000000E+00 0. -1.
         -5    1    3    3    0  501  0.59363557225E+02  0.79693145605E+02 -0.30719821315E+03  0.32287115317E+03  0.10000000000E+00 0. -1.
         21    1    1    2  504  502 -0.43149999580E+02 -0.85149843762E+02 -0.71942187892E+02  0.11953282710E+03  0.00000000000E+00 0. -1.
<mgrwt>
<rscale>  1 0.15727911E+03</rscale>
<asrwt>0</asrwt>
<pdfrwt beam="1">  1       21 0.66205542E-02 0.15727911E+03</pdfrwt>
<pdfrwt beam="2">  1       21 0.64182963E-01 0.15727911E+03</pdfrwt>
<totfact> 0.37595533E+05</totfact>
</mgrwt>
</event>
<event>
 6    1  0.4424270E-002  0.1271769E+03  0.7546771E-02  0.1231706E+00
         21   -1    0    0  504  502  0.00000000000E+00  0.00000000000E+00  0.71142375606E+01  0.71142375606E+01  0.00000000000E+00 0. -1.
         21   -1    0    0  502  503 -0.00000000000E+00 -0.00000000000E+00 -0.11428169466E+04  0.11428169466E+04  0.00000000000E+00 0. -1.
         25    2    1    2    0    0  0.21687211773E+02 -0.88471310237E+01 -0.10993796097E+04  0.11067111145E+04  0.12500143070E+03 0.  0.
          5    1    3    3  501    0  0.48337131281E+02 -0.50639699100E+02 -0.44672976378E+03  0.45218176571E+03  0.10000000000E+00 0.  1.
         -5    1    3    3    0  501 -0.26649919508E+02  0.41792568077E+02 -0.65264984596E+03  0.65452934876E+03  0.10000000000E+00 0.  1.
         21    1    1    2  504  503 -0.21687211773E+02  0.88471310237E+01 -0.36323099277E+02  0.43220069677E+02  0.00000000000E+00 0. -1.
<mgrwt>
<rscale>  1 0.12717690E+03</rscale>
<asrwt>0</asrwt>
<pdfrwt beam="1">  1       21 0.10944991E-02 0.12717690E+03</pdfrwt>
<pdfrwt beam="2">  1       21 0.17581783E+00 0.12717690E+03</pdfrwt>
<totfact> 0.64402943E+05</totfact>
</mgrwt>
</event>
<event>
 6    1  0.4424270E-002  0.1298804E+03  0.7546771E-02  0.1227633E+00
         21   -1    0    0  503  502  0.00000000000E+00  0.00000000000E+00  0.38510161566E+03  0.38510161566E+03  0.00000000000E+00 0. -1.
         21   -1    0    0  504  503 -0.00000000000E+00 -0.00000000000E+00 -0.19171113228E+02  0.19171113228E+02  0.00000000000E+00 0. -1.
         25    2    1    2    0    0 -0.73729698189E+01  0.34486337078E+02  0.23311357301E+03  0.26685364408E+03  0.12500104522E+03 0.  0.
          5    1    3    3  501    0  0.43679179895E+02  0.72435494616E+01  0.25002959164E+02  0.50847789844E+02  0.10000000000E+00 0. -1.
         -5    1    3    3    0  501 -0.51052149714E+02  0.27242787617E+02  0.20811061385E+03  0.21600585423E+03  0.10000000000E+00 0. -1.
         21    1    1    2  504  502  0.73729698189E+01 -0.34486337078E+02  0.13281692942E+03  0.13741908481E+03  0.00000000000E+00 0. -1.
<mgrwt>
<rscale>  1 0.12988044E+03</rscale>
<asrwt>0</asrwt>
<pdfrwt beam="1">  1       21 0.59246397E-01 0.12988044E+03</pdfrwt>
<pdfrwt beam="2">  1       21 0.29494023E-02 0.12988044E+03</pdfrwt>
<totfact> 0.17287958E+06</totfact>
</mgrwt>
</event>
<event>
 6    1  0.4424270E-002  0.1277561E+03  0.7546771E-02  0.1230824E+00
         21   -1    0    0  504  502  0.00000000000E+00  0.00000000000E+00  0.69990287782E+02  0.69990287782E+02  0.00000000000E+00 0.  1.
         21   -1    0    0  502  503 -0.00000000000E+00 -0.00000000000E+00 -0.81236119448E+03  0.81236119448E+03  0.00000000000E+00 0.  1.
         25    2    1    2    0    0  0.75477630321E+01 -0.25278878139E+02 -0.80464276925E+03  0.81472179003E+03  0.12500247449E+03 0.  0.
          5    1    3    3  501    0  0.28459031803E+02 -0.66792028355E+01 -0.39876629098E+02  0.49443743688E+02  0.10000000000E+00 0.  1.
         -5    1    3    3    0  501 -0.20911268771E+02 -0.18599675303E+02 -0.76476614015E+03  0.76527804634E+03  0.10000000000E+00 0.  1.
         21    1    1    2  504  503 -0.75477630321E+01  0.25278878139E+02  0.62271862551E+02  0.67629692239E+02  0.00000000000E+00 0.  1.
<mgrwt>
<rscale>  1 0.12775605E+03</rscale>
<asrwt>0</asrwt>
<pdfrwt beam="1">  1       21 0.10767736E-01 0.12775605E+03</pdfrwt>
<pdfrwt beam="2">  1       21 0.12497865E+00 0.12775605E+03</pdfrwt>
<totfact> 0.35360242E+04</totfact>
</mgrwt>
</event>
<event>
 6    1  0.4424270E-002  0.1459757E+03  0.7546771E-02  0.1205507E+00
         21   -1    0    0  503  502  0.00000000000E+00  0.00000000000E+00  0.28579143307E+03  0.28579143307E+03  0.00000000000E+00 0. -1.
         21   -1    0    0  504  503 -0.00000000000E+00 -0.00000000000E+00 -0.15413685982E+03  0.15413685982E+03  0.00000000000E+00 0.  1.
         25    2    1    2    0    0  0.33542509766E+02 -0.67517388612E+02 -0.11256560343E+03  0.18433644556E+03  0.12500084943E+03 0.  0.
          5    1    3    3  501    0  0.39390841396E+02  0.50704098562E+01 -0.10361437614E+03  0.11096529360E+03  0.10000000000E+00 0. -1.
         -5    1    3    3    0  501 -0.58483316295E+01 -0.72587798469E+02 -0.89512272951E+01  0.73371151957E+02  0.10000000000E+00 0. -1.
         21    1    1    2  504  502 -0.33542509766E+02  0.67517388612E+02  0.24422017668E+03  0.25559184734E+03  0.00000000000E+00 0. -1.
<mgrwt>
<rscale>  1 0.14597572E+03</rscale>
<asrwt>0</asrwt>
<pdfrwt beam="1">  1       21 0.43967913E-01 0.14597572E+03</pdfrwt>
<pdfrwt beam="2">  1       21 0.23713363E-01 0.14597572E+03</pdfrwt>
<totfact> 0.84843638E+04</totfact>
</mgrwt>
</event>
<event>
 6    1  0.4424270E-002  0.1286938E+03  0.7546771E-02  0.1229407E+00
         21   -1    0    0  503  502  0.00000000000E+00  0.00000000000E+00  0.17819909772E+03  0.17819909772E+03  0.00000000000E+00 0.  1.
         21   -1    0    0  504  503 -0.00000000000E+00 -0.00000000000E+00 -0.48843181737E+02  0.48843181737E+02  0.00000000000E+00 0.  1.
         25    2    1    2    0    0 -0.27881999160E+02 -0.12330310720E+02  0.43359553353E+02  0.13580184530E+03  0.12503058778E+03 0.  0.
          5    1    3    3  501    0  0.76257473395E+01  0.11721075612E+02 -0.39827109305E+02  0.42210712759E+02  0.10000000000E+00 0. -1.
         -5    1    3    3    0  501 -0.35507746499E+02 -0.24051386332E+02  0.83186662658E+02  0.93591132540E+02  0.10000000000E+00 0. -1.
         21    1    1    2  504  502  0.27881999160E+02  0.12330310720E+02  0.85996362628E+02  0.91240434155E+02  0.00000000000E+00 0.  1.
<mgrwt>
<rscale>  1 0.12869379E+03</rscale>
<asrwt>0</asrwt>
<pdfrwt beam="1">  1       21 0.27415245E-01 0.12869379E+03</pdfrwt>
<pdfrwt beam="2">  1       21 0.75143357E-02 0.12869379E+03</pdfrwt>
<totfact> 0.16910824E+06</totfact>
</mgrwt>
</event>
<event>
 6    1  0.4424270E-002  0.1468646E+03  0.7546771E-02  0.1204380E+00
         21   -1    0    0  503  502  0.00000000000E+00  0.00000000000E+00  0.24126131599E+02  0.24126131599E+02  0.00000000000E+00 0. -1.
         21   -1    0    0  504  503 -0.00000000000E+00 -0.00000000000E+00 -0.12300358792E+04  0.12300358792E+04  0.00000000000E+00 0. -1.
         25    2    1    2    0    0  0.58518150241E+02  0.50194131481E+02 -0.11489707593E+04  0.11583190500E+04  0.12500156456E+03 0.  0.
          5    1    3    3  501    0 -0.29013960411E+02  0.29071883029E+02 -0.15748786827E+03  0.16275571552E+03  0.10000000000E+00 0.  1.
         -5    1    3    3    0  501  0.87532110652E+02  0.21122248453E+02 -0.99148289104E+03  0.99556333450E+03  0.10000000000E+00 0.  1.
         21    1    1    2  504  502 -0.58518150241E+02 -0.50194131481E+02 -0.56938988281E+02  0.95842960771E+02  0.00000000000E+00 0. -1.
<mgrwt>
<rscale>  1 0.14686462E+03</rscale>
<asrwt>0</asrwt>
<pdfrwt beam="1">  1       21 0.37117116E-02 0.14686462E+03</pdfrwt>
<pdfrwt beam="2">  1       21 0.18923634E+00 0.14686462E+03</pdfrwt>
<totfact> 0.72092827E+04</totfact>
</mgrwt>
</event>
<event>
 6    1  0.4424270E-002  0.1269341E+03  0.7546771E-02  0.1232077E+00
         21   -1    0    0  503  502  0.00000000000E+00  0.00000000000E+00  0.18350544614E+03  0.18350544614E+03  0.00000000000E+00 0. -1.
         21   -1    0    0  504  503 -0.00000000000E+00 -0.00000000000E+00 -0.32796587493E+03  0.32796587493E+03  0.00000000000E+00 0.  1.
         25    2    1    2    0    0  0.22000076996E+02 -0.19141527255E+01 -0.31494503360E+03  0.33956242704E+03  0.12499840120E+03 0.  0.
          5    1    3    3  501    0 -0.32121201809E+02 -0.16410673948E+02 -0.24126158311E+02  0.43395429943E+02  0.10000000000E+00 0.  1.
         -5    1    3    3    0  501  0.54121278805E+02  0.14496521223E+02 -0.29081887529E+03  0.29616699710E+03  0.10000000000E+00 0.  1.
         21    1    1    2  504  502 -0.22000076996E+02  0.19141527255E+01  0.17048460481E+03  0.17190889403E+03  0.00000000000E+00 0. -1.
<mgrwt>
<rscale>  1 0.12693411E+03</rscale>
<asrwt>0</asrwt>
<pdfrwt beam="1">  1       21 0.28231607E-01 0.12693411E+03</pdfrwt>
<pdfrwt beam="2">  1       21 0.50456289E-01 0.12693411E+03</pdfrwt>
<totfact> 0.46376163E+04</totfact>
</mgrwt>
</event>
<event>
 6    1  0.4424270E-002  0.1303550E+03  0.7546771E-02  0.1226930E+00
         21   -1    0    0  504  502  0.00000000000E+00  0.00000000000E+00  0.47412257576E+03  0.47412257576E+03  0.00000000000E+00 0.  1.
         21   -1    0    0  502  503 -0.00000000000E+00 -0.00000000000E+00 -0.43928874270E+02  0.43928874270E+02  0.00000000000E+00 0.  1.
         25    2    1    2    0    0 -0.81025276748E+01  0.36076547652E+02  0.55732736382E+02  0.14176939806E+03  0.12500102430E+03 0.  0.
          5    1    3    3  501    0  0.16774892871E+01  0.68085108427E+02 -0.91939884375E+01  0.68723615906E+02  0.10000000000E+00 0. -1.
         -5    1    3    3    0  501 -0.97800169619E+01 -0.32008560774E+02  0.64926724819E+02  0.73045782153E+02  0.10000000000E+00 0. -1.
         21    1    1    2  504  503  0.81025276748E+01 -0.36076547652E+02  0.37446096511E+03  0.37628205197E+03  0.00000000000E+00 0.  1.
<mgrwt>
<rscale>  1 0.13035499E+03</rscale>
<asrwt>0</asrwt>
<pdfrwt beam="1">  1       21 0.72941931E-01 0.13035499E+03</pdfrwt>
<pdfrwt beam="2">  1       21 0.67582887E-02 0.13035499E+03</pdfrwt>
<totfact> 0.27606171E+05</totfact>
</mgrwt>
</event>
<event>
 6    1  0.4424270E-002  0.1272663E+03  0.7546771E-02  0.1231569E+00
         21   -1    0    0  503  502  0.00000000000E+00  0.00000000000E+00  0.12110410947E+03  0.12110410947E+03  0.00000000000E+00 0.  1.
         21   -1    0    0  504  503 -0.00000000000E+00 -0.00000000000E+00 -0.54910116448E+02  0.54910116448E+02  0.00000000000E+00 0.  1.
         25    2    1    2    0    0  0.92214660406E+01  0.22036883232E+02  0.78103756331E+02  0.14932149057E+03  0.12500420446E+03 0.  0.
          5    1    3    3  501    0 -0.55852244561E+02 -0.37229761253E+01  0.24204708892E+02  0.60985340093E+02  0.10000000000E+00 0. -1.
         -5    1    3    3    0  501  0.65073710601E+02  0.25759859357E+02  0.53899047438E+02  0.88336150472E+02  0.10000000000E+00 0. -1.
         21    1    1    2  504  502 -0.92214660406E+01 -0.22036883232E+02 -0.11909763309E+02  0.26692735352E+02  0.00000000000E+00 0.  1.
<mgrwt>
<rscale>  1 0.12726630E+03</rscale>
<asrwt>0</asrwt>
<pdfrwt beam="1">  1       21 0.18631401E-01 0.12726630E+03</pdfrwt>
<pdfrwt beam="2">  1       21 0.84477102E-02 0.12726630E+03</pdfrwt>
<totfact> 0.28459831E+06</totfact>
</mgrwt>
</event>
<event>
 6    1  0.4424270E-002  0.1267631E+03  0.7546771E-02  0.1232339E+00
         21   -1    0    0  504  502  0.00000000000E+00  0.00000000000E+00  0.84383242983E+03  0.84383242983E+03  0.00000000000E+00 0. -1.
         21   -1    0    0  502  503 -0.00000000000E+00 -0.00000000000E+00 -0.66476166094E+01  0.66476166094E+01  0.00000000000E+00 0. -1.
         25    2    1    2    0    0  0.19278274079E+02  0.84181158642E+01  0.75909568546E+03  0.76960713132E+03  0.12500544133E+03 0.  0.
          5    1    3    3  501    0  0.14561080526E+02 -0.39369618422E+02  0.96012346274E+02  0.10478727288E+03  0.10000000000E+00 0.  1.
         -5    1    3    3    0  501  0.47171935533E+01  0.47787734286E+02  0.66308333919E+03  0.66481985844E+03  0.10000000000E+00 0.  1.
         21    1    1    2  504  503 -0.19278274079E+02 -0.84181158642E+01  0.78089127755E+02  0.80872915119E+02  0.00000000000E+00 0. -1.
<mgrwt>
<rscale>  1 0.12676307E+03</rscale>
<asrwt>0</asrwt>
<pdfrwt beam="1">  1       21 0.12982029E+00 0.12676307E+03</pdfrwt>
<pdfrwt beam="2">  1       21 0.10227109E-02 0.12676307E+03</pdfrwt>
<totfact> 0.15777729E+06</totfact>
</mgrwt>
</event>
<event>
 6    1  0.4424270E-002  0.1270938E+03  0.7546771E-02  0.1231833E+00
         21   -1    0    0  504  502  0.00000000000E+00  0.00000000000E+00  0.62857836517E+02  0.62857836517E+02  0.00000000000E+00 0.  1.
         21   -1    0    0  502  503 -0.00000000000E+00 -0.00000000000E+00 -0.18465990106E+03  0.18465990106E+03  0.00000000000E+00 0.  1.
         25    2    1    2    0    0 -0.22327099009E+02 -0.52373323301E+01 -0.15916261470E+03  0.20368008587E+03  0.12500764161E+03 0.  0.
          5    1    3    3  501    0 -0.47390039596E+02  0.15324485037E+02 -0.96999162893E+01  0.50742034553E+02  0.10000000000E+00 0.  1.
         -5    1    3    3    0  501  0.25062940587E+02 -0.20561817367E+02 -0.14946269841E+03  0.15293805131E+03  0.10000000000E+00 0.  1.
         21    1    1    2  504  503  0.22327099009E+02  0.52373323301E+01  0.37360550151E+02  0.43837651712E+02  0.00000000000E+00 0.  1.
<mgrwt>
<rscale>  1 0.12709382E+03</rscale>
<asrwt>0</asrwt>
<pdfrwt beam="1">  1       21 0.96704364E-02 0.12709382E+03</pdfrwt>
<pdfrwt beam="2">  1       21 0.28409215E-01 0.12709382E+03</pdfrwt>
<totfact> 0.10206371E+06</totfact>
</mgrwt>
</event>
<event>
 6    1  0.4424270E-002  0.1300480E+03  0.7546771E-02  0.1227385E+00
         21   -1    0    0  504  502  0.00000000000E+00  0.00000000000E+00  0.37213627556E+03  0.37213627556E+03  0.00000000000E+00 0. -1.
         21   -1    0    0  502  503 -0.00000000000E+00 -0.00000000000E+00 -0.32515342655E+02  0.32515342655E+02  0.00000000000E+00 0.  1.
         25    2    1    2    0    0  0.35495086580E+02  0.58642765689E+01  0.10460287034E+03  0.16689590189E+03  0.12497275973E+03 0.  0.
          5    1    3    3  501    0 -0.15942535367E+02 -0.41146342448E+02  0.82896343765E+02  0.93909529550E+02  0.10000000000E+00 0.  1.
         -5    1    3    3    0  501  0.51437621947E+02  0.47010619017E+02  0.21706526575E+02  0.72986372344E+02  0.10000000000E+00 0.  1.
         21    1    1    2  504  503 -0.35495086580E+02 -0.58642765689E+01  0.23501806257E+03  0.23775571633E+03  0.00000000000E+00 0. -1.
<mgrwt>
<rscale>  1 0.13004800E+03</rscale>
<asrwt>0</asrwt>
<pdfrwt beam="1">  1       21 0.57251732E-01 0.13004800E+03</pdfrwt>
<pdfrwt beam="2">  1       21 0.50023607E-02 0.13004800E+03</pdfrwt>
<totfact> 0.77374153E+05</totfact>
</mgrwt>
</event>
<event>
 6    1  0.4424270E-002  0.1274885E+03  0.7546771E-02  0.1231231E+00
         21   -1    0    0  503  502  0.00000000000E+00  0.00000000000E+00  0.53246572399E+03  0.53246572399E+03  0.00000000000E+00 0.  1.
         21   -1    0    0  504  503 -0.00000000000E+00 -0.00000000000E+00 -0.33489526214E+02  0.33489526214E+02  0.00000000000E+00 0.  1.
         25    2    1    2    0    0  0.11500381384E+02  0.22271429312E+02  0.89630160556E+02  0.15584251750E+03  0.12500019698E+03 0.  0.
          5    1    3    3  501    0  0.18007146281E+02 -0.50844999699E+02  0.41632423772E+02  0.68137654940E+02  0.10000000000E+00 0.  1.
         -5    1    3    3    0  501 -0.65067648969E+01  0.73116429011E+02  0.47997736784E+02  0.87704862563E+02  0.10000000000E+00 0.  1.
         21    1    1    2  504  502 -0.11500381384E+02 -0.22271429312E+02  0.40934603723E+03  0.41011273271E+03  0.00000000000E+00 0.  1.
<mgrwt>
<rscale>  1 0.12748853E+03</rscale>
<asrwt>0</asrwt>
<pdfrwt beam="1">  1       21 0.81917798E-01 0.12748853E+03</pdfrwt>
<pdfrwt beam="2">  1       21 0.51522352E-02 0.12748853E+03</pdfrwt>
<totfact> 0.33808862E+05</totfact>
</mgrwt>
</event>
<event>
 6    1  0.4424270E-002  0.1259050E+03  0.7546771E-02  0.1233662E+00
         21   -1    0    0  503  502  0.00000000000E+00  0.00000000000E+00  0.19257068279E+03  0.19257068279E+03  0.00000000000E+00 0. -1.
         21   -1    0    0  504  503 -0.00000000000E+00 -0.00000000000E+00 -0.29083506552E+02  0.29083506552E+02  0.00000000000E+00 0. -1.
         25    2    1    2    0    0  0.13731794847E+02  0.60658440609E+01  0.11367554259E+03  0.16962962303E+03  0.12500689329E+03 0.  0.
          5    1    3    3  501    0 -0.30041736408E+02  0.51444695419E+02  0.74536439030E+02  0.95418831247E+02  0.10000000000E+00 0.  1.
         -5    1    3    3    0  501  0.43773531255E+02 -0.45378851358E+02  0.39139103564E+02  0.74210791782E+02  0.10000000000E+00 0.  1.
         21    1    1    2  504  502 -0.13731794847E+02 -0.60658440609E+01  0.49811633642E+02  0.52024566312E+02  0.00000000000E+00 0. -1.
<mgrwt>
<rscale>  1 0.12590504E+03</rscale>
<asrwt>0</asrwt>
<pdfrwt beam="1">  1       21 0.29626258E-01 0.12590504E+03</pdfrwt>
<pdfrwt beam="2">  1       21 0.44743857E-02 0.12590504E+03</pdfrwt>
<totfact> 0.35023924E+06</totfact>
</mgrwt>
</event>
<event>
 6    1  0.4424270E-002  0.1279239E+03  0.7546771E-02  0.1230569E+00
         21   -1    0    0  503  502  0.00000000000E+00  0.00000000000E+00  0.39448609605E+02  0.39448609605E+02  0.00000000000E+00 0.  1.
         21   -1    0    0  504  503 -0.00000000000E+00 -0.00000000000E+00 -0.34072360938E+03  0.34072360938E+03  0.00000000000E+00 0.  1.
         25    2    1    2    0    0 -0.26894769948E+02  0.39717763995E+01 -0.32167819784E+03  0.34618112972E+03  0.12500163178E+03 0.  0.
          5    1    3    3  501    0  0.48307654467E+02  0.17457569149E+02 -0.13778804835E+03  0.14705084994E+03  0.10000000000E+00 0. -1.
         -5    1    3    3    0  501 -0.75202424414E+02 -0.13485792749E+02 -0.18389014949E+03  0.19913027978E+03  0.10000000000E+00 0. -1.
         21    1    1    2  504  502  0.26894769948E+02 -0.39717763995E+01  0.20403198065E+02  0.33991089267E+02  0.00000000000E+00 0.  1.
<mgrwt>
<rscale>  1 0.12792385E+03</rscale>
<asrwt>0</asrwt>
<pdfrwt beam="1">  1       21 0.60690172E-02 0.12792385E+03</pdfrwt>
<pdfrwt beam="2">  1       21 0.52419014E-01 0.12792385E+03</pdfrwt>
<totfact> 0.67148516E+05</totfact>
</mgrwt>
</event>
<event>
 6    1  0.4424270E-002  0.1325750E+03  0.7546771E-02  0.1223684E+00
         21   -1    0    0  504  502  0.00000000000E+00  0.00000000000E+00  0.18764627283E+04  0.18764627283E+04  0.00000000000E+00 0. -1.
         21   -1    0    0  502  503 -0.00000000000E+00 -0.00000000000E+00 -0.10782991072E+02  0.10782991072E+02  0.00000000000E+00 0.  1.
         25    2    1    2    0    0 -0.19804552526E+02 -0.39476106697E+02  0.41011232211E+03  0.43100841617E+03  0.12500221901E+03 0.  0.
          5    1    3    3  501    0 -0.44823287523E+01  0.20877020807E+02  0.32420681052E+03  0.32490922925E+03  0.10000000000E+00 0. -1.
         -5    1    3    3    0  501 -0.15322223773E+02 -0.60353127504E+02  0.85905511598E+02  0.10609918691E+03  0.10000000000E+00 0. -1.
         21    1    1    2  504  503  0.19804552526E+02  0.39476106697E+02  0.14555674151E+04  0.14562373032E+04  0.00000000000E+00 0. -1.
<mgrwt>
<rscale>  1 0.13257503E+03</rscale>
<asrwt>0</asrwt>
<pdfrwt beam="1">  1       21 0.28868631E+00 0.13257503E+03</pdfrwt>
<pdfrwt beam="2">  1       21 0.16589232E-02 0.13257503E+03</pdfrwt>
<totfact> 0.69923133E+04</totfact>
</mgrwt>
</event>
<event>
 6    1  0.4424270E-002  0.1470323E+03  0.7546771E-02  0.1204168E+00
         21   -1    0    0  504  502  0.00000000000E+00  0.00000000000E+00  0.73140173626E+03  0.73140173626E+03  0.00000000000E+00 0.  1.
         21   -1    0    0  502  503 -0.00000000000E+00 -0.00000000000E+00 -0.14310177760E+03  0.14310177760E+03  0.00000000000E+00 0.  1.
         25    2    1    2    0    0  0.72383138787E+02  0.27492137566E+02 -0.10259201025E+03  0.17928639014E+03  0.12499341068E+03 0.  0.
          5    1    3    3  501    0  0.10775171805E+03  0.28500496889E+02 -0.73883587620E+02  0.13372174686E+03  0.10000000000E+00 0.  1.
         -5    1    3    3    0  501 -0.35368579258E+02 -0.10083593228E+01 -0.28708422626E+02  0.45564643277E+02  0.10000000000E+00 0.  1.
         21    1    1    2  504  503 -0.72383138787E+02 -0.27492137566E+02  0.69089196891E+03  0.69521712371E+03  0.00000000000E+00 0.  1.
<mgrwt>
<rscale>  1 0.14703227E+03</rscale>
<asrwt>0</asrwt>
<pdfrwt beam="1">  1       21 0.11252334E+00 0.14703227E+03</pdfrwt>
<pdfrwt beam="2">  1       21 0.22015659E-01 0.14703227E+03</pdfrwt>
<totfact> 0.12324684E+04</totfact>
</mgrwt>
</event>
<event>
 6    1  0.4424270E-002  0.1332663E+03  0.7546771E-02  0.1222688E+00
         21   -1    0    0  504  502  0.00000000000E+00  0.00000000000E+00  0.70384674437E+02  0.70384674437E+02  0.00000000000E+00 0. -1.
         21   -1    0    0  502  503 -0.00000000000E+00 -0.00000000000E+00 -0.15390745947E+03  0.15390745947E+03  0.00000000000E+00 0. -1.
         25    2    1    2    0    0  0.56713004325E+01  0.45867030183E+02 -0.10841775623E+03  0.17179729894E+03  0.12499581574E+03 0.  0.
          5    1    3    3  501    0  0.26155807926E+02  0.11616333298E+02 -0.12525413077E+03  0.12848218851E+03  0.10000000000E+00 0.  1.
         -5    1    3    3    0  501 -0.20484507493E+02  0.34250696885E+02  0.16836374547E+02  0.43315110437E+02  0.10000000000E+00 0.  1.
         21    1    1    2  504  503 -0.56713004325E+01 -0.45867030183E+02  0.24894971198E+02  0.52494834959E+02  0.00000000000E+00 0. -1.
<mgrwt>
<rscale>  1 0.13326628E+03</rscale>
<asrwt>0</asrwt>
<pdfrwt beam="1">  1       21 0.10828411E-01 0.13326628E+03</pdfrwt>
<pdfrwt beam="2">  1       21 0.23678071E-01 0.13326628E+03</pdfrwt>
<totfact> 0.11835507E+06</totfact>
</mgrwt>
</event>
<event>
 6    1  0.4424270E-002  0.1645480E+03  0.7546771E-02  0.1183656E+00
         21   -1    0    0  503  502  0.00000000000E+00  0.00000000000E+00  0.63227134022E+02  0.63227134022E+02  0.00000000000E+00 0.  1.
         21   -1    0    0  504  503 -0.00000000000E+00 -0.00000000000E+00 -0.41070796412E+03  0.41070796412E+03  0.00000000000E+00 0.  1.
         25    2    1    2    0    0  0.42565724199E+02 -0.98180246598E+02 -0.32544632647E+03  0.36467979599E+03  0.12499936196E+03 0.  0.
          5    1    3    3  501    0 -0.37265728558E+02 -0.47434402388E+01 -0.11495888528E+03  0.12094126696E+03  0.10000000000E+00 0. -1.
         -5    1    3    3    0  501  0.79831452756E+02 -0.93436806360E+02 -0.21048744119E+03  0.24373852902E+03  0.10000000000E+00 0. -1.
         21    1    1    2  504  502 -0.42565724199E+02  0.98180246598E+02 -0.22034503629E+02  0.10925530215E+03  0.00000000000E+00 0.  1.
<mgrwt>
<rscale>  1 0.16454799E+03</rscale>
<asrwt>0</asrwt>
<pdfrwt beam="1">  1       21 0.97272518E-02 0.16454799E+03</pdfrwt>
<pdfrwt beam="2">  1       21 0.63185838E-01 0.16454799E+03</pdfrwt>
<totfact> 0.19917401E+05</totfact>
</mgrwt>
</event>
<event>
 6    1  0.4424270E-002  0.1259720E+03  0.7546771E-02  0.1233558E+00
         21   -1    0    0  503  502  0.00000000000E+00  0.00000000000E+00  0.21986312291E+02  0.21986312291E+02  0.00000000000E+00 0.  1.
         21   -1    0    0  504  503 -0.00000000000E+00 -0.00000000000E+00 -0.23030016688E+03  0.23030016688E+03  0.00000000000E+00 0.  1.
         25    2    1    2    0    0  0.15576300533E+02  0.77926447251E+00 -0.19266737242E+03  0.23019483379E+03  0.12500286683E+03 0.  0.
          5    1    3    3  501    0 -0.83808395717E+01 -0.52691689339E+02 -0.40040361177E+02  0.66707519221E+02  0.10000000000E+00 0.  1.
         -5    1    3    3    0  501  0.23957140104E+02  0.53470953812E+02 -0.15262701125E+03  0.16348731457E+03  0.10000000000E+00 0.  1.
         21    1    1    2  504  502 -0.15576300533E+02 -0.77926447251E+00 -0.15646482162E+02  0.22091645377E+02  0.00000000000E+00 0.  1.
<mgrwt>
<rscale>  1 0.12597200E+03</rscale>
<asrwt>0</asrwt>
<pdfrwt beam="1">  1       21 0.33825096E-02 0.12597200E+03</pdfrwt>
<pdfrwt beam="2">  1       21 0.35430795E-01 0.12597200E+03</pdfrwt>
<totfact> 0.39326900E+06</totfact>
</mgrwt>
</event>
<event>
 6    1  0.4424270E-002  0.1319329E+03  0.7546771E-02  0.1224616E+00
         21   -1    0    0  503  502  0.00000000000E+00  0.00000000000E+00  0.40180766108E+03  0.40180766108E+03  0.00000000000E+00 0.  1.
         21   -1    0    0  504  503 -0.00000000000E+00 -0.00000000000E+00 -0.31048548425E+02  0.31048548425E+02  0.00000000000E+00 0.  1.
         25    2    1    2    0    0 -0.14800958227E+02  0.39510552511E+02  0.11927119841E+03  0.17785361513E+03  0.12500455000E+03 0.  0.
          5    1    3    3  501    0  0.37705514252E+02  0.63457026132E+02  0.59943969643E+02  0.95088324557E+02  0.10000000000E+00 0. -1.
         -5    1    3    3    0  501 -0.52506472479E+02 -0.23946473620E+02  0.59327228763E+02  0.82765290574E+02  0.10000000000E+00 0. -1.
         21    1    1    2  504  502  0.14800958227E+02 -0.39510552511E+02  0.25148791425E+03  0.25500259438E+03  0.00000000000E+00 0.  1.
<mgrwt>
<rscale>  1 0.13193290E+03</rscale>
<asrwt>0</asrwt>
<pdfrwt beam="1">  1       21 0.61816559E-01 0.13193290E+03</pdfrwt>
<pdfrwt beam="2">  1       21 0.47767001E-02 0.13193290E+03</pdfrwt>
<totfact> 0.71045038E+05</totfact>
</mgrwt>
</event>
<event>
 6    1  0.4424270E-002  0.1263233E+03  0.7546771E-02  0.1233016E+00
         21   -1    0    0  504  502  0.00000000000E+00  0.00000000000E+00  0.63466735602E+02  0.63466735602E+02  0.00000000000E+00 0. -1.
         21   -1    0    0  502  503 -0.00000000000E+00 -0.00000000000E+00 -0.15604436844E+03  0.15604436844E+03  0.00000000000E+00 0. -1.
         25    2    1    2    0    0  0.11083126299E+02  0.14567172737E+02 -0.12787583581E+03  0.17974929644E+03  0.12499016752E+03 0.  0.
          5    1    3    3  501    0 -0.39570564200E+02 -0.13110920326E+01  0.17953842736E+01  0.39633091200E+02  0.10000000000E+00 0.  1.
         -5    1    3    3    0  501  0.50653690499E+02  0.15878264770E+02 -0.12967122009E+03  0.14011620524E+03  0.10000000000E+00 0.  1.
         21    1    1    2  504  503 -0.11083126299E+02 -0.14567172737E+02  0.35298202976E+02  0.39761807598E+02  0.00000000000E+00 0. -1.
<mgrwt>
<rscale>  1 0.12632332E+03</rscale>
<asrwt>0</asrwt>
<pdfrwt beam="1">  1       21 0.97641133E-02 0.12632332E+03</pdfrwt>
<pdfrwt beam="2">  1       21 0.24006826E-01 0.12632332E+03</pdfrwt>
<totfact> 0.13813751E+06</totfact>
</mgrwt>
</event>
<event>
 6    1  0.4424270E-002  0.1314745E+03  0.7546771E-02  0.1225284E+00
         21   -1    0    0  504  502  0.00000000000E+00  0.00000000000E+00  0.69546162575E+02  0.69546162575E+02  0.00000000000E+00 0.  1.
         21   -1    0    0  502  503 -0.00000000000E+00 -0.00000000000E+00 -0.11553615377E+03  0.11553615377E+03  0.00000000000E+00 0.  1.
         25    2    1    2    0    0  0.37376519295E+02 -0.16244040597E+02 -0.56335632209E+02  0.14303584993E+03  0.12499871143E+03 0.  0.
          5    1    3    3  501    0 -0.14784693856E+02  0.44161669347E+02 -0.22490011975E+01  0.46625188668E+02  0.10000000000E+00 0. -1.
         -5    1    3    3    0  501  0.52161213151E+02 -0.60405709944E+02 -0.54086631012E+02  0.96410661265E+02  0.10000000000E+00 0. -1.
         21    1    1    2  504  503 -0.37376519295E+02  0.16244040597E+02  0.10345641016E+02  0.42046466410E+02  0.00000000000E+00 0.  1.
<mgrwt>
<rscale>  1 0.13147453E+03</rscale>
<asrwt>0</asrwt>
<pdfrwt beam="1">  1       21 0.10699410E-01 0.13147453E+03</pdfrwt>
<pdfrwt beam="2">  1       21 0.17774793E-01 0.13147453E+03</pdfrwt>
<totfact> 0.20569593E+06</totfact>
</mgrwt>
</event>
<event>
 6    1  0.4424270E-002  0.1291351E+03  0.7546771E-02  0.1228745E+00
         21   -1    0    0  503  502  0.00000000000E+00  0.00000000000E+00  0.42855269053E+03  0.42855269053E+03  0.00000000000E+00 0.  1.
         21   -1    0    0  504  503 -0.00000000000E+00 -0.00000000000E+00 -0.29054161765E+02  0.29054161765E+02  0.00000000000E+00 0.  1.
         25    2    1    2    0    0 -0.26154650790E+02  0.19079334441E+02  0.12014053467E+03  0.17637922985E+03  0.12501119106E+03 0.  0.
          5    1    3    3  501    0 -0.12423185025E+02 -0.79295510651E+01 -0.24504218291E+02  0.28595104832E+02  0.10000000000E+00 0. -1.
         -5    1    3    3    0  501 -0.13731465765E+02  0.27008885506E+02  0.14464475296E+03  0.14778412502E+03  0.10000000000E+00 0. -1.
         21    1    1    2  504  502  0.26154650790E+02 -0.19079334441E+02  0.27935799410E+03  0.28122762245E+03  0.00000000000E+00 0.  1.
<mgrwt>
<rscale>  1 0.12913514E+03</rscale>
<asrwt>0</asrwt>
<pdfrwt beam="1">  1       21 0.65931179E-01 0.12913514E+03</pdfrwt>
<pdfrwt beam="2">  1       21 0.44698713E-02 0.12913514E+03</pdfrwt>
<totfact> 0.69142529E+05</totfact>
</mgrwt>
</event>
<event>
 6    1  0.4424270E-002  0.1266812E+03  0.7546771E-02  0.1232465E+00
         21   -1    0    0  503  502  0.00000000000E+00  0.00000000000E+00  0.48595413918E+03  0.48595413918E+03  0.00000000000E+00 0.  1.
         21   -1    0    0  504  503 -0.00000000000E+00 -0.00000000000E+00 -0.13055144349E+02  0.13055144349E+02  0.00000000000E+00 0.  1.
         25    2    1    2    0    0  0.34702678890E+01 -0.20262221816E+02  0.31101165916E+03  0.33582193768E+03  0.12500208521E+03 0.  0.
          5    1    3    3  501    0  0.37170786450E+01  0.28915481326E+02  0.27061023068E+03  0.27217609866E+03  0.10000000000E+00 0. -1.
         -5    1    3    3    0  501 -0.24681075602E+00 -0.49177703142E+02  0.40401428477E+02  0.63645839022E+02  0.10000000000E+00 0. -1.
         21    1    1    2  504  502 -0.34702678890E+01  0.20262221816E+02  0.16188733567E+03  0.16318734584E+03  0.00000000000E+00 0.  1.
<mgrwt>
<rscale>  1 0.12668118E+03</rscale>
<asrwt>0</asrwt>
<pdfrwt beam="1">  1       21 0.74762162E-01 0.12668118E+03</pdfrwt>
<pdfrwt beam="2">  1       21 0.20084841E-02 0.12668118E+03</pdfrwt>
<totfact> 0.19520265E+06</totfact>
</mgrwt>
</event>
<event>
 6    1  0.4424270E-002  0.1345826E+03  0.7546771E-02  0.1220810E+00
         21   -1    0    0  503  502  0.00000000000E+00  0.00000000000E+00  0.91997503251E+02  0.91997503251E+02  0.00000000000E+00 0. -1.
         21   -1    0    0  504  503 -0.00000000000E+00 -0.00000000000E+00 -0.79166026589E+03  0.79166026589E+03  0.00000000000E+00 0.  1.
         25    2    1    2    0    0  0.49227077710E+02 -0.80519780662E+01 -0.77867380757E+03  0.79021856564E+03  0.12499737338E+03 0.  0.
          5    1    3    3  501    0  0.77650693172E+01  0.18391121412E+02 -0.15019504053E+02  0.24982496879E+02  0.10000000000E+00 0.  1.
         -5    1    3    3    0  501  0.41462008392E+02 -0.26443099478E+02 -0.76365430352E+03  0.76523606876E+03  0.10000000000E+00 0.  1.
         21    1    1    2  504  502 -0.49227077710E+02  0.80519780662E+01  0.79011044930E+02  0.93439203504E+02  0.00000000000E+00 0. -1.
<mgrwt>
<rscale>  1 0.13458262E+03</rscale>
<asrwt>0</asrwt>
<pdfrwt beam="1">  1       21 0.14153462E-01 0.13458262E+03</pdfrwt>
<pdfrwt beam="2">  1       21 0.12179389E+00 0.13458262E+03</pdfrwt>
<totfact> 0.23068894E+04</totfact>
</mgrwt>
</event>
<event>
 6    1  0.4424270E-002  0.1372707E+03  0.7546771E-02  0.1217049E+00
         21   -1    0    0  503  502  0.00000000000E+00  0.00000000000E+00  0.19548416182E+03  0.19548416182E+03  0.00000000000E+00 0. -1.
         21   -1    0    0  504  503 -0.00000000000E+00 -0.00000000000E+00 -0.53777492024E+02  0.53777492024E+02  0.00000000000E+00 0. -1.
         25    2    1    2    0    0  0.36105410868E+02  0.43756788621E+02  0.13431671954E+03  0.19205266321E+03  0.12499994822E+03 0.  0.
          5    1    3    3  501    0 -0.13429839361E+02  0.17059365603E+02  0.13403315022E+03  0.13578025592E+03  0.10000000000E+00 0.  1.
         -5    1    3    3    0  501  0.49535250229E+02  0.26697423018E+02  0.28356931992E+00  0.56272407293E+02  0.10000000000E+00 0.  1.
         21    1    1    2  504  502 -0.36105410868E+02 -0.43756788621E+02  0.73899502596E+01  0.57208990633E+02  0.00000000000E+00 0. -1.
<mgrwt>
<rscale>  1 0.13727070E+03</rscale>
<asrwt>0</asrwt>
<pdfrwt beam="1">  1       21 0.30074486E-01 0.13727070E+03</pdfrwt>
<pdfrwt beam="2">  1       21 0.82734604E-02 0.13727070E+03</pdfrwt>
<totfact> 0.12004073E+06</totfact>
</mgrwt>
</event>
<event>
 6    1  0.4424270E-002  0.1649347E+03  0.7546771E-02  0.1183235E+00
         21   -1    0    0  503  502  0.00000000000E+00  0.00000000000E+00  0.13392292708E+04  0.13392292708E+04  0.00000000000E+00 0. -1.
         21   -1    0    0  504  503 -0.00000000000E+00 -0.00000000000E+00 -0.17829740771E+03  0.17829740771E+03  0.00000000000E+00 0. -1.
         25    2    1    2    0    0  0.88830399976E+02 -0.60724557903E+02 -0.13744632136E+03  0.21469736438E+03  0.12500062048E+03 0.  0.
          5    1    3    3  501    0  0.33576487154E+02 -0.70491422090E+02 -0.13803034097E+03  0.15858375108E+03  0.10000000000E+00 0.  1.
         -5    1    3    3    0  501  0.55253912823E+02  0.97668641870E+01  0.58401960795E+00  0.56113613296E+02  0.10000000000E+00 0.  1.
         21    1    1    2  504  502 -0.88830399976E+02  0.60724557903E+02  0.12983781845E+04  0.13028293141E+04  0.00000000000E+00 0. -1.
<mgrwt>
<rscale>  1 0.16493474E+03</rscale>
<asrwt>0</asrwt>
<pdfrwt beam="1">  1       21 0.20603527E+00 0.16493474E+03</pdfrwt>
<pdfrwt beam="2">  1       21 0.27430371E-01 0.16493474E+03</pdfrwt>
<totfact> 0.16086460E+03</totfact>
</mgrwt>
</event>
<event>
 6    1  0.4424270E-002  0.1265919E+03  0.7546771E-02  0.1232602E+00
         21   -1    0    0  504  502  0.00000000000E+00  0.00000000000E+00  0.51307399276E+01  0.51307399276E+01  0.00000000000E+00 0.  1.
         21   -1    0    0  502  503 -0.00000000000E+00 -0.00000000000E+00 -0.12844663557E+04  0.12844663557E+04  0.00000000000E+00 0.  1.
         25    2    1    2    0    0  0.19904533942E+02  0.39270735649E+01 -0.81085398173E+03  0.82067636265E+03  0.12495559272E+03 0.  0.
          5    1    3    3  501    0 -0.21283938805E+01 -0.30114038230E+02 -0.72604113371E+03  0.72666850984E+03  0.10000000000E+00 0. -1.
         -5    1    3    3    0  501  0.22032927822E+02  0.34041111795E+02 -0.84812848023E+02  0.94007852813E+02  0.10000000000E+00 0. -1.
         21    1    1    2  504  503 -0.19904533942E+02 -0.39270735649E+01 -0.46848163409E+03  0.46892073302E+03  0.00000000000E+00 0. -1.
<mgrwt>
<rscale>  1 0.12659191E+03</rscale>
<asrwt>0</asrwt>
<pdfrwt beam="1">  1       21 0.78934382E-03 0.12659191E+03</pdfrwt>
<pdfrwt beam="2">  1       21 0.19761041E+00 0.12659191E+03</pdfrwt>
<totfact> 0.77580943E+05</totfact>
</mgrwt>
</event>
<event>
 6    1  0.4424270E-002  0.1291477E+03  0.7546771E-02  0.1228726E+00
         21   -1    0    0  503  502  0.00000000000E+00  0.00000000000E+00  0.14669222724E+03  0.14669222724E+03  0.00000000000E+00 0.  1.
         21   -1    0    0  504  503 -0.00000000000E+00 -0.00000000000E+00 -0.11377352622E+04  0.11377352622E+04  0.00000000000E+00 0. -1.
         25    2    1    2    0    0  0.12495416095E+02 -0.29957981050E+02 -0.11322226239E+04  0.11395644768E+04  0.12500204297E+03 0.  0.
          5    1    3    3  501    0  0.13599529758E+02 -0.76226453868E+02 -0.85563911968E+03  0.85913545649E+03  0.10000000000E+00 0. -1.
         -5    1    3    3    0  501 -0.11041136634E+01  0.46268472818E+02 -0.27658350424E+03  0.28042902036E+03  0.10000000000E+00 0. -1.
         21    1    1    2  504  502 -0.12495416095E+02  0.29957981050E+02  0.14117958900E+03  0.14486301254E+03  0.00000000000E+00 0.  1.
<mgrwt>
<rscale>  1 0.12914769E+03</rscale>
<asrwt>0</asrwt>
<pdfrwt beam="1">  1       21 0.22568035E-01 0.12914769E+03</pdfrwt>
<pdfrwt beam="2">  1       21 0.17503620E+00 0.12914769E+03</pdfrwt>
<totfact> 0.38712115E+03</totfact>
</mgrwt>
</event>
<event>
 6    1  0.4424270E-002  0.1305228E+03  0.7546771E-02  0.1226682E+00
         21   -1    0    0  503  502  0.00000000000E+00  0.00000000000E+00  0.59877597438E+02  0.59877597438E+02  0.00000000000E+00 0. -1.
         21   -1    0    0  504  503 -0.00000000000E+00 -0.00000000000E+00 -0.12415360004E+03  0.12415360004E+03  0.00000000000E+00 0. -1.
         25    2    1    2    0    0  0.35054422206E+02 -0.13494234810E+02 -0.66336168610E+02  0.14641270238E+03  0.12500114105E+03 0.  0.
          5    1    3    3  501    0  0.54388558536E+02 -0.52854199811E+02 -0.68929203558E+02  0.10248378818E+03  0.10000000000E+00 0. -1.
         -5    1    3    3    0  501 -0.19334136329E+02  0.39359965001E+02  0.25930349482E+01  0.43928914199E+02  0.10000000000E+00 0. -1.
         21    1    1    2  504  502 -0.35054422206E+02  0.13494234810E+02  0.20601660066E+01  0.37618495096E+02  0.00000000000E+00 0. -1.
<mgrwt>
<rscale>  1 0.13052276E+03</rscale>
<asrwt>0</asrwt>
<pdfrwt beam="1">  1       21 0.92119382E-02 0.13052276E+03</pdfrwt>
<pdfrwt beam="2">  1       21 0.19100554E-01 0.13052276E+03</pdfrwt>
<totfact> 0.23415943E+06</totfact>
</mgrwt>
</event>
<event>
 6    1  0.4424270E-002  0.1265971E+03  0.7546771E-02  0.1232594E+00
         21   -1    0    0  504  502  0.00000000000E+00  0.00000000000E+00  0.18022392161E+03  0.18022392161E+03  0.00000000000E+00 0.  1.
         21   -1    0    0  502  503 -0.00000000000E+00 -0.00000000000E+00 -0.31806809617E+02  0.31806809617E+02  0.00000000000E+00 0.  1.
         25    2    1    2    0    0 -0.16805350297E+02 -0.10936669690E+02  0.10600462570E+03  0.16511751842E+03  0.12499913470E+03 0.  0.
          5    1    3    3  501    0  0.21337947191E+02  0.50081774500E+02  0.41089915532E+02  0.68204716009E+02  0.10000000000E+00 0.  1.
         -5    1    3    3    0  501 -0.38143297489E+02 -0.61018444190E+02  0.64914710172E+02  0.96912802412E+02  0.10000000000E+00 0.  1.
         21    1    1    2  504  503  0.16805350297E+02  0.10936669690E+02  0.42412486288E+02  0.46913212805E+02  0.00000000000E+00 0.  1.
<mgrwt>
<rscale>  1 0.12659705E+03</rscale>
<asrwt>0</asrwt>
<pdfrwt beam="1">  1       21 0.27726757E-01 0.12659705E+03</pdfrwt>
<pdfrwt beam="2">  1       21 0.48933554E-02 0.12659705E+03</pdfrwt>
<totfact> 0.34246235E+06</totfact>
</mgrwt>
</event>
<event>
 6    1  0.4424270E-002  0.1289141E+03  0.7546771E-02  0.1229076E+00
         21   -1    0    0  504  502  0.00000000000E+00  0.00000000000E+00  0.12425959902E+02  0.12425959902E+02  0.00000000000E+00 0. -1.
         21   -1    0    0  502  503 -0.00000000000E+00 -0.00000000000E+00 -0.12566696822E+04  0.12566696822E+04  0.00000000000E+00 0.  1.
         25    2    1    2    0    0  0.30845234133E+02 -0.58699824724E+01 -0.12260455494E+04  0.12328043393E+04  0.12503185425E+03 0.  0.
          5    1    3    3  501    0 -0.28591955192E+02  0.42874362989E+02 -0.54682241399E+03  0.54924536716E+03  0.10000000000E+00 0. -1.
         -5    1    3    3    0  501  0.59437189325E+02 -0.48744345462E+02 -0.67922313542E+03  0.68355897213E+03  0.10000000000E+00 0. -1.
         21    1    1    2  504  503 -0.30845234133E+02  0.58699824724E+01 -0.18198172875E+02  0.36291302800E+02  0.00000000000E+00 0. -1.
<mgrwt>
<rscale>  1 0.12891412E+03</rscale>
<asrwt>0</asrwt>
<pdfrwt beam="1">  1       21 0.19116865E-02 0.12891412E+03</pdfrwt>
<pdfrwt beam="2">  1       21 0.19333376E+00 0.12891412E+03</pdfrwt>
<totfact> 0.20283201E+05</totfact>
</mgrwt>
</event>
<event>
 6    1  0.4424270E-002  0.1406419E+03  0.7546771E-02  0.1212468E+00
         21   -1    0    0  504  502  0.00000000000E+00  0.00000000000E+00  0.28111590398E+03  0.28111590398E+03  0.00000000000E+00 0.  1.
         21   -1    0    0  502  503 -0.00000000000E+00 -0.00000000000E+00 -0.76664833490E+02  0.76664833490E+02  0.00000000000E+00 0.  1.
         25    2    1    2    0    0 -0.49199839766E+02  0.41615228444E+02 -0.28749559297E+01  0.14067124274E+03  0.12501072630E+03 0.  0.
          5    1    3    3  501    0 -0.23026249395E+02  0.12254809038E+02 -0.63361446209E+02  0.68520590857E+02  0.10000000000E+00 0. -1.
         -5    1    3    3    0  501 -0.26173590371E+02  0.29360419406E+02  0.60486490279E+02  0.72150651881E+02  0.10000000000E+00 0. -1.
         21    1    1    2  504  503  0.49199839766E+02 -0.41615228444E+02  0.20732602642E+03  0.21710949473E+03  0.00000000000E+00 0.  1.
<mgrwt>
<rscale>  1 0.14064186E+03</rscale>
<asrwt>0</asrwt>
<pdfrwt beam="1">  1       21 0.43248600E-01 0.14064186E+03</pdfrwt>
<pdfrwt beam="2">  1       21 0.11794590E-01 0.14064186E+03</pdfrwt>
<totfact> 0.31451895E+05</totfact>
</mgrwt>
</event>
<event>
 6    1  0.4424270E-002  0.1269812E+03  0.7546771E-02  0.1232005E+00
         21   -1    0    0  503  502  0.00000000000E+00  0.00000000000E+00  0.12147483742E+03  0.12147483742E+03  0.00000000000E+00 0. -1.
         21   -1    0    0  504  503 -0.00000000000E+00 -0.00000000000E+00 -0.13897532808E+03  0.13897532808E+03  0.00000000000E+00 0. -1.
         25    2    1    2    0    0 -0.16313011455E+02  0.15254581600E+02 -0.10833187944E+03  0.16691323275E+03  0.12500165823E+03 0.  0.
          5    1    3    3  501    0 -0.78921490610E+01 -0.51671279433E+02 -0.75669216339E+02  0.91967643421E+02  0.10000000000E+00 0.  1.
         -5    1    3    3    0  501 -0.84208623944E+01  0.66925861032E+02 -0.32662663103E+02  0.74945589326E+02  0.10000000000E+00 0.  1.
         21    1    1    2  504  502  0.16313011455E+02 -0.15254581600E+02  0.90831388776E+02  0.93536932756E+02  0.00000000000E+00 0. -1.
<mgrwt>
<rscale>  1 0.12698122E+03</rscale>
<asrwt>0</asrwt>
<pdfrwt beam="1">  1       21 0.18688437E-01 0.12698122E+03</pdfrwt>
<pdfrwt beam="2">  1       21 0.21380820E-01 0.12698122E+03</pdfrwt>
<totfact> 0.53738106E+05</totfact>
</mgrwt>
</event>
<event>
 6    1  0.4424270E-002  0.1308014E+03  0.7546771E-02  0.1226271E+00
         21   -1    0    0  504  502  0.00000000000E+00  0.00000000000E+00  0.16590039254E+03  0.16590039254E+03  0.00000000000E+00 0.  1.
         21   -1    0    0  502  503 -0.00000000000E+00 -0.00000000000E+00 -0.96735034463E+02  0.96735034463E+02  0.00000000000E+00 0.  1.
         25    2    1    2    0    0  0.35398241921E+02 -0.15193001355E+02 -0.47976546703E+02  0.13932245657E+03  0.12500054020E+03 0.  0.
          5    1    3    3  501    0 -0.60596344802E+01  0.29199003962E+02 -0.68901890423E+02  0.75078502290E+02  0.10000000000E+00 0. -1.
         -5    1    3    3    0  501  0.41457876401E+02 -0.44392005317E+02  0.20925343719E+02  0.64243954280E+02  0.10000000000E+00 0. -1.
         21    1    1    2  504  503 -0.35398241921E+02  0.15193001355E+02  0.11714190478E+03  0.12331297043E+03  0.00000000000E+00 0.  1.
<mgrwt>
<rscale>  1 0.13080137E+03</rscale>
<asrwt>0</asrwt>
<pdfrwt beam="1">  1       21 0.25523137E-01 0.13080137E+03</pdfrwt>
<pdfrwt beam="2">  1       21 0.14882313E-01 0.13080137E+03</pdfrwt>
<totfact> 0.58308428E+05</totfact>
</mgrwt>
</event>
<event>
 6    1  0.4424270E-002  0.1523266E+03  0.7546771E-02  0.1197643E+00
         21   -1    0    0  503  502  0.00000000000E+00  0.00000000000E+00  0.96921889993E+02  0.96921889993E+02  0.00000000000E+00 0. -1.
         21   -1    0    0  504  503 -0.00000000000E+00 -0.00000000000E+00 -0.22773742396E+03  0.22773742396E+03  0.00000000000E+00 0. -1.
         25    2    1    2    0    0  0.74331176992E+02  0.45277471428E+02 -0.17081765165E+03  0.22887130473E+03  0.12501292222E+03 0.  0.
          5    1    3    3  501    0 -0.34840733235E+02  0.95384156424E+01 -0.28720071717E+02  0.46148787468E+02  0.10000000000E+00 0.  1.
         -5    1    3    3    0  501  0.10917191023E+03  0.35739055786E+02 -0.14209757993E+03  0.18272251726E+03  0.10000000000E+00 0.  1.
         21    1    1    2  504  502 -0.74331176992E+02 -0.45277471428E+02  0.40002117683E+02  0.95788009224E+02  0.00000000000E+00 0. -1.
<mgrwt>
<rscale>  1 0.15232664E+03</rscale>
<asrwt>0</asrwt>
<pdfrwt beam="1">  1       21 0.14911060E-01 0.15232664E+03</pdfrwt>
<pdfrwt beam="2">  1       21 0.35036526E-01 0.15232664E+03</pdfrwt>
<totfact> 0.31418516E+05</totfact>
</mgrwt>
</event>
<event>
 6    1  0.4424270E-002  0.1912254E+03  0.7546771E-02  0.1157361E+00
         21   -1    0    0  503  502  0.00000000000E+00  0.00000000000E+00  0.49515182421E+03  0.49515182421E+03  0.00000000000E+00 0. -1.
         21   -1    0    0  504  503 -0.00000000000E+00 -0.00000000000E+00 -0.56997799347E+02  0.56997799347E+02  0.00000000000E+00 0. -1.
         25    2    1    2    0    0 -0.14458883669E+03 -0.69681343133E+01  0.25142431022E+03  0.31588182439E+03  0.12495061671E+03 0.  0.
          5    1    3    3  501    0 -0.84475215095E+02 -0.64575641620E+02  0.12028994648E+03  0.16054830015E+03  0.10000000000E+00 0.  1.
         -5    1    3    3    0  501 -0.60113621600E+02  0.57607507307E+02  0.13113436374E+03  0.15533352424E+03  0.10000000000E+00 0.  1.
         21    1    1    2  504  502  0.14458883669E+03  0.69681343133E+01  0.18672971464E+03  0.23626779917E+03  0.00000000000E+00 0. -1.
<mgrwt>
<rscale>  1 0.19122537E+03</rscale>
<asrwt>0</asrwt>
<pdfrwt beam="1">  1       21 0.76177201E-01 0.19122537E+03</pdfrwt>
<pdfrwt beam="2">  1       21 0.87688925E-02 0.19122537E+03</pdfrwt>
<totfact> 0.15706958E+05</totfact>
</mgrwt>
</event>
<event>
 6    1  0.4424270E-002  0.1634957E+03  0.7546771E-02  0.1184806E+00
         21   -1    0    0  503  502  0.00000000000E+00  0.00000000000E+00  0.72910698994E+02  0.72910698994E+02  0.00000000000E+00 0. -1.
         21   -1    0    0  504  503 -0.00000000000E+00 -0.00000000000E+00 -0.38243873078E+03  0.38243873078E+03  0.00000000000E+00 0. -1.
         25    2    1    2    0    0  0.46470625270E+02  0.94604035929E+02 -0.30940714583E+03  0.34994801973E+03  0.12498556715E+03 0.  0.
          5    1    3    3  501    0  0.55555285630E+02 -0.98136500315E+01 -0.81803042494E+02  0.99370243281E+02  0.10000000000E+00 0. -1.
         -5    1    3    3    0  501 -0.90846603602E+01  0.10441768596E+03 -0.22760410333E+03  0.25057777645E+03  0.10000000000E+00 0. -1.
         21    1    1    2  504  502 -0.46470625270E+02 -0.94604035929E+02 -0.12088596244E+00  0.10540141005E+03  0.00000000000E+00 0. -1.
<mgrwt>
<rscale>  1 0.16349567E+03</rscale>
<asrwt>0</asrwt>
<pdfrwt beam="1">  1       21 0.11217031E-01 0.16349567E+03</pdfrwt>
<pdfrwt beam="2">  1       21 0.58836728E-01 0.16349567E+03</pdfrwt>
<totfact> 0.18052866E+05</totfact>
</mgrwt>
</event>
<event>
 6    1  0.4424270E-002  0.1266892E+03  0.7546771E-02  0.1232453E+00
         21   -1    0    0  503  502  0.00000000000E+00  0.00000000000E+00  0.10857961195E+03  0.10857961195E+03  0.00000000000E+00 0.  1.
         21   -1    0    0  504  503 -0.00000000000E+00 -0.00000000000E+00 -0.49876932501E+02  0.49876932501E+02  0.00000000000E+00 0.  1.
         25    2    1    2    0    0 -0.18674229927E+02  0.84298549476E+01  0.50923711432E+02  0.13654075879E+03  0.12502145859E+03 0.  0.
          5    1    3    3  501    0  0.44556731477E+02  0.15781266175E+02  0.55281075604E+02  0.72734847233E+02  0.10000000000E+00 0. -1.
         -5    1    3    3    0  501 -0.63230961404E+02 -0.73514112272E+01 -0.43573641723E+01  0.63805911557E+02  0.10000000000E+00 0. -1.
         21    1    1    2  504  502  0.18674229927E+02 -0.84298549476E+01  0.77789680189E+01  0.21915785663E+02  0.00000000000E+00 0.  1.
<mgrwt>
<rscale>  1 0.12668920E+03</rscale>
<asrwt>0</asrwt>
<pdfrwt beam="1">  1       21 0.16704556E-01 0.12668920E+03</pdfrwt>
<pdfrwt beam="2">  1       21 0.76733743E-02 0.12668920E+03</pdfrwt>
<totfact> 0.40994482E+06</totfact>
</mgrwt>
</event>
<event>
 6    1  0.4424270E-002  0.1331426E+03  0.7546771E-02  0.1222866E+00
         21   -1    0    0  504  502  0.00000000000E+00  0.00000000000E+00  0.21015848781E+04  0.21015848781E+04  0.00000000000E+00 0.  1.
         21   -1    0    0  502  503 -0.00000000000E+00 -0.00000000000E+00 -0.51060769831E+01  0.51060769831E+01  0.00000000000E+00 0.  1.
         25    2    1    2    0    0  0.42423782165E+02  0.17291020520E+02  0.94858267339E+03  0.95788101574E+03  0.12501278085E+03 0.  0.
          5    1    3    3  501    0 -0.20798985533E+02 -0.40492403378E+02  0.25519005272E+03  0.25921845139E+03  0.10000000000E+00 0.  1.
         -5    1    3    3    0  501  0.63222767698E+02  0.57783423897E+02  0.69339262067E+03  0.69866256435E+03  0.10000000000E+00 0.  1.
         21    1    1    2  504  503 -0.42423782165E+02 -0.17291020520E+02  0.11478961277E+04  0.11488099393E+04  0.00000000000E+00 0.  1.
<mgrwt>
<rscale>  1 0.13314260E+03</rscale>
<asrwt>0</asrwt>
<pdfrwt beam="1">  1       21 0.32332006E+00 0.13314260E+03</pdfrwt>
<pdfrwt beam="2">  1       21 0.78555198E-03 0.13314260E+03</pdfrwt>
<totfact> 0.14563392E+05</totfact>
</mgrwt>
</event>
<event>
 6    1  0.4424270E-002  0.1259940E+03  0.7546771E-02  0.1233524E+00
         21   -1    0    0  503  502  0.00000000000E+00  0.00000000000E+00  0.70484288287E+02  0.70484288287E+02  0.00000000000E+00 0. -1.
         21   -1    0    0  504  503 -0.00000000000E+00 -0.00000000000E+00 -0.13425382540E+03  0.13425382540E+03  0.00000000000E+00 0. -1.
         25    2    1    2    0    0 -0.67055405093E+01 -0.14261378108E+02 -0.10282258047E+03  0.16262527272E+03  0.12500458029E+03 0.  0.
          5    1    3    3  501    0 -0.29482568725E+02  0.49703018240E+02 -0.52939493696E+02  0.78372264696E+02  0.10000000000E+00 0.  1.
         -5    1    3    3    0  501  0.22777028216E+02 -0.63964396347E+02 -0.49883086775E+02  0.84253008021E+02  0.10000000000E+00 0.  1.
         21    1    1    2  504  502  0.67055405093E+01  0.14261378108E+02  0.39053043358E+02  0.42112840970E+02  0.00000000000E+00 0. -1.
<mgrwt>
<rscale>  1 0.12599403E+03</rscale>
<asrwt>0</asrwt>
<pdfrwt beam="1">  1       21 0.10843737E-01 0.12599403E+03</pdfrwt>
<pdfrwt beam="2">  1       21 0.20654434E-01 0.12599403E+03</pdfrwt>
<totfact> 0.15221425E+06</totfact>
</mgrwt>
</event>
<event>
 6    1  0.4424270E-002  0.1259452E+03  0.7546771E-02  0.1233599E+00
         21   -1    0    0  503  502  0.00000000000E+00  0.00000000000E+00  0.14809914313E+04  0.14809914313E+04  0.00000000000E+00 0.  1.
         21   -1    0    0  504  503 -0.00000000000E+00 -0.00000000000E+00 -0.42098115653E+01  0.42098115653E+01  0.00000000000E+00 0.  1.
         25    2    1    2    0    0  0.13475399306E+02  0.74301871111E+01  0.96446285282E+03  0.97265142773E+03  0.12500164527E+03 0.  0.
          5    1    3    3  501    0  0.46555711782E+02  0.20854517658E+02  0.87268158111E+03  0.87417132029E+03  0.10000000000E+00 0. -1.
         -5    1    3    3    0  501 -0.33080312476E+02 -0.13424330547E+02  0.91781271714E+02  0.98480107441E+02  0.10000000000E+00 0. -1.
         21    1    1    2  504  502 -0.13475399306E+02 -0.74301871111E+01  0.51231876687E+03  0.51254981509E+03  0.00000000000E+00 0.  1.
<mgrwt>
<rscale>  1 0.12594525E+03</rscale>
<asrwt>0</asrwt>
<pdfrwt beam="1">  1       21 0.22784442E+00 0.12594525E+03</pdfrwt>
<pdfrwt beam="2">  1       21 0.64766450E-03 0.12594525E+03</pdfrwt>
<totfact> 0.69119249E+05</totfact>
</mgrwt>
</event>
<event>
 6    1  0.4424270E-002  0.1286035E+03  0.7546771E-02  0.1229543E+00
         21   -1    0    0  503  502  0.00000000000E+00  0.00000000000E+00  0.18234052446E+03  0.18234052446E+03  0.00000000000E+00 0. -1.
         21   -1    0    0  504  503 -0.00000000000E+00 -0.00000000000E+00 -0.34600399070E+02  0.34600399070E+02  0.00000000000E+00 0. -1.
         25    2    1    2    0    0 -0.29763893188E+02  0.54012194825E+01  0.11888438527E+03  0.17513522717E+03  0.12499515282E+03 0.  0.
          5    1    3    3  501    0 -0.12687950104E+02  0.28889403688E+02  0.13721374589E+03  0.14079489971E+03  0.10000000000E+00 0.  1.
         -5    1    3    3    0  501 -0.17075943084E+02 -0.23488184205E+02 -0.18329360624E+02  0.34340327464E+02  0.10000000000E+00 0.  1.
         21    1    1    2  504  502  0.29763893188E+02 -0.54012194825E+01  0.28855740123E+02  0.41805696354E+02  0.00000000000E+00 0. -1.
<mgrwt>
<rscale>  1 0.12860346E+03</rscale>
<asrwt>0</asrwt>
<pdfrwt beam="1">  1       21 0.28052388E-01 0.12860346E+03</pdfrwt>
<pdfrwt beam="2">  1       21 0.53231384E-02 0.12860346E+03</pdfrwt>
<totfact> 0.29088875E+06</totfact>
</mgrwt>
</event>
<event>
 6    1  0.4424270E-002  0.1307407E+03  0.7546771E-02  0.1226361E+00
         21   -1    0    0  503  502  0.00000000000E+00  0.00000000000E+00  0.32166056690E+02  0.32166056690E+02  0.00000000000E+00 0.  1.
         21   -1    0    0  504  503 -0.00000000000E+00 -0.00000000000E+00 -0.23566305304E+03  0.23566305304E+03  0.00000000000E+00 0.  1.
         25    2    1    2    0    0 -0.11718292891E+02  0.36440183130E+02 -0.18148381065E+03  0.22367273217E+03  0.12501164847E+03 0.  0.
          5    1    3    3  501    0 -0.64547022999E+02  0.33627731257E+02 -0.13444566483E+03  0.15288161852E+03  0.10000000000E+00 0. -1.
         -5    1    3    3    0  501  0.52828730108E+02  0.28124518729E+01 -0.47038145822E+02  0.70791113656E+02  0.10000000000E+00 0. -1.
         21    1    1    2  504  502  0.11718292891E+02 -0.36440183130E+02 -0.22013185699E+02  0.44156377562E+02  0.00000000000E+00 0.  1.
<mgrwt>
<rscale>  1 0.13074065E+03</rscale>
<asrwt>0</asrwt>
<pdfrwt beam="1">  1       21 0.49486243E-02 0.13074065E+03</pdfrwt>
<pdfrwt beam="2">  1       21 0.36255853E-01 0.13074065E+03</pdfrwt>
<totfact> 0.19987112E+06</totfact>
</mgrwt>
</event>
<event>
 6    1  0.4424270E-002  0.1329970E+03  0.7546771E-02  0.1223075E+00
         21   -1    0    0  503  502  0.00000000000E+00  0.00000000000E+00  0.11280412557E+02  0.11280412557E+02  0.00000000000E+00 0. -1.
         21   -1    0    0  504  503 -0.00000000000E+00 -0.00000000000E+00 -0.10389532346E+04  0.10389532346E+04  0.00000000000E+00 0. -1.
         25    2    1    2    0    0  0.45419595968E+02  0.39284639130E+00 -0.95717378828E+03  0.96636942482E+03  0.12500044094E+03 0.  0.
          5    1    3    3  501    0 -0.66132898582E+01 -0.52285507255E+02 -0.54989918762E+03  0.55241889578E+03  0.10000000000E+00 0.  1.
         -5    1    3    3    0  501  0.52032885827E+02  0.52678353647E+02 -0.40727460066E+03  0.41395052904E+03  0.10000000000E+00 0.  1.
         21    1    1    2  504  502 -0.45419595968E+02 -0.39284639130E+00 -0.70499033761E+02  0.83864222333E+02  0.00000000000E+00 0. -1.
<mgrwt>
<rscale>  1 0.13299701E+03</rscale>
<asrwt>0</asrwt>
<pdfrwt beam="1">  1       21 0.17354475E-02 0.13299701E+03</pdfrwt>
<pdfrwt beam="2">  1       21 0.15983901E+00 0.13299701E+03</pdfrwt>
<totfact> 0.39874818E+05</totfact>
</mgrwt>
</event>
<event>
 6    1  0.4424270E-002  0.1276431E+03  0.7546771E-02  0.1230995E+00
         21   -1    0    0  503  502  0.00000000000E+00  0.00000000000E+00  0.43733583030E+03  0.43733583030E+03  0.00000000000E+00 0. -1.
         21   -1    0    0  504  503 -0.00000000000E+00 -0.00000000000E+00 -0.13833752627E+02  0.13833752627E+02  0.00000000000E+00 0. -1.
         25    2    1    2    0    0 -0.10429287545E+02  0.23652609018E+02  0.32072814125E+03  0.34519459550E+03  0.12499820887E+03 0.  0.
          5    1    3    3  501    0 -0.23932770276E+02  0.68487239416E+02  0.25045207713E+03  0.26074802472E+03  0.10000000000E+00 0.  1.
         -5    1    3    3    0  501  0.13503482731E+02 -0.44834630398E+02  0.70276064120E+02  0.84446570783E+02  0.10000000000E+00 0.  1.
         21    1    1    2  504  502  0.10429287545E+02 -0.23652609018E+02  0.10277393642E+03  0.10597498742E+03  0.00000000000E+00 0. -1.
<mgrwt>
<rscale>  1 0.12764313E+03</rscale>
<asrwt>0</asrwt>
<pdfrwt beam="1">  1       21 0.67282425E-01 0.12764313E+03</pdfrwt>
<pdfrwt beam="2">  1       21 0.21282700E-02 0.12764313E+03</pdfrwt>
<totfact> 0.22383499E+06</totfact>
</mgrwt>
</event>
<event>
 6    1  0.4424270E-002  0.1269407E+03  0.7546771E-02  0.1232067E+00
         21   -1    0    0  504  502  0.00000000000E+00  0.00000000000E+00  0.29202397313E+02  0.29202397313E+02  0.00000000000E+00 0.  1.
         21   -1    0    0  502  503 -0.00000000000E+00 -0.00000000000E+00 -0.21979797032E+03  0.21979797032E+03  0.00000000000E+00 0.  1.
         25    2    1    2    0    0  0.22075770846E+02  0.88041316694E+00 -0.18787543840E+03  0.22674022572E+03  0.12500333923E+03 0.  0.
          5    1    3    3  501    0  0.44812449553E+02 -0.75272619478E+01 -0.19598056556E+03  0.20117954017E+03  0.10000000000E+00 0.  1.
         -5    1    3    3    0  501 -0.22736678707E+02  0.84076751148E+01  0.81051271533E+01  0.25560685547E+02  0.10000000000E+00 0.  1.
         21    1    1    2  504  503 -0.22075770846E+02 -0.88041316694E+00 -0.27201346016E+01  0.22260141914E+02  0.00000000000E+00 0. -1.
<mgrwt>
<rscale>  1 0.12694073E+03</rscale>
<asrwt>0</asrwt>
<pdfrwt beam="1">  1       21 0.44926764E-02 0.12694073E+03</pdfrwt>
<pdfrwt beam="2">  1       21 0.33815073E-01 0.12694073E+03</pdfrwt>
<totfact> 0.26923079E+06</totfact>
</mgrwt>
</event>
<event>
 6    1  0.4424270E-002  0.1300864E+03  0.7546771E-02  0.1227328E+00
         21   -1    0    0  503  502  0.00000000000E+00  0.00000000000E+00  0.30025755377E+03  0.30025755377E+03  0.00000000000E+00 0.  1.
         21   -1    0    0  504  503 -0.00000000000E+00 -0.00000000000E+00 -0.23269900662E+02  0.23269900662E+02  0.00000000000E+00 0.  1.
         25    2    1    2    0    0  0.45840087409E+01  0.35710926834E+02  0.23114333723E+03  0.26523521884E+03  0.12500478206E+03 0.  0.
          5    1    3    3  501    0  0.32824778965E+02  0.73378234032E+02  0.11895479833E+03  0.14356909622E+03  0.10000000000E+00 0.  1.
         -5    1    3    3    0  501 -0.28240770224E+02 -0.37667307198E+02  0.11218853889E+03  0.12166612262E+03  0.10000000000E+00 0.  1.
         21    1    1    2  504  502 -0.45840087409E+01 -0.35710926834E+02  0.45844315884E+02  0.58292235592E+02  0.00000000000E+00 0.  1.
<mgrwt>
<rscale>  1 0.13008643E+03</rscale>
<asrwt>0</asrwt>
<pdfrwt beam="1">  1       21 0.46193467E-01 0.13008643E+03</pdfrwt>
<pdfrwt beam="2">  1       21 0.35799849E-02 0.13008643E+03</pdfrwt>
<totfact> 0.21079619E+06</totfact>
</mgrwt>
</event>
<event>
 6    1  0.4424270E-002  0.1267777E+03  0.7546771E-02  0.1232317E+00
         21   -1    0    0  503  502  0.00000000000E+00  0.00000000000E+00  0.75039074042E+02  0.75039074042E+02  0.00000000000E+00 0.  1.
         21   -1    0    0  504  503 -0.00000000000E+00 -0.00000000000E+00 -0.13865932313E+03  0.13865932313E+03  0.00000000000E+00 0.  1.
         25    2    1    2    0    0 -0.21070788767E+02  0.19918739443E+01 -0.10669829336E+03  0.16570190146E+03  0.12499859456E+03 0.  0.
          5    1    3    3  501    0 -0.56006466116E+02  0.37831080198E+02 -0.90790669003E+02  0.11318511587E+03  0.10000000000E+00 0.  1.
         -5    1    3    3    0  501  0.34935677350E+02 -0.35839206254E+02 -0.15907624357E+02  0.52516785597E+02  0.10000000000E+00 0.  1.
         21    1    1    2  504  502  0.21070788767E+02 -0.19918739443E+01  0.43078044277E+02  0.47996495703E+02  0.00000000000E+00 0.  1.
<mgrwt>
<rscale>  1 0.12677774E+03</rscale>
<asrwt>0</asrwt>
<pdfrwt beam="1">  1       21 0.11544473E-01 0.12677774E+03</pdfrwt>
<pdfrwt beam="2">  1       21 0.21332204E-01 0.12677774E+03</pdfrwt>
<totfact> 0.12839932E+06</totfact>
</mgrwt>
</event>
<event>
 6    1  0.4424270E-002  0.1299535E+03  0.7546771E-02  0.1227525E+00
         21   -1    0    0  503  502  0.00000000000E+00  0.00000000000E+00  0.44114839349E+03  0.44114839349E+03  0.00000000000E+00 0.  1.
         21   -1    0    0  504  503 -0.00000000000E+00 -0.00000000000E+00 -0.34322850078E+02  0.34322850078E+02  0.00000000000E+00 0.  1.
         25    2    1    2    0    0 -0.32012750938E+02 -0.15454625255E+02  0.93399002952E+02  0.16003526285E+03  0.12499699972E+03 0.  0.
          5    1    3    3  501    0  0.58879666964E+01 -0.63581219419E+02  0.69230258424E+02  0.94181093092E+02  0.10000000000E+00 0.  1.
         -5    1    3    3    0  501 -0.37900717634E+02  0.48126594163E+02  0.24168744529E+02  0.65854169762E+02  0.10000000000E+00 0.  1.
         21    1    1    2  504  502  0.32012750938E+02  0.15454625255E+02  0.31342654046E+03  0.31543598072E+03  0.00000000000E+00 0.  1.
<mgrwt>
<rscale>  1 0.12995350E+03</rscale>
<asrwt>0</asrwt>
<pdfrwt beam="1">  1       21 0.67868980E-01 0.12995350E+03</pdfrwt>
<pdfrwt beam="2">  1       21 0.52804388E-02 0.12995350E+03</pdfrwt>
<totfact> 0.49102640E+05</totfact>
</mgrwt>
</event>
<event>
 6    1  0.4424270E-002  0.1310419E+03  0.7546771E-02  0.1225918E+00
         21   -1    0    0  503  502  0.00000000000E+00  0.00000000000E+00  0.64758244628E+02  0.64758244628E+02  0.00000000000E+00 0.  1.
         21   -1    0    0  504  503 -0.00000000000E+00 -0.00000000000E+00 -0.11851782689E+03  0.11851782689E+03  0.00000000000E+00 0.  1.
         25    2    1    2    0    0  0.20838028900E+01  0.39278997902E+02 -0.58782706910E+02  0.14362239966E+03  0.12499922056E+03 0.  0.
          5    1    3    3  501    0 -0.45685013026E+02 -0.38915601262E+01 -0.64330199112E+02  0.78997779546E+02  0.10000000000E+00 0.  1.
         -5    1    3    3    0  501  0.47768815916E+02  0.43170558028E+02  0.55474922016E+01  0.64624620109E+02  0.10000000000E+00 0.  1.
         21    1    1    2  504  502 -0.20838028900E+01 -0.39278997902E+02  0.50231246513E+01  0.39653671860E+02  0.00000000000E+00 0.  1.
<mgrwt>
<rscale>  1 0.13104193E+03</rscale>
<asrwt>0</asrwt>
<pdfrwt beam="1">  1       21 0.99628069E-02 0.13104193E+03</pdfrwt>
<pdfrwt beam="2">  1       21 0.18233512E-01 0.13104193E+03</pdfrwt>
<totfact> 0.22245944E+06</totfact>
</mgrwt>
</event>
<event>
 6    1  0.4424270E-002  0.1293337E+03  0.7546771E-02  0.1228448E+00
         21   -1    0    0  503  502  0.00000000000E+00  0.00000000000E+00  0.39092949356E+02  0.39092949356E+02  0.00000000000E+00 0.  1.
         21   -1    0    0  504  503 -0.00000000000E+00 -0.00000000000E+00 -0.26051460560E+03  0.26051460560E+03  0.00000000000E+00 0.  1.
         25    2    1    2    0    0  0.32679146195E+02  0.57970105733E+01 -0.23127905420E+03  0.26498530457E+03  0.12500271516E+03 0.  0.
          5    1    3    3  501    0  0.66434387016E+02  0.41906931870E+02 -0.16004390772E+03  0.17828006370E+03  0.10000000000E+00 0. -1.
         -5    1    3    3    0  501 -0.33755240822E+02 -0.36109921297E+02 -0.71235146482E+02  0.86705240864E+02  0.10000000000E+00 0. -1.
         21    1    1    2  504  502 -0.32679146195E+02 -0.57970105733E+01  0.98573979527E+01  0.34622250389E+02  0.00000000000E+00 0.  1.
<mgrwt>
<rscale>  1 0.12933372E+03</rscale>
<asrwt>0</asrwt>
<pdfrwt beam="1">  1       21 0.60142997E-02 0.12933372E+03</pdfrwt>
<pdfrwt beam="2">  1       21 0.40079171E-01 0.12933372E+03</pdfrwt>
<totfact> 0.11782957E+06</totfact>
</mgrwt>
</event>
<event>
 6    1  0.4424270E-002  0.1438074E+03  0.7546771E-02  0.1208296E+00
         21   -1    0    0  503  502  0.00000000000E+00  0.00000000000E+00  0.69500880654E+02  0.69500880654E+02  0.00000000000E+00 0. -1.
         21   -1    0    0  504  503 -0.00000000000E+00 -0.00000000000E+00 -0.16729069922E+03  0.16729069922E+03  0.00000000000E+00 0. -1.
         25    2    1    2    0    0  0.70897868589E+02 -0.51506282665E+01 -0.74696397712E+02  0.16204973865E+03  0.12501011649E+03 0.  0.
          5    1    3    3  501    0 -0.13270477026E+02 -0.25571916951E+02 -0.69556433753E+02  0.75287023938E+02  0.10000000000E+00 0. -1.
         -5    1    3    3    0  501  0.84168345615E+02  0.20421288684E+02 -0.51399639591E+01  0.86762714714E+02  0.10000000000E+00 0. -1.
         21    1    1    2  504  502 -0.70897868589E+02  0.51506282665E+01 -0.23093420849E+02  0.74741841217E+02  0.00000000000E+00 0.  1.
<mgrwt>
<rscale>  1 0.14380739E+03</rscale>
<asrwt>0</asrwt>
<pdfrwt beam="1">  1       21 0.10692443E-01 0.14380739E+03</pdfrwt>
<pdfrwt beam="2">  1       21 0.25737031E-01 0.14380739E+03</pdfrwt>
<totfact> 0.10342824E+06</totfact>
</mgrwt>
</event>
<event>
 6    1  0.4424270E-002  0.1374742E+03  0.7546771E-02  0.1216769E+00
         21   -1    0    0  504  502  0.00000000000E+00  0.00000000000E+00  0.46596385690E+03  0.46596385690E+03  0.00000000000E+00 0.  1.
         21   -1    0    0  502  503 -0.00000000000E+00 -0.00000000000E+00 -0.25762837606E+02  0.25762837606E+02  0.00000000000E+00 0.  1.
         25    2    1    2    0    0 -0.18148985236E+02  0.54260061912E+02  0.18672533210E+03  0.23187392084E+03  0.12500250211E+03 0.  0.
          5    1    3    3  501    0 -0.52440578805E+02  0.66942226350E+01  0.22429521461E+02  0.57427522627E+02  0.10000000000E+00 0.  1.
         -5    1    3    3    0  501  0.34291593569E+02  0.47565839277E+02  0.16429581064E+03  0.17444639821E+03  0.10000000000E+00 0.  1.
         21    1    1    2  504  503  0.18148985236E+02 -0.54260061912E+02  0.25347568720E+03  0.25985277367E+03  0.00000000000E+00 0.  1.
<mgrwt>
<rscale>  1 0.13747424E+03</rscale>
<asrwt>0</asrwt>
<pdfrwt beam="1">  1       21 0.71686741E-01 0.13747424E+03</pdfrwt>
<pdfrwt beam="2">  1       21 0.39635138E-02 0.13747424E+03</pdfrwt>
<totfact> 0.70389170E+05</totfact>
</mgrwt>
</event>
<event>
 6    1  0.4424270E-002  0.1538957E+03  0.7546771E-02  0.1195766E+00
         21   -1    0    0  504  502  0.00000000000E+00  0.00000000000E+00  0.15023817365E+04  0.15023817365E+04  0.00000000000E+00 0. -1.
         21   -1    0    0  502  503 -0.00000000000E+00 -0.00000000000E+00 -0.11608335648E+02  0.11608335648E+02  0.00000000000E+00 0. -1.
         25    2    1    2    0    0  0.94230090404E+01  0.89280861731E+02  0.62900137197E+03  0.64755433008E+03  0.12499607631E+03 0.  0.
          5    1    3    3  501    0  0.13877848905E+02  0.48587111195E+02  0.58603101276E+03  0.58820545729E+03  0.10000000000E+00 0. -1.
         -5    1    3    3    0  501 -0.44548398647E+01  0.40693750536E+02  0.42970359204E+02  0.59348872787E+02  0.10000000000E+00 0. -1.
         21    1    1    2  504  503 -0.94230090404E+01 -0.89280861731E+02  0.86177202890E+03  0.86643574208E+03  0.00000000000E+00 0. -1.
<mgrwt>
<rscale>  1 0.15389569E+03</rscale>
<asrwt>0</asrwt>
<pdfrwt beam="1">  1       21 0.23113550E+00 0.15389569E+03</pdfrwt>
<pdfrwt beam="2">  1       21 0.17858990E-02 0.15389569E+03</pdfrwt>
<totfact> 0.13060005E+05</totfact>
</mgrwt>
</event>
<event>
 6    1  0.4424270E-002  0.1266557E+03  0.7546771E-02  0.1232504E+00
         21   -1    0    0  503  502  0.00000000000E+00  0.00000000000E+00  0.83877687782E+03  0.83877687782E+03  0.00000000000E+00 0.  1.
         21   -1    0    0  504  503 -0.00000000000E+00 -0.00000000000E+00 -0.69250933066E+01  0.69250933066E+01  0.00000000000E+00 0.  1.
         25    2    1    2    0    0  0.20282328688E+02  0.24095888822E+01  0.61600449073E+03  0.62889045573E+03  0.12499797491E+03 0.  0.
          5    1    3    3  501    0  0.52891953258E+02  0.19369621245E+02  0.13230309352E+03  0.14379450442E+03  0.10000000000E+00 0. -1.
         -5    1    3    3    0  501 -0.32609624570E+02 -0.16960032363E+02  0.48370139721E+03  0.48509595131E+03  0.10000000000E+00 0. -1.
         21    1    1    2  504  502 -0.20282328688E+02 -0.24095888822E+01  0.21584729378E+03  0.21681151540E+03  0.00000000000E+00 0.  1.
<mgrwt>
<rscale>  1 0.12665573E+03</rscale>
<asrwt>0</asrwt>
<pdfrwt beam="1">  1       21 0.12904252E+00 0.12665573E+03</pdfrwt>
<pdfrwt beam="2">  1       21 0.10653996E-02 0.12665573E+03</pdfrwt>
<totfact> 0.15014456E+06</totfact>
</mgrwt>
</event>
<event>
 6    1  0.4424270E-002  0.1297268E+03  0.7546771E-02  0.1227862E+00
         21   -1    0    0  504  502  0.00000000000E+00  0.00000000000E+00  0.28780271182E+03  0.28780271182E+03  0.00000000000E+00 0.  1.
         21   -1    0    0  502  503 -0.00000000000E+00 -0.00000000000E+00 -0.23541918028E+02  0.23541918028E+02  0.00000000000E+00 0.  1.
         25    2    1    2    0    0 -0.13482579724E+02 -0.31834735789E+02  0.21635463492E+03  0.25226645776E+03  0.12503522425E+03 0.  0.
          5    1    3    3  501    0 -0.46170162592E+02  0.22030491190E+02  0.15913134131E+03  0.16715208717E+03  0.10000000000E+00 0.  1.
         -5    1    3    3    0  501  0.32687582868E+02 -0.53865226979E+02  0.57223293606E+02  0.85114370598E+02  0.10000000000E+00 0.  1.
         21    1    1    2  504  503  0.13482579724E+02  0.31834735789E+02  0.47906158875E+02  0.59078172085E+02  0.00000000000E+00 0.  1.
<mgrwt>
<rscale>  1 0.12972678E+03</rscale>
<asrwt>0</asrwt>
<pdfrwt beam="1">  1       21 0.44277338E-01 0.12972678E+03</pdfrwt>
<pdfrwt beam="2">  1       21 0.36218337E-02 0.12972678E+03</pdfrwt>
<totfact> 0.22537496E+06</totfact>
</mgrwt>
</event>
<event>
 6    1  0.4424270E-002  0.1260616E+03  0.7546771E-02  0.1233419E+00
         21   -1    0    0  503  502  0.00000000000E+00  0.00000000000E+00  0.17160291340E+03  0.17160291340E+03  0.00000000000E+00 0.  1.
         21   -1    0    0  504  503 -0.00000000000E+00 -0.00000000000E+00 -0.89756417010E+02  0.89756417010E+02  0.00000000000E+00 0.  1.
         25    2    1    2    0    0  0.89645850503E+00 -0.16297747368E+02 -0.44709377868E+02  0.13375521795E+03  0.12500043861E+03 0.  0.
          5    1    3    3  501    0  0.22881924304E+02 -0.27570487655E+02 -0.81734902216E+02  0.89243030482E+02  0.10000000000E+00 0. -1.
         -5    1    3    3    0  501 -0.21985465799E+02  0.11272740287E+02  0.37025524348E+02  0.44512187468E+02  0.10000000000E+00 0. -1.
         21    1    1    2  504  502 -0.89645850503E+00  0.16297747368E+02  0.12655587426E+03  0.12760411246E+03  0.00000000000E+00 0.  1.
<mgrwt>
<rscale>  1 0.12606161E+03</rscale>
<asrwt>0</asrwt>
<pdfrwt beam="1">  1       21 0.26400448E-01 0.12606161E+03</pdfrwt>
<pdfrwt beam="2">  1       21 0.13808680E-01 0.12606161E+03</pdfrwt>
<totfact> 0.62567138E+05</totfact>
</mgrwt>
</event>
<event>
 6    1  0.4424270E-002  0.1266766E+03  0.7546771E-02  0.1232472E+00
         21   -1    0    0  503  502  0.00000000000E+00  0.00000000000E+00  0.49532115991E+02  0.49532115991E+02  0.00000000000E+00 0. -1.
         21   -1    0    0  504  503 -0.00000000000E+00 -0.00000000000E+00 -0.11202176670E+03  0.11202176670E+03  0.00000000000E+00 0. -1.
         25    2    1    2    0    0 -0.36576326441E+01 -0.20206979988E+02 -0.44537369159E+02  0.13427779922E+03  0.12500099917E+03 0.  0.
          5    1    3    3  501    0 -0.60071182575E+01 -0.66725494888E+02 -0.54834937693E+02  0.86575155383E+02  0.10000000000E+00 0.  1.
         -5    1    3    3    0  501  0.23494856134E+01  0.46518514900E+02  0.10297568535E+02  0.47702643835E+02  0.10000000000E+00 0.  1.
         21    1    1    2  504  502  0.36576326441E+01  0.20206979988E+02 -0.17952281553E+02  0.27276083475E+02  0.00000000000E+00 0. -1.
<mgrwt>
<rscale>  1 0.12667656E+03</rscale>
<asrwt>0</asrwt>
<pdfrwt beam="1">  1       21 0.76203255E-02 0.12667656E+03</pdfrwt>
<pdfrwt beam="2">  1       21 0.17234118E-01 0.12667656E+03</pdfrwt>
<totfact> 0.39194931E+06</totfact>
</mgrwt>
</event>
<event>
 6    1  0.4424270E-002  0.1368040E+03  0.7546771E-02  0.1217695E+00
         21   -1    0    0  503  502  0.00000000000E+00  0.00000000000E+00  0.33735125850E+02  0.33735125850E+02  0.00000000000E+00 0. -1.
         21   -1    0    0  504  503 -0.00000000000E+00 -0.00000000000E+00 -0.32668871392E+03  0.32668871392E+03  0.00000000000E+00 0. -1.
         25    2    1    2    0    0 -0.48185820459E+02 -0.27714435680E+02 -0.26494270300E+03  0.29817777226E+03  0.12500153902E+03 0.  0.
          5    1    3    3  501    0 -0.25138139749E+02 -0.42249963162E+02 -0.22255698575E+02  0.53965837123E+02  0.10000000000E+00 0.  1.
         -5    1    3    3    0  501 -0.23047680709E+02  0.14535527482E+02 -0.24268700443E+03  0.24421193514E+03  0.10000000000E+00 0.  1.
         21    1    1    2  504  502  0.48185820459E+02  0.27714435680E+02 -0.28010885069E+02  0.62246067512E+02  0.00000000000E+00 0. -1.
<mgrwt>
<rscale>  1 0.13680405E+03</rscale>
<asrwt>0</asrwt>
<pdfrwt beam="1">  1       21 0.51900196E-02 0.13680405E+03</pdfrwt>
<pdfrwt beam="2">  1       21 0.50259800E-01 0.13680405E+03</pdfrwt>
<totfact> 0.95444500E+05</totfact>
</mgrwt>
</event>
<event>
 6    1  0.4424270E-002  0.1263802E+03  0.7546771E-02  0.1232928E+00
         21   -1    0    0  503  502  0.00000000000E+00  0.00000000000E+00  0.22770909733E+03  0.22770909733E+03  0.00000000000E+00 0.  1.
         21   -1    0    0  504  503 -0.00000000000E+00 -0.00000000000E+00 -0.40803979746E+02  0.40803979746E+02  0.00000000000E+00 0.  1.
         25    2    1    2    0    0 -0.18382413583E+02  0.26664882448E+01  0.59367185441E+02  0.13962961257E+03  0.12500777060E+03 0.  0.
          5    1    3    3  501    0 -0.62866764954E+02 -0.29866695566E+02  0.21810903601E+02  0.72938159804E+02  0.10000000000E+00 0.  1.
         -5    1    3    3    0  501  0.44484351371E+02  0.32533183811E+02  0.37556281840E+02  0.66691452761E+02  0.10000000000E+00 0.  1.
         21    1    1    2  504  502  0.18382413583E+02 -0.26664882448E+01  0.12753793214E+03  0.12888346451E+03  0.00000000000E+00 0.  1.
<mgrwt>
<rscale>  1 0.12638024E+03</rscale>
<asrwt>0</asrwt>
<pdfrwt beam="1">  1       21 0.35032168E-01 0.12638024E+03</pdfrwt>
<pdfrwt beam="2">  1       21 0.62775354E-02 0.12638024E+03</pdfrwt>
<totfact> 0.14299161E+06</totfact>
</mgrwt>
</event>
<event>
 6    1  0.4424270E-002  0.1266411E+03  0.7546771E-02  0.1232527E+00
         21   -1    0    0  503  502  0.00000000000E+00  0.00000000000E+00  0.12632890192E+03  0.12632890192E+03  0.00000000000E+00 0.  1.
         21   -1    0    0  504  503 -0.00000000000E+00 -0.00000000000E+00 -0.72225618002E+02  0.72225618002E+02  0.00000000000E+00 0.  1.
         25    2    1    2    0    0  0.20160673793E+02  0.24931341842E+01 -0.14068789324E+02  0.12742013965E+03  0.12500117068E+03 0.  0.
          5    1    3    3  501    0 -0.47502264891E+02 -0.21352689002E+02 -0.19170489967E+02  0.55497028596E+02  0.10000000000E+00 0.  1.
         -5    1    3    3    0  501  0.67662938684E+02  0.23845823186E+02  0.51017006431E+01  0.71923111058E+02  0.10000000000E+00 0.  1.
         21    1    1    2  504  502 -0.20160673793E+02 -0.24931341842E+01  0.68172073241E+02  0.71134380266E+02  0.00000000000E+00 0.  1.
<mgrwt>
<rscale>  1 0.12664107E+03</rscale>
<asrwt>0</asrwt>
<pdfrwt beam="1">  1       21 0.19435216E-01 0.12664107E+03</pdfrwt>
<pdfrwt beam="2">  1       21 0.11111634E-01 0.12664107E+03</pdfrwt>
<totfact> 0.16319075E+06</totfact>
</mgrwt>
</event>
<event>
 6    1  0.4424270E-002  0.1261230E+03  0.7546771E-02  0.1233325E+00
         21   -1    0    0  504  502  0.00000000000E+00  0.00000000000E+00  0.27889038707E+03  0.27889038707E+03  0.00000000000E+00 0. -1.
         21   -1    0    0  502  503 -0.00000000000E+00 -0.00000000000E+00 -0.31379081206E+02  0.31379081206E+02  0.00000000000E+00 0. -1.
         25    2    1    2    0    0  0.16996830332E+02 -0.34938723931E+01  0.97913381087E+02  0.15966854370E+03  0.12492363374E+03 0.  0.
          5    1    3    3  501    0 -0.91924462608E+01 -0.56881514948E+02  0.18617646263E+02  0.60552741997E+02  0.10000000000E+00 0. -1.
         -5    1    3    3    0  501  0.26189276593E+02  0.53387642554E+02  0.79295734825E+02  0.99115801704E+02  0.10000000000E+00 0. -1.
         21    1    1    2  504  503 -0.16996830332E+02  0.34938723931E+01  0.14959792478E+03  0.15060092458E+03  0.00000000000E+00 0.  1.
<mgrwt>
<rscale>  1 0.12612301E+03</rscale>
<asrwt>0</asrwt>
<pdfrwt beam="1">  1       21 0.42906212E-01 0.12612301E+03</pdfrwt>
<pdfrwt beam="2">  1       21 0.48275511E-02 0.12612301E+03</pdfrwt>
<totfact> 0.14877473E+06</totfact>
</mgrwt>
</event>
<event>
 6    1  0.4424270E-002  0.1260301E+03  0.7546771E-02  0.1233468E+00
         21   -1    0    0  504  502  0.00000000000E+00  0.00000000000E+00  0.14714795750E+03  0.14714795750E+03  0.00000000000E+00 0. -1.
         21   -1    0    0  502  503 -0.00000000000E+00 -0.00000000000E+00 -0.34440362748E+02  0.34440362748E+02  0.00000000000E+00 0. -1.
         25    2    1    2    0    0  0.28854306575E+01  0.15781578395E+02  0.96028276814E+02  0.15844564163E+03  0.12500482982E+03 0.  0.
          5    1    3    3  501    0  0.24891447408E+02  0.42431678653E+01  0.12076942713E+03  0.12338092704E+03  0.10000000000E+00 0. -1.
         -5    1    3    3    0  501 -0.22006016751E+02  0.11538410529E+02 -0.24741150313E+02  0.35064714595E+02  0.10000000000E+00 0. -1.
         21    1    1    2  504  503 -0.28854306575E+01 -0.15781578395E+02  0.16679317939E+02  0.23142678618E+02  0.00000000000E+00 0. -1.
<mgrwt>
<rscale>  1 0.12603012E+03</rscale>
<asrwt>0</asrwt>
<pdfrwt beam="1">  1       21 0.22638147E-01 0.12603012E+03</pdfrwt>
<pdfrwt beam="2">  1       21 0.52985174E-02 0.12603012E+03</pdfrwt>
<totfact> 0.43939577E+06</totfact>
</mgrwt>
</event>
<event>
 6    1  0.4424270E-002  0.1259490E+03  0.7546771E-02  0.1233594E+00
         21   -1    0    0  504  502  0.00000000000E+00  0.00000000000E+00  0.19773804941E+02  0.19773804941E+02  0.00000000000E+00 0.  1.
         21   -1    0    0  502  503 -0.00000000000E+00 -0.00000000000E+00 -0.25355623810E+03  0.25355623810E+03  0.00000000000E+00 0.  1.
         25    2    1    2    0    0  0.69269964180E+01  0.13986039677E+02 -0.20544556127E+03  0.24097929508E+03  0.12497819580E+03 0.  0.
          5    1    3    3  501    0  0.11917374774E+02  0.16226587383E+02 -0.22232529599E+03  0.22323501785E+03  0.10000000000E+00 0.  1.
         -5    1    3    3    0  501 -0.49903783556E+01 -0.22405477056E+01  0.16879734718E+02  0.17744277227E+02  0.10000000000E+00 0.  1.
         21    1    1    2  504  503 -0.69269964180E+01 -0.13986039677E+02 -0.28336871893E+02  0.32350747965E+02  0.00000000000E+00 0. -1.
<mgrwt>
<rscale>  1 0.12594897E+03</rscale>
<asrwt>0</asrwt>
<pdfrwt beam="1">  1       21 0.30421243E-02 0.12594897E+03</pdfrwt>
<pdfrwt beam="2">  1       21 0.39008646E-01 0.12594897E+03</pdfrwt>
<totfact> 0.38705330E+06</totfact>
</mgrwt>
</event>
<event>
 6    1  0.4424270E-002  0.1274709E+03  0.7546771E-02  0.1231257E+00
         21   -1    0    0  504  502  0.00000000000E+00  0.00000000000E+00  0.13531027804E+03  0.13531027804E+03  0.00000000000E+00 0. -1.
         21   -1    0    0  502  503 -0.00000000000E+00 -0.00000000000E+00 -0.31368981943E+03  0.31368981943E+03  0.00000000000E+00 0. -1.
         25    2    1    2    0    0  0.19741337276E+02 -0.15314992981E+02 -0.29941115057E+03  0.32541644229E+03  0.12499821766E+03 0.  0.
          5    1    3    3  501    0  0.33158957990E+02  0.23476091870E+02 -0.27431224578E+03  0.27730463676E+03  0.10000000000E+00 0. -1.
         -5    1    3    3    0  501 -0.13417620715E+02 -0.38791084851E+02 -0.25098904798E+02  0.48111805533E+02  0.10000000000E+00 0. -1.
         21    1    1    2  504  503 -0.19741337276E+02  0.15314992981E+02  0.12103160918E+03  0.12358365519E+03  0.00000000000E+00 0. -1.
<mgrwt>
<rscale>  1 0.12747087E+03</rscale>
<asrwt>0</asrwt>
<pdfrwt beam="1">  1       21 0.20816966E-01 0.12747087E+03</pdfrwt>
<pdfrwt beam="2">  1       21 0.48259972E-01 0.12747087E+03</pdfrwt>
<totfact> 0.90200010E+04</totfact>
</mgrwt>
</event>
<event>
 6    1  0.4424270E-002  0.1297757E+03  0.7546771E-02  0.1227789E+00
         21   -1    0    0  503  502  0.00000000000E+00  0.00000000000E+00  0.14333092302E+03  0.14333092302E+03  0.00000000000E+00 0.  1.
         21   -1    0    0  504  503 -0.00000000000E+00 -0.00000000000E+00 -0.12750683619E+03  0.12750683619E+03  0.00000000000E+00 0. -1.
         25    2    1    2    0    0  0.13603491192E+01 -0.34836533994E+02  0.11018506317E+03  0.17024238901E+03  0.12500515277E+03 0.  0.
          5    1    3    3  501    0 -0.13938116100E+02 -0.20442201029E+01 -0.25870283510E+02  0.29457282378E+02  0.10000000000E+00 0. -1.
         -5    1    3    3    0  501  0.15298465219E+02 -0.32792313891E+02  0.13605534668E+03  0.14078510663E+03  0.10000000000E+00 0. -1.
         21    1    1    2  504  502 -0.13603491192E+01  0.34836533994E+02 -0.94360976344E+02  0.10059537021E+03  0.00000000000E+00 0. -1.
<mgrwt>
<rscale>  1 0.12977566E+03</rscale>
<asrwt>0</asrwt>
<pdfrwt beam="1">  1       21 0.22050911E-01 0.12977566E+03</pdfrwt>
<pdfrwt beam="2">  1       21 0.19616436E-01 0.12977566E+03</pdfrwt>
<totfact> 0.46396106E+05</totfact>
</mgrwt>
</event>
<event>
 6    1  0.4424270E-002  0.1266717E+03  0.7546771E-02  0.1232480E+00
         21   -1    0    0  504  502  0.00000000000E+00  0.00000000000E+00  0.70309969505E+02  0.70309969505E+02  0.00000000000E+00 0. -1.
         21   -1    0    0  502  503 -0.00000000000E+00 -0.00000000000E+00 -0.11824049570E+03  0.11824049570E+03  0.00000000000E+00 0. -1.
         25    2    1    2    0    0  0.19557977182E+02  0.61916404048E+01 -0.80479837583E+02  0.15007568705E+03  0.12499942682E+03 0.  0.
          5    1    3    3  501    0 -0.13629553727E+02  0.28741894159E+02  0.22891394340E+02  0.39190396138E+02  0.10000000000E+00 0. -1.
         -5    1    3    3    0  501  0.33187530909E+02 -0.22550253754E+02 -0.10337123192E+03  0.11088529092E+03  0.10000000000E+00 0. -1.
         21    1    1    2  504  503 -0.19557977182E+02 -0.61916404048E+01  0.32549311385E+02  0.38474778154E+02  0.00000000000E+00 0. -1.
<mgrwt>
<rscale>  1 0.12667165E+03</rscale>
<asrwt>0</asrwt>
<pdfrwt beam="1">  1       21 0.10816919E-01 0.12667165E+03</pdfrwt>
<pdfrwt beam="2">  1       21 0.18190845E-01 0.12667165E+03</pdfrwt>
<totfact> 0.19321169E+06</totfact>
</mgrwt>
</event>
<event>
 6    1  0.4424270E-002  0.1290622E+03  0.7546771E-02  0.1228854E+00
         21   -1    0    0  504  502  0.00000000000E+00  0.00000000000E+00  0.44851652829E+02  0.44851652829E+02  0.00000000000E+00 0.  1.
         21   -1    0    0  502  503 -0.00000000000E+00 -0.00000000000E+00 -0.18781443986E+03  0.18781443986E+03  0.00000000000E+00 0.  1.
         25    2    1    2    0    0 -0.87758242384E+01 -0.30902690110E+02 -0.15189605601E+03  0.19932250797E+03  0.12500023602E+03 0.  0.
          5    1    3    3  501    0  0.49780091864E+02  0.16876904614E+02 -0.74211101371E+02  0.90940557630E+02  0.10000000000E+00 0.  1.
         -5    1    3    3    0  501 -0.58555916103E+02 -0.47779594724E+02 -0.77684954634E+02  0.10838195034E+03  0.10000000000E+00 0.  1.
         21    1    1    2  504  503  0.87758242384E+01  0.30902690110E+02  0.89332689779E+01  0.33343584717E+02  0.00000000000E+00 0.  1.
<mgrwt>
<rscale>  1 0.12906220E+03</rscale>
<asrwt>0</asrwt>
<pdfrwt beam="1">  1       21 0.69002542E-02 0.12906220E+03</pdfrwt>
<pdfrwt beam="2">  1       21 0.28894529E-01 0.12906220E+03</pdfrwt>
<totfact> 0.17698041E+06</totfact>
</mgrwt>
</event>
<event>
 6    1  0.4424270E-002  0.1290337E+03  0.7546771E-02  0.1228897E+00
         21   -1    0    0  504  502  0.00000000000E+00  0.00000000000E+00  0.74758552376E+03  0.74758552376E+03  0.00000000000E+00 0.  1.
         21   -1    0    0  502  503 -0.00000000000E+00 -0.00000000000E+00 -0.16872249550E+02  0.16872249550E+02  0.00000000000E+00 0.  1.
         25    2    1    2    0    0 -0.19817925179E+02  0.25171727164E+02  0.23820261146E+03  0.27090623706E+03  0.12499335650E+03 0.  0.
          5    1    3    3  501    0  0.23687534622E+02  0.62738829945E+02  0.92308039004E+02  0.11409664388E+03  0.10000000000E+00 0.  1.
         -5    1    3    3    0  501 -0.43505459801E+02 -0.37567102781E+02  0.14589457245E+03  0.15680959319E+03  0.10000000000E+00 0.  1.
         21    1    1    2  504  503  0.19817925179E+02 -0.25171727164E+02  0.49251066275E+03  0.49355153625E+03  0.00000000000E+00 0.  1.
<mgrwt>
<rscale>  1 0.12903374E+03</rscale>
<asrwt>0</asrwt>
<pdfrwt beam="1">  1       21 0.11501313E+00 0.12903374E+03</pdfrwt>
<pdfrwt beam="2">  1       21 0.25957313E-02 0.12903374E+03</pdfrwt>
<totfact> 0.47734155E+05</totfact>
</mgrwt>
</event>
<event>
 6    1  0.4424270E-002  0.1261497E+03  0.7546771E-02  0.1233283E+00
         21   -1    0    0  503  502  0.00000000000E+00  0.00000000000E+00  0.24574421851E+03  0.24574421851E+03  0.00000000000E+00 0. -1.
         21   -1    0    0  504  503 -0.00000000000E+00 -0.00000000000E+00 -0.25590477375E+02  0.25590477375E+02  0.00000000000E+00 0. -1.
         25    2    1    2    0    0 -0.16990318010E+02  0.84688064277E+00  0.13608047159E+03  0.18555764322E+03  0.12499742435E+03 0.  0.
          5    1    3    3  501    0  0.36521365351E+02  0.37501012887E+02  0.95907037587E+02  0.10926255513E+03  0.10000000000E+00 0.  1.
         -5    1    3    3    0  501 -0.53511683361E+02 -0.36654132244E+02  0.40173434006E+02  0.76295088089E+02  0.10000000000E+00 0.  1.
         21    1    1    2  504  502  0.16990318010E+02 -0.84688064277E+00  0.84073269545E+02  0.85777052671E+02  0.00000000000E+00 0. -1.
<mgrwt>
<rscale>  1 0.12614969E+03</rscale>
<asrwt>0</asrwt>
<pdfrwt beam="1">  1       21 0.37806801E-01 0.12614969E+03</pdfrwt>
<pdfrwt beam="2">  1       21 0.39369967E-02 0.12614969E+03</pdfrwt>
<totfact> 0.26919982E+06</totfact>
</mgrwt>
</event>
<event>
 6    1  0.4424270E-002  0.1309138E+03  0.7546771E-02  0.1226106E+00
         21   -1    0    0  504  502  0.00000000000E+00  0.00000000000E+00  0.35088478992E+02  0.35088478992E+02  0.00000000000E+00 0.  1.
         21   -1    0    0  502  503 -0.00000000000E+00 -0.00000000000E+00 -0.72191000777E+03  0.72191000777E+03  0.00000000000E+00 0.  1.
         25    2    1    2    0    0  0.11578123769E+02 -0.37075029216E+02 -0.70288093555E+03  0.71496855353E+03  0.12501924745E+03 0.  0.
          5    1    3    3  501    0 -0.10414941229E+02 -0.78361537091E+02 -0.53032187172E+03  0.53618121855E+03  0.10000000000E+00 0.  1.
         -5    1    3    3    0  501  0.21993064997E+02  0.41286507875E+02 -0.17255906383E+03  0.17878733498E+03  0.10000000000E+00 0.  1.
         21    1    1    2  504  503 -0.11578123769E+02  0.37075029216E+02  0.16059406775E+02  0.42029933230E+02  0.00000000000E+00 0.  1.
<mgrwt>
<rscale>  1 0.13091380E+03</rscale>
<asrwt>0</asrwt>
<pdfrwt beam="1">  1       21 0.53982274E-02 0.13091380E+03</pdfrwt>
<pdfrwt beam="2">  1       21 0.11106308E+00 0.13091380E+03</pdfrwt>
<totfact> 0.15419629E+05</totfact>
</mgrwt>
</event>
<event>
 6    1  0.4424270E-002  0.1261606E+03  0.7546771E-02  0.1233267E+00
         21   -1    0    0  504  502  0.00000000000E+00  0.00000000000E+00  0.10881657342E+04  0.10881657342E+04  0.00000000000E+00 0.  1.
         21   -1    0    0  502  503 -0.00000000000E+00 -0.00000000000E+00 -0.11373150416E+02  0.11373150416E+02  0.00000000000E+00 0.  1.
         25    2    1    2    0    0 -0.84251495786E+01 -0.14962574337E+02  0.34170885352E+03  0.36425461831E+03  0.12498649772E+03 0.  0.
          5    1    3    3  501    0 -0.62396225691E+02 -0.30616119176E+02  0.20430112385E+03  0.21579989560E+03  0.10000000000E+00 0.  1.
         -5    1    3    3    0  501  0.53971076113E+02  0.15653544838E+02  0.13740772967E+03  0.14845472271E+03  0.10000000000E+00 0.  1.
         21    1    1    2  504  503  0.84251495786E+01  0.14962574337E+02  0.73508373027E+03  0.73528426631E+03  0.00000000000E+00 0.  1.
<mgrwt>
<rscale>  1 0.12616056E+03</rscale>
<asrwt>0</asrwt>
<pdfrwt beam="1">  1       21 0.16741003E+00 0.12616056E+03</pdfrwt>
<pdfrwt beam="2">  1       21 0.17497163E-02 0.12616056E+03</pdfrwt>
<totfact> 0.34863474E+05</totfact>
</mgrwt>
</event>
<event>
 6    1  0.4424270E-002  0.1271272E+03  0.7546771E-02  0.1231782E+00
         21   -1    0    0  504  502  0.00000000000E+00  0.00000000000E+00  0.45936282124E+02  0.45936282124E+02  0.00000000000E+00 0.  1.
         21   -1    0    0  502  503 -0.00000000000E+00 -0.00000000000E+00 -0.12492778386E+03  0.12492778386E+03  0.00000000000E+00 0.  1.
         25    2    1    2    0    0 -0.22879327114E+02  0.36538470398E+01 -0.58533072044E+02  0.13995514247E+03  0.12499802868E+03 0.  0.
          5    1    3    3  501    0 -0.15238565324E+02  0.46801634774E+02  0.17467016237E+02  0.52227517142E+02  0.10000000000E+00 0.  1.
         -5    1    3    3    0  501 -0.76407617905E+01 -0.43147787734E+02 -0.76000088281E+02  0.87727625329E+02  0.10000000000E+00 0.  1.
         21    1    1    2  504  503  0.22879327114E+02 -0.36538470398E+01 -0.20458429696E+02  0.30908923518E+02  0.00000000000E+00 0. -1.
<mgrwt>
<rscale>  1 0.12712719E+03</rscale>
<asrwt>0</asrwt>
<pdfrwt beam="1">  1       21 0.70671202E-02 0.12712719E+03</pdfrwt>
<pdfrwt beam="2">  1       21 0.19219659E-01 0.12712719E+03</pdfrwt>
<totfact> 0.36532470E+06</totfact>
</mgrwt>
</event>
<event>
 6    1  0.4424270E-002  0.1297498E+03  0.7546771E-02  0.1227827E+00
         21   -1    0    0  504  502  0.00000000000E+00  0.00000000000E+00  0.76692693819E+02  0.76692693819E+02  0.00000000000E+00 0.  1.
         21   -1    0    0  502  503 -0.00000000000E+00 -0.00000000000E+00 -0.91962362273E+02  0.91962362273E+02  0.00000000000E+00 0.  1.
         25    2    1    2    0    0 -0.26454260446E+02  0.22606656763E+02 -0.25818029934E+02  0.13229358258E+03  0.12499652994E+03 0.  0.
          5    1    3    3  501    0 -0.39759559710E+02 -0.38813784824E+02  0.14754627783E+02  0.57489490533E+02  0.10000000000E+00 0.  1.
         -5    1    3    3    0  501  0.13305299263E+02  0.61420441587E+02 -0.40572657718E+02  0.74804092051E+02  0.10000000000E+00 0.  1.
         21    1    1    2  504  503  0.26454260446E+02 -0.22606656763E+02  0.10548361481E+02  0.36361473508E+02  0.00000000000E+00 0.  1.
<mgrwt>
<rscale>  1 0.12974984E+03</rscale>
<asrwt>0</asrwt>
<pdfrwt beam="1">  1       21 0.11798876E-01 0.12974984E+03</pdfrwt>
<pdfrwt beam="2">  1       21 0.14148056E-01 0.12974984E+03</pdfrwt>
<totfact> 0.26161149E+06</totfact>
</mgrwt>
</event>
<event>
 6    1  0.4424270E-002  0.1271762E+03  0.7546771E-02  0.1231707E+00
         21   -1    0    0  503  502  0.00000000000E+00  0.00000000000E+00  0.16461277789E+03  0.16461277789E+03  0.00000000000E+00 0. -1.
         21   -1    0    0  504  503 -0.00000000000E+00 -0.00000000000E+00 -0.79807224595E+02  0.79807224595E+02  0.00000000000E+00 0. -1.
         25    2    1    2    0    0  0.98751941194E+01 -0.21062646479E+02 -0.27176293094E+02  0.13004741636E+03  0.12503049652E+03 0.  0.
          5    1    3    3  501    0 -0.47961325859E+02  0.23618517967E+02 -0.51188626490E+01  0.53706013852E+02  0.10000000000E+00 0.  1.
         -5    1    3    3    0  501  0.57836519978E+02 -0.44681164446E+02 -0.22057430445E+02  0.76341402510E+02  0.10000000000E+00 0.  1.
         21    1    1    2  504  502 -0.98751941194E+01  0.21062646479E+02  0.11198184639E+03  0.11437258612E+03  0.00000000000E+00 0. -1.
<mgrwt>
<rscale>  1 0.12717618E+03</rscale>
<asrwt>0</asrwt>
<pdfrwt beam="1">  1       21 0.25325043E-01 0.12717618E+03</pdfrwt>
<pdfrwt beam="2">  1       21 0.12278035E-01 0.12717618E+03</pdfrwt>
<totfact> 0.83464269E+05</totfact>
</mgrwt>
</event>
<event>
 6    1  0.4424270E-002  0.1282869E+03  0.7546771E-02  0.1230020E+00
         21   -1    0    0  504  502  0.00000000000E+00  0.00000000000E+00  0.14005158756E+03  0.14005158756E+03  0.00000000000E+00 0. -1.
         21   -1    0    0  502  503 -0.00000000000E+00 -0.00000000000E+00 -0.22707441765E+03  0.22707441765E+03  0.00000000000E+00 0. -1.
         25    2    1    2    0    0 -0.23405132277E+02  0.16870884417E+02 -0.20710930342E+03  0.24362220755E+03  0.12500035795E+03 0.  0.
          5    1    3    3  501    0  0.48999660213E+02  0.23464485915E+02 -0.10568194319E+03  0.11882858207E+03  0.10000000000E+00 0. -1.
         -5    1    3    3    0  501 -0.72404792491E+02 -0.65936014981E+01 -0.10142736023E+03  0.12479362548E+03  0.10000000000E+00 0. -1.
         21    1    1    2  504  503  0.23405132277E+02 -0.16870884417E+02  0.12008647334E+03  0.12350379766E+03  0.00000000000E+00 0. -1.
<mgrwt>
<rscale>  1 0.12828685E+03</rscale>
<asrwt>0</asrwt>
<pdfrwt beam="1">  1       21 0.21546398E-01 0.12828685E+03</pdfrwt>
<pdfrwt beam="2">  1       21 0.34934526E-01 0.12828685E+03</pdfrwt>
<totfact> 0.16174203E+05</totfact>
</mgrwt>
</event>
<event>
 6    1  0.4424270E-002  0.1288202E+03  0.7546771E-02  0.1229217E+00
         21   -1    0    0  503  502  0.00000000000E+00  0.00000000000E+00  0.10711289321E+04  0.10711289321E+04  0.00000000000E+00 0.  1.
         21   -1    0    0  504  503 -0.00000000000E+00 -0.00000000000E+00 -0.60670225721E+01  0.60670225721E+01  0.00000000000E+00 0.  1.
         25    2    1    2    0    0  0.31030443099E+02  0.25373300041E+01  0.79889927578E+03  0.80921857868E+03  0.12500131515E+03 0.  0.
          5    1    3    3  501    0  0.52119189030E+02  0.38603658418E+02  0.68201013359E+03  0.68508720950E+03  0.10000000000E+00 0. -1.
         -5    1    3    3    0  501 -0.21088745931E+02 -0.36066328413E+02  0.11688914219E+03  0.12413136917E+03  0.10000000000E+00 0. -1.
         21    1    1    2  504  502 -0.31030443099E+02 -0.25373300041E+01  0.26616263374E+03  0.26797737599E+03  0.00000000000E+00 0.  1.
<mgrwt>
<rscale>  1 0.12882024E+03</rscale>
<asrwt>0</asrwt>
<pdfrwt beam="1">  1       21 0.16478892E+00 0.12882024E+03</pdfrwt>
<pdfrwt beam="2">  1       21 0.93338894E-03 0.12882024E+03</pdfrwt>
<totfact> 0.98587330E+05</totfact>
</mgrwt>
</event>
<event>
 6    1  0.4424270E-002  0.1284009E+03  0.7546771E-02  0.1229848E+00
         21   -1    0    0  504  502  0.00000000000E+00  0.00000000000E+00  0.18812920129E+02  0.18812920129E+02  0.00000000000E+00 0.  1.
         21   -1    0    0  502  503 -0.00000000000E+00 -0.00000000000E+00 -0.49719032094E+03  0.49719032094E+03  0.00000000000E+00 0.  1.
         25    2    1    2    0    0 -0.29351686442E+02 -0.78546798622E+00 -0.46730233896E+03  0.48462179030E+03  0.12499866073E+03 0.  0.
          5    1    3    3  501    0  0.41788588293E+01 -0.21602947402E+02 -0.42919855330E+03  0.42976221140E+03  0.10000000000E+00 0. -1.
         -5    1    3    3    0  501 -0.33530545271E+02  0.20817479416E+02 -0.38103785662E+02  0.54859578901E+02  0.10000000000E+00 0. -1.
         21    1    1    2  504  503  0.29351686442E+02  0.78546798622E+00 -0.11075061847E+02  0.31381450761E+02  0.00000000000E+00 0.  1.
<mgrwt>
<rscale>  1 0.12840095E+03</rscale>
<asrwt>0</asrwt>
<pdfrwt beam="1">  1       21 0.28942955E-02 0.12840095E+03</pdfrwt>
<pdfrwt beam="2">  1       21 0.76490817E-01 0.12840095E+03</pdfrwt>
<totfact> 0.10251123E+06</totfact>
</mgrwt>
</event>
<event>
 6    1  0.4424270E-002  0.1295189E+03  0.7546771E-02  0.1228171E+00
         21   -1    0    0  504  502  0.00000000000E+00  0.00000000000E+00  0.16458472587E+02  0.16458472587E+02  0.00000000000E+00 0. -1.
         21   -1    0    0  502  503 -0.00000000000E+00 -0.00000000000E+00 -0.43727195128E+03  0.43727195128E+03  0.00000000000E+00 0. -1.
         25    2    1    2    0    0 -0.30504527697E+02  0.14821294887E+02 -0.27426913719E+03  0.30331286832E+03  0.12499975791E+03 0.  0.
          5    1    3    3  501    0  0.10398020360E+02  0.18815911970E+02  0.41346680261E+01  0.21892072774E+02  0.10000000000E+00 0. -1.
         -5    1    3    3    0  501 -0.40902548057E+02 -0.39946170829E+01 -0.27840380522E+03  0.28142079554E+03  0.10000000000E+00 0. -1.
         21    1    1    2  504  503  0.30504527697E+02 -0.14821294887E+02 -0.14654434150E+03  0.15041755555E+03  0.00000000000E+00 0. -1.
<mgrwt>
<rscale>  1 0.12951887E+03</rscale>
<asrwt>0</asrwt>
<pdfrwt beam="1">  1       21 0.25320729E-02 0.12951887E+03</pdfrwt>
<pdfrwt beam="2">  1       21 0.67272604E-01 0.12951887E+03</pdfrwt>
<totfact> 0.16894785E+06</totfact>
</mgrwt>
</event>
<event>
 6    1  0.4424270E-002  0.1265209E+03  0.7546771E-02  0.1232711E+00
         21   -1    0    0  504  502  0.00000000000E+00  0.00000000000E+00  0.58609717687E+02  0.58609717687E+02  0.00000000000E+00 0.  1.
         21   -1    0    0  502  503 -0.00000000000E+00 -0.00000000000E+00 -0.13691570673E+03  0.13691570673E+03  0.00000000000E+00 0.  1.
         25    2    1    2    0    0  0.15709092731E+02  0.11666771508E+02 -0.10361468543E+03  0.16353449969E+03  0.12499856160E+03 0.  0.
          5    1    3    3  501    0  0.58324498799E+02  0.93041060521E+01 -0.10539580219E+03  0.12081638411E+03  0.10000000000E+00 0. -1.
         -5    1    3    3    0  501 -0.42615406068E+02  0.23626654561E+01  0.17811167622E+01  0.42718115587E+02  0.10000000000E+00 0. -1.
         21    1    1    2  504  503 -0.15709092731E+02 -0.11666771508E+02  0.25308696385E+02  0.31990924722E+02  0.00000000000E+00 0. -1.
<mgrwt>
<rscale>  1 0.12652087E+03</rscale>
<asrwt>0</asrwt>
<pdfrwt beam="1">  1       21 0.90168797E-02 0.12652087E+03</pdfrwt>
<pdfrwt beam="2">  1       21 0.21063955E-01 0.12652087E+03</pdfrwt>
<totfact> 0.20261454E+06</totfact>
</mgrwt>
</event>
<event>
 6    1  0.4424270E-002  0.1286407E+03  0.7546771E-02  0.1229487E+00
         21   -1    0    0  503  502  0.00000000000E+00  0.00000000000E+00  0.29200879103E+01  0.29200879103E+01  0.00000000000E+00 0. -1.
         21   -1    0    0  504  503 -0.00000000000E+00 -0.00000000000E+00 -0.41992848203E+04  0.41992848203E+04  0.00000000000E+00 0. -1.
         25    2    1    2    0    0 -0.18489691353E+02 -0.24126866878E+02 -0.40770526999E+04  0.40790816550E+04  0.12499782300E+03 0.  0.
          5    1    3    3  501    0 -0.71498135289E+02 -0.15422589766E+02 -0.26762762915E+04  0.26772755999E+04  0.10000000000E+00 0.  1.
         -5    1    3    3    0  501  0.53008443935E+02 -0.87042771118E+01 -0.14007764084E+04  0.14018060551E+04  0.10000000000E+00 0.  1.
         21    1    1    2  504  502  0.18489691353E+02  0.24126866878E+02 -0.11931203248E+03  0.12312325323E+03  0.00000000000E+00 0. -1.
<mgrwt>
<rscale>  1 0.12864070E+03</rscale>
<asrwt>0</asrwt>
<pdfrwt beam="1">  1       21 0.44924487E-03 0.12864070E+03</pdfrwt>
<pdfrwt beam="2">  1       21 0.64604299E+00 0.12864070E+03</pdfrwt>
<totfact> 0.21319907E+03</totfact>
</mgrwt>
</event>
<event>
 6    1  0.4424270E-002  0.1260793E+03  0.7546771E-02  0.1233392E+00
         21   -1    0    0  503  502  0.00000000000E+00  0.00000000000E+00  0.33865040744E+01  0.33865040744E+01  0.00000000000E+00 0. -1.
         21   -1    0    0  504  503 -0.00000000000E+00 -0.00000000000E+00 -0.16851588630E+04  0.16851588630E+04  0.00000000000E+00 0. -1.
         25    2    1    2    0    0 -0.11878553372E+02  0.11394419223E+02 -0.16091188462E+04  0.16140506308E+04  0.12500017922E+03 0.  0.
          5    1    3    3  501    0  0.43568444343E+02  0.43082945277E+02 -0.68965466470E+03  0.69237122706E+03  0.10000000000E+00 0. -1.
         -5    1    3    3    0  501 -0.55446997714E+02 -0.31688526054E+02 -0.91946418150E+03  0.92167940376E+03  0.10000000000E+00 0. -1.
         21    1    1    2  504  502  0.11878553372E+02 -0.11394419223E+02 -0.72653512714E+02  0.74494736252E+02  0.00000000000E+00 0. -1.
<mgrwt>
<rscale>  1 0.12607925E+03</rscale>
<asrwt>0</asrwt>
<pdfrwt beam="1">  1       21 0.52099921E-03 0.12607925E+03</pdfrwt>
<pdfrwt beam="2">  1       21 0.25925592E+00 0.12607925E+03</pdfrwt>
<totfact> 0.63753304E+05</totfact>
</mgrwt>
</event>
<event>
 6    1  0.4424270E-002  0.1286334E+03  0.7546771E-02  0.1229498E+00
         21   -1    0    0  503  502  0.00000000000E+00  0.00000000000E+00  0.55590859562E+02  0.55590859562E+02  0.00000000000E+00 0. -1.
         21   -1    0    0  504  503 -0.00000000000E+00 -0.00000000000E+00 -0.57697890333E+03  0.57697890333E+03  0.00000000000E+00 0. -1.
         25    2    1    2    0    0 -0.13402650050E+02  0.27190646695E+02 -0.56499945977E+03  0.57945744886E+03  0.12501033235E+03 0.  0.
          5    1    3    3  501    0  0.38611283607E+02  0.54049283800E+01 -0.61547400507E+02  0.72856962480E+02  0.10000000000E+00 0.  1.
         -5    1    3    3    0  501 -0.52013933657E+02  0.21785718315E+02 -0.50345205927E+03  0.50660048638E+03  0.10000000000E+00 0.  1.
         21    1    1    2  504  502  0.13402650050E+02 -0.27190646695E+02  0.43611416006E+02  0.53112314035E+02  0.00000000000E+00 0. -1.
<mgrwt>
<rscale>  1 0.12863338E+03</rscale>
<asrwt>0</asrwt>
<pdfrwt beam="1">  1       21 0.85524398E-02 0.12863338E+03</pdfrwt>
<pdfrwt beam="2">  1       21 0.88765987E-01 0.12863338E+03</pdfrwt>
<totfact> 0.11875896E+05</totfact>
</mgrwt>
</event>
<event>
 6    1  0.4424270E-002  0.1296328E+03  0.7546771E-02  0.1228002E+00
         21   -1    0    0  504  502  0.00000000000E+00  0.00000000000E+00  0.62427059345E+02  0.62427059345E+02  0.00000000000E+00 0. -1.
         21   -1    0    0  502  503 -0.00000000000E+00 -0.00000000000E+00 -0.27190188385E+03  0.27190188385E+03  0.00000000000E+00 0. -1.
         25    2    1    2    0    0  0.36428334315E+00  0.34336469082E+02 -0.24975820028E+03  0.28139619175E+03  0.12500212922E+03 0.  0.
          5    1    3    3  501    0  0.38886074209E+02 -0.27011510196E+02 -0.15531096949E+03  0.16236765594E+03  0.10000000000E+00 0.  1.
         -5    1    3    3    0  501 -0.38521790866E+02  0.61347979278E+02 -0.94447230790E+02  0.11902853581E+03  0.10000000000E+00 0.  1.
         21    1    1    2  504  503 -0.36428334315E+00 -0.34336469082E+02  0.40283375779E+02  0.52932751445E+02  0.00000000000E+00 0. -1.
<mgrwt>
<rscale>  1 0.12963278E+03</rscale>
<asrwt>0</asrwt>
<pdfrwt beam="1">  1       21 0.96041628E-02 0.12963278E+03</pdfrwt>
<pdfrwt beam="2">  1       21 0.41831060E-01 0.12963278E+03</pdfrwt>
<totfact> 0.48356023E+05</totfact>
</mgrwt>
</event>
<event>
 6    1  0.4424270E-002  0.1259847E+03  0.7546771E-02  0.1233538E+00
         21   -1    0    0  503  502  0.00000000000E+00  0.00000000000E+00  0.99698253549E+02  0.99698253549E+02  0.00000000000E+00 0. -1.
         21   -1    0    0  504  503 -0.00000000000E+00 -0.00000000000E+00 -0.61274825053E+02  0.61274825053E+02  0.00000000000E+00 0. -1.
         25    2    1    2    0    0  0.89176592864E+01  0.12821655287E+02  0.73541035573E+01  0.12619920272E+03  0.12501294508E+03 0.  0.
          5    1    3    3  501    0  0.13427554810E+02 -0.23874906416E+02 -0.50551934614E+02  0.57496247510E+02  0.10000000000E+00 0. -1.
         -5    1    3    3    0  501 -0.45098955233E+01  0.36696561703E+02  0.57906038172E+02  0.68702955214E+02  0.10000000000E+00 0. -1.
         21    1    1    2  504  502 -0.89176592864E+01 -0.12821655287E+02  0.31069324938E+02  0.34773875877E+02  0.00000000000E+00 0. -1.
<mgrwt>
<rscale>  1 0.12598474E+03</rscale>
<asrwt>0</asrwt>
<pdfrwt beam="1">  1       21 0.15338193E-01 0.12598474E+03</pdfrwt>
<pdfrwt beam="2">  1       21 0.94268962E-02 0.12598474E+03</pdfrwt>
<totfact> 0.33506029E+06</totfact>
</mgrwt>
</event>
<event>
 6    1  0.4424270E-002  0.1320459E+03  0.7546771E-02  0.1224451E+00
         21   -1    0    0  504  502  0.00000000000E+00  0.00000000000E+00  0.12563335127E+03  0.12563335127E+03  0.00000000000E+00 0.  1.
         21   -1    0    0  502  503 -0.00000000000E+00 -0.00000000000E+00 -0.24510051212E+03  0.24510051212E+03  0.00000000000E+00 0.  1.
         25    2    1    2    0    0 -0.23936524497E+02 -0.35178487277E+02 -0.22279616323E+03  0.25898698018E+03  0.12500256950E+03 0.  0.
          5    1    3    3  501    0 -0.28692651323E+02  0.33857347904E+01 -0.21791859493E+03  0.21982551138E+03  0.10000000000E+00 0.  1.
         -5    1    3    3    0  501  0.47561268260E+01 -0.38564222067E+02 -0.48775683071E+01  0.39161468800E+02  0.10000000000E+00 0.  1.
         21    1    1    2  504  503  0.23936524497E+02  0.35178487277E+02  0.10332900239E+03  0.11174688321E+03  0.00000000000E+00 0.  1.
<mgrwt>
<rscale>  1 0.13204592E+03</rscale>
<asrwt>0</asrwt>
<pdfrwt beam="1">  1       21 0.19328208E-01 0.13204592E+03</pdfrwt>
<pdfrwt beam="2">  1       21 0.37707771E-01 0.13204592E+03</pdfrwt>
<totfact> 0.16993950E+05</totfact>
</mgrwt>
</event>
<event>
 6    1  0.4424270E-002  0.1259327E+03  0.7546771E-02  0.1233619E+00
         21   -1    0    0  504  502  0.00000000000E+00  0.00000000000E+00  0.57599204144E+02  0.57599204144E+02  0.00000000000E+00 0.  1.
         21   -1    0    0  502  503 -0.00000000000E+00 -0.00000000000E+00 -0.18784501836E+03  0.18784501836E+03  0.00000000000E+00 0.  1.
         25    2    1    2    0    0  0.13380973368E+02  0.81410345160E+01 -0.16485736679E+03  0.20745361231E+03  0.12495488381E+03 0.  0.
          5    1    3    3  501    0  0.56056354748E+02 -0.32543729950E+02 -0.10527418700E+03  0.12362877382E+03  0.10000000000E+00 0. -1.
         -5    1    3    3    0  501 -0.42675381380E+02  0.40684764466E+02 -0.59583179783E+02  0.83824838495E+02  0.10000000000E+00 0. -1.
         21    1    1    2  504  503 -0.13380973368E+02 -0.81410345160E+01  0.34611552571E+02  0.37990610190E+02  0.00000000000E+00 0.  1.
<mgrwt>
<rscale>  1 0.12593272E+03</rscale>
<asrwt>0</asrwt>
<pdfrwt beam="1">  1       21 0.88614159E-02 0.12593272E+03</pdfrwt>
<pdfrwt beam="2">  1       21 0.28899234E-01 0.12593272E+03</pdfrwt>
<totfact> 0.11497078E+06</totfact>
</mgrwt>
</event>
<event>
 6    1  0.4424270E-002  0.1336937E+03  0.7546771E-02  0.1222076E+00
         21   -1    0    0  503  502  0.00000000000E+00  0.00000000000E+00  0.32193191415E+02  0.32193191415E+02  0.00000000000E+00 0. -1.
         21   -1    0    0  504  503 -0.00000000000E+00 -0.00000000000E+00 -0.27740372820E+03  0.27740372820E+03  0.00000000000E+00 0. -1.
         25    2    1    2    0    0  0.21905755315E+02  0.42064996427E+02 -0.21559292993E+03  0.25368154896E+03  0.12499876321E+03 0.  0.
          5    1    3    3  501    0 -0.33531933374E+02  0.17388310498E+02 -0.17873575343E+03  0.18268339676E+03  0.10000000000E+00 0.  1.
         -5    1    3    3    0  501  0.55437688689E+02  0.24676685929E+02 -0.36857176504E+02  0.70998152198E+02  0.10000000000E+00 0.  1.
         21    1    1    2  504  502 -0.21905755315E+02 -0.42064996427E+02 -0.29617606854E+02  0.55915370660E+02  0.00000000000E+00 0. -1.
<mgrwt>
<rscale>  1 0.13369374E+03</rscale>
<asrwt>0</asrwt>
<pdfrwt beam="1">  1       21 0.49527986E-02 0.13369374E+03</pdfrwt>
<pdfrwt beam="2">  1       21 0.42677498E-01 0.13369374E+03</pdfrwt>
<totfact> 0.14420289E+06</totfact>
</mgrwt>
</event>
<event>
 6    1  0.4424270E-002  0.1285708E+03  0.7546771E-02  0.1229592E+00
         21   -1    0    0  504  502  0.00000000000E+00  0.00000000000E+00  0.31672573256E+02  0.31672573256E+02  0.00000000000E+00 0.  1.
         21   -1    0    0  502  503 -0.00000000000E+00 -0.00000000000E+00 -0.20409727195E+03  0.20409727195E+03  0.00000000000E+00 0.  1.
         25    2    1    2    0    0 -0.78097969915E+01 -0.29076963893E+02 -0.12320996576E+03  0.17807623467E+03  0.12499594767E+03 0.  0.
          5    1    3    3  501    0 -0.52726386589E+02  0.62866040169E+01 -0.10569889703E+03  0.11828719317E+03  0.10000000000E+00 0. -1.
         -5    1    3    3    0  501  0.44916589598E+02 -0.35363567910E+02 -0.17511068722E+02  0.59789041506E+02  0.10000000000E+00 0. -1.
         21    1    1    2  504  503  0.78097969915E+01  0.29076963893E+02 -0.49214732938E+02  0.57693610534E+02  0.00000000000E+00 0.  1.
<mgrwt>
<rscale>  1 0.12857080E+03</rscale>
<asrwt>0</asrwt>
<pdfrwt beam="1">  1       21 0.48727038E-02 0.12857080E+03</pdfrwt>
<pdfrwt beam="2">  1       21 0.31399579E-01 0.12857080E+03</pdfrwt>
<totfact> 0.27161948E+06</totfact>
</mgrwt>
</event>
<event>
 6    1  0.4424270E-002  0.1263119E+03  0.7546771E-02  0.1233033E+00
         21   -1    0    0  503  502  0.00000000000E+00  0.00000000000E+00  0.97536670449E+03  0.97536670449E+03  0.00000000000E+00 0. -1.
         21   -1    0    0  504  503 -0.00000000000E+00 -0.00000000000E+00 -0.36734129008E+02  0.36734129008E+02  0.00000000000E+00 0. -1.
         25    2    1    2    0    0  0.67506939597E+01 -0.16873638623E+02  0.72225900562E+02  0.14550356954E+03  0.12499766593E+03 0.  0.
          5    1    3    3  501    0 -0.11669469182E+02 -0.25581489079E+02 -0.30087704825E+02  0.41180930977E+02  0.10000000000E+00 0.  1.
         -5    1    3    3    0  501  0.18420163141E+02  0.87078504565E+01  0.10231360539E+03  0.10432263856E+03  0.10000000000E+00 0.  1.
         21    1    1    2  504  502 -0.67506939597E+01  0.16873638623E+02  0.86640667492E+03  0.86659726396E+03  0.00000000000E+00 0. -1.
<mgrwt>
<rscale>  1 0.12631195E+03</rscale>
<asrwt>0</asrwt>
<pdfrwt beam="1">  1       21 0.15005640E+00 0.12631195E+03</pdfrwt>
<pdfrwt beam="2">  1       21 0.56514052E-02 0.12631195E+03</pdfrwt>
<totfact> 0.67699318E+04</totfact>
</mgrwt>
</event>
<event>
 6    1  0.4424270E-002  0.1561613E+03  0.7546771E-02  0.1193100E+00
         21   -1    0    0  504  502  0.00000000000E+00  0.00000000000E+00  0.22763372107E+03  0.22763372107E+03  0.00000000000E+00 0. -1.
         21   -1    0    0  502  503 -0.00000000000E+00 -0.00000000000E+00 -0.10330906731E+03  0.10330906731E+03  0.00000000000E+00 0. -1.
         25    2    1    2    0    0 -0.15922226743E+01  0.93589830242E+02 -0.21527659423E+02  0.15763817575E+03  0.12499905135E+03 0.  0.
          5    1    3    3  501    0  0.54147417765E+02  0.66428391134E+02 -0.37595553009E+02  0.93584772294E+02  0.10000000000E+00 0.  1.
         -5    1    3    3    0  501 -0.55739640439E+02  0.27161439108E+02  0.16067893586E+02  0.64053403461E+02  0.10000000000E+00 0.  1.
         21    1    1    2  504  503  0.15922226743E+01 -0.93589830242E+02  0.14585231318E+03  0.17330461262E+03  0.00000000000E+00 0. -1.
<mgrwt>
<rscale>  1 0.15616131E+03</rscale>
<asrwt>0</asrwt>
<pdfrwt beam="1">  1       21 0.35020572E-01 0.15616131E+03</pdfrwt>
<pdfrwt beam="2">  1       21 0.15893703E-01 0.15616131E+03</pdfrwt>
<totfact> 0.27989485E+05</totfact>
</mgrwt>
</event>
<event>
 6    1  0.4424270E-002  0.1271573E+03  0.7546771E-02  0.1231736E+00
         21   -1    0    0  503  502  0.00000000000E+00  0.00000000000E+00  0.16133976585E+04  0.16133976585E+04  0.00000000000E+00 0.  1.
         21   -1    0    0  504  503 -0.00000000000E+00 -0.00000000000E+00 -0.17880168439E+02  0.17880168439E+02  0.00000000000E+00 0. -1.
         25    2    1    2    0    0  0.16270340409E+02 -0.16736448292E+02  0.20954160759E+03  0.24510540640E+03  0.12499656897E+03 0.  0.
          5    1    3    3  501    0  0.20037467292E+02 -0.69914287488E+02  0.10461121394E+03  0.12740888419E+03  0.10000000000E+00 0.  1.
         -5    1    3    3    0  501 -0.37671268833E+01  0.53177839196E+02  0.10493039365E+03  0.11769652220E+03  0.10000000000E+00 0.  1.
         21    1    1    2  504  502 -0.16270340409E+02  0.16736448292E+02  0.13859758825E+04  0.13861724205E+04  0.00000000000E+00 0.  1.
<mgrwt>
<rscale>  1 0.12715728E+03</rscale>
<asrwt>0</asrwt>
<pdfrwt beam="1">  1       21 0.24821491E+00 0.12715728E+03</pdfrwt>
<pdfrwt beam="2">  1       21 0.27507964E-02 0.12715728E+03</pdfrwt>
<totfact> 0.52622258E+04</totfact>
</mgrwt>
</event>
<event>
 6    1  0.4424270E-002  0.1395082E+03  0.7546771E-02  0.1213992E+00
         21   -1    0    0  504  502  0.00000000000E+00  0.00000000000E+00  0.94659150592E+02  0.94659150592E+02  0.00000000000E+00 0.  1.
         21   -1    0    0  502  503 -0.00000000000E+00 -0.00000000000E+00 -0.14815699731E+03  0.14815699731E+03  0.00000000000E+00 0.  1.
         25    2    1    2    0    0  0.32143852909E+02  0.52929532834E+02 -0.94540558177E+02  0.16852437925E+03  0.12501114564E+03 0.  0.
          5    1    3    3  501    0  0.17772204662E+02  0.78867229118E+02 -0.10885856352E+03  0.13559530943E+03  0.10000000000E+00 0. -1.
         -5    1    3    3    0  501  0.14371648247E+02 -0.25937696284E+02  0.14318005344E+02  0.32929069816E+02  0.10000000000E+00 0. -1.
         21    1    1    2  504  503 -0.32143852909E+02 -0.52929532834E+02  0.41042711461E+02  0.74291768655E+02  0.00000000000E+00 0.  1.
<mgrwt>
<rscale>  1 0.13950824E+03</rscale>
<asrwt>0</asrwt>
<pdfrwt beam="1">  1       21 0.14562946E-01 0.13950824E+03</pdfrwt>
<pdfrwt beam="2">  1       21 0.22793384E-01 0.13950824E+03</pdfrwt>
<totfact> 0.75024268E+05</totfact>
</mgrwt>
</event>
<event>
 6    1  0.4424270E-002  0.1266466E+03  0.7546771E-02  0.1232518E+00
         21   -1    0    0  504  502  0.00000000000E+00  0.00000000000E+00  0.56044419511E+03  0.56044419511E+03  0.00000000000E+00 0. -1.
         21   -1    0    0  502  503 -0.00000000000E+00 -0.00000000000E+00 -0.12910804549E+02  0.12910804549E+02  0.00000000000E+00 0. -1.
         25    2    1    2    0    0  0.18042377549E+02  0.93171660583E+01  0.30882859410E+03  0.33378806366E+03  0.12500813548E+03 0.  0.
          5    1    3    3  501    0  0.23219420583E+02  0.28001016243E+02  0.15043448880E+02  0.39363863594E+02  0.10000000000E+00 0. -1.
         -5    1    3    3    0  501 -0.51770430338E+01 -0.18683850185E+02  0.29378514522E+03  0.29442420007E+03  0.10000000000E+00 0. -1.
         21    1    1    2  504  503 -0.18042377549E+02 -0.93171660583E+01  0.23870479646E+03  0.23956693600E+03  0.00000000000E+00 0. -1.
<mgrwt>
<rscale>  1 0.12664664E+03</rscale>
<asrwt>0</asrwt>
<pdfrwt beam="1">  1       21 0.86222165E-01 0.12664664E+03</pdfrwt>
<pdfrwt beam="2">  1       21 0.19862781E-02 0.12664664E+03</pdfrwt>
<totfact> 0.14449640E+06</totfact>
</mgrwt>
</event>
<event>
 6    1  0.4424270E-002  0.1288882E+03  0.7546771E-02  0.1229115E+00
         21   -1    0    0  503  502  0.00000000000E+00  0.00000000000E+00  0.14052446940E+03  0.14052446940E+03  0.00000000000E+00 0.  1.
         21   -1    0    0  504  503 -0.00000000000E+00 -0.00000000000E+00 -0.16175593943E+03  0.16175593943E+03  0.00000000000E+00 0.  1.
         25    2    1    2    0    0 -0.12371356345E+02  0.28887062618E+02 -0.13357826860E+03  0.18562143579E+03  0.12499860294E+03 0.  0.
          5    1    3    3  501    0 -0.57963693512E+02  0.41970607739E+02 -0.11336115056E+03  0.13405999454E+03  0.10000000000E+00 0.  1.
         -5    1    3    3    0  501  0.45592337168E+02 -0.13083545121E+02 -0.20217118038E+02  0.51561441244E+02  0.10000000000E+00 0.  1.
         21    1    1    2  504  502  0.12371356345E+02 -0.28887062618E+02  0.11234679857E+03  0.11665897305E+03  0.00000000000E+00 0.  1.
<mgrwt>
<rscale>  1 0.12888818E+03</rscale>
<asrwt>0</asrwt>
<pdfrwt beam="1">  1       21 0.21619149E-01 0.12888818E+03</pdfrwt>
<pdfrwt beam="2">  1       21 0.24885529E-01 0.12888818E+03</pdfrwt>
<totfact> 0.30877213E+05</totfact>
</mgrwt>
</event>
<event>
 6    1  0.4424270E-002  0.1283603E+03  0.7546771E-02  0.1229909E+00
         21   -1    0    0  504  502  0.00000000000E+00  0.00000000000E+00  0.14946456739E+03  0.14946456739E+03  0.00000000000E+00 0.  1.
         21   -1    0    0  502  503 -0.00000000000E+00 -0.00000000000E+00 -0.84389249957E+02  0.84389249957E+02  0.00000000000E+00 0.  1.
         25    2    1    2    0    0  0.28933040865E+02 -0.38784178595E+01 -0.32162759222E+02  0.13232841890E+03  0.12499681751E+03 0.  0.
          5    1    3    3  501    0 -0.41023380117E+02 -0.27196662415E+02 -0.31778112807E+02  0.58586983336E+02  0.10000000000E+00 0. -1.
         -5    1    3    3    0  501  0.69956420983E+02  0.23318244556E+02 -0.38464641508E+00  0.73741435562E+02  0.10000000000E+00 0. -1.
         21    1    1    2  504  503 -0.28933040865E+02  0.38784178595E+01  0.97238076656E+02  0.10152539845E+03  0.00000000000E+00 0.  1.
<mgrwt>
<rscale>  1 0.12836030E+03</rscale>
<asrwt>0</asrwt>
<pdfrwt beam="1">  1       21 0.22994549E-01 0.12836030E+03</pdfrwt>
<pdfrwt beam="2">  1       21 0.12982962E-01 0.12836030E+03</pdfrwt>
<totfact> 0.90646202E+05</totfact>
</mgrwt>
</event>
<event>
 6    1  0.4424270E-002  0.1294296E+03  0.7546771E-02  0.1228305E+00
         21   -1    0    0  503  502  0.00000000000E+00  0.00000000000E+00  0.20553577144E+03  0.20553577144E+03  0.00000000000E+00 0. -1.
         21   -1    0    0  504  503 -0.00000000000E+00 -0.00000000000E+00 -0.39358008300E+02  0.39358008300E+02  0.00000000000E+00 0. -1.
         25    2    1    2    0    0 -0.32328452474E+02  0.90428400605E+01  0.79385379806E+02  0.15183562803E+03  0.12500047046E+03 0.  0.
          5    1    3    3  501    0 -0.43655166174E+02  0.37197417126E+02  0.99908064056E+02  0.11520005485E+03  0.10000000000E+00 0.  1.
         -5    1    3    3    0  501  0.11326713700E+02 -0.28154577066E+02 -0.20522684250E+02  0.36635573174E+02  0.10000000000E+00 0.  1.
         21    1    1    2  504  502  0.32328452474E+02 -0.90428400605E+01  0.86792383332E+02  0.93058151712E+02  0.00000000000E+00 0. -1.
<mgrwt>
<rscale>  1 0.12942959E+03</rscale>
<asrwt>0</asrwt>
<pdfrwt beam="1">  1       21 0.31620887E-01 0.12942959E+03</pdfrwt>
<pdfrwt beam="2">  1       21 0.60550783E-02 0.12942959E+03</pdfrwt>
<totfact> 0.18577713E+06</totfact>
</mgrwt>
</event>
<event>
 6    1  0.4424270E-002  0.1389212E+03  0.7546771E-02  0.1214788E+00
         21   -1    0    0  503  502  0.00000000000E+00  0.00000000000E+00  0.26307635972E+02  0.26307635972E+02  0.00000000000E+00 0.  1.
         21   -1    0    0  504  503 -0.00000000000E+00 -0.00000000000E+00 -0.78829381743E+03  0.78829381743E+03  0.00000000000E+00 0.  1.
         25    2    1    2    0    0 -0.47804994983E+02  0.37255427371E+02 -0.73542163806E+03  0.74842774729E+03  0.12500329109E+03 0.  0.
          5    1    3    3  501    0  0.33094134585E+02  0.45196330946E+02 -0.35756105171E+03  0.36192243060E+03  0.10000000000E+00 0. -1.
         -5    1    3    3    0  501 -0.80899129568E+02 -0.79409035748E+01 -0.37786058635E+03  0.38650531669E+03  0.10000000000E+00 0. -1.
         21    1    1    2  504  502  0.47804994983E+02 -0.37255427371E+02 -0.26564543401E+02  0.66173706108E+02  0.00000000000E+00 0.  1.
<mgrwt>
<rscale>  1 0.13892123E+03</rscale>
<asrwt>0</asrwt>
<pdfrwt beam="1">  1       21 0.40473296E-02 0.13892123E+03</pdfrwt>
<pdfrwt beam="2">  1       21 0.12127594E+00 0.13892123E+03</pdfrwt>
<totfact> 0.20136597E+05</totfact>
</mgrwt>
</event>
<event>
 6    1  0.4424270E-002  0.1495193E+03  0.7546771E-02  0.1201065E+00
         21   -1    0    0  504  502  0.00000000000E+00  0.00000000000E+00  0.59306323187E+03  0.59306323187E+03  0.00000000000E+00 0.  1.
         21   -1    0    0  502  503 -0.00000000000E+00 -0.00000000000E+00 -0.36046718823E+02  0.36046718823E+02  0.00000000000E+00 0.  1.
         25    2    1    2    0    0  0.75341867752E+02 -0.32480403854E+02  0.14248834184E+03  0.20654045535E+03  0.12499863385E+03 0.  0.
          5    1    3    3  501    0  0.79143212549E+02 -0.15198028266E+02  0.16154732969E+03  0.18053303821E+03  0.10000000000E+00 0. -1.
         -5    1    3    3    0  501 -0.38013447978E+01 -0.17282375588E+02 -0.19058987850E+02  0.26007417137E+02  0.10000000000E+00 0. -1.
         21    1    1    2  504  503 -0.75341867752E+02  0.32480403854E+02  0.41452817121E+03  0.42256949535E+03  0.00000000000E+00 0.  1.
<mgrwt>
<rscale>  1 0.14951934E+03</rscale>
<asrwt>0</asrwt>
<pdfrwt beam="1">  1       21 0.91240490E-01 0.14951934E+03</pdfrwt>
<pdfrwt beam="2">  1       21 0.55456495E-02 0.14951934E+03</pdfrwt>
<totfact> 0.23252368E+05</totfact>
</mgrwt>
</event>
<event>
 6    1  0.4424270E-002  0.1358387E+03  0.7546771E-02  0.1219041E+00
         21   -1    0    0  504  502  0.00000000000E+00  0.00000000000E+00  0.51791354231E+02  0.51791354231E+02  0.00000000000E+00 0.  1.
         21   -1    0    0  502  503 -0.00000000000E+00 -0.00000000000E+00 -0.21954810361E+03  0.21954810361E+03  0.00000000000E+00 0.  1.
         25    2    1    2    0    0 -0.18680817061E+02  0.49766378099E+02 -0.17063819354E+03  0.21810443144E+03  0.12500593828E+03 0.  0.
          5    1    3    3  501    0 -0.66409509107E+02  0.21795119343E+02 -0.13578917311E+03  0.15272183753E+03  0.10000000000E+00 0. -1.
         -5    1    3    3    0  501  0.47728692046E+02  0.27971258756E+02 -0.34849020440E+02  0.65382593910E+02  0.10000000000E+00 0. -1.
         21    1    1    2  504  503  0.18680817061E+02 -0.49766378099E+02  0.28814441641E+01  0.53235026399E+02  0.00000000000E+00 0.  1.
<mgrwt>
<rscale>  1 0.13583869E+03</rscale>
<asrwt>0</asrwt>
<pdfrwt beam="1">  1       21 0.79679006E-02 0.13583869E+03</pdfrwt>
<pdfrwt beam="2">  1       21 0.33776632E-01 0.13583869E+03</pdfrwt>
<totfact> 0.10219967E+06</totfact>
</mgrwt>
</event>
<event>
 6    1  0.4424270E-002  0.1265210E+03  0.7546771E-02  0.1232711E+00
         21   -1    0    0  503  502  0.00000000000E+00  0.00000000000E+00  0.29382737995E+03  0.29382737995E+03  0.00000000000E+00 0.  1.
         21   -1    0    0  504  503 -0.00000000000E+00 -0.00000000000E+00 -0.20313371138E+02  0.20313371138E+02  0.00000000000E+00 0.  1.
         25    2    1    2    0    0 -0.19553702010E+02  0.19836616128E+00  0.18931615345E+03  0.22770195506E+03  0.12500075107E+03 0.  0.
          5    1    3    3  501    0 -0.72019046079E+02  0.55279751730E+01  0.12664504212E+03  0.14579532984E+03  0.10000000000E+00 0.  1.
         -5    1    3    3    0  501  0.52465344069E+02 -0.53296090117E+01  0.62671111331E+02  0.81906625226E+02  0.10000000000E+00 0.  1.
         21    1    1    2  504  502  0.19553702010E+02 -0.19836616128E+00  0.84197855356E+02  0.86438796024E+02  0.00000000000E+00 0. -1.
<mgrwt>
<rscale>  1 0.12652104E+03</rscale>
<asrwt>0</asrwt>
<pdfrwt beam="1">  1       21 0.45204209E-01 0.12652104E+03</pdfrwt>
<pdfrwt beam="2">  1       21 0.31251342E-02 0.12652104E+03</pdfrwt>
<totfact> 0.27534991E+06</totfact>
</mgrwt>
</event>
<event>
 6    1  0.4424270E-002  0.1260657E+03  0.7546771E-02  0.1233413E+00
         21   -1    0    0  503  502  0.00000000000E+00  0.00000000000E+00  0.74963054444E+02  0.74963054444E+02  0.00000000000E+00 0.  1.
         21   -1    0    0  504  503 -0.00000000000E+00 -0.00000000000E+00 -0.88756388358E+02  0.88756388358E+02  0.00000000000E+00 0.  1.
         25    2    1    2    0    0 -0.33925997932E+01 -0.15988138406E+02 -0.40497353095E+02  0.13241073884E+03  0.12500175139E+03 0.  0.
          5    1    3    3  501    0 -0.61213716786E+02 -0.58982705547E+01 -0.70995952013E+00  0.61501404543E+02  0.10000000000E+00 0. -1.
         -5    1    3    3    0  501  0.57821116993E+02 -0.10089867852E+02 -0.39787393575E+02  0.70909334301E+02  0.10000000000E+00 0. -1.
         21    1    1    2  504  502  0.33925997932E+01  0.15988138406E+02  0.26704019181E+02  0.31308703958E+02  0.00000000000E+00 0.  1.
<mgrwt>
<rscale>  1 0.12606573E+03</rscale>
<asrwt>0</asrwt>
<pdfrwt beam="1">  1       21 0.11532778E-01 0.12606573E+03</pdfrwt>
<pdfrwt beam="2">  1       21 0.13654829E-01 0.12606573E+03</pdfrwt>
<totfact> 0.28994155E+06</totfact>
</mgrwt>
</event>
<event>
 6    1  0.4424270E-002  0.1288712E+03  0.7546771E-02  0.1229140E+00
         21   -1    0    0  503  502  0.00000000000E+00  0.00000000000E+00  0.13830290218E+04  0.13830290218E+04  0.00000000000E+00 0.  1.
         21   -1    0    0  504  503 -0.00000000000E+00 -0.00000000000E+00 -0.51807019738E+01  0.51807019738E+01  0.00000000000E+00 0.  1.
         25    2    1    2    0    0 -0.54776665236E+01 -0.30840710801E+02  0.88107532247E+03  0.89045017824E+03  0.12500656694E+03 0.  0.
          5    1    3    3  501    0  0.34994720612E+02 -0.41114990734E+02  0.17495986983E+03  0.18310117145E+03  0.10000000000E+00 0.  1.
         -5    1    3    3    0  501 -0.40472387136E+02  0.10274279933E+02  0.70611545264E+03  0.70734900679E+03  0.10000000000E+00 0.  1.
         21    1    1    2  504  502  0.54776665236E+01  0.30840710801E+02  0.49677299739E+03  0.49775954557E+03  0.00000000000E+00 0.  1.
<mgrwt>
<rscale>  1 0.12887124E+03</rscale>
<asrwt>0</asrwt>
<pdfrwt beam="1">  1       21 0.21277340E+00 0.12887124E+03</pdfrwt>
<pdfrwt beam="2">  1       21 0.79703218E-03 0.12887124E+03</pdfrwt>
<totfact> 0.61484506E+05</totfact>
</mgrwt>
</event>
<event>
 6    1  0.4424270E-002  0.2024434E+03  0.7546771E-02  0.1147694E+00
         21   -1    0    0  503  502  0.00000000000E+00  0.00000000000E+00  0.16799544743E+04  0.16799544743E+04  0.00000000000E+00 0. -1.
         21   -1    0    0  504  503 -0.00000000000E+00 -0.00000000000E+00 -0.52787542142E+02  0.52787542142E+02  0.00000000000E+00 0.  1.
         25    2    1    2    0    0  0.58604804868E+02  0.14808531229E+03  0.16291637749E+03  0.25985591436E+03  0.12497826733E+03 0.  0.
          5    1    3    3  501    0  0.57967817552E+02  0.36487964278E+02  0.12401028430E+03  0.14166933338E+03  0.10000000000E+00 0. -1.
         -5    1    3    3    0  501  0.63698731569E+00  0.11159734801E+03  0.38906093191E+02  0.11818658098E+03  0.10000000000E+00 0. -1.
         21    1    1    2  504  502 -0.58604804868E+02 -0.14808531229E+03  0.14642505547E+04  0.14728861021E+04  0.00000000000E+00 0. -1.
<mgrwt>
<rscale>  1 0.20244345E+03</rscale>
<asrwt>0</asrwt>
<pdfrwt beam="1">  1       21 0.25845449E+00 0.20244345E+03</pdfrwt>
<pdfrwt beam="2">  1       21 0.81211616E-02 0.20244345E+03</pdfrwt>
<totfact> 0.68675615E+03</totfact>
</mgrwt>
</event>
<event>
 6    1  0.4424270E-002  0.1283729E+03  0.7546771E-02  0.1229890E+00
         21   -1    0    0  504  502  0.00000000000E+00  0.00000000000E+00  0.36740681296E+02  0.36740681296E+02  0.00000000000E+00 0.  1.
         21   -1    0    0  502  503 -0.00000000000E+00 -0.00000000000E+00 -0.81636886788E+03  0.81636886788E+03  0.00000000000E+00 0.  1.
         25    2    1    2    0    0 -0.18972047865E+02 -0.22211309321E+02 -0.80454070964E+03  0.81471795286E+03  0.12500523342E+03 0.  0.
          5    1    3    3  501    0  0.21038881934E+02  0.45066647672E+02 -0.28333856437E+03  0.28767062649E+03  0.10000000000E+00 0. -1.
         -5    1    3    3    0  501 -0.40010929799E+02 -0.67277956993E+02 -0.52120214527E+03  0.52704732637E+03  0.10000000000E+00 0. -1.
         21    1    1    2  504  503  0.18972047865E+02  0.22211309321E+02  0.24912523062E+02  0.38391596311E+02  0.00000000000E+00 0.  1.
<mgrwt>
<rscale>  1 0.12837285E+03</rscale>
<asrwt>0</asrwt>
<pdfrwt beam="1">  1       21 0.56524126E-02 0.12837285E+03</pdfrwt>
<pdfrwt beam="2">  1       21 0.12559521E+00 0.12837285E+03</pdfrwt>
<totfact> 0.10594931E+05</totfact>
</mgrwt>
</event>
<event>
 6    1  0.4424270E-002  0.1259537E+03  0.7546771E-02  0.1233586E+00
         21   -1    0    0  504  502  0.00000000000E+00  0.00000000000E+00  0.11043141157E+03  0.11043141157E+03  0.00000000000E+00 0. -1.
         21   -1    0    0  502  503 -0.00000000000E+00 -0.00000000000E+00 -0.65919022003E+02  0.65919022003E+02  0.00000000000E+00 0. -1.
         25    2    1    2    0    0  0.14640016765E+02  0.52896453038E+01 -0.33726158855E+01  0.12599882798E+03  0.12498807814E+03 0.  0.
          5    1    3    3  501    0  0.10021473429E+02  0.29680896624E+02  0.54592027283E+02  0.62941917646E+02  0.10000000000E+00 0.  1.
         -5    1    3    3    0  501  0.46185433358E+01 -0.24391251321E+02 -0.57964643169E+02  0.63056910337E+02  0.10000000000E+00 0.  1.
         21    1    1    2  504  503 -0.14640016765E+02 -0.52896453038E+01  0.47885005451E+02  0.50351605588E+02  0.00000000000E+00 0. -1.
<mgrwt>
<rscale>  1 0.12595368E+03</rscale>
<asrwt>0</asrwt>
<pdfrwt beam="1">  1       21 0.16989448E-01 0.12595368E+03</pdfrwt>
<pdfrwt beam="2">  1       21 0.10141388E-01 0.12595368E+03</pdfrwt>
<totfact> 0.24504663E+06</totfact>
</mgrwt>
</event>
<event>
 6    1  0.4424270E-002  0.1329415E+03  0.7546771E-02  0.1223155E+00
         21   -1    0    0  503  502  0.00000000000E+00  0.00000000000E+00  0.10720367554E+03  0.10720367554E+03  0.00000000000E+00 0.  1.
         21   -1    0    0  504  503 -0.00000000000E+00 -0.00000000000E+00 -0.11965476558E+04  0.11965476558E+04  0.00000000000E+00 0.  1.
         25    2    1    2    0    0 -0.14803470540E+02  0.42743405145E+02 -0.11878971791E+04  0.11953129875E+04  0.12500915410E+03 0.  0.
          5    1    3    3  501    0  0.86820112810E+01  0.16108722110E+02 -0.20914622238E+02  0.27790280158E+02  0.10000000000E+00 0.  1.
         -5    1    3    3    0  501 -0.23485481821E+02  0.26634683035E+02 -0.11669825568E+04  0.11675227074E+04  0.10000000000E+00 0.  1.
         21    1    1    2  504  502  0.14803470540E+02 -0.42743405145E+02  0.98553198807E+02  0.10843834386E+03  0.00000000000E+00 0.  1.
<mgrwt>
<rscale>  1 0.13294145E+03</rscale>
<asrwt>0</asrwt>
<pdfrwt beam="1">  1       21 0.16492873E-01 0.13294145E+03</pdfrwt>
<pdfrwt beam="2">  1       21 0.18408426E+00 0.13294145E+03</pdfrwt>
<totfact> 0.59755144E+03</totfact>
</mgrwt>
</event>
<event>
 6    1  0.4424270E-002  0.1335240E+03  0.7546771E-02  0.1222319E+00
         21   -1    0    0  503  502  0.00000000000E+00  0.00000000000E+00  0.57948467797E+02  0.57948467797E+02  0.00000000000E+00 0. -1.
         21   -1    0    0  504  503 -0.00000000000E+00 -0.00000000000E+00 -0.14916024933E+03  0.14916024933E+03  0.00000000000E+00 0. -1.
         25    2    1    2    0    0  0.16339317152E+02  0.44016364996E+02 -0.88274506816E+02  0.16006574469E+03  0.12499696155E+03 0.  0.
          5    1    3    3  501    0  0.40298777579E+02  0.88750062731E+01  0.18432773184E+02  0.45194406048E+02  0.10000000000E+00 0. -1.
         -5    1    3    3    0  501 -0.23959460428E+02  0.35141358723E+02 -0.10670728000E+03  0.11487133864E+03  0.10000000000E+00 0. -1.
         21    1    1    2  504  502 -0.16339317152E+02 -0.44016364996E+02 -0.29372747125E+01  0.47042972431E+02  0.00000000000E+00 0. -1.
<mgrwt>
<rscale>  1 0.13352398E+03</rscale>
<asrwt>0</asrwt>
<pdfrwt beam="1">  1       21 0.89151490E-02 0.13352398E+03</pdfrwt>
<pdfrwt beam="2">  1       21 0.22947730E-01 0.13352398E+03</pdfrwt>
<totfact> 0.17637014E+06</totfact>
</mgrwt>
</event>
<event>
 6    1  0.4424270E-002  0.1386440E+03  0.7546771E-02  0.1215165E+00
         21   -1    0    0  503  502  0.00000000000E+00  0.00000000000E+00  0.16198013308E+03  0.16198013308E+03  0.00000000000E+00 0. -1.
         21   -1    0    0  504  503 -0.00000000000E+00 -0.00000000000E+00 -0.18340363645E+03  0.18340363645E+03  0.00000000000E+00 0. -1.
         25    2    1    2    0    0  0.55742710197E+02 -0.22125657248E+02 -0.14954146334E+03  0.20392350615E+03  0.12500141061E+03 0.  0.
          5    1    3    3  501    0  0.35603384911E+02  0.22352136689E+02 -0.14929210603E+03  0.15509791086E+03  0.10000000000E+00 0. -1.
         -5    1    3    3    0  501  0.20139325285E+02 -0.44477793937E+02 -0.24935731447E+00  0.48825595291E+02  0.10000000000E+00 0. -1.
         21    1    1    2  504  502 -0.55742710197E+02  0.22125657248E+02  0.12811795997E+03  0.14146026338E+03  0.00000000000E+00 0. -1.
<mgrwt>
<rscale>  1 0.13864396E+03</rscale>
<asrwt>0</asrwt>
<pdfrwt beam="1">  1       21 0.24920021E-01 0.13864396E+03</pdfrwt>
<pdfrwt beam="2">  1       21 0.28215944E-01 0.13864396E+03</pdfrwt>
<totfact> 0.18578020E+05</totfact>
</mgrwt>
</event>
<event>
 6    1  0.4424270E-002  0.1517754E+03  0.7546771E-02  0.1198308E+00
         21   -1    0    0  503  502  0.00000000000E+00  0.00000000000E+00  0.52575083323E+01  0.52575083323E+01  0.00000000000E+00 0.  1.
         21   -1    0    0  504  503 -0.00000000000E+00 -0.00000000000E+00 -0.28490981938E+04  0.28490981938E+04  0.00000000000E+00 0.  1.
         25    2    1    2    0    0 -0.86064635953E+02  0.25480649493E+01 -0.21168176619E+04  0.21222518222E+04  0.12498867530E+03 0.  0.
          5    1    3    3  501    0 -0.10908029584E+03 -0.15969038314E+02 -0.19268482806E+04  0.19299994371E+04  0.10000000000E+00 0. -1.
         -5    1    3    3    0  501  0.23015659882E+02  0.18517103263E+02 -0.18996938135E+03  0.19225238507E+03  0.10000000000E+00 0. -1.
         21    1    1    2  504  502  0.86064635953E+02 -0.25480649493E+01 -0.72702302352E+03  0.73210387987E+03  0.00000000000E+00 0.  1.
<mgrwt>
<rscale>  1 0.15177544E+03</rscale>
<asrwt>0</asrwt>
<pdfrwt beam="1">  1       21 0.80884742E-03 0.15177544E+03</pdfrwt>
<pdfrwt beam="2">  1       21 0.43832281E+00 0.15177544E+03</pdfrwt>
<totfact> 0.27567317E+04</totfact>
</mgrwt>
</event>
<event>
 6    1  0.4424270E-002  0.1260075E+03  0.7546771E-02  0.1233503E+00
         21   -1    0    0  503  502  0.00000000000E+00  0.00000000000E+00  0.80085184303E+02  0.80085184303E+02  0.00000000000E+00 0. -1.
         21   -1    0    0  504  503 -0.00000000000E+00 -0.00000000000E+00 -0.64149125568E+02  0.64149125568E+02  0.00000000000E+00 0. -1.
         25    2    1    2    0    0  0.28727344572E+01  0.15657977208E+02  0.75309418246E+01  0.12623234210E+03  0.12499785699E+03 0.  0.
          5    1    3    3  501    0 -0.37836410402E+02  0.35037377844E+02  0.44354821689E+02  0.68018909175E+02  0.10000000000E+00 0.  1.
         -5    1    3    3    0  501  0.40709144859E+02 -0.19379400637E+02 -0.36823879864E+02  0.58213432921E+02  0.10000000000E+00 0.  1.
         21    1    1    2  504  502 -0.28727344572E+01 -0.15657977208E+02  0.84051169105E+01  0.18001967775E+02  0.00000000000E+00 0. -1.
<mgrwt>
<rscale>  1 0.12600750E+03</rscale>
<asrwt>0</asrwt>
<pdfrwt beam="1">  1       21 0.12320798E-01 0.12600750E+03</pdfrwt>
<pdfrwt beam="2">  1       21 0.98690962E-02 0.12600750E+03</pdfrwt>
<totfact> 0.45774793E+06</totfact>
</mgrwt>
</event>
<event>
 6    1  0.4424270E-002  0.1323433E+03  0.7546771E-02  0.1224020E+00
         21   -1    0    0  503  502  0.00000000000E+00  0.00000000000E+00  0.13373720142E+03  0.13373720142E+03  0.00000000000E+00 0. -1.
         21   -1    0    0  504  503 -0.00000000000E+00 -0.00000000000E+00 -0.59879925599E+02  0.59879925599E+02  0.00000000000E+00 0. -1.
         25    2    1    2    0    0 -0.43474228619E+02 -0.53716260479E-01  0.70660382756E+02  0.15002548143E+03  0.12499897579E+03 0.  0.
          5    1    3    3  501    0 -0.31553678813E+02 -0.91275843625E+01 -0.32248530597E+02  0.46031784330E+02  0.10000000000E+00 0. -1.
         -5    1    3    3    0  501 -0.11920549806E+02  0.90738681021E+01  0.10290891335E+03  0.10399369710E+03  0.10000000000E+00 0. -1.
         21    1    1    2  504  502  0.43474228619E+02  0.53716260479E-01  0.31968930645E+01  0.43591645584E+02  0.00000000000E+00 0. -1.
<mgrwt>
<rscale>  1 0.13234332E+03</rscale>
<asrwt>0</asrwt>
<pdfrwt beam="1">  1       21 0.20574954E-01 0.13234332E+03</pdfrwt>
<pdfrwt beam="2">  1       21 0.92122963E-02 0.13234332E+03</pdfrwt>
<totfact> 0.20416237E+06</totfact>
</mgrwt>
</event>
<event>
 6    1  0.4424270E-002  0.1264433E+03  0.7546771E-02  0.1232831E+00
         21   -1    0    0  503  502  0.00000000000E+00  0.00000000000E+00  0.35872525164E+02  0.35872525164E+02  0.00000000000E+00 0. -1.
         21   -1    0    0  504  503 -0.00000000000E+00 -0.00000000000E+00 -0.16152791197E+03  0.16152791197E+03  0.00000000000E+00 0. -1.
         25    2    1    2    0    0 -0.10072601076E+02 -0.16111357029E+02 -0.12584968968E+03  0.17839857219E+03  0.12500749198E+03 0.  0.
          5    1    3    3  501    0  0.39121707689E+02  0.37870808179E-01  0.32957154477E+01  0.39260427749E+02  0.10000000000E+00 0.  1.
         -5    1    3    3    0  501 -0.49194308765E+02 -0.16149227837E+02 -0.12914540513E+03  0.13913814444E+03  0.10000000000E+00 0.  1.
         21    1    1    2  504  502  0.10072601076E+02  0.16111357029E+02  0.19430286758E+00  0.19001864944E+02  0.00000000000E+00 0. -1.
<mgrwt>
<rscale>  1 0.12644329E+03</rscale>
<asrwt>0</asrwt>
<pdfrwt beam="1">  1       21 0.55188500E-02 0.12644329E+03</pdfrwt>
<pdfrwt beam="2">  1       21 0.24850448E-01 0.12644329E+03</pdfrwt>
<totfact> 0.34437330E+06</totfact>
</mgrwt>
</event>
<event>
 6    1  0.4424270E-002  0.1310745E+03  0.7546771E-02  0.1225870E+00
         21   -1    0    0  503  502  0.00000000000E+00  0.00000000000E+00  0.26704758141E+03  0.26704758141E+03  0.00000000000E+00 0.  1.
         21   -1    0    0  504  503 -0.00000000000E+00 -0.00000000000E+00 -0.32739227978E+02  0.32739227978E+02  0.00000000000E+00 0.  1.
         25    2    1    2    0    0  0.35368008599E+02  0.17450512824E+02  0.11584260202E+03  0.17492868716E+03  0.12500048287E+03 0.  0.
          5    1    3    3  501    0  0.76703788912E+02  0.37125594870E+02  0.72444476865E+02  0.11184808115E+03  0.10000000000E+00 0. -1.
         -5    1    3    3    0  501 -0.41335780313E+02 -0.19675082045E+02  0.43398125159E+02  0.63080606012E+02  0.10000000000E+00 0. -1.
         21    1    1    2  504  502 -0.35368008599E+02 -0.17450512824E+02  0.11846575141E+03  0.12485812223E+03  0.00000000000E+00 0.  1.
<mgrwt>
<rscale>  1 0.13107455E+03</rscale>
<asrwt>0</asrwt>
<pdfrwt beam="1">  1       21 0.41084242E-01 0.13107455E+03</pdfrwt>
<pdfrwt beam="2">  1       21 0.50368045E-02 0.13107455E+03</pdfrwt>
<totfact> 0.15129699E+06</totfact>
</mgrwt>
</event>
<event>
 6    1  0.4424270E-002  0.1280764E+03  0.7546771E-02  0.1230338E+00
         21   -1    0    0  504  502  0.00000000000E+00  0.00000000000E+00  0.46465581735E+03  0.46465581735E+03  0.00000000000E+00 0.  1.
         21   -1    0    0  502  503 -0.00000000000E+00 -0.00000000000E+00 -0.20859806676E+02  0.20859806676E+02  0.00000000000E+00 0.  1.
         25    2    1    2    0    0 -0.26431965992E+02 -0.88746268139E+01  0.18376264933E+03  0.22399171147E+03  0.12500467068E+03 0.  0.
          5    1    3    3  501    0 -0.81009775091E+01  0.91328445596E+00  0.19840378347E+03  0.19857122455E+03  0.10000000000E+00 0.  1.
         -5    1    3    3    0  501 -0.18330988483E+02 -0.97879112699E+01 -0.14641134145E+02  0.25420486912E+02  0.10000000000E+00 0.  1.
         21    1    1    2  504  503  0.26431965992E+02  0.88746268139E+01  0.26003336135E+03  0.26152391256E+03  0.00000000000E+00 0.  1.
<mgrwt>
<rscale>  1 0.12807644E+03</rscale>
<asrwt>0</asrwt>
<pdfrwt beam="1">  1       21 0.71485502E-01 0.12807644E+03</pdfrwt>
<pdfrwt beam="2">  1       21 0.32092014E-02 0.12807644E+03</pdfrwt>
<totfact> 0.10043032E+06</totfact>
</mgrwt>
</event>
<event>
 6    1  0.4424270E-002  0.1410347E+03  0.7546771E-02  0.1211943E+00
         21   -1    0    0  503  502  0.00000000000E+00  0.00000000000E+00  0.36739329657E+03  0.36739329657E+03  0.00000000000E+00 0. -1.
         21   -1    0    0  504  503 -0.00000000000E+00 -0.00000000000E+00 -0.10040268171E+03  0.10040268171E+03  0.00000000000E+00 0.  1.
         25    2    1    2    0    0 -0.24290575552E+02 -0.60628298912E+02 -0.45779936729E+02  0.14827877901E+03  0.12499988403E+03 0.  0.
          5    1    3    3  501    0 -0.56931337895E+02  0.10115390248E+02  0.17749608047E+00  0.57823350467E+02  0.10000000000E+00 0. -1.
         -5    1    3    3    0  501  0.32640762343E+02 -0.70743689160E+02 -0.45957432809E+02  0.90455428542E+02  0.10000000000E+00 0. -1.
         21    1    1    2  504  502  0.24290575552E+02  0.60628298912E+02  0.31277055159E+03  0.31951719927E+03  0.00000000000E+00 0. -1.
<mgrwt>
<rscale>  1 0.14103473E+03</rscale>
<asrwt>0</asrwt>
<pdfrwt beam="1">  1       21 0.56522045E-01 0.14103473E+03</pdfrwt>
<pdfrwt beam="2">  1       21 0.15446567E-01 0.14103473E+03</pdfrwt>
<totfact> 0.11158877E+05</totfact>
</mgrwt>
</event>
<event>
 6    1  0.4424270E-002  0.1260463E+03  0.7546771E-02  0.1233443E+00
         21   -1    0    0  504  502  0.00000000000E+00  0.00000000000E+00  0.26396063739E+03  0.26396063739E+03  0.00000000000E+00 0. -1.
         21   -1    0    0  502  503 -0.00000000000E+00 -0.00000000000E+00 -0.31954566316E+02  0.31954566316E+02  0.00000000000E+00 0. -1.
         25    2    1    2    0    0  0.16162103797E+02  0.12826503740E+01  0.94704809778E+02  0.15766002245E+03  0.12499929157E+03 0.  0.
          5    1    3    3  501    0 -0.19808122271E+02 -0.44691852272E+02  0.85606902810E+02  0.98581312509E+02  0.10000000000E+00 0. -1.
         -5    1    3    3    0  501  0.35970226069E+02  0.45974502646E+02  0.90979069684E+01  0.59078709940E+02  0.10000000000E+00 0. -1.
         21    1    1    2  504  503 -0.16162103797E+02 -0.12826503740E+01  0.13730126130E+03  0.13825518126E+03  0.00000000000E+00 0. -1.
<mgrwt>
<rscale>  1 0.12604635E+03</rscale>
<asrwt>0</asrwt>
<pdfrwt beam="1">  1       21 0.40609327E-01 0.12604635E+03</pdfrwt>
<pdfrwt beam="2">  1       21 0.49160873E-02 0.12604635E+03</pdfrwt>
<totfact> 0.16118114E+06</totfact>
</mgrwt>
</event>
<event>
 6    1  0.4424270E-002  0.1819043E+03  0.7546771E-02  0.1165973E+00
         21   -1    0    0  503  502  0.00000000000E+00  0.00000000000E+00  0.61177008588E+03  0.61177008588E+03  0.00000000000E+00 0. -1.
         21   -1    0    0  504  503 -0.00000000000E+00 -0.00000000000E+00 -0.46182360257E+02  0.46182360257E+02  0.00000000000E+00 0. -1.
         25    2    1    2    0    0  0.63817078612E+02  0.11572896373E+03  0.20584446000E+03  0.27470183657E+03  0.12499337876E+03 0.  0.
          5    1    3    3  501    0  0.38463469864E+02  0.48591749448E+02  0.58817453053E+01  0.62251116907E+02  0.10000000000E+00 0. -1.
         -5    1    3    3    0  501  0.25353608748E+02  0.67137214287E+02  0.19996271469E+03  0.21245071966E+03  0.10000000000E+00 0. -1.
         21    1    1    2  504  502 -0.63817078612E+02 -0.11572896373E+03  0.35974326562E+03  0.38325060956E+03  0.00000000000E+00 0. -1.
<mgrwt>
<rscale>  1 0.18190425E+03</rscale>
<asrwt>0</asrwt>
<pdfrwt beam="1">  1       21 0.94118469E-01 0.18190425E+03</pdfrwt>
<pdfrwt beam="2">  1       21 0.71049789E-02 0.18190425E+03</pdfrwt>
<totfact> 0.14012182E+05</totfact>
</mgrwt>
</event>
<event>
 6    1  0.4424270E-002  0.1260160E+03  0.7546771E-02  0.1233490E+00
         21   -1    0    0  504  502  0.00000000000E+00  0.00000000000E+00  0.11136968598E+02  0.11136968598E+02  0.00000000000E+00 0. -1.
         21   -1    0    0  502  503 -0.00000000000E+00 -0.00000000000E+00 -0.48454758953E+03  0.48454758953E+03  0.00000000000E+00 0. -1.
         25    2    1    2    0    0 -0.88188867656E+01  0.13378907730E+02 -0.45002620865E+03  0.46733674210E+03  0.12499309624E+03 0.  0.
          5    1    3    3  501    0 -0.43009758516E+02  0.50083924222E+02 -0.16132636666E+03  0.17431134608E+03  0.10000000000E+00 0. -1.
         -5    1    3    3    0  501  0.34190871750E+02 -0.36705016492E+02 -0.28869984199E+03  0.29302539602E+03  0.10000000000E+00 0. -1.
         21    1    1    2  504  503  0.88188867656E+01 -0.13378907730E+02 -0.23384412284E+02  0.28347816030E+02  0.00000000000E+00 0. -1.
<mgrwt>
<rscale>  1 0.12601604E+03</rscale>
<asrwt>0</asrwt>
<pdfrwt beam="1">  1       21 0.17133797E-02 0.12601604E+03</pdfrwt>
<pdfrwt beam="2">  1       21 0.74545786E-01 0.12601604E+03</pdfrwt>
<totfact> 0.25362785E+06</totfact>
</mgrwt>
</event>
<event>
 6    1  0.4424270E-002  0.1267266E+03  0.7546771E-02  0.1232395E+00
         21   -1    0    0  503  502  0.00000000000E+00  0.00000000000E+00  0.18982700506E+03  0.18982700506E+03  0.00000000000E+00 0.  1.
         21   -1    0    0  504  503 -0.00000000000E+00 -0.00000000000E+00 -0.31137093247E+02  0.31137093247E+02  0.00000000000E+00 0.  1.
         25    2    1    2    0    0 -0.19762387831E+02 -0.66781404268E+01  0.10930252037E+03  0.16735193583E+03  0.12499791972E+03 0.  0.
          5    1    3    3  501    0 -0.55597434681E+02 -0.39237435910E+02  0.95016144790E+02  0.11687056469E+03  0.10000000000E+00 0.  1.
         -5    1    3    3    0  501  0.35835046850E+02  0.32559295483E+02  0.14286375584E+02  0.50481371143E+02  0.10000000000E+00 0.  1.
         21    1    1    2  504  502  0.19762387831E+02  0.66781404268E+01  0.49387391443E+02  0.53612162481E+02  0.00000000000E+00 0.  1.
<mgrwt>
<rscale>  1 0.12672659E+03</rscale>
<asrwt>0</asrwt>
<pdfrwt beam="1">  1       21 0.29204154E-01 0.12672659E+03</pdfrwt>
<pdfrwt beam="2">  1       21 0.47903222E-02 0.12672659E+03</pdfrwt>
<totfact> 0.32130115E+06</totfact>
</mgrwt>
</event>
<event>
 6    1  0.4424270E-002  0.1568325E+03  0.7546771E-02  0.1192320E+00
         21   -1    0    0  504  502  0.00000000000E+00  0.00000000000E+00  0.67447487098E+02  0.67447487098E+02  0.00000000000E+00 0. -1.
         21   -1    0    0  502  503 -0.00000000000E+00 -0.00000000000E+00 -0.27190529555E+03  0.27190529555E+03  0.00000000000E+00 0. -1.
         25    2    1    2    0    0  0.80612008815E+01 -0.94370806863E+02 -0.18522913054E+03  0.24270613655E+03  0.12500242306E+03 0.  0.
          5    1    3    3  501    0  0.51257573296E+02 -0.92370386807E+02 -0.92594878222E+02  0.14047579383E+03  0.10000000000E+00 0.  1.
         -5    1    3    3    0  501 -0.43196372415E+02 -0.20004200563E+01 -0.92634252321E+02  0.10223034272E+03  0.10000000000E+00 0.  1.
         21    1    1    2  504  503 -0.80612008815E+01  0.94370806863E+02 -0.19228677911E+02  0.96646646097E+02  0.00000000000E+00 0. -1.
<mgrwt>
<rscale>  1 0.15683252E+03</rscale>
<asrwt>0</asrwt>
<pdfrwt beam="1">  1       21 0.10376536E-01 0.15683252E+03</pdfrwt>
<pdfrwt beam="2">  1       21 0.41831585E-01 0.15683252E+03</pdfrwt>
<totfact> 0.42096780E+05</totfact>
</mgrwt>
</event>
<event>
 6    1  0.4424270E-002  0.1264523E+03  0.7546771E-02  0.1232817E+00
         21   -1    0    0  504  502  0.00000000000E+00  0.00000000000E+00  0.69892866378E+03  0.69892866378E+03  0.00000000000E+00 0. -1.
         21   -1    0    0  502  503 -0.00000000000E+00 -0.00000000000E+00 -0.20878508173E+02  0.20878508173E+02  0.00000000000E+00 0. -1.
         25    2    1    2    0    0 -0.55780768385E+01 -0.18282769825E+02  0.17243970136E+03  0.21383552644E+03  0.12499922860E+03 0.  0.
          5    1    3    3  501    0 -0.43860007185E+02 -0.35150452182E+02  0.26730010853E+02  0.62239521199E+02  0.10000000000E+00 0. -1.
         -5    1    3    3    0  501  0.38281930347E+02  0.16867682357E+02  0.14570969050E+03  0.15159600524E+03  0.10000000000E+00 0. -1.
         21    1    1    2  504  503  0.55780768385E+01  0.18282769825E+02  0.50561045425E+03  0.50597164551E+03  0.00000000000E+00 0. -1.
<mgrwt>
<rscale>  1 0.12645229E+03</rscale>
<asrwt>0</asrwt>
<pdfrwt beam="1">  1       21 0.10752747E+00 0.12645229E+03</pdfrwt>
<pdfrwt beam="2">  1       21 0.32120787E-02 0.12645229E+03</pdfrwt>
<totfact> 0.39581510E+05</totfact>
</mgrwt>
</event>
<event>
 6    1  0.4424270E-002  0.1291774E+03  0.7546771E-02  0.1228681E+00
         21   -1    0    0  504  502  0.00000000000E+00  0.00000000000E+00  0.29838486772E+03  0.29838486772E+03  0.00000000000E+00 0.  1.
         21   -1    0    0  502  503 -0.00000000000E+00 -0.00000000000E+00 -0.50286513683E+02  0.50286513683E+02  0.00000000000E+00 0.  1.
         25    2    1    2    0    0 -0.81298377241E+01  0.31599027536E+02  0.36030455391E+02  0.13410813563E+03  0.12498882159E+03 0.  0.
          5    1    3    3  501    0  0.45053239884E+02  0.45848149115E+02 -0.63991789955E+01  0.64597265369E+02  0.10000000000E+00 0. -1.
         -5    1    3    3    0  501 -0.53183077608E+02 -0.14249121579E+02  0.42429634387E+02  0.69510870257E+02  0.10000000000E+00 0. -1.
         21    1    1    2  504  503  0.81298377241E+01 -0.31599027536E+02  0.21206789864E+03  0.21456324578E+03  0.00000000000E+00 0.  1.
<mgrwt>
<rscale>  1 0.12917739E+03</rscale>
<asrwt>0</asrwt>
<pdfrwt beam="1">  1       21 0.45905363E-01 0.12917739E+03</pdfrwt>
<pdfrwt beam="2">  1       21 0.77363869E-02 0.12917739E+03</pdfrwt>
<totfact> 0.58270876E+05</totfact>
</mgrwt>
</event>
<event>
 6    1  0.4424270E-002  0.1259515E+03  0.7546771E-02  0.1233590E+00
         21   -1    0    0  503  502  0.00000000000E+00  0.00000000000E+00  0.72150312192E+02  0.72150312192E+02  0.00000000000E+00 0. -1.
         21   -1    0    0  504  503 -0.00000000000E+00 -0.00000000000E+00 -0.70089357360E+02  0.70089357360E+02  0.00000000000E+00 0. -1.
         25    2    1    2    0    0  0.13242502120E+02 -0.79836941184E+01 -0.29469652694E+01  0.12598597773E+03  0.12499871497E+03 0.  0.
          5    1    3    3  501    0  0.36996806182E+01  0.49621265991E+02 -0.33597913523E+02  0.60039882314E+02  0.10000000000E+00 0.  1.
         -5    1    3    3    0  501  0.95428215020E+01 -0.57604960109E+02  0.30650948254E+02  0.65946095413E+02  0.10000000000E+00 0.  1.
         21    1    1    2  504  502 -0.13242502120E+02  0.79836941184E+01  0.50079201011E+01  0.16253691824E+02  0.00000000000E+00 0. -1.
<mgrwt>
<rscale>  1 0.12595151E+03</rscale>
<asrwt>0</asrwt>
<pdfrwt beam="1">  1       21 0.11100048E-01 0.12595151E+03</pdfrwt>
<pdfrwt beam="2">  1       21 0.10782978E-01 0.12595151E+03</pdfrwt>
<totfact> 0.47131509E+06</totfact>
</mgrwt>
</event>
<event>
 6    1  0.4424270E-002  0.1263423E+03  0.7546771E-02  0.1232986E+00
         21   -1    0    0  504  502  0.00000000000E+00  0.00000000000E+00  0.40858172226E+02  0.40858172226E+02  0.00000000000E+00 0.  1.
         21   -1    0    0  502  503 -0.00000000000E+00 -0.00000000000E+00 -0.13108427148E+03  0.13108427148E+03  0.00000000000E+00 0.  1.
         25    2    1    2    0    0  0.18108918477E+02 -0.31378845910E+01 -0.86697453386E+02  0.15322799502E+03  0.12499836313E+03 0.  0.
          5    1    3    3  501    0 -0.35513086599E+02  0.42091085322E+02 -0.28109757996E+02  0.61830472083E+02  0.10000000000E+00 0.  1.
         -5    1    3    3    0  501  0.53622005076E+02 -0.45228969913E+02 -0.58587695391E+02  0.91397522937E+02  0.10000000000E+00 0.  1.
         21    1    1    2  504  503 -0.18108918477E+02  0.31378845910E+01 -0.35286458724E+01  0.18714448691E+02  0.00000000000E+00 0.  1.
<mgrwt>
<rscale>  1 0.12634227E+03</rscale>
<asrwt>0</asrwt>
<pdfrwt beam="1">  1       21 0.62858726E-02 0.12634227E+03</pdfrwt>
<pdfrwt beam="2">  1       21 0.20166811E-01 0.12634227E+03</pdfrwt>
<totfact> 0.40809216E+06</totfact>
</mgrwt>
</event>
<event>
 6    1  0.4424270E-002  0.1260361E+03  0.7546771E-02  0.1233459E+00
         21   -1    0    0  504  502  0.00000000000E+00  0.00000000000E+00  0.12367994034E+04  0.12367994034E+04  0.00000000000E+00 0. -1.
         21   -1    0    0  502  503 -0.00000000000E+00 -0.00000000000E+00 -0.51660567086E+01  0.51660567086E+01  0.00000000000E+00 0. -1.
         25    2    1    2    0    0  0.58287122684E+00  0.16077703281E+02  0.78592437472E+03  0.79596622247E+03  0.12500508888E+03 0.  0.
          5    1    3    3  501    0 -0.44991814476E+02  0.47267112389E+02  0.53933066676E+03  0.54326422797E+03  0.10000000000E+00 0.  1.
         -5    1    3    3    0  501  0.45574685703E+02 -0.31189409107E+02  0.24659370797E+03  0.25270199450E+03  0.10000000000E+00 0.  1.
         21    1    1    2  504  503 -0.58287122684E+00 -0.16077703281E+02  0.44570897193E+03  0.44599923760E+03  0.00000000000E+00 0. -1.
<mgrwt>
<rscale>  1 0.12603612E+03</rscale>
<asrwt>0</asrwt>
<pdfrwt beam="1">  1       21 0.19027659E+00 0.12603612E+03</pdfrwt>
<pdfrwt beam="2">  1       21 0.79477894E-03 0.12603612E+03</pdfrwt>
<totfact> 0.85509046E+05</totfact>
</mgrwt>
</event>
<event>
 6    1  0.4424270E-002  0.1317247E+03  0.7546771E-02  0.1224919E+00
         21   -1    0    0  504  502  0.00000000000E+00  0.00000000000E+00  0.65347446208E+03  0.65347446208E+03  0.00000000000E+00 0. -1.
         21   -1    0    0  502  503 -0.00000000000E+00 -0.00000000000E+00 -0.33520957061E+03  0.33520957061E+03  0.00000000000E+00 0. -1.
         25    2    1    2    0    0 -0.41072849566E+02  0.65307500455E+01 -0.32156763938E+03  0.34750129961E+03  0.12498710682E+03 0.  0.
          5    1    3    3  501    0  0.36266091593E+02  0.33711270126E+02 -0.11119920382E+03  0.12172490322E+03  0.10000000000E+00 0. -1.
         -5    1    3    3    0  501 -0.77338941158E+02 -0.27180520081E+02 -0.21036843556E+03  0.22577639640E+03  0.10000000000E+00 0. -1.
         21    1    1    2  504  503  0.41072849566E+02 -0.65307500455E+01  0.63983253085E+03  0.64118273308E+03  0.00000000000E+00 0. -1.
<mgrwt>
<rscale>  1 0.13172474E+03</rscale>
<asrwt>0</asrwt>
<pdfrwt beam="1">  1       21 0.10053453E+00 0.13172474E+03</pdfrwt>
<pdfrwt beam="2">  1       21 0.51570703E-01 0.13172474E+03</pdfrwt>
<totfact> 0.30728908E+03</totfact>
</mgrwt>
</event>
<event>
 6    1  0.4424270E-002  0.1287183E+03  0.7546771E-02  0.1229370E+00
         21   -1    0    0  503  502  0.00000000000E+00  0.00000000000E+00  0.42234726097E+02  0.42234726097E+02  0.00000000000E+00 0. -1.
         21   -1    0    0  504  503 -0.00000000000E+00 -0.00000000000E+00 -0.15396250493E+03  0.15396250493E+03  0.00000000000E+00 0. -1.
         25    2    1    2    0    0  0.10682457967E+02  0.28834104679E+02 -0.77778337774E+02  0.15039237267E+03  0.12499150143E+03 0.  0.
          5    1    3    3  501    0  0.34878525306E+02  0.28398813165E+02  0.20318627874E+02  0.49354440078E+02  0.10000000000E+00 0.  1.
         -5    1    3    3    0  501 -0.24196067340E+02  0.43529151369E+00 -0.98096965648E+02  0.10103793259E+03  0.10000000000E+00 0.  1.
         21    1    1    2  504  502 -0.10682457967E+02 -0.28834104679E+02 -0.33949441064E+02  0.45804858360E+02  0.00000000000E+00 0. -1.
<mgrwt>
<rscale>  1 0.12871828E+03</rscale>
<asrwt>0</asrwt>
<pdfrwt beam="1">  1       21 0.64976502E-02 0.12871828E+03</pdfrwt>
<pdfrwt beam="2">  1       21 0.23686539E-01 0.12871828E+03</pdfrwt>
<totfact> 0.28600659E+06</totfact>
</mgrwt>
</event>
<event>
 6    1  0.4424270E-002  0.1287010E+03  0.7546771E-02  0.1229396E+00
         21   -1    0    0  504  502  0.00000000000E+00  0.00000000000E+00  0.98783587762E+02  0.98783587762E+02  0.00000000000E+00 0.  1.
         21   -1    0    0  502  503 -0.00000000000E+00 -0.00000000000E+00 -0.10824500112E+03  0.10824500112E+03  0.00000000000E+00 0.  1.
         25    2    1    2    0    0 -0.10441966741E+02 -0.28816474755E+02 -0.64554614489E+02  0.14398348838E+03  0.12499809114E+03 0.  0.
          5    1    3    3  501    0 -0.50242135942E+01  0.44531298807E+02 -0.53208110934E+02  0.69565741316E+02  0.10000000000E+00 0.  1.
         -5    1    3    3    0  501 -0.54177531466E+01 -0.73347773562E+02 -0.11346503555E+02  0.74417747067E+02  0.10000000000E+00 0.  1.
         21    1    1    2  504  503  0.10441966741E+02  0.28816474755E+02  0.55093201129E+02  0.63045100502E+02  0.00000000000E+00 0.  1.
<mgrwt>
<rscale>  1 0.12870100E+03</rscale>
<asrwt>0</asrwt>
<pdfrwt beam="1">  1       21 0.15197475E-01 0.12870100E+03</pdfrwt>
<pdfrwt beam="2">  1       21 0.16653077E-01 0.12870100E+03</pdfrwt>
<totfact> 0.12395448E+06</totfact>
</mgrwt>
</event>
<event>
 6    1  0.4424270E-002  0.1391049E+03  0.7546771E-02  0.1214538E+00
         21   -1    0    0  503  502  0.00000000000E+00  0.00000000000E+00  0.59922511246E+03  0.59922511246E+03  0.00000000000E+00 0.  1.
         21   -1    0    0  504  503 -0.00000000000E+00 -0.00000000000E+00 -0.22227656968E+02  0.22227656968E+02  0.00000000000E+00 0.  1.
         25    2    1    2    0    0  0.57117149212E+02  0.21397857504E+02  0.22738576429E+03  0.26656043130E+03  0.12501976120E+03 0.  0.
          5    1    3    3  501    0  0.24814729545E+02  0.64136925073E+02  0.18766434609E+03  0.19986803835E+03  0.10000000000E+00 0. -1.
         -5    1    3    3    0  501  0.32302419668E+02 -0.42739067570E+02  0.39721418202E+02  0.66692392948E+02  0.10000000000E+00 0. -1.
         21    1    1    2  504  502 -0.57117149212E+02 -0.21397857504E+02  0.34961169120E+03  0.35489233813E+03  0.00000000000E+00 0.  1.
<mgrwt>
<rscale>  1 0.13910492E+03</rscale>
<asrwt>0</asrwt>
<pdfrwt beam="1">  1       21 0.92188467E-01 0.13910492E+03</pdfrwt>
<pdfrwt beam="2">  1       21 0.34196400E-02 0.13910492E+03</pdfrwt>
<totfact> 0.51082330E+05</totfact>
</mgrwt>
</event>
<event>
 6    1  0.4424270E-002  0.1259183E+03  0.7546771E-02  0.1233641E+00
         21   -1    0    0  503  502  0.00000000000E+00  0.00000000000E+00  0.30618830149E+03  0.30618830149E+03  0.00000000000E+00 0. -1.
         21   -1    0    0  504  503 -0.00000000000E+00 -0.00000000000E+00 -0.17797490978E+02  0.17797490978E+02  0.00000000000E+00 0. -1.
         25    2    1    2    0    0  0.87391933441E+01  0.12399672060E+02  0.21600230890E+03  0.25002485323E+03  0.12500121765E+03 0.  0.
          5    1    3    3  501    0  0.38636756692E+02  0.41721959824E+02  0.41056398908E+02  0.70136714997E+02  0.10000000000E+00 0. -1.
         -5    1    3    3    0  501 -0.29897563348E+02 -0.29322287764E+02  0.17494590999E+03  0.17988813823E+03  0.10000000000E+00 0. -1.
         21    1    1    2  504  502 -0.87391933441E+01 -0.12399672060E+02  0.72388501612E+02  0.73960939239E+02  0.00000000000E+00 0.  1.
<mgrwt>
<rscale>  1 0.12591835E+03</rscale>
<asrwt>0</asrwt>
<pdfrwt beam="1">  1       21 0.47105889E-01 0.12591835E+03</pdfrwt>
<pdfrwt beam="2">  1       21 0.27380758E-02 0.12591835E+03</pdfrwt>
<totfact> 0.31431552E+06</totfact>
</mgrwt>
</event>
<event>
 6    1  0.4424270E-002  0.1259782E+03  0.7546771E-02  0.1233548E+00
         21   -1    0    0  504  502  0.00000000000E+00  0.00000000000E+00  0.15895598087E+02  0.15895598087E+02  0.00000000000E+00 0.  1.
         21   -1    0    0  502  503 -0.00000000000E+00 -0.00000000000E+00 -0.33623458608E+03  0.33623458608E+03  0.00000000000E+00 0.  1.
         25    2    1    2    0    0  0.59181802063E+01 -0.14512303905E+02 -0.30587970282E+03  0.33080642396E+03  0.12499946286E+03 0.  0.
          5    1    3    3  501    0 -0.24255958000E+02 -0.63725783973E+02 -0.16034846102E+03  0.17424398409E+03  0.10000000000E+00 0. -1.
         -5    1    3    3    0  501  0.30174138206E+02  0.49213480068E+02 -0.14553124180E+03  0.15656243987E+03  0.10000000000E+00 0. -1.
         21    1    1    2  504  503 -0.59181802063E+01  0.14512303905E+02 -0.14459285170E+02  0.21323760203E+02  0.00000000000E+00 0.  1.
<mgrwt>
<rscale>  1 0.12597816E+03</rscale>
<asrwt>0</asrwt>
<pdfrwt beam="1">  1       21 0.24454768E-02 0.12597816E+03</pdfrwt>
<pdfrwt beam="2">  1       21 0.51728394E-01 0.12597816E+03</pdfrwt>
<totfact> 0.31164754E+06</totfact>
</mgrwt>
</event>
<event>
 6    1  0.4424270E-002  0.1260749E+03  0.7546771E-02  0.1233399E+00
         21   -1    0    0  503  502  0.00000000000E+00  0.00000000000E+00  0.14939049821E+03  0.14939049821E+03  0.00000000000E+00 0. -1.
         21   -1    0    0  504  503 -0.00000000000E+00 -0.00000000000E+00 -0.37317613127E+02  0.37317613127E+02  0.00000000000E+00 0. -1.
         25    2    1    2    0    0 -0.95548048815E+01 -0.13336566317E+02  0.76332896617E+02  0.14738248263E+03  0.12500290710E+03 0.  0.
          5    1    3    3  501    0  0.37363111355E+02  0.19564576957E+02  0.79495805418E+02  0.89990931992E+02  0.10000000000E+00 0. -1.
         -5    1    3    3    0  501 -0.46917916237E+02 -0.32901143275E+02 -0.31629088016E+01  0.57391550640E+02  0.10000000000E+00 0. -1.
         21    1    1    2  504  502  0.95548048815E+01  0.13336566317E+02  0.35739988468E+02  0.39325628706E+02  0.00000000000E+00 0. -1.
<mgrwt>
<rscale>  1 0.12607492E+03</rscale>
<asrwt>0</asrwt>
<pdfrwt beam="1">  1       21 0.22983153E-01 0.12607492E+03</pdfrwt>
<pdfrwt beam="2">  1       21 0.57411713E-02 0.12607492E+03</pdfrwt>
<totfact> 0.37306724E+06</totfact>
</mgrwt>
</event>
<event>
 6    1  0.4424270E-002  0.1268882E+03  0.7546771E-02  0.1232147E+00
         21   -1    0    0  504  502  0.00000000000E+00  0.00000000000E+00  0.21140059930E+02  0.21140059930E+02  0.00000000000E+00 0.  1.
         21   -1    0    0  502  503 -0.00000000000E+00 -0.00000000000E+00 -0.26154348343E+03  0.26154348343E+03  0.00000000000E+00 0.  1.
         25    2    1    2    0    0  0.71796304127E-01  0.21811904787E+02 -0.20653699005E+03  0.24240079693E+03  0.12499941499E+03 0.  0.
          5    1    3    3  501    0 -0.37599155121E+02 -0.37718768785E+02 -0.11635055518E+03  0.12796039886E+03  0.10000000000E+00 0.  1.
         -5    1    3    3    0  501  0.37670951425E+02  0.59530673572E+02 -0.90186434870E+02  0.11444039808E+03  0.10000000000E+00 0.  1.
         21    1    1    2  504  503 -0.71796304127E-01 -0.21811904787E+02 -0.33866433446E+02  0.40282746425E+02  0.00000000000E+00 0.  1.
<mgrwt>
<rscale>  1 0.12688821E+03</rscale>
<asrwt>0</asrwt>
<pdfrwt beam="1">  1       21 0.32523169E-02 0.12688821E+03</pdfrwt>
<pdfrwt beam="2">  1       21 0.40237459E-01 0.12688821E+03</pdfrwt>
<totfact> 0.32610535E+06</totfact>
</mgrwt>
</event>
<event>
 6    1  0.4424270E-002  0.1260793E+03  0.7546771E-02  0.1233392E+00
         21   -1    0    0  503  502  0.00000000000E+00  0.00000000000E+00  0.12895030588E+03  0.12895030588E+03  0.00000000000E+00 0. -1.
         21   -1    0    0  504  503 -0.00000000000E+00 -0.00000000000E+00 -0.45042040225E+02  0.45042040225E+02  0.00000000000E+00 0. -1.
         25    2    1    2    0    0 -0.16413408741E+02  0.10757557289E+01  0.48748851201E+02  0.13517557574E+03  0.12500171417E+03 0.  0.
          5    1    3    3  501    0  0.26517073630E+02  0.52640103400E+02  0.24519731272E+02  0.63838569075E+02  0.10000000000E+00 0. -1.
         -5    1    3    3    0  501 -0.42930482371E+02 -0.51564347671E+02  0.24229119929E+02  0.71337006664E+02  0.10000000000E+00 0. -1.
         21    1    1    2  504  502  0.16413408741E+02 -0.10757557289E+01  0.35159414455E+02  0.38816770367E+02  0.00000000000E+00 0. -1.
<mgrwt>
<rscale>  1 0.12607928E+03</rscale>
<asrwt>0</asrwt>
<pdfrwt beam="1">  1       21 0.19838508E-01 0.12607928E+03</pdfrwt>
<pdfrwt beam="2">  1       21 0.69295447E-02 0.12607928E+03</pdfrwt>
<totfact> 0.35623854E+06</totfact>
</mgrwt>
</event>
<event>
 6    1  0.4424270E-002  0.1283420E+03  0.7546771E-02  0.1229937E+00
         21   -1    0    0  503  502  0.00000000000E+00  0.00000000000E+00  0.10122635980E+03  0.10122635980E+03  0.00000000000E+00 0.  1.
         21   -1    0    0  504  503 -0.00000000000E+00 -0.00000000000E+00 -0.98392237884E+02  0.98392237884E+02  0.00000000000E+00 0.  1.
         25    2    1    2    0    0 -0.15069697819E+02  0.24957016366E+02 -0.51234742731E+02  0.13819066770E+03  0.12498685258E+03 0.  0.
          5    1    3    3  501    0 -0.41293977895E+01 -0.51183179252E+02 -0.22754315016E+02  0.56165279455E+02  0.10000000000E+00 0.  1.
         -5    1    3    3    0  501 -0.10940300030E+02  0.76140195618E+02 -0.28480427715E+02  0.82025388242E+02  0.10000000000E+00 0.  1.
         21    1    1    2  504  502  0.15069697819E+02 -0.24957016366E+02  0.54068864650E+02  0.61427929990E+02  0.00000000000E+00 0.  1.
<mgrwt>
<rscale>  1 0.12834197E+03</rscale>
<asrwt>0</asrwt>
<pdfrwt beam="1">  1       21 0.15573286E-01 0.12834197E+03</pdfrwt>
<pdfrwt beam="2">  1       21 0.15137267E-01 0.12834197E+03</pdfrwt>
<totfact> 0.14097271E+06</totfact>
</mgrwt>
</event>
<event>
 6    1  0.4424270E-002  0.1326376E+03  0.7546771E-02  0.1223594E+00
         21   -1    0    0  503  502  0.00000000000E+00  0.00000000000E+00  0.27409339799E+02  0.27409339799E+02  0.00000000000E+00 0.  1.
         21   -1    0    0  504  503 -0.00000000000E+00 -0.00000000000E+00 -0.31072126089E+03  0.31072126089E+03  0.00000000000E+00 0.  1.
         25    2    1    2    0    0  0.23025075122E+02  0.37920666716E+02 -0.24871307511E+03  0.28187039102E+03  0.12499837021E+03 0.  0.
          5    1    3    3  501    0 -0.23176744876E+02 -0.51424239457E+01  0.15204819479E+01  0.23789239005E+02  0.10000000000E+00 0. -1.
         -5    1    3    3    0  501  0.46201819998E+02  0.43063090662E+02 -0.25023355705E+03  0.25808115201E+03  0.10000000000E+00 0. -1.
         21    1    1    2  504  502 -0.23025075122E+02 -0.37920666716E+02 -0.34598845980E+02  0.56260209667E+02  0.00000000000E+00 0.  1.
<mgrwt>
<rscale>  1 0.13263756E+03</rscale>
<asrwt>0</asrwt>
<pdfrwt beam="1">  1       21 0.42168216E-02 0.13263756E+03</pdfrwt>
<pdfrwt beam="2">  1       21 0.47803269E-01 0.13263756E+03</pdfrwt>
<totfact> 0.14983335E+06</totfact>
</mgrwt>
</event>
<event>
 6    1  0.4424270E-002  0.1303517E+03  0.7546771E-02  0.1226935E+00
         21   -1    0    0  503  502  0.00000000000E+00  0.00000000000E+00  0.17882596252E+02  0.17882596252E+02  0.00000000000E+00 0.  1.
         21   -1    0    0  504  503 -0.00000000000E+00 -0.00000000000E+00 -0.39342367201E+03  0.39342367201E+03  0.00000000000E+00 0.  1.
         25    2    1    2    0    0  0.34672271519E+02 -0.12833671002E+02 -0.30427800646E+03  0.33102367631E+03  0.12499879817E+03 0.  0.
          5    1    3    3  501    0 -0.40922231134E+02 -0.32445614333E+02 -0.11844265299E+03  0.12944504215E+03  0.10000000000E+00 0.  1.
         -5    1    3    3    0  501  0.75594502653E+02  0.19611943331E+02 -0.18583535347E+03  0.20157863416E+03  0.10000000000E+00 0.  1.
         21    1    1    2  504  502 -0.34672271519E+02  0.12833671002E+02 -0.71263069307E+02  0.80282591953E+02  0.00000000000E+00 0.  1.
<mgrwt>
<rscale>  1 0.13035171E+03</rscale>
<asrwt>0</asrwt>
<pdfrwt beam="1">  1       21 0.27511687E-02 0.13035171E+03</pdfrwt>
<pdfrwt beam="2">  1       21 0.60526718E-01 0.13035171E+03</pdfrwt>
<totfact> 0.18514233E+06</totfact>
</mgrwt>
</event>
<event>
 6    1  0.4424270E-002  0.1569314E+03  0.7546771E-02  0.1192205E+00
         21   -1    0    0  504  502  0.00000000000E+00  0.00000000000E+00  0.87096598556E+02  0.87096598556E+02  0.00000000000E+00 0.  1.
         21   -1    0    0  502  503 -0.00000000000E+00 -0.00000000000E+00 -0.21405809433E+03  0.21405809433E+03  0.00000000000E+00 0.  1.
         25    2    1    2    0    0 -0.92755982163E+02  0.19932241674E+02 -0.13353204090E+03  0.20605401703E+03  0.12500594187E+03 0.  0.
          5    1    3    3  501    0 -0.11442144138E+03  0.17566365010E+02 -0.62091296797E+02  0.13136278988E+03  0.10000000000E+00 0.  1.
         -5    1    3    3    0  501  0.21665459216E+02  0.23658766634E+01 -0.71440744100E+02  0.74691227149E+02  0.10000000000E+00 0.  1.
         21    1    1    2  504  503  0.92755982163E+02 -0.19932241674E+02  0.65705451251E+01  0.95100675856E+02  0.00000000000E+00 0.  1.
<mgrwt>
<rscale>  1 0.15693136E+03</rscale>
<asrwt>0</asrwt>
<pdfrwt beam="1">  1       21 0.13399477E-01 0.15693136E+03</pdfrwt>
<pdfrwt beam="2">  1       21 0.32932014E-01 0.15693136E+03</pdfrwt>
<totfact> 0.43003904E+05</totfact>
</mgrwt>
</event>
<event>
 6    1  0.4424270E-002  0.1261892E+03  0.7546771E-02  0.1233222E+00
         21   -1    0    0  503  502  0.00000000000E+00  0.00000000000E+00  0.18486532675E+02  0.18486532675E+02  0.00000000000E+00 0.  1.
         21   -1    0    0  504  503 -0.00000000000E+00 -0.00000000000E+00 -0.28067793913E+03  0.28067793913E+03  0.00000000000E+00 0.  1.
         25    2    1    2    0    0  0.44897088693E+01  0.16722766063E+02 -0.23842507016E+03  0.26975958902E+03  0.12499565352E+03 0.  0.
          5    1    3    3  501    0  0.11988489139E+02 -0.19061141930E+02  0.54426363338E+01  0.23166426003E+02  0.10000000000E+00 0.  1.
         -5    1    3    3    0  501 -0.74987802694E+01  0.35783907993E+02 -0.24386770650E+03  0.24659316302E+03  0.10000000000E+00 0.  1.
         21    1    1    2  504  502 -0.44897088693E+01 -0.16722766063E+02 -0.23766336287E+02  0.29404882776E+02  0.00000000000E+00 0.  1.
<mgrwt>
<rscale>  1 0.12618923E+03</rscale>
<asrwt>0</asrwt>
<pdfrwt beam="1">  1       21 0.28440823E-02 0.12618923E+03</pdfrwt>
<pdfrwt beam="2">  1       21 0.43181217E-01 0.12618923E+03</pdfrwt>
<totfact> 0.35252725E+06</totfact>
</mgrwt>
</event>
<event>
 6    1  0.4424270E-002  0.1325538E+03  0.7546771E-02  0.1223715E+00
         21   -1    0    0  503  502  0.00000000000E+00  0.00000000000E+00  0.36573352266E+02  0.36573352266E+02  0.00000000000E+00 0.  1.
         21   -1    0    0  504  503 -0.00000000000E+00 -0.00000000000E+00 -0.33528454183E+03  0.33528454183E+03  0.00000000000E+00 0.  1.
         25    2    1    2    0    0 -0.28508758090E+02  0.33638524096E+02 -0.29975071683E+03  0.32775142963E+03  0.12500483108E+03 0.  0.
          5    1    3    3  501    0 -0.89835371561E+00  0.71582790338E+02 -0.10269068791E+03  0.12518103009E+03  0.10000000000E+00 0.  1.
         -5    1    3    3    0  501 -0.27610404374E+02 -0.37944266241E+02 -0.19706002892E+03  0.20257039954E+03  0.10000000000E+00 0.  1.
         21    1    1    2  504  502  0.28508758090E+02 -0.33638524096E+02  0.10395272609E+01  0.44106464471E+02  0.00000000000E+00 0.  1.
<mgrwt>
<rscale>  1 0.13255379E+03</rscale>
<asrwt>0</asrwt>
<pdfrwt beam="1">  1       21 0.56266697E-02 0.13255379E+03</pdfrwt>
<pdfrwt beam="2">  1       21 0.51582236E-01 0.13255379E+03</pdfrwt>
<totfact> 0.78919033E+05</totfact>
</mgrwt>
</event>
<event>
 6    1  0.4424270E-002  0.1259574E+03  0.7546771E-02  0.1233581E+00
         21   -1    0    0  504  502  0.00000000000E+00  0.00000000000E+00  0.43765675136E+03  0.43765675136E+03  0.00000000000E+00 0. -1.
         21   -1    0    0  502  503 -0.00000000000E+00 -0.00000000000E+00 -0.14361329527E+02  0.14361329527E+02  0.00000000000E+00 0. -1.
         25    2    1    2    0    0  0.11043020829E+02  0.10960892849E+02  0.26999921048E+03  0.29793427935E+03  0.12499268647E+03 0.  0.
          5    1    3    3  501    0 -0.30219413650E+02 -0.39432017148E+02  0.59099735648E+02  0.77206772315E+02  0.10000000000E+00 0. -1.
         -5    1    3    3    0  501  0.41262434480E+02  0.50392909997E+02  0.21089947483E+03  0.22072750703E+03  0.10000000000E+00 0. -1.
         21    1    1    2  504  503 -0.11043020829E+02 -0.10960892849E+02  0.15329621135E+03  0.15408380154E+03  0.00000000000E+00 0. -1.
<mgrwt>
<rscale>  1 0.12595738E+03</rscale>
<asrwt>0</asrwt>
<pdfrwt beam="1">  1       21 0.67331798E-01 0.12595738E+03</pdfrwt>
<pdfrwt beam="2">  1       21 0.22094356E-02 0.12595738E+03</pdfrwt>
<totfact> 0.21028413E+06</totfact>
</mgrwt>
</event>
<event>
 6    1  0.4424270E-002  0.1267863E+03  0.7546771E-02  0.1232304E+00
         21   -1    0    0  503  502  0.00000000000E+00  0.00000000000E+00  0.15952699332E+03  0.15952699332E+03  0.00000000000E+00 0. -1.
         21   -1    0    0  504  503 -0.00000000000E+00 -0.00000000000E+00 -0.50319961148E+03  0.50319961148E+03  0.00000000000E+00 0.  1.
         25    2    1    2    0    0  0.19437903003E+02  0.84973258153E+01 -0.49445904023E+03  0.51045519677E+03  0.12499891529E+03 0.  0.
          5    1    3    3  501    0 -0.24170694969E+01 -0.38784473694E+02 -0.40557879383E+03  0.40743618596E+03  0.10000000000E+00 0. -1.
         -5    1    3    3    0  501  0.21854972500E+02  0.47281799509E+02 -0.88880246401E+02  0.10301901081E+03  0.10000000000E+00 0. -1.
         21    1    1    2  504  502 -0.19437903003E+02 -0.84973258153E+01  0.15078642207E+03  0.15227140802E+03  0.00000000000E+00 0. -1.
<mgrwt>
<rscale>  1 0.12678630E+03</rscale>
<asrwt>0</asrwt>
<pdfrwt beam="1">  1       21 0.24542615E-01 0.12678630E+03</pdfrwt>
<pdfrwt beam="2">  1       21 0.77415324E-01 0.12678630E+03</pdfrwt>
<totfact> 0.24224862E+04</totfact>
</mgrwt>
</event>
<event>
 6    1  0.4424270E-002  0.1528782E+03  0.7546771E-02  0.1196980E+00
         21   -1    0    0  504  502  0.00000000000E+00  0.00000000000E+00  0.10368296952E+03  0.10368296952E+03  0.00000000000E+00 0.  1.
         21   -1    0    0  502  503 -0.00000000000E+00 -0.00000000000E+00 -0.60574326235E+03  0.60574326235E+03  0.00000000000E+00 0. -1.
         25    2    1    2    0    0 -0.66218218872E+02  0.57971669654E+02 -0.57508996591E+03  0.59506321275E+03  0.12500476504E+03 0.  0.
          5    1    3    3  501    0 -0.83121593206E+02  0.86076945480E+02 -0.46864251438E+03  0.48367784328E+03  0.10000000000E+00 0. -1.
         -5    1    3    3    0  501  0.16903374334E+02 -0.28105275827E+02 -0.10644745153E+03  0.11138536947E+03  0.10000000000E+00 0. -1.
         21    1    1    2  504  503  0.66218218872E+02 -0.57971669654E+02  0.73029673077E+02  0.11436301912E+03  0.00000000000E+00 0.  1.
<mgrwt>
<rscale>  1 0.15287825E+03</rscale>
<asrwt>0</asrwt>
<pdfrwt beam="1">  1       21 0.15951226E-01 0.15287825E+03</pdfrwt>
<pdfrwt beam="2">  1       21 0.93191271E-01 0.15287825E+03</pdfrwt>
<totfact> 0.34746183E+04</totfact>
</mgrwt>
</event>
<event>
 6    1  0.4424270E-002  0.1262666E+03  0.7546771E-02  0.1233103E+00
         21   -1    0    0  504  502  0.00000000000E+00  0.00000000000E+00  0.49553783750E+02  0.49553783750E+02  0.00000000000E+00 0. -1.
         21   -1    0    0  502  503 -0.00000000000E+00 -0.00000000000E+00 -0.16258336837E+03  0.16258336837E+03  0.00000000000E+00 0. -1.
         25    2    1    2    0    0  0.81613788556E+01 -0.15883096573E+02 -0.13431918349E+03  0.18434996296E+03  0.12499753969E+03 0.  0.
          5    1    3    3  501    0 -0.24638209946E+02 -0.41448850820E+02 -0.49632913909E+01  0.48473630822E+02  0.10000000000E+00 0.  1.
         -5    1    3    3    0  501  0.32799588801E+02  0.25565754247E+02 -0.12935589210E+03  0.13587633214E+03  0.10000000000E+00 0.  1.
         21    1    1    2  504  503 -0.81613788556E+01  0.15883096573E+02  0.21289598865E+02  0.27787189160E+02  0.00000000000E+00 0. -1.
<mgrwt>
<rscale>  1 0.12626665E+03</rscale>
<asrwt>0</asrwt>
<pdfrwt beam="1">  1       21 0.76236589E-02 0.12626665E+03</pdfrwt>
<pdfrwt beam="2">  1       21 0.25012826E-01 0.12626665E+03</pdfrwt>
<totfact> 0.19624229E+06</totfact>
</mgrwt>
</event>
<event>
 6    1  0.4424270E-002  0.1307365E+03  0.7546771E-02  0.1226367E+00
         21   -1    0    0  504  502  0.00000000000E+00  0.00000000000E+00  0.31978155971E+01  0.31978155971E+01  0.00000000000E+00 0.  1.
         21   -1    0    0  502  503 -0.00000000000E+00 -0.00000000000E+00 -0.23948282860E+04  0.23948282860E+04  0.00000000000E+00 0.  1.
         25    2    1    2    0    0  0.38286715501E+02 -0.95029772458E+00 -0.15417474069E+04  0.15472805479E+04  0.12500100527E+03 0.  0.
          5    1    3    3  501    0  0.12778788585E+02  0.36478838277E+02 -0.15340872515E+03  0.15820319224E+03  0.10000000000E+00 0.  1.
         -5    1    3    3    0  501  0.25507926916E+02 -0.37429136002E+02 -0.13883386818E+04  0.13890773556E+04  0.10000000000E+00 0.  1.
         21    1    1    2  504  503 -0.38286715501E+02  0.95029772458E+00 -0.84988306349E+03  0.85074555377E+03  0.00000000000E+00 0.  1.
<mgrwt>
<rscale>  1 0.13073648E+03</rscale>
<asrwt>0</asrwt>
<pdfrwt beam="1">  1       21 0.49197269E-03 0.13073648E+03</pdfrwt>
<pdfrwt beam="2">  1       21 0.36843433E+00 0.13073648E+03</pdfrwt>
<totfact> 0.16612109E+05</totfact>
</mgrwt>
</event>
<event>
 6    1  0.4424270E-002  0.1320618E+03  0.7546771E-02  0.1224428E+00
         21   -1    0    0  504  502  0.00000000000E+00  0.00000000000E+00  0.25528836176E+04  0.25528836176E+04  0.00000000000E+00 0. -1.
         21   -1    0    0  502  503 -0.00000000000E+00 -0.00000000000E+00 -0.35428135319E+01  0.35428135319E+01  0.00000000000E+00 0. -1.
         25    2    1    2    0    0 -0.39828451874E+02  0.15011495251E+02  0.13782836663E+04  0.13845960379E+04  0.12501469045E+03 0.  0.
          5    1    3    3  501    0  0.16217556198E+02 -0.51176340769E+01  0.10944644074E+04  0.10945965231E+04  0.10000000000E+00 0.  1.
         -5    1    3    3    0  501 -0.56046008072E+02  0.20129129328E+02  0.28381925891E+03  0.28999951482E+03  0.10000000000E+00 0.  1.
         21    1    1    2  504  503  0.39828451874E+02 -0.15011495251E+02  0.11710571378E+04  0.11718303933E+04  0.00000000000E+00 0. -1.
<mgrwt>
<rscale>  1 0.13206182E+03</rscale>
<asrwt>0</asrwt>
<pdfrwt beam="1">  1       21 0.39274986E+00 0.13206182E+03</pdfrwt>
<pdfrwt beam="2">  1       21 0.54505028E-03 0.13206182E+03</pdfrwt>
<totfact> 0.10129385E+05</totfact>
</mgrwt>
</event>
<event>
 6    1  0.4424270E-002  0.1335822E+03  0.7546771E-02  0.1222235E+00
         21   -1    0    0  504  502  0.00000000000E+00  0.00000000000E+00  0.10245500926E+03  0.10245500926E+03  0.00000000000E+00 0.  1.
         21   -1    0    0  502  503 -0.00000000000E+00 -0.00000000000E+00 -0.86979377577E+02  0.86979377577E+02  0.00000000000E+00 0.  1.
         25    2    1    2    0    0 -0.17732746272E+02  0.43636462893E+02 -0.13292626853E+02  0.13424196088E+03  0.12500247577E+03 0.  0.
          5    1    3    3  501    0 -0.36804117491E+02  0.68095932432E+02 -0.45288157194E+02  0.89680690564E+02  0.10000000000E+00 0.  1.
         -5    1    3    3    0  501  0.19071371220E+02 -0.24459469539E+02  0.31995530341E+02  0.44561270315E+02  0.10000000000E+00 0.  1.
         21    1    1    2  504  503  0.17732746272E+02 -0.43636462893E+02  0.28768258540E+02  0.55192425962E+02  0.00000000000E+00 0.  1.
<mgrwt>
<rscale>  1 0.13358222E+03</rscale>
<asrwt>0</asrwt>
<pdfrwt beam="1">  1       21 0.15762309E-01 0.13358222E+03</pdfrwt>
<pdfrwt beam="2">  1       21 0.13381443E-01 0.13358222E+03</pdfrwt>
<totfact> 0.17226163E+06</totfact>
</mgrwt>
</event>
<event>
 6    1  0.4424270E-002  0.1310398E+03  0.7546771E-02  0.1225921E+00
         21   -1    0    0  503  502  0.00000000000E+00  0.00000000000E+00  0.27966253210E+03  0.27966253210E+03  0.00000000000E+00 0.  1.
         21   -1    0    0  504  503 -0.00000000000E+00 -0.00000000000E+00 -0.35610625134E+02  0.35610625134E+02  0.00000000000E+00 0.  1.
         25    2    1    2    0    0  0.38266095651E+02 -0.90670388758E+01  0.96949862009E+02  0.16300524564E+03  0.12499971637E+03 0.  0.
          5    1    3    3  501    0 -0.10922282546E+02 -0.46680191794E+02  0.88310245933E+02  0.10048405893E+03  0.10000000000E+00 0. -1.
         -5    1    3    3    0  501  0.49188378198E+02  0.37613152918E+02  0.86396160762E+01  0.62521186714E+02  0.10000000000E+00 0. -1.
         21    1    1    2  504  502 -0.38266095651E+02  0.90670388758E+01  0.14710204496E+03  0.15226791160E+03  0.00000000000E+00 0.  1.
<mgrwt>
<rscale>  1 0.13103982E+03</rscale>
<asrwt>0</asrwt>
<pdfrwt beam="1">  1       21 0.43025003E-01 0.13103982E+03</pdfrwt>
<pdfrwt beam="2">  1       21 0.54785579E-02 0.13103982E+03</pdfrwt>
<totfact> 0.11966293E+06</totfact>
</mgrwt>
</event>
<event>
 6    1  0.4424270E-002  0.1262551E+03  0.7546771E-02  0.1233121E+00
         21   -1    0    0  504  502  0.00000000000E+00  0.00000000000E+00  0.32653911827E+03  0.32653911827E+03  0.00000000000E+00 0. -1.
         21   -1    0    0  502  503 -0.00000000000E+00 -0.00000000000E+00 -0.63480838297E+03  0.63480838297E+03  0.00000000000E+00 0. -1.
         25    2    1    2    0    0 -0.15706485270E+02 -0.82610117942E+01 -0.62828247711E+03  0.64084259627E+03  0.12500169664E+03 0.  0.
          5    1    3    3  501    0  0.23025837457E+01 -0.37436466352E+02 -0.55209936756E+02  0.66745322094E+02  0.10000000000E+00 0.  1.
         -5    1    3    3    0  501 -0.18009069016E+02  0.29175454558E+02 -0.57307254035E+03  0.57409727418E+03  0.10000000000E+00 0.  1.
         21    1    1    2  504  503  0.15706485270E+02  0.82610117942E+01  0.32001321241E+03  0.32050490497E+03  0.00000000000E+00 0. -1.
<mgrwt>
<rscale>  1 0.12625515E+03</rscale>
<asrwt>0</asrwt>
<pdfrwt beam="1">  1       21 0.50236788E-01 0.12625515E+03</pdfrwt>
<pdfrwt beam="2">  1       21 0.97662827E-01 0.12625515E+03</pdfrwt>
<totfact> 0.34933664E+03</totfact>
</mgrwt>
</event>
<event>
 6    1  0.4424270E-002  0.1385714E+03  0.7546771E-02  0.1215264E+00
         21   -1    0    0  503  502  0.00000000000E+00  0.00000000000E+00  0.24957481864E+03  0.24957481864E+03  0.00000000000E+00 0. -1.
         21   -1    0    0  504  503 -0.00000000000E+00 -0.00000000000E+00 -0.56352051611E+02  0.56352051611E+02  0.00000000000E+00 0. -1.
         25    2    1    2    0    0 -0.12940833546E+02 -0.58403419083E+02  0.44366540836E+02  0.14550056128E+03  0.12499439529E+03 0.  0.
          5    1    3    3  501    0 -0.40911622614E+02 -0.21262614403E+02 -0.31978636277E+02  0.56111521226E+02  0.10000000000E+00 0.  1.
         -5    1    3    3    0  501  0.27970789069E+02 -0.37140804680E+02  0.76345177113E+02  0.89389040054E+02  0.10000000000E+00 0.  1.
         21    1    1    2  504  502  0.12940833546E+02  0.58403419083E+02  0.14885622619E+03  0.16042630897E+03  0.00000000000E+00 0. -1.
<mgrwt>
<rscale>  1 0.13857137E+03</rscale>
<asrwt>0</asrwt>
<pdfrwt beam="1">  1       21 0.38396125E-01 0.13857137E+03</pdfrwt>
<pdfrwt beam="2">  1       21 0.86695466E-02 0.13857137E+03</pdfrwt>
<totfact> 0.68561803E+05</totfact>
</mgrwt>
</event>
<event>
 6    1  0.4424270E-002  0.1260962E+03  0.7546771E-02  0.1233366E+00
         21   -1    0    0  504  502  0.00000000000E+00  0.00000000000E+00  0.15418492920E+03  0.15418492920E+03  0.00000000000E+00 0. -1.
         21   -1    0    0  502  503 -0.00000000000E+00 -0.00000000000E+00 -0.33726703567E+02  0.33726703567E+02  0.00000000000E+00 0. -1.
         25    2    1    2    0    0 -0.13753467073E+02 -0.92951473158E+01  0.11434894462E+03  0.17022319206E+03  0.12499878543E+03 0.  0.
          5    1    3    3  501    0  0.18823268200E+02 -0.30474750018E+02  0.12492031793E+03  0.12995430599E+03  0.10000000000E+00 0. -1.
         -5    1    3    3    0  501 -0.32576735273E+02  0.21179602702E+02 -0.10571373309E+02  0.40268886070E+02  0.10000000000E+00 0. -1.
         21    1    1    2  504  503  0.13753467073E+02  0.92951473158E+01  0.61092810149E+01  0.17688440708E+02  0.00000000000E+00 0.  1.
<mgrwt>
<rscale>  1 0.12609621E+03</rscale>
<asrwt>0</asrwt>
<pdfrwt beam="1">  1       21 0.23720758E-01 0.12609621E+03</pdfrwt>
<pdfrwt beam="2">  1       21 0.51887237E-02 0.12609621E+03</pdfrwt>
<totfact> 0.41700985E+06</totfact>
</mgrwt>
</event>
<event>
 6    1  0.4424270E-002  0.1270631E+03  0.7546771E-02  0.1231880E+00
         21   -1    0    0  503  502  0.00000000000E+00  0.00000000000E+00  0.13427278541E+03  0.13427278541E+03  0.00000000000E+00 0.  1.
         21   -1    0    0  504  503 -0.00000000000E+00 -0.00000000000E+00 -0.41927863576E+02  0.41927863576E+02  0.00000000000E+00 0.  1.
         25    2    1    2    0    0  0.14145584686E+02  0.17991306516E+02  0.80674383461E+02  0.15051045354E+03  0.12498502230E+03 0.  0.
          5    1    3    3  501    0 -0.22048425671E+02 -0.18746003016E+02 -0.21503811820E+02  0.36055091546E+02  0.10000000000E+00 0.  1.
         -5    1    3    3    0  501  0.36194010356E+02  0.36737309532E+02  0.10217819528E+03  0.11445536199E+03  0.10000000000E+00 0.  1.
         21    1    1    2  504  502 -0.14145584686E+02 -0.17991306516E+02  0.11670538368E+02  0.25690195446E+02  0.00000000000E+00 0.  1.
<mgrwt>
<rscale>  1 0.12706314E+03</rscale>
<asrwt>0</asrwt>
<pdfrwt beam="1">  1       21 0.20657351E-01 0.12706314E+03</pdfrwt>
<pdfrwt beam="2">  1       21 0.64504406E-02 0.12706314E+03</pdfrwt>
<totfact> 0.37364098E+06</totfact>
</mgrwt>
</event>
<event>
 6    1  0.4424270E-002  0.1296740E+03  0.7546771E-02  0.1227940E+00
         21   -1    0    0  504  502  0.00000000000E+00  0.00000000000E+00  0.27240473092E+03  0.27240473092E+03  0.00000000000E+00 0.  1.
         21   -1    0    0  502  503 -0.00000000000E+00 -0.00000000000E+00 -0.36860448247E+02  0.36860448247E+02  0.00000000000E+00 0.  1.
         25    2    1    2    0    0 -0.59897138382E+01 -0.33958613463E+02  0.85534634357E+02  0.15534325517E+03  0.12500515650E+03 0.  0.
          5    1    3    3  501    0 -0.35905371254E+01 -0.61912163169E+02  0.10447289337E+03  0.12149322349E+03  0.10000000000E+00 0. -1.
         -5    1    3    3    0  501 -0.23991767128E+01  0.27953549706E+02 -0.18938259012E+02  0.33850031676E+02  0.10000000000E+00 0. -1.
         21    1    1    2  504  503  0.59897138382E+01  0.33958613463E+02  0.15000964832E+03  0.15392192400E+03  0.00000000000E+00 0.  1.
<mgrwt>
<rscale>  1 0.12967403E+03</rscale>
<asrwt>0</asrwt>
<pdfrwt beam="1">  1       21 0.41908419E-01 0.12967403E+03</pdfrwt>
<pdfrwt beam="2">  1       21 0.56708384E-02 0.12967403E+03</pdfrwt>
<totfact> 0.11902042E+06</totfact>
</mgrwt>
</event>
<event>
 6    1  0.4424270E-002  0.1295117E+03  0.7546771E-02  0.1228182E+00
         21   -1    0    0  504  502  0.00000000000E+00  0.00000000000E+00  0.23727628275E+03  0.23727628275E+03  0.00000000000E+00 0. -1.
         21   -1    0    0  502  503 -0.00000000000E+00 -0.00000000000E+00 -0.28515493238E+02  0.28515493238E+02  0.00000000000E+00 0. -1.
         25    2    1    2    0    0  0.26025116959E+02 -0.21750347805E+02  0.15224459478E+03  0.19987922325E+03  0.12499161133E+03 0.  0.
          5    1    3    3  501    0  0.15786535737E+02  0.32392062418E+02  0.13846957267E+03  0.14308142078E+03  0.10000000000E+00 0. -1.
         -5    1    3    3    0  501  0.10238581221E+02 -0.54142410223E+02  0.13775022115E+02  0.56797802462E+02  0.10000000000E+00 0. -1.
         21    1    1    2  504  503 -0.26025116959E+02  0.21750347805E+02  0.56516194725E+02  0.65912552739E+02  0.00000000000E+00 0.  1.
<mgrwt>
<rscale>  1 0.12951173E+03</rscale>
<asrwt>0</asrwt>
<pdfrwt beam="1">  1       21 0.36504042E-01 0.12951173E+03</pdfrwt>
<pdfrwt beam="2">  1       21 0.43869991E-02 0.12951173E+03</pdfrwt>
<totfact> 0.24119466E+06</totfact>
</mgrwt>
</event>
<event>
 6    1  0.4424270E-002  0.1261774E+03  0.7546771E-02  0.1233241E+00
         21   -1    0    0  504  502  0.00000000000E+00  0.00000000000E+00  0.14023228339E+03  0.14023228339E+03  0.00000000000E+00 0.  1.
         21   -1    0    0  502  503 -0.00000000000E+00 -0.00000000000E+00 -0.38440387571E+02  0.38440387571E+02  0.00000000000E+00 0.  1.
         25    2    1    2    0    0 -0.96597591726E+01  0.14203505861E+02  0.74811438704E+02  0.14668836868E+03  0.12500270245E+03 0.  0.
          5    1    3    3  501    0 -0.23428412229E+02  0.48504555142E+02 -0.94386777248E+01  0.54687119199E+02  0.10000000000E+00 0.  1.
         -5    1    3    3    0  501  0.13768653056E+02 -0.34301049281E+02  0.84250116429E+02  0.92001249486E+02  0.10000000000E+00 0.  1.
         21    1    1    2  504  503  0.96597591726E+01 -0.14203505861E+02  0.26980457116E+02  0.31984302277E+02  0.00000000000E+00 0. -1.
<mgrwt>
<rscale>  1 0.12617736E+03</rscale>
<asrwt>0</asrwt>
<pdfrwt beam="1">  1       21 0.21574197E-01 0.12617736E+03</pdfrwt>
<pdfrwt beam="2">  1       21 0.59139059E-02 0.12617736E+03</pdfrwt>
<totfact> 0.39931339E+06</totfact>
</mgrwt>
</event>
<event>
 6    1  0.4424270E-002  0.1265934E+03  0.7546771E-02  0.1232600E+00
         21   -1    0    0  503  502  0.00000000000E+00  0.00000000000E+00  0.28277648426E+03  0.28277648426E+03  0.00000000000E+00 0.  1.
         21   -1    0    0  504  503 -0.00000000000E+00 -0.00000000000E+00 -0.19545787589E+03  0.19545787589E+03  0.00000000000E+00 0.  1.
         25    2    1    2    0    0 -0.79276604053E+01  0.18472118987E+02 -0.17453429584E+03  0.21561103593E+03  0.12498732501E+03 0.  0.
          5    1    3    3  501    0 -0.63248689210E+02  0.12920563481E+02 -0.12698728367E+03  0.14245391487E+03  0.10000000000E+00 0.  1.
         -5    1    3    3    0  501  0.55321028805E+02  0.55515555062E+01 -0.47547012169E+02  0.73157121066E+02  0.10000000000E+00 0.  1.
         21    1    1    2  504  502  0.79276604053E+01 -0.18472118987E+02  0.26185290421E+03  0.26262332421E+03  0.00000000000E+00 0.  1.
<mgrwt>
<rscale>  1 0.12659344E+03</rscale>
<asrwt>0</asrwt>
<pdfrwt beam="1">  1       21 0.43504074E-01 0.12659344E+03</pdfrwt>
<pdfrwt beam="2">  1       21 0.30070443E-01 0.12659344E+03</pdfrwt>
<totfact> 0.55621229E+04</totfact>
</mgrwt>
</event>
<event>
 6    1  0.4424270E-002  0.1285306E+03  0.7546771E-02  0.1229653E+00
         21   -1    0    0  503  502  0.00000000000E+00  0.00000000000E+00  0.74058291860E+02  0.74058291860E+02  0.00000000000E+00 0.  1.
         21   -1    0    0  504  503 -0.00000000000E+00 -0.00000000000E+00 -0.91255273135E+02  0.91255273135E+02  0.00000000000E+00 0.  1.
         25    2    1    2    0    0  0.29454531695E+02  0.46878202046E+01  0.42126208470E+01  0.12859958729E+03  0.12502224835E+03 0.  0.
          5    1    3    3  501    0  0.37852419394E+02  0.37538872124E+02 -0.44366777586E+02  0.69357000567E+02  0.10000000000E+00 0. -1.
         -5    1    3    3    0  501 -0.83978876990E+01 -0.32851051919E+02  0.48579398433E+02  0.59242586727E+02  0.10000000000E+00 0. -1.
         21    1    1    2  504  502 -0.29454531695E+02 -0.46878202046E+01 -0.21409602122E+02  0.36713977701E+02  0.00000000000E+00 0.  1.
<mgrwt>
<rscale>  1 0.12853057E+03</rscale>
<asrwt>0</asrwt>
<pdfrwt beam="1">  1       21 0.11393583E-01 0.12853057E+03</pdfrwt>
<pdfrwt beam="2">  1       21 0.14039273E-01 0.12853057E+03</pdfrwt>
<totfact> 0.28206297E+06</totfact>
</mgrwt>
</event>
<event>
 6    1  0.4424270E-002  0.1507529E+03  0.7546771E-02  0.1199551E+00
         21   -1    0    0  503  502  0.00000000000E+00  0.00000000000E+00  0.28483491258E+03  0.28483491258E+03  0.00000000000E+00 0. -1.
         21   -1    0    0  504  503 -0.00000000000E+00 -0.00000000000E+00 -0.67069868554E+02  0.67069868554E+02  0.00000000000E+00 0. -1.
         25    2    1    2    0    0  0.37406205947E+02  0.75497047910E+02  0.41223012793E+02  0.15628750869E+03  0.12500968003E+03 0.  0.
          5    1    3    3  501    0 -0.43200515852E+02  0.49955637611E+02  0.21564289669E+02  0.69475743162E+02  0.10000000000E+00 0.  1.
         -5    1    3    3    0  501  0.80606721798E+02  0.25541410300E+02  0.19658723124E+02  0.86811765528E+02  0.10000000000E+00 0.  1.
         21    1    1    2  504  502 -0.37406205947E+02 -0.75497047910E+02  0.17654203123E+03  0.19561727244E+03  0.00000000000E+00 0. -1.
<mgrwt>
<rscale>  1 0.15075294E+03</rscale>
<asrwt>0</asrwt>
<pdfrwt beam="1">  1       21 0.43820755E-01 0.15075294E+03</pdfrwt>
<pdfrwt beam="2">  1       21 0.10318442E-01 0.15075294E+03</pdfrwt>
<totfact> 0.38722290E+05</totfact>
</mgrwt>
</event>
<event>
 6    1  0.4424270E-002  0.1277371E+03  0.7546771E-02  0.1230853E+00
         21   -1    0    0  504  502  0.00000000000E+00  0.00000000000E+00  0.27985985906E+03  0.27985985906E+03  0.00000000000E+00 0.  1.
         21   -1    0    0  502  503 -0.00000000000E+00 -0.00000000000E+00 -0.21236303116E+02  0.21236303116E+02  0.00000000000E+00 0.  1.
         25    2    1    2    0    0 -0.13356387376E+02 -0.22679508600E+02  0.21889798292E+03  0.25344247034E+03  0.12499602253E+03 0.  0.
          5    1    3    3  501    0 -0.38672015122E+02 -0.24559809869E+02  0.22306192375E+03  0.22771767793E+03  0.10000000000E+00 0.  1.
         -5    1    3    3    0  501  0.25315627746E+02  0.18803012694E+01 -0.41639408294E+01  0.25724792405E+02  0.10000000000E+00 0.  1.
         21    1    1    2  504  503  0.13356387376E+02  0.22679508600E+02  0.39725573014E+02  0.47653691833E+02  0.00000000000E+00 0. -1.
<mgrwt>
<rscale>  1 0.12773707E+03</rscale>
<asrwt>0</asrwt>
<pdfrwt beam="1">  1       21 0.43055360E-01 0.12773707E+03</pdfrwt>
<pdfrwt beam="2">  1       21 0.32671237E-02 0.12773707E+03</pdfrwt>
<totfact> 0.28257983E+06</totfact>
</mgrwt>
</event>
<event>
 6    1  0.4424270E-002  0.1259898E+03  0.7546771E-02  0.1233531E+00
         21   -1    0    0  504  502  0.00000000000E+00  0.00000000000E+00  0.65195969712E+02  0.65195969712E+02  0.00000000000E+00 0.  1.
         21   -1    0    0  502  503 -0.00000000000E+00 -0.00000000000E+00 -0.19878903987E+03  0.19878903987E+03  0.00000000000E+00 0. -1.
         25    2    1    2    0    0  0.10222907295E+02 -0.12076178034E+02 -0.17729811896E+03  0.21750411889E+03  0.12499230711E+03 0.  0.
          5    1    3    3  501    0  0.22058642809E+02 -0.26374931394E+02  0.45746573833E+01  0.34686571159E+02  0.10000000000E+00 0. -1.
         -5    1    3    3    0  501 -0.11835735514E+02  0.14298753359E+02 -0.18187277634E+03  0.18281754773E+03  0.10000000000E+00 0. -1.
         21    1    1    2  504  503 -0.10222907295E+02  0.12076178034E+02  0.43705048799E+02  0.46480890697E+02  0.00000000000E+00 0.  1.
<mgrwt>
<rscale>  1 0.12598976E+03</rscale>
<asrwt>0</asrwt>
<pdfrwt beam="1">  1       21 0.10030149E-01 0.12598976E+03</pdfrwt>
<pdfrwt beam="2">  1       21 0.30582929E-01 0.12598976E+03</pdfrwt>
<totfact> 0.83086026E+05</totfact>
</mgrwt>
</event>
<event>
 6    1  0.4424270E-002  0.1263603E+03  0.7546771E-02  0.1232959E+00
         21   -1    0    0  503  502  0.00000000000E+00  0.00000000000E+00  0.15314033317E+02  0.15314033317E+02  0.00000000000E+00 0.  1.
         21   -1    0    0  504  503 -0.00000000000E+00 -0.00000000000E+00 -0.77553490074E+03  0.77553490074E+03  0.00000000000E+00 0.  1.
         25    2    1    2    0    0  0.18134891825E+02 -0.35726666474E+01 -0.76188335250E+03  0.77229086021E+03  0.12500116676E+03 0.  0.
          5    1    3    3  501    0  0.46580143553E+02 -0.44874266955E+02 -0.58084093014E+03  0.58443101024E+03  0.10000000000E+00 0.  1.
         -5    1    3    3    0  501 -0.28445251728E+02  0.41301600307E+02 -0.18104242236E+03  0.18785984996E+03  0.10000000000E+00 0.  1.
         21    1    1    2  504  502 -0.18134891825E+02  0.35726666474E+01  0.16624850755E+01  0.18558073852E+02  0.00000000000E+00 0.  1.
<mgrwt>
<rscale>  1 0.12636032E+03</rscale>
<asrwt>0</asrwt>
<pdfrwt beam="1">  1       21 0.23560052E-02 0.12636032E+03</pdfrwt>
<pdfrwt beam="2">  1       21 0.11931306E+00 0.12636032E+03</pdfrwt>
<totfact> 0.51162822E+05</totfact>
</mgrwt>
</event>
<event>
 6    1  0.4424270E-002  0.1272898E+03  0.7546771E-02  0.1231534E+00
         21   -1    0    0  503  502  0.00000000000E+00  0.00000000000E+00  0.77844330559E+01  0.77844330559E+01  0.00000000000E+00 0.  1.
         21   -1    0    0  504  503 -0.00000000000E+00 -0.00000000000E+00 -0.73615600698E+03  0.73615600698E+03  0.00000000000E+00 0.  1.
         25    2    1    2    0    0 -0.18500937514E+02  0.15345775092E+02 -0.62094286692E+03  0.63385545200E+03  0.12499965020E+03 0.  0.
          5    1    3    3  501    0  0.12491832661E+02 -0.48539867592E+02 -0.35808695556E+03  0.36157771277E+03  0.10000000000E+00 0. -1.
         -5    1    3    3    0  501 -0.30992770175E+02  0.63885642684E+02 -0.26285591135E+03  0.27227773922E+03  0.10000000000E+00 0. -1.
         21    1    1    2  504  502  0.18500937514E+02 -0.15345775092E+02 -0.10742870700E+03  0.11008498804E+03  0.00000000000E+00 0.  1.
<mgrwt>
<rscale>  1 0.12728979E+03</rscale>
<asrwt>0</asrwt>
<pdfrwt beam="1">  1       21 0.11976046E-02 0.12728979E+03</pdfrwt>
<pdfrwt beam="2">  1       21 0.11325482E+00 0.12728979E+03</pdfrwt>
<totfact> 0.17162540E+06</totfact>
</mgrwt>
</event>
<event>
 6    1  0.4424270E-002  0.1303931E+03  0.7546771E-02  0.1226874E+00
         21   -1    0    0  504  502  0.00000000000E+00  0.00000000000E+00  0.13682658793E+04  0.13682658793E+04  0.00000000000E+00 0.  1.
         21   -1    0    0  502  503 -0.00000000000E+00 -0.00000000000E+00 -0.11426553517E+02  0.11426553517E+02  0.00000000000E+00 0.  1.
         25    2    1    2    0    0 -0.20818804645E+02 -0.30724202221E+02  0.37266159451E+03  0.39481517856E+03  0.12499984786E+03 0.  0.
          5    1    3    3  501    0 -0.48663321312E+00 -0.48423542738E+02  0.45190558781E+02  0.66236492254E+02  0.10000000000E+00 0. -1.
         -5    1    3    3    0  501 -0.20332171432E+02  0.17699340517E+02  0.32747103573E+03  0.32857868631E+03  0.10000000000E+00 0. -1.
         21    1    1    2  504  503  0.20818804645E+02  0.30724202221E+02  0.98417773131E+03  0.98487725430E+03  0.00000000000E+00 0.  1.
<mgrwt>
<rscale>  1 0.13039310E+03</rscale>
<asrwt>0</asrwt>
<pdfrwt beam="1">  1       21 0.21050231E+00 0.13039310E+03</pdfrwt>
<pdfrwt beam="2">  1       21 0.17579324E-02 0.13039310E+03</pdfrwt>
<totfact> 0.18107838E+05</totfact>
</mgrwt>
</event>
<event>
 6    1  0.4424270E-002  0.1272639E+03  0.7546771E-02  0.1231573E+00
         21   -1    0    0  504  502  0.00000000000E+00  0.00000000000E+00  0.66919688543E+02  0.66919688543E+02  0.00000000000E+00 0.  1.
         21   -1    0    0  502  503 -0.00000000000E+00 -0.00000000000E+00 -0.21166446395E+03  0.21166446395E+03  0.00000000000E+00 0.  1.
         25    2    1    2    0    0 -0.21760271040E+02  0.98523034092E+01 -0.18925771758E+03  0.22806703363E+03  0.12500204353E+03 0.  0.
          5    1    3    3  501    0 -0.62953585334E+02  0.39681014255E+02 -0.13160471397E+03  0.15118712756E+03  0.10000000000E+00 0. -1.
         -5    1    3    3    0  501  0.41193314294E+02 -0.29828710846E+02 -0.57653003605E+02  0.76879906074E+02  0.10000000000E+00 0. -1.
         21    1    1    2  504  503  0.21760271040E+02 -0.98523034092E+01  0.44512942167E+02  0.50517118866E+02  0.00000000000E+00 0.  1.
<mgrwt>
<rscale>  1 0.12726385E+03</rscale>
<asrwt>0</asrwt>
<pdfrwt beam="1">  1       21 0.10295337E-01 0.12726385E+03</pdfrwt>
<pdfrwt beam="2">  1       21 0.32563763E-01 0.12726385E+03</pdfrwt>
<totfact> 0.70282365E+05</totfact>
</mgrwt>
</event>
<event>
 6    1  0.4424270E-002  0.1290942E+03  0.7546771E-02  0.1228806E+00
         21   -1    0    0  504  502  0.00000000000E+00  0.00000000000E+00  0.73705014109E+03  0.73705014109E+03  0.00000000000E+00 0.  1.
         21   -1    0    0  502  503 -0.00000000000E+00 -0.00000000000E+00 -0.10318443481E+02  0.10318443481E+02  0.00000000000E+00 0.  1.
         25    2    1    2    0    0 -0.27950356162E+02  0.16115333091E+02  0.43199713888E+03  0.45087341348E+03  0.12499752243E+03 0.  0.
          5    1    3    3  501    0 -0.12529561987E+02 -0.21216050413E+02  0.39601093864E+03  0.39677674357E+03  0.10000000000E+00 0. -1.
         -5    1    3    3    0  501 -0.15420794175E+02  0.37331383505E+02  0.35986200239E+02  0.54096669907E+02  0.10000000000E+00 0. -1.
         21    1    1    2  504  503  0.27950356162E+02 -0.16115333091E+02  0.29473455873E+03  0.29649517109E+03  0.00000000000E+00 0.  1.
<mgrwt>
<rscale>  1 0.12909418E+03</rscale>
<asrwt>0</asrwt>
<pdfrwt beam="1">  1       21 0.11339229E+00 0.12909418E+03</pdfrwt>
<pdfrwt beam="2">  1       21 0.15874534E-02 0.12909418E+03</pdfrwt>
<totfact> 0.10926183E+06</totfact>
</mgrwt>
</event>
<event>
 6    1  0.4424270E-002  0.1267323E+03  0.7546771E-02  0.1232387E+00
         21   -1    0    0  504  502  0.00000000000E+00  0.00000000000E+00  0.65637694113E+02  0.65637694113E+02  0.00000000000E+00 0.  1.
         21   -1    0    0  502  503 -0.00000000000E+00 -0.00000000000E+00 -0.29587885585E+03  0.29587885585E+03  0.00000000000E+00 0. -1.
         25    2    1    2    0    0 -0.15982508340E+02  0.13413353796E+02 -0.28011720819E+03  0.30745197152E+03  0.12500282332E+03 0.  0.
          5    1    3    3  501    0  0.53899098855E+02  0.77199453752E+01 -0.94936698820E+02  0.10944266625E+03  0.10000000000E+00 0. -1.
         -5    1    3    3    0  501 -0.69881607195E+02  0.56934084207E+01 -0.18518050937E+03  0.19800930527E+03  0.10000000000E+00 0. -1.
         21    1    1    2  504  503  0.15982508340E+02 -0.13413353796E+02  0.49876046448E+02  0.54064578443E+02  0.00000000000E+00 0.  1.
<mgrwt>
<rscale>  1 0.12673226E+03</rscale>
<asrwt>0</asrwt>
<pdfrwt beam="1">  1       21 0.10098107E-01 0.12673226E+03</pdfrwt>
<pdfrwt beam="2">  1       21 0.45519823E-01 0.12673226E+03</pdfrwt>
<totfact> 0.37349260E+05</totfact>
</mgrwt>
</event>
<event>
 6    1  0.4424270E-002  0.1864582E+03  0.7546771E-02  0.1161695E+00
         21   -1    0    0  503  502  0.00000000000E+00  0.00000000000E+00  0.81119498463E+02  0.81119498463E+02  0.00000000000E+00 0. -1.
         21   -1    0    0  504  503 -0.00000000000E+00 -0.00000000000E+00 -0.52290973188E+03  0.52290973188E+03  0.00000000000E+00 0. -1.
         25    2    1    2    0    0  0.13530070783E+03 -0.29162981731E+02 -0.42563124349E+03  0.46468119843E+03  0.12493958420E+03 0.  0.
          5    1    3    3  501    0  0.30233458188E+02 -0.67861100330E+02 -0.18038456300E+03  0.19508406265E+03  0.10000000000E+00 0. -1.
         -5    1    3    3    0  501  0.10506724964E+03  0.38698118598E+02 -0.24524668049E+03  0.26959713578E+03  0.10000000000E+00 0. -1.
         21    1    1    2  504  502 -0.13530070783E+03  0.29162981731E+02 -0.16158989931E+02  0.13934803191E+03  0.00000000000E+00 0. -1.
<mgrwt>
<rscale>  1 0.18645820E+03</rscale>
<asrwt>0</asrwt>
<pdfrwt beam="1">  1       21 0.12479923E-01 0.18645820E+03</pdfrwt>
<pdfrwt beam="2">  1       21 0.80447650E-01 0.18645820E+03</pdfrwt>
<totfact> 0.74487721E+04</totfact>
</mgrwt>
</event>
<event>
 6    1  0.4424270E-002  0.1261145E+03  0.7546771E-02  0.1233338E+00
         21   -1    0    0  503  502  0.00000000000E+00  0.00000000000E+00  0.23377389791E+02  0.23377389791E+02  0.00000000000E+00 0.  1.
         21   -1    0    0  504  503 -0.00000000000E+00 -0.00000000000E+00 -0.53385289973E+03  0.53385289973E+03  0.00000000000E+00 0.  1.
         25    2    1    2    0    0  0.65367914996E+00  0.16602369390E+02 -0.52199417311E+03  0.53701283254E+03  0.12501519745E+03 0.  0.
          5    1    3    3  501    0 -0.50312899479E+02 -0.21790474765E+02 -0.15267100020E+03  0.16221793041E+03  0.10000000000E+00 0.  1.
         -5    1    3    3    0  501  0.50966578629E+02  0.38392844156E+02 -0.36932317291E+03  0.37479490214E+03  0.10000000000E+00 0.  1.
         21    1    1    2  504  502 -0.65367914996E+00 -0.16602369390E+02  0.11518663162E+02  0.20217456982E+02  0.00000000000E+00 0.  1.
<mgrwt>
<rscale>  1 0.12611449E+03</rscale>
<asrwt>0</asrwt>
<pdfrwt beam="1">  1       21 0.35965216E-02 0.12611449E+03</pdfrwt>
<pdfrwt beam="2">  1       21 0.82131214E-01 0.12611449E+03</pdfrwt>
<totfact> 0.61199287E+05</totfact>
</mgrwt>
</event>
<event>
 6    1  0.4424270E-002  0.1269511E+03  0.7546771E-02  0.1232051E+00
         21   -1    0    0  504  502  0.00000000000E+00  0.00000000000E+00  0.79704957166E+02  0.79704957166E+02  0.00000000000E+00 0.  1.
         21   -1    0    0  502  503 -0.00000000000E+00 -0.00000000000E+00 -0.78479034073E+02  0.78479034073E+02  0.00000000000E+00 0. -1.
         25    2    1    2    0    0 -0.14809187384E+02 -0.16532167642E+02 -0.18743903129E+02  0.12832735785E+03  0.12499580901E+03 0.  0.
          5    1    3    3  501    0  0.19973379243E+01  0.51218895305E+02  0.11041570123E+02  0.52433680643E+02  0.10000000000E+00 0.  1.
         -5    1    3    3    0  501 -0.16806525308E+02 -0.67751062947E+02 -0.29785473252E+02  0.75893677208E+02  0.10000000000E+00 0.  1.
         21    1    1    2  504  503  0.14809187384E+02  0.16532167642E+02  0.19969826221E+02  0.29856633387E+02  0.00000000000E+00 0.  1.
<mgrwt>
<rscale>  1 0.12695108E+03</rscale>
<asrwt>0</asrwt>
<pdfrwt beam="1">  1       21 0.12262301E-01 0.12695108E+03</pdfrwt>
<pdfrwt beam="2">  1       21 0.12073698E-01 0.12695108E+03</pdfrwt>
<totfact> 0.32390839E+06</totfact>
</mgrwt>
</event>
<event>
 6    1  0.4424270E-002  0.1284868E+03  0.7546771E-02  0.1229718E+00
         21   -1    0    0  503  502  0.00000000000E+00  0.00000000000E+00  0.11947738202E+04  0.11947738202E+04  0.00000000000E+00 0.  1.
         21   -1    0    0  504  503 -0.00000000000E+00 -0.00000000000E+00 -0.15212472561E+02  0.15212472561E+02  0.00000000000E+00 0.  1.
         25    2    1    2    0    0 -0.17927590615E+02  0.23510284449E+02  0.26063749095E+03  0.29058693102E+03  0.12503891718E+03 0.  0.
          5    1    3    3  501    0 -0.17974700014E+02  0.73654020774E+02  0.18394190509E+03  0.19895386164E+03  0.10000000000E+00 0. -1.
         -5    1    3    3    0  501  0.47109399592E-01 -0.50143736324E+02  0.76695585864E+02  0.91633069374E+02  0.10000000000E+00 0. -1.
         21    1    1    2  504  502  0.17927590615E+02 -0.23510284449E+02  0.91892385669E+03  0.91939936174E+03  0.00000000000E+00 0.  1.
<mgrwt>
<rscale>  1 0.12848682E+03</rscale>
<asrwt>0</asrwt>
<pdfrwt beam="1">  1       21 0.18381128E+00 0.12848682E+03</pdfrwt>
<pdfrwt beam="2">  1       21 0.23403813E-02 0.12848682E+03</pdfrwt>
<totfact> 0.16863847E+05</totfact>
</mgrwt>
</event>
<event>
 6    1  0.4424270E-002  0.1287226E+03  0.7546771E-02  0.1229364E+00
         21   -1    0    0  504  502  0.00000000000E+00  0.00000000000E+00  0.16044844519E+03  0.16044844519E+03  0.00000000000E+00 0.  1.
         21   -1    0    0  502  503 -0.00000000000E+00 -0.00000000000E+00 -0.39654323439E+02  0.39654323439E+02  0.00000000000E+00 0.  1.
         25    2    1    2    0    0 -0.20954499063E+02  0.22506627895E+02  0.95375915465E+02  0.16020634597E+03  0.12499547475E+03 0.  0.
          5    1    3    3  501    0  0.28973020360E+02  0.14846650207E+02  0.10398855825E+03  0.10896554124E+03  0.10000000000E+00 0.  1.
         -5    1    3    3    0  501 -0.49927519423E+02  0.76599776877E+01 -0.86126427824E+01  0.51240804732E+02  0.10000000000E+00 0.  1.
         21    1    1    2  504  503  0.20954499063E+02 -0.22506627895E+02  0.25418206290E+02  0.39896422661E+02  0.00000000000E+00 0.  1.
<mgrwt>
<rscale>  1 0.12872260E+03</rscale>
<asrwt>0</asrwt>
<pdfrwt beam="1">  1       21 0.24684376E-01 0.12872260E+03</pdfrwt>
<pdfrwt beam="2">  1       21 0.61006652E-02 0.12872260E+03</pdfrwt>
<totfact> 0.29456717E+06</totfact>
</mgrwt>
</event>
<event>
 6    1  0.4424270E-002  0.1367020E+03  0.7546771E-02  0.1217837E+00
         21   -1    0    0  503  502  0.00000000000E+00  0.00000000000E+00  0.12923929984E+03  0.12923929984E+03  0.00000000000E+00 0.  1.
         21   -1    0    0  504  503 -0.00000000000E+00 -0.00000000000E+00 -0.12590581002E+03  0.12590581002E+03  0.00000000000E+00 0.  1.
         25    2    1    2    0    0  0.38057129260E+02  0.40157118622E+02 -0.77537011526E+02  0.15716053325E+03  0.12500602303E+03 0.  0.
          5    1    3    3  501    0  0.84014963600E+02  0.20272519985E+02 -0.53163965632E+02  0.10146874601E+03  0.10000000000E+00 0.  1.
         -5    1    3    3    0  501 -0.45957834340E+02  0.19884598637E+02 -0.24373045894E+02  0.55691787243E+02  0.10000000000E+00 0.  1.
         21    1    1    2  504  502 -0.38057129260E+02 -0.40157118622E+02  0.80870501354E+02  0.97984576606E+02  0.00000000000E+00 0.  1.
<mgrwt>
<rscale>  1 0.13670203E+03</rscale>
<asrwt>0</asrwt>
<pdfrwt beam="1">  1       21 0.19882969E-01 0.13670203E+03</pdfrwt>
<pdfrwt beam="2">  1       21 0.19370125E-01 0.13670203E+03</pdfrwt>
<totfact> 0.57534770E+05</totfact>
</mgrwt>
</event>
<event>
 6    1  0.4424270E-002  0.2242430E+03  0.7546771E-02  0.1130759E+00
         21   -1    0    0  503  502  0.00000000000E+00  0.00000000000E+00  0.64175741407E+02  0.64175741407E+02  0.00000000000E+00 0. -1.
         21   -1    0    0  504  503 -0.00000000000E+00 -0.00000000000E+00 -0.73700059775E+03  0.73700059775E+03  0.00000000000E+00 0. -1.
         25    2    1    2    0    0  0.15742253829E+03 -0.99398191603E+02 -0.49633560239E+03  0.54464113140E+03  0.12499230280E+03 0.  0.
          5    1    3    3  501    0 -0.50679676310E+01  0.41770469112E+01  0.45355788643E+01  0.79820731920E+01  0.10000000000E+00 0.  1.
         -5    1    3    3    0  501  0.16249050592E+03 -0.10357523851E+03 -0.50087118126E+03  0.53665905821E+03  0.10000000000E+00 0.  1.
         21    1    1    2  504  502 -0.15742253829E+03  0.99398191603E+02 -0.17648925395E+03  0.25653520775E+03  0.00000000000E+00 0. -1.
<mgrwt>
<rscale>  1 0.22424302E+03</rscale>
<asrwt>0</asrwt>
<pdfrwt beam="1">  1       21 0.98731910E-02 0.22424302E+03</pdfrwt>
<pdfrwt beam="2">  1       21 0.11338471E+00 0.22424302E+03</pdfrwt>
<totfact> 0.49561877E+04</totfact>
</mgrwt>
</event>
<event>
 6    1  0.4424270E-002  0.2131032E+03  0.7546771E-02  0.1139132E+00
         21   -1    0    0  504  502  0.00000000000E+00  0.00000000000E+00  0.52149124739E+03  0.52149124739E+03  0.00000000000E+00 0. -1.
         21   -1    0    0  502  503 -0.00000000000E+00 -0.00000000000E+00 -0.79465517966E+02  0.79465517966E+02  0.00000000000E+00 0. -1.
         25    2    1    2    0    0  0.10050531512E+03  0.14027531504E+03  0.14604611385E+03  0.25834559331E+03  0.12503797758E+03 0.  0.
          5    1    3    3  501    0  0.11983520585E+03  0.14938752691E+03  0.12772938457E+03  0.23019972945E+03  0.10000000000E+00 0.  1.
         -5    1    3    3    0  501 -0.19329890729E+02 -0.91122118757E+01  0.18316729276E+02  0.28145863856E+02  0.10000000000E+00 0.  1.
         21    1    1    2  504  503 -0.10050531512E+03 -0.14027531504E+03  0.29597961558E+03  0.34261117205E+03  0.00000000000E+00 0. -1.
<mgrwt>
<rscale>  1 0.21310321E+03</rscale>
<asrwt>0</asrwt>
<pdfrwt beam="1">  1       21 0.80229421E-01 0.21310321E+03</pdfrwt>
<pdfrwt beam="2">  1       21 0.12225465E-01 0.21310321E+03</pdfrwt>
<totfact> 0.76860433E+04</totfact>
</mgrwt>
</event>
<event>
 6    1  0.4424270E-002  0.1290695E+03  0.7546771E-02  0.1228843E+00
         21   -1    0    0  503  502  0.00000000000E+00  0.00000000000E+00  0.46624041037E+03  0.46624041037E+03  0.00000000000E+00 0.  1.
         21   -1    0    0  504  503 -0.00000000000E+00 -0.00000000000E+00 -0.15322222628E+02  0.15322222628E+02  0.00000000000E+00 0.  1.
         25    2    1    2    0    0  0.32047320359E+02 -0.31226209401E+01  0.28956583718E+03  0.31702885976E+03  0.12498856890E+03 0.  0.
          5    1    3    3  501    0  0.37910985765E+02 -0.59624940547E+02  0.13533657892E+03  0.15267080916E+03  0.10000000000E+00 0. -1.
         -5    1    3    3    0  501 -0.58636654053E+01  0.56502319606E+02  0.15422925826E+03  0.16435805060E+03  0.10000000000E+00 0. -1.
         21    1    1    2  504  502 -0.32047320359E+02  0.31226209401E+01  0.16135235056E+03  0.16453377324E+03  0.00000000000E+00 0.  1.
<mgrwt>
<rscale>  1 0.12906945E+03</rscale>
<asrwt>0</asrwt>
<pdfrwt beam="1">  1       21 0.71729283E-01 0.12906945E+03</pdfrwt>
<pdfrwt beam="2">  1       21 0.23572654E-02 0.12906945E+03</pdfrwt>
<totfact> 0.16503958E+06</totfact>
</mgrwt>
</event>
<event>
 6    1  0.4424270E-002  0.1261044E+03  0.7546771E-02  0.1233353E+00
         21   -1    0    0  503  502  0.00000000000E+00  0.00000000000E+00  0.16996678152E+03  0.16996678152E+03  0.00000000000E+00 0.  1.
         21   -1    0    0  504  503 -0.00000000000E+00 -0.00000000000E+00 -0.31098851662E+02  0.31098851662E+02  0.00000000000E+00 0.  1.
         25    2    1    2    0    0  0.14492268235E+02  0.82528257563E+01  0.10822132030E+03  0.16617509509E+03  0.12499669230E+03 0.  0.
          5    1    3    3  501    0 -0.40701778778E+02 -0.34030024069E+02  0.27906023277E+02  0.59945253932E+02  0.10000000000E+00 0.  1.
         -5    1    3    3    0  501  0.55194047013E+02  0.42282849825E+02  0.80315297027E+02  0.10622984115E+03  0.10000000000E+00 0.  1.
         21    1    1    2  504  502 -0.14492268235E+02 -0.82528257563E+01  0.30646609555E+02  0.34890538098E+02  0.00000000000E+00 0.  1.
<mgrwt>
<rscale>  1 0.12610435E+03</rscale>
<asrwt>0</asrwt>
<pdfrwt beam="1">  1       21 0.26148735E-01 0.12610435E+03</pdfrwt>
<pdfrwt beam="2">  1       21 0.47844388E-02 0.12610435E+03</pdfrwt>
<totfact> 0.39753560E+06</totfact>
</mgrwt>
</event>
<event>
 6    1  0.4424270E-002  0.1276905E+03  0.7546771E-02  0.1230923E+00
         21   -1    0    0  503  502  0.00000000000E+00  0.00000000000E+00  0.10688840745E+03  0.10688840745E+03  0.00000000000E+00 0. -1.
         21   -1    0    0  504  503 -0.00000000000E+00 -0.00000000000E+00 -0.29215569484E+03  0.29215569484E+03  0.00000000000E+00 0. -1.
         25    2    1    2    0    0 -0.26138792775E+02 -0.18421333779E+01 -0.27626582037E+03  0.30434794107E+03  0.12497294023E+03 0.  0.
          5    1    3    3  501    0 -0.34600628959E+01 -0.59941776665E+02 -0.92420484361E+02  0.11021136309E+03  0.10000000000E+00 0. -1.
         -5    1    3    3    0  501 -0.22678729879E+02  0.58099643287E+02 -0.18384533601E+03  0.19413657798E+03  0.10000000000E+00 0. -1.
         21    1    1    2  504  502  0.26138792775E+02  0.18421333779E+01  0.90998532988E+02  0.94696161216E+02  0.00000000000E+00 0. -1.
<mgrwt>
<rscale>  1 0.12769051E+03</rscale>
<asrwt>0</asrwt>
<pdfrwt beam="1">  1       21 0.16444371E-01 0.12769051E+03</pdfrwt>
<pdfrwt beam="2">  1       21 0.44947030E-01 0.12769051E+03</pdfrwt>
<totfact> 0.16074111E+05</totfact>
</mgrwt>
</event>
<event>
 6    1  0.4424270E-002  0.1681820E+03  0.7546771E-02  0.1179757E+00
         21   -1    0    0  503  502  0.00000000000E+00  0.00000000000E+00  0.24185800868E+03  0.24185800868E+03  0.00000000000E+00 0. -1.
         21   -1    0    0  504  503 -0.00000000000E+00 -0.00000000000E+00 -0.32872533274E+03  0.32872533274E+03  0.00000000000E+00 0. -1.
         25    2    1    2    0    0  0.99257445238E+02  0.52993840523E+02 -0.29179770225E+03  0.33679530179E+03  0.12499915480E+03 0.  0.
          5    1    3    3  501    0  0.94986896486E+02  0.72217328923E+02 -0.14098108048E+03  0.18469847903E+03  0.10000000000E+00 0. -1.
         -5    1    3    3    0  501  0.42705487519E+01 -0.19223488400E+02 -0.15081662177E+03  0.15209682277E+03  0.10000000000E+00 0. -1.
         21    1    1    2  504  502 -0.99257445238E+02 -0.52993840523E+02  0.20493037819E+03  0.23378803963E+03  0.00000000000E+00 0. -1.
<mgrwt>
<rscale>  1 0.16818197E+03</rscale>
<asrwt>0</asrwt>
<pdfrwt beam="1">  1       21 0.37208924E-01 0.16818197E+03</pdfrwt>
<pdfrwt beam="2">  1       21 0.50573128E-01 0.16818197E+03</pdfrwt>
<totfact> 0.26286762E+04</totfact>
</mgrwt>
</event>
<event>
 6    1  0.4424270E-002  0.1369124E+03  0.7546771E-02  0.1217545E+00
         21   -1    0    0  504  502  0.00000000000E+00  0.00000000000E+00  0.88933027464E+01  0.88933027464E+01  0.00000000000E+00 0. -1.
         21   -1    0    0  502  503 -0.00000000000E+00 -0.00000000000E+00 -0.12728573072E+04  0.12728573072E+04  0.00000000000E+00 0. -1.
         25    2    1    2    0    0 -0.49017256428E+02 -0.26773849000E+02 -0.11010215696E+04  0.11095014663E+04  0.12500190610E+03 0.  0.
          5    1    3    3  501    0  0.36008447803E+02 -0.15025356380E+02 -0.16490638358E+03  0.16945941990E+03  0.10000000000E+00 0. -1.
         -5    1    3    3    0  501 -0.85025704231E+02 -0.11748492620E+02 -0.93611518602E+03  0.94004204637E+03  0.10000000000E+00 0. -1.
         21    1    1    2  504  503  0.49017256428E+02  0.26773849000E+02 -0.16294243481E+03  0.17224914362E+03  0.00000000000E+00 0. -1.
<mgrwt>
<rscale>  1 0.13691241E+03</rscale>
<asrwt>0</asrwt>
<pdfrwt beam="1">  1       21 0.13682003E-02 0.13691241E+03</pdfrwt>
<pdfrwt beam="2">  1       21 0.19582422E+00 0.13691241E+03</pdfrwt>
<totfact> 0.33285037E+05</totfact>
</mgrwt>
</event>
<event>
 6    1  0.4424270E-002  0.1351891E+03  0.7546771E-02  0.1219953E+00
         21   -1    0    0  503  502  0.00000000000E+00  0.00000000000E+00  0.11966766822E+02  0.11966766822E+02  0.00000000000E+00 0. -1.
         21   -1    0    0  504  503 -0.00000000000E+00 -0.00000000000E+00 -0.74960526203E+03  0.74960526203E+03  0.00000000000E+00 0. -1.
         25    2    1    2    0    0 -0.49291426724E+02 -0.14929955655E+02 -0.47160266435E+03  0.49059673178E+03  0.12499412740E+03 0.  0.
          5    1    3    3  501    0 -0.89175119877E+02  0.59291406289E+01 -0.33801227838E+03  0.34962789799E+03  0.10000000000E+00 0. -1.
         -5    1    3    3    0  501  0.39883693153E+02 -0.20859096284E+02 -0.13359038597E+03  0.14096883379E+03  0.10000000000E+00 0. -1.
         21    1    1    2  504  502  0.49291426724E+02  0.14929955655E+02 -0.26603583085E+03  0.27097529707E+03  0.00000000000E+00 0. -1.
<mgrwt>
<rscale>  1 0.13518905E+03</rscale>
<asrwt>0</asrwt>
<pdfrwt beam="1">  1       21 0.18410410E-02 0.13518905E+03</pdfrwt>
<pdfrwt beam="2">  1       21 0.11532389E+00 0.13518905E+03</pdfrwt>
<totfact> 0.82669747E+05</totfact>
</mgrwt>
</event>
<event>
 6    1  0.4424270E-002  0.1302999E+03  0.7546771E-02  0.1227011E+00
         21   -1    0    0  504  502  0.00000000000E+00  0.00000000000E+00  0.99383548667E+03  0.99383548667E+03  0.00000000000E+00 0.  1.
         21   -1    0    0  502  503 -0.00000000000E+00 -0.00000000000E+00 -0.79507031522E+01  0.79507031522E+01  0.00000000000E+00 0.  1.
         25    2    1    2    0    0 -0.35299587422E+02  0.10259670863E+02  0.59096566104E+03  0.60515987322E+03  0.12500695147E+03 0.  0.
          5    1    3    3  501    0  0.80026537097E+01  0.16710542027E+02  0.52880365347E+03  0.52912814951E+03  0.10000000000E+00 0. -1.
         -5    1    3    3    0  501 -0.43302241132E+02 -0.64508711641E+01  0.62162007566E+02  0.76031723711E+02  0.10000000000E+00 0. -1.
         21    1    1    2  504  503  0.35299587422E+02 -0.10259670863E+02  0.39491912248E+03  0.39662631660E+03  0.00000000000E+00 0.  1.
<mgrwt>
<rscale>  1 0.13029988E+03</rscale>
<asrwt>0</asrwt>
<pdfrwt beam="1">  1       21 0.15289767E+00 0.13029988E+03</pdfrwt>
<pdfrwt beam="2">  1       21 0.12231859E-02 0.13029988E+03</pdfrwt>
<totfact> 0.78378953E+05</totfact>
</mgrwt>
</event>
<event>
 6    1  0.4424270E-002  0.1280168E+03  0.7546771E-02  0.1230429E+00
         21   -1    0    0  504  502  0.00000000000E+00  0.00000000000E+00  0.98164153826E+01  0.98164153826E+01  0.00000000000E+00 0. -1.
         21   -1    0    0  502  503 -0.00000000000E+00 -0.00000000000E+00 -0.10591709678E+04  0.10591709678E+04  0.00000000000E+00 0. -1.
         25    2    1    2    0    0  0.24989919352E+02  0.11812979090E+02 -0.10223856085E+04  0.10303691688E+04  0.12499699609E+03 0.  0.
          5    1    3    3  501    0  0.71001595927E+00  0.52805943492E+02 -0.84647295044E+03  0.84811876386E+03  0.10000000000E+00 0. -1.
         -5    1    3    3    0  501  0.24279903393E+02 -0.40992964402E+02 -0.17591265806E+03  0.18225040495E+03  0.10000000000E+00 0. -1.
         21    1    1    2  504  503 -0.24989919352E+02 -0.11812979090E+02 -0.26968943886E+02  0.38618214337E+02  0.00000000000E+00 0. -1.
<mgrwt>
<rscale>  1 0.12801676E+03</rscale>
<asrwt>0</asrwt>
<pdfrwt beam="1">  1       21 0.15102173E-02 0.12801676E+03</pdfrwt>
<pdfrwt beam="2">  1       21 0.16294943E+00 0.12801676E+03</pdfrwt>
<totfact> 0.47404041E+05</totfact>
</mgrwt>
</event>
<event>
 6    1  0.4424270E-002  0.1259818E+03  0.7546771E-02  0.1233543E+00
         21   -1    0    0  504  502  0.00000000000E+00  0.00000000000E+00  0.30599482913E+03  0.30599482913E+03  0.00000000000E+00 0.  1.
         21   -1    0    0  502  503 -0.00000000000E+00 -0.00000000000E+00 -0.19431513677E+02  0.19431513677E+02  0.00000000000E+00 0.  1.
         25    2    1    2    0    0 -0.63318706716E+01 -0.14355172027E+02  0.19247738618E+03  0.23004119911E+03  0.12500098219E+03 0.  0.
          5    1    3    3  501    0  0.69762264812E+01 -0.68900099201E+02  0.95200182104E+02  0.11772415249E+03  0.10000000000E+00 0. -1.
         -5    1    3    3    0  501 -0.13308097153E+02  0.54544927174E+02  0.97277204071E+02  0.11231704662E+03  0.10000000000E+00 0. -1.
         21    1    1    2  504  503  0.63318706716E+01  0.14355172027E+02  0.94085929281E+02  0.95385143700E+02  0.00000000000E+00 0.  1.
<mgrwt>
<rscale>  1 0.12598178E+03</rscale>
<asrwt>0</asrwt>
<pdfrwt beam="1">  1       21 0.47076124E-01 0.12598178E+03</pdfrwt>
<pdfrwt beam="2">  1       21 0.29894639E-02 0.12598178E+03</pdfrwt>
<totfact> 0.27260750E+06</totfact>
</mgrwt>
</event>
<event>
 6    1  0.4424270E-002  0.1616774E+03  0.7546771E-02  0.1186816E+00
         21   -1    0    0  504  502  0.00000000000E+00  0.00000000000E+00  0.20108944383E+03  0.20108944383E+03  0.00000000000E+00 0. -1.
         21   -1    0    0  502  503 -0.00000000000E+00 -0.00000000000E+00 -0.10488584219E+03  0.10488584219E+03  0.00000000000E+00 0. -1.
         25    2    1    2    0    0 -0.73435263041E+02 -0.71551748651E+02  0.11923619666E+03  0.20089012519E+03  0.12500872455E+03 0.  0.
          5    1    3    3  501    0 -0.16329773435E+02  0.93834183622E+01  0.97731055088E+02  0.99529287997E+02  0.10000000000E+00 0.  1.
         -5    1    3    3    0  501 -0.57105489606E+02 -0.80935167014E+02  0.21505141572E+02  0.10136083719E+03  0.10000000000E+00 0.  1.
         21    1    1    2  504  503  0.73435263041E+02  0.71551748651E+02 -0.23032595022E+02  0.10508516083E+03  0.00000000000E+00 0. -1.
<mgrwt>
<rscale>  1 0.16167737E+03</rscale>
<asrwt>0</asrwt>
<pdfrwt beam="1">  1       21 0.30936837E-01 0.16167737E+03</pdfrwt>
<pdfrwt beam="2">  1       21 0.16136283E-01 0.16167737E+03</pdfrwt>
<totfact> 0.34685008E+05</totfact>
</mgrwt>
</event>
<event>
 6    1  0.4424270E-002  0.1359042E+03  0.7546771E-02  0.1218949E+00
         21   -1    0    0  503  502  0.00000000000E+00  0.00000000000E+00  0.16328596638E+04  0.16328596638E+04  0.00000000000E+00 0. -1.
         21   -1    0    0  504  503 -0.00000000000E+00 -0.00000000000E+00 -0.70551835931E+01  0.70551835931E+01  0.00000000000E+00 0. -1.
         25    2    1    2    0    0  0.22916570050E+02  0.48179539942E+02  0.73131804761E+03  0.74383872599E+03  0.12499410493E+03 0.  0.
          5    1    3    3  501    0  0.40721289771E+02  0.85196075391E+02  0.48254368268E+03  0.49169605489E+03  0.10000000000E+00 0.  1.
         -5    1    3    3    0  501 -0.17804719721E+02 -0.37016535449E+02  0.24877436493E+03  0.25214267110E+03  0.10000000000E+00 0.  1.
         21    1    1    2  504  502 -0.22916570050E+02 -0.48179539942E+02  0.89448643260E+03  0.89607612140E+03  0.00000000000E+00 0. -1.
<mgrwt>
<rscale>  1 0.13590424E+03</rscale>
<asrwt>0</asrwt>
<pdfrwt beam="1">  1       21 0.25120888E+00 0.13590424E+03</pdfrwt>
<pdfrwt beam="2">  1       21 0.10854142E-02 0.13590424E+03</pdfrwt>
<totfact> 0.22354524E+05</totfact>
</mgrwt>
</event>
<event>
 6    1  0.4424270E-002  0.1283374E+03  0.7546771E-02  0.1229944E+00
         21   -1    0    0  504  502  0.00000000000E+00  0.00000000000E+00  0.16286527576E+02  0.16286527576E+02  0.00000000000E+00 0. -1.
         21   -1    0    0  502  503 -0.00000000000E+00 -0.00000000000E+00 -0.53631264208E+03  0.53631264208E+03  0.00000000000E+00 0. -1.
         25    2    1    2    0    0 -0.14673834690E+02 -0.25110419609E+02 -0.50252946577E+03  0.51865823104E+03  0.12499856823E+03 0.  0.
          5    1    3    3  501    0 -0.11109918883E+02 -0.37084138346E+02 -0.50452374809E+03  0.50600680431E+03  0.10000000000E+00 0.  1.
         -5    1    3    3    0  501 -0.35639158070E+01  0.11973718736E+02  0.19942823280E+01  0.12651426728E+02  0.10000000000E+00 0.  1.
         21    1    1    2  504  503  0.14673834690E+02  0.25110419609E+02 -0.17496648740E+02  0.33940938623E+02  0.00000000000E+00 0. -1.
<mgrwt>
<rscale>  1 0.12833743E+03</rscale>
<asrwt>0</asrwt>
<pdfrwt beam="1">  1       21 0.25056196E-02 0.12833743E+03</pdfrwt>
<pdfrwt beam="2">  1       21 0.82509639E-01 0.12833743E+03</pdfrwt>
<totfact> 0.10954811E+06</totfact>
</mgrwt>
</event>
<event>
 6    1  0.4424270E-002  0.1332886E+03  0.7546771E-02  0.1222656E+00
         21   -1    0    0  504  502  0.00000000000E+00  0.00000000000E+00  0.33863393357E+02  0.33863393357E+02  0.00000000000E+00 0. -1.
         21   -1    0    0  502  503 -0.00000000000E+00 -0.00000000000E+00 -0.65922977844E+03  0.65922977844E+03  0.00000000000E+00 0. -1.
         25    2    1    2    0    0  0.81051338323E+01  0.45565352690E+02 -0.63238883103E+03  0.64628281709E+03  0.12499580592E+03 0.  0.
          5    1    3    3  501    0  0.32693677639E+02  0.74562545303E+02 -0.54407905851E+03  0.55013678448E+03  0.10000000000E+00 0. -1.
         -5    1    3    3    0  501 -0.24588543807E+02 -0.28997192614E+02 -0.88309772518E+02  0.96146032618E+02  0.10000000000E+00 0. -1.
         21    1    1    2  504  503 -0.81051338323E+01 -0.45565352690E+02  0.70224459510E+01  0.46810354702E+02  0.00000000000E+00 0. -1.
<mgrwt>
<rscale>  1 0.13328858E+03</rscale>
<asrwt>0</asrwt>
<pdfrwt beam="1">  1       21 0.52097530E-02 0.13328858E+03</pdfrwt>
<pdfrwt beam="2">  1       21 0.10141996E+00 0.13328858E+03</pdfrwt>
<totfact> 0.20298095E+05</totfact>
</mgrwt>
</event>
<event>
 6    1  0.4424270E-002  0.1307034E+03  0.7546771E-02  0.1226416E+00
         21   -1    0    0  504  502  0.00000000000E+00  0.00000000000E+00  0.11585733662E+04  0.11585733662E+04  0.00000000000E+00 0.  1.
         21   -1    0    0  502  503 -0.00000000000E+00 -0.00000000000E+00 -0.10088034307E+02  0.10088034307E+02  0.00000000000E+00 0.  1.
         25    2    1    2    0    0  0.37729298666E+02 -0.64174827726E+01  0.43650870214E+03  0.45565690867E+03  0.12497474670E+03 0.  0.
          5    1    3    3  501    0  0.73839226505E+02  0.29098930091E+02  0.28872786723E+03  0.29943742321E+03  0.10000000000E+00 0.  1.
         -5    1    3    3    0  501 -0.36109927839E+02 -0.35516412863E+02  0.14778083491E+03  0.15621948546E+03  0.10000000000E+00 0.  1.
         21    1    1    2  504  503 -0.37729298666E+02  0.64174827726E+01  0.71197662976E+03  0.71300449184E+03  0.00000000000E+00 0.  1.
<mgrwt>
<rscale>  1 0.13070337E+03</rscale>
<asrwt>0</asrwt>
<pdfrwt beam="1">  1       21 0.17824195E+00 0.13070337E+03</pdfrwt>
<pdfrwt beam="2">  1       21 0.15520062E-02 0.13070337E+03</pdfrwt>
<totfact> 0.35558525E+05</totfact>
</mgrwt>
</event>
<event>
 6    1  0.4424270E-002  0.1442834E+03  0.7546771E-02  0.1207679E+00
         21   -1    0    0  504  502  0.00000000000E+00  0.00000000000E+00  0.56119602536E+02  0.56119602536E+02  0.00000000000E+00 0. -1.
         21   -1    0    0  502  503 -0.00000000000E+00 -0.00000000000E+00 -0.43408791687E+03  0.43408791687E+03  0.00000000000E+00 0. -1.
         25    2    1    2    0    0 -0.68276514227E+02 -0.22657909313E+02 -0.39129239455E+03  0.41704609267E+03  0.12507054860E+03 0.  0.
          5    1    3    3  501    0  0.17436593170E+02 -0.39638384699E+02 -0.57359693246E+02  0.71870583218E+02  0.10000000000E+00 0. -1.
         -5    1    3    3    0  501 -0.85713107397E+02  0.16980475385E+02 -0.33393270130E+03  0.34517550945E+03  0.10000000000E+00 0. -1.
         21    1    1    2  504  503  0.68276514227E+02  0.22657909313E+02  0.13324080212E+02  0.73161426742E+02  0.00000000000E+00 0. -1.
<mgrwt>
<rscale>  1 0.14428342E+03</rscale>
<asrwt>0</asrwt>
<pdfrwt beam="1">  1       21 0.86337852E-02 0.14428342E+03</pdfrwt>
<pdfrwt beam="2">  1       21 0.66782755E-01 0.14428342E+03</pdfrwt>
<totfact> 0.21878595E+05</totfact>
</mgrwt>
</event>
<event>
 6    1  0.4424270E-002  0.1385804E+03  0.7546771E-02  0.1215252E+00
         21   -1    0    0  503  502  0.00000000000E+00  0.00000000000E+00  0.27046269187E+02  0.27046269187E+02  0.00000000000E+00 0.  1.
         21   -1    0    0  504  503 -0.00000000000E+00 -0.00000000000E+00 -0.59043304939E+03  0.59043304939E+03  0.00000000000E+00 0.  1.
         25    2    1    2    0    0  0.51716542647E+02 -0.30084595198E+02 -0.53232225677E+03  0.55006501544E+03  0.12499941001E+03 0.  0.
          5    1    3    3  501    0 -0.39946579084E+02 -0.11908217492E+02 -0.22577728820E+03  0.22959296307E+03  0.10000000000E+00 0. -1.
         -5    1    3    3    0  501  0.91663121731E+02 -0.18176377706E+02 -0.30654496857E+03  0.32047205237E+03  0.10000000000E+00 0. -1.
         21    1    1    2  504  502 -0.51716542647E+02  0.30084595198E+02 -0.31064523430E+02  0.67414303138E+02  0.00000000000E+00 0.  1.
<mgrwt>
<rscale>  1 0.13858043E+03</rscale>
<asrwt>0</asrwt>
<pdfrwt beam="1">  1       21 0.41609649E-02 0.13858043E+03</pdfrwt>
<pdfrwt beam="2">  1       21 0.90835846E-01 0.13858043E+03</pdfrwt>
<totfact> 0.38164051E+05</totfact>
</mgrwt>
</event>
<event>
 6    1  0.4424270E-002  0.1538461E+03  0.7546771E-02  0.1195825E+00
         21   -1    0    0  504  502  0.00000000000E+00  0.00000000000E+00  0.74273098572E+03  0.74273098572E+03  0.00000000000E+00 0. -1.
         21   -1    0    0  502  503 -0.00000000000E+00 -0.00000000000E+00 -0.19987942144E+02  0.19987942144E+02  0.00000000000E+00 0. -1.
         25    2    1    2    0    0  0.89682931720E+02 -0.18961212787E+01  0.46874975830E+03  0.49335075513E+03  0.12498803208E+03 0.  0.
          5    1    3    3  501    0  0.87084417760E+02 -0.50857121303E+02  0.25886187888E+03  0.27781221165E+03  0.10000000000E+00 0. -1.
         -5    1    3    3    0  501  0.25985139593E+01  0.48961000024E+02  0.20988787942E+03  0.21553854348E+03  0.10000000000E+00 0. -1.
         21    1    1    2  504  503 -0.89682931720E+02  0.18961212787E+01  0.25399328528E+03  0.26936817274E+03  0.00000000000E+00 0. -1.
<mgrwt>
<rscale>  1 0.15384613E+03</rscale>
<asrwt>0</asrwt>
<pdfrwt beam="1">  1       21 0.11426628E+00 0.15384613E+03</pdfrwt>
<pdfrwt beam="2">  1       21 0.30750686E-02 0.15384613E+03</pdfrwt>
<totfact> 0.36545238E+05</totfact>
</mgrwt>
</event>
<event>
 6    1  0.4424270E-002  0.1263280E+03  0.7546771E-02  0.1233008E+00
         21   -1    0    0  503  502  0.00000000000E+00  0.00000000000E+00  0.64279242105E+01  0.64279242105E+01  0.00000000000E+00 0.  1.
         21   -1    0    0  504  503 -0.00000000000E+00 -0.00000000000E+00 -0.10516432147E+04  0.10516432147E+04  0.00000000000E+00 0.  1.
         25    2    1    2    0    0  0.15134470620E+02 -0.10167689125E+02 -0.10146266518E+04  0.10224607623E+04  0.12500533533E+03 0.  0.
          5    1    3    3  501    0 -0.36841832421E+02  0.33281861998E+02 -0.25289189627E+03  0.25771946793E+03  0.10000000000E+00 0. -1.
         -5    1    3    3    0  501  0.51976303040E+02 -0.43449551123E+02 -0.76173475550E+03  0.76474129437E+03  0.10000000000E+00 0. -1.
         21    1    1    2  504  502 -0.15134470620E+02  0.10167689125E+02 -0.30588638672E+02  0.35610376562E+02  0.00000000000E+00 0.  1.
<mgrwt>
<rscale>  1 0.12632802E+03</rscale>
<asrwt>0</asrwt>
<pdfrwt beam="1">  1       21 0.98891109E-03 0.12632802E+03</pdfrwt>
<pdfrwt beam="2">  1       21 0.16179132E+00 0.12632802E+03</pdfrwt>
<totfact> 0.94577940E+05</totfact>
</mgrwt>
</event>
<event>
 6    1  0.4424270E-002  0.1301402E+03  0.7546771E-02  0.1227248E+00
         21   -1    0    0  503  502  0.00000000000E+00  0.00000000000E+00  0.50138602448E+03  0.50138602448E+03  0.00000000000E+00 0. -1.
         21   -1    0    0  504  503 -0.00000000000E+00 -0.00000000000E+00 -0.13805825353E+02  0.13805825353E+02  0.00000000000E+00 0. -1.
         25    2    1    2    0    0  0.28184613453E+02  0.22762872236E+02  0.38530909766E+03  0.40669346744E+03  0.12499581963E+03 0.  0.
          5    1    3    3  501    0  0.69803206889E+02  0.25776221936E+02  0.32464695703E+03  0.33306539601E+03  0.10000000000E+00 0.  1.
         -5    1    3    3    0  501 -0.41618593437E+02 -0.30133497000E+01  0.60662140633E+02  0.73628071428E+02  0.10000000000E+00 0.  1.
         21    1    1    2  504  502 -0.28184613453E+02 -0.22762872236E+02  0.10227110146E+03  0.10849838239E+03  0.00000000000E+00 0. -1.
<mgrwt>
<rscale>  1 0.13014022E+03</rscale>
<asrwt>0</asrwt>
<pdfrwt beam="1">  1       21 0.77136297E-01 0.13014022E+03</pdfrwt>
<pdfrwt beam="2">  1       21 0.21239735E-02 0.13014022E+03</pdfrwt>
<totfact> 0.16650123E+06</totfact>
</mgrwt>
</event>
<event>
 6    1  0.4424270E-002  0.1317176E+03  0.7546771E-02  0.1224929E+00
         21   -1    0    0  503  502  0.00000000000E+00  0.00000000000E+00  0.62419004491E+02  0.62419004491E+02  0.00000000000E+00 0. -1.
         21   -1    0    0  504  503 -0.00000000000E+00 -0.00000000000E+00 -0.33208727128E+03  0.33208727128E+03  0.00000000000E+00 0. -1.
         25    2    1    2    0    0 -0.27549710402E+01 -0.41434257285E+02 -0.30987346541E+03  0.33670622786E+03  0.12500052709E+03 0.  0.
          5    1    3    3  501    0  0.53644580891E+02 -0.12593417000E+02 -0.72723478499E+02  0.91241709408E+02  0.10000000000E+00 0. -1.
         -5    1    3    3    0  501 -0.56399551932E+02 -0.28840840285E+02 -0.23714998691E+03  0.24546451845E+03  0.10000000000E+00 0. -1.
         21    1    1    2  504  502  0.27549710402E+01  0.41434257285E+02  0.40205198622E+02  0.57800047910E+02  0.00000000000E+00 0. -1.
<mgrwt>
<rscale>  1 0.13171757E+03</rscale>
<asrwt>0</asrwt>
<pdfrwt beam="1">  1       21 0.96029237E-02 0.13171757E+03</pdfrwt>
<pdfrwt beam="2">  1       21 0.51090350E-01 0.13171757E+03</pdfrwt>
<totfact> 0.32152685E+05</totfact>
</mgrwt>
</event>
<event>
 6    1  0.4424270E-002  0.1261894E+03  0.7546771E-02  0.1233222E+00
         21   -1    0    0  503  502  0.00000000000E+00  0.00000000000E+00  0.64814116055E+02  0.64814116055E+02  0.00000000000E+00 0.  1.
         21   -1    0    0  504  503 -0.00000000000E+00 -0.00000000000E+00 -0.41242971577E+03  0.41242971577E+03  0.00000000000E+00 0. -1.
         25    2    1    2    0    0 -0.13206964700E+02  0.11116260088E+02 -0.40139424849E+03  0.42076252324E+03  0.12500305233E+03 0.  0.
          5    1    3    3  501    0  0.46410687420E+02  0.62542705353E+01 -0.71377416860E+02  0.85368691242E+02  0.10000000000E+00 0. -1.
         -5    1    3    3    0  501 -0.59617652120E+02  0.48619895532E+01 -0.33001683163E+03  0.33539383200E+03  0.10000000000E+00 0. -1.
         21    1    1    2  504  502  0.13206964700E+02 -0.11116260088E+02  0.53778648774E+02  0.56481308580E+02  0.00000000000E+00 0.  1.
<mgrwt>
<rscale>  1 0.12618937E+03</rscale>
<asrwt>0</asrwt>
<pdfrwt beam="1">  1       21 0.99714027E-02 0.12618937E+03</pdfrwt>
<pdfrwt beam="2">  1       21 0.63450724E-01 0.12618937E+03</pdfrwt>
<totfact> 0.19101064E+05</totfact>
</mgrwt>
</event>
<event>
 6    1  0.4424270E-002  0.1272457E+03  0.7546771E-02  0.1231601E+00
         21   -1    0    0  504  502  0.00000000000E+00  0.00000000000E+00  0.90798825377E+02  0.90798825377E+02  0.00000000000E+00 0.  1.
         21   -1    0    0  502  503 -0.00000000000E+00 -0.00000000000E+00 -0.63502002208E+02  0.63502002208E+02  0.00000000000E+00 0.  1.
         25    2    1    2    0    0  0.13461389677E+02  0.19627935569E+02  0.17029898179E+02  0.12838028331E+03  0.12500005938E+03 0.  0.
          5    1    3    3  501    0 -0.93355905186E+01 -0.32249834001E+02  0.51923617723E+02  0.61832654163E+02  0.10000000000E+00 0.  1.
         -5    1    3    3    0  501  0.22796980195E+02  0.51877769571E+02 -0.34893719543E+02  0.66547629148E+02  0.10000000000E+00 0.  1.
         21    1    1    2  504  503 -0.13461389677E+02 -0.19627935569E+02  0.10266924990E+02  0.25920544275E+02  0.00000000000E+00 0.  1.
<mgrwt>
<rscale>  1 0.12724575E+03</rscale>
<asrwt>0</asrwt>
<pdfrwt beam="1">  1       21 0.13969050E-01 0.12724575E+03</pdfrwt>
<pdfrwt beam="2">  1       21 0.97695388E-02 0.12724575E+03</pdfrwt>
<totfact> 0.37265004E+06</totfact>
</mgrwt>
</event>
<event>
 6    1  0.4424270E-002  0.1297475E+03  0.7546771E-02  0.1227831E+00
         21   -1    0    0  504  502  0.00000000000E+00  0.00000000000E+00  0.97036984663E+02  0.97036984663E+02  0.00000000000E+00 0. -1.
         21   -1    0    0  502  503 -0.00000000000E+00 -0.00000000000E+00 -0.15721207077E+03  0.15721207077E+03  0.00000000000E+00 0. -1.
         25    2    1    2    0    0  0.30156889862E+02  0.17307485023E+02 -0.12533174837E+03  0.18039529668E+03  0.12500171548E+03 0.  0.
          5    1    3    3  501    0  0.29345749724E+02 -0.22970303550E+02 -0.13408644442E+03  0.13916893493E+03  0.10000000000E+00 0. -1.
         -5    1    3    3    0  501  0.81114013878E+00  0.40277788573E+02  0.87546960490E+01  0.41226361755E+02  0.10000000000E+00 0. -1.
         21    1    1    2  504  503 -0.30156889862E+02 -0.17307485023E+02  0.65156662264E+02  0.73853758749E+02  0.00000000000E+00 0. -1.
<mgrwt>
<rscale>  1 0.12974751E+03</rscale>
<asrwt>0</asrwt>
<pdfrwt beam="1">  1       21 0.14928767E-01 0.12974751E+03</pdfrwt>
<pdfrwt beam="2">  1       21 0.24186472E-01 0.12974751E+03</pdfrwt>
<totfact> 0.64184781E+05</totfact>
</mgrwt>
</event>
<event>
 6    1  0.4424270E-002  0.2222476E+03  0.7546771E-02  0.1132218E+00
         21   -1    0    0  504  502  0.00000000000E+00  0.00000000000E+00  0.75367606091E+03  0.75367606091E+03  0.00000000000E+00 0. -1.
         21   -1    0    0  502  503 -0.00000000000E+00 -0.00000000000E+00 -0.47992648480E+03  0.47992648480E+03  0.00000000000E+00 0. -1.
         25    2    1    2    0    0  0.12157167304E+03 -0.13780162321E+03 -0.44195126756E+03  0.49468667995E+03  0.12500011751E+03 0.  0.
          5    1    3    3  501    0  0.79752430943E+02 -0.15709749290E+03 -0.34852161333E+03  0.39052195518E+03  0.10000000000E+00 0.  1.
         -5    1    3    3    0  501  0.41819242099E+02  0.19295869697E+02 -0.93429654235E+02  0.10416472478E+03  0.10000000000E+00 0.  1.
         21    1    1    2  504  503 -0.12157167304E+03  0.13780162321E+03  0.71570084367E+03  0.73891586576E+03  0.00000000000E+00 0. -1.
<mgrwt>
<rscale>  1 0.22224758E+03</rscale>
<asrwt>0</asrwt>
<pdfrwt beam="1">  1       21 0.11595016E+00 0.22224758E+03</pdfrwt>
<pdfrwt beam="2">  1       21 0.73834844E-01 0.22224758E+03</pdfrwt>
<totfact> 0.91907990E+02</totfact>
</mgrwt>
</event>
<event>
 6    1  0.4424270E-002  0.1262417E+03  0.7546771E-02  0.1233141E+00
         21   -1    0    0  503  502  0.00000000000E+00  0.00000000000E+00  0.20799603678E+03  0.20799603678E+03  0.00000000000E+00 0. -1.
         21   -1    0    0  504  503 -0.00000000000E+00 -0.00000000000E+00 -0.36277832619E+02  0.36277832619E+02  0.00000000000E+00 0. -1.
         25    2    1    2    0    0  0.17365865645E+02  0.31557227647E+01  0.76883943421E+02  0.14781108442E+03  0.12500177617E+03 0.  0.
          5    1    3    3  501    0 -0.44927894141E+02  0.28609903151E+02  0.12571115548E+02  0.54727371364E+02  0.10000000000E+00 0. -1.
         -5    1    3    3    0  501  0.62293759786E+02 -0.25454180386E+02  0.64312827873E+02  0.93083713057E+02  0.10000000000E+00 0. -1.
         21    1    1    2  504  502 -0.17365865645E+02 -0.31557227647E+01  0.94834260742E+02  0.96462784981E+02  0.00000000000E+00 0. -1.
<mgrwt>
<rscale>  1 0.12624174E+03</rscale>
<asrwt>0</asrwt>
<pdfrwt beam="1">  1       21 0.31999390E-01 0.12624174E+03</pdfrwt>
<pdfrwt beam="2">  1       21 0.55812052E-02 0.12624174E+03</pdfrwt>
<totfact> 0.20823908E+06</totfact>
</mgrwt>
</event>
<event>
 6    1  0.4424270E-002  0.1311485E+03  0.7546771E-02  0.1225761E+00
         21   -1    0    0  503  502  0.00000000000E+00  0.00000000000E+00  0.31875382821E+02  0.31875382821E+02  0.00000000000E+00 0.  1.
         21   -1    0    0  504  503 -0.00000000000E+00 -0.00000000000E+00 -0.54712070609E+03  0.54712070609E+03  0.00000000000E+00 0.  1.
         25    2    1    2    0    0 -0.39615327210E+02  0.25080820961E+01 -0.52244436365E+03  0.53865391732E+03  0.12499705958E+03 0.  0.
          5    1    3    3  501    0  0.19164076165E+02  0.17276693951E+02 -0.41088828484E+03  0.41169763005E+03  0.10000000000E+00 0.  1.
         -5    1    3    3    0  501 -0.58779403375E+02 -0.14768611855E+02 -0.11155607881E+03  0.12695628727E+03  0.10000000000E+00 0.  1.
         21    1    1    2  504  502  0.39615327210E+02 -0.25080820961E+01  0.71990403896E+01  0.40342171586E+02  0.00000000000E+00 0.  1.
<mgrwt>
<rscale>  1 0.13114850E+03</rscale>
<asrwt>0</asrwt>
<pdfrwt beam="1">  1       21 0.49039054E-02 0.13114850E+03</pdfrwt>
<pdfrwt beam="2">  1       21 0.84172411E-01 0.13114850E+03</pdfrwt>
<totfact> 0.34533112E+05</totfact>
</mgrwt>
</event>
<event>
 6    1  0.4424270E-002  0.1360120E+03  0.7546771E-02  0.1218798E+00
         21   -1    0    0  503  502  0.00000000000E+00  0.00000000000E+00  0.30405401852E+03  0.30405401852E+03  0.00000000000E+00 0.  1.
         21   -1    0    0  504  503 -0.00000000000E+00 -0.00000000000E+00 -0.29630301234E+02  0.29630301234E+02  0.00000000000E+00 0.  1.
         25    2    1    2    0    0 -0.69993388695E+00 -0.53603995086E+02  0.20382718281E+03  0.24504037536E+03  0.12500154763E+03 0.  0.
          5    1    3    3  501    0  0.20901600304E+01  0.30945881402E+01 -0.16808639004E+02  0.17218756920E+02  0.10000000000E+00 0. -1.
         -5    1    3    3    0  501 -0.27900939173E+01 -0.56698583226E+02  0.22063582181E+03  0.22782161844E+03  0.10000000000E+00 0. -1.
         21    1    1    2  504  502  0.69993388695E+00  0.53603995086E+02  0.70596534479E+02  0.88643944390E+02  0.00000000000E+00 0.  1.
<mgrwt>
<rscale>  1 0.13601200E+03</rscale>
<asrwt>0</asrwt>
<pdfrwt beam="1">  1       21 0.46777539E-01 0.13601200E+03</pdfrwt>
<pdfrwt beam="2">  1       21 0.45585081E-02 0.13601200E+03</pdfrwt>
<totfact> 0.13756704E+06</totfact>
</mgrwt>
</event>
<event>
 6    1  0.4424270E-002  0.1279929E+03  0.7546771E-02  0.1230465E+00
         21   -1    0    0  503  502  0.00000000000E+00  0.00000000000E+00  0.63493074230E+02  0.63493074230E+02  0.00000000000E+00 0.  1.
         21   -1    0    0  504  503 -0.00000000000E+00 -0.00000000000E+00 -0.63972371516E+03  0.63972371516E+03  0.00000000000E+00 0. -1.
         25    2    1    2    0    0 -0.21410313921E+02 -0.17280862823E+02 -0.62997133817E+03  0.64284218958E+03  0.12500065613E+03 0.  0.
          5    1    3    3  501    0  0.32362944799E+02 -0.53073759148E+02 -0.26453994819E+03  0.27174542921E+03  0.10000000000E+00 0. -1.
         -5    1    3    3    0  501 -0.53773258719E+02  0.35792896325E+02 -0.36543138998E+03  0.37109676038E+03  0.10000000000E+00 0. -1.
         21    1    1    2  504  502  0.21410313921E+02  0.17280862823E+02  0.53740697239E+02  0.60374599806E+02  0.00000000000E+00 0.  1.
<mgrwt>
<rscale>  1 0.12799294E+03</rscale>
<asrwt>0</asrwt>
<pdfrwt beam="1">  1       21 0.97681653E-02 0.12799294E+03</pdfrwt>
<pdfrwt beam="2">  1       21 0.98419033E-01 0.12799294E+03</pdfrwt>
<totfact> 0.74323557E+04</totfact>
</mgrwt>
</event>
<event>
 6    1  0.4424270E-002  0.1285491E+03  0.7546771E-02  0.1229625E+00
         21   -1    0    0  503  502  0.00000000000E+00  0.00000000000E+00  0.37017830198E+03  0.37017830198E+03  0.00000000000E+00 0. -1.
         21   -1    0    0  504  503 -0.00000000000E+00 -0.00000000000E+00 -0.29085513202E+02  0.29085513202E+02  0.00000000000E+00 0.  1.
         25    2    1    2    0    0  0.20797915459E+02  0.21587352705E+02  0.11905344749E+03  0.17521016945E+03  0.12500525204E+03 0.  0.
          5    1    3    3  501    0  0.55548927853E+02 -0.29712288976E+02  0.80553261201E+02  0.10226114312E+03  0.10000000000E+00 0.  1.
         -5    1    3    3    0  501 -0.34751012394E+02  0.51299641682E+02  0.38500186288E+02  0.72949026335E+02  0.10000000000E+00 0.  1.
         21    1    1    2  504  502 -0.20797915459E+02 -0.21587352705E+02  0.22203934129E+03  0.22405364573E+03  0.00000000000E+00 0. -1.
<mgrwt>
<rscale>  1 0.12854914E+03</rscale>
<asrwt>0</asrwt>
<pdfrwt beam="1">  1       21 0.56950505E-01 0.12854914E+03</pdfrwt>
<pdfrwt beam="2">  1       21 0.44746946E-02 0.12854914E+03</pdfrwt>
<totfact> 0.94298206E+05</totfact>
</mgrwt>
</event>
<event>
 6    1  0.4424270E-002  0.1580222E+03  0.7546771E-02  0.1190948E+00
         21   -1    0    0  504  502  0.00000000000E+00  0.00000000000E+00  0.88340844243E+01  0.88340844243E+01  0.00000000000E+00 0.  1.
         21   -1    0    0  502  503 -0.00000000000E+00 -0.00000000000E+00 -0.19437291482E+04  0.19437291482E+04  0.00000000000E+00 0.  1.
         25    2    1    2    0    0 -0.95713812440E+02 -0.13518799287E+02 -0.14113816129E+04  0.14202003629E+04  0.12500848646E+03 0.  0.
          5    1    3    3  501    0 -0.48533341693E+02 -0.56103183036E+02 -0.39979384293E+03  0.40661797704E+03  0.10000000000E+00 0. -1.
         -5    1    3    3    0  501 -0.47180470746E+02  0.42584383749E+02 -0.10115877700E+04  0.10135823858E+04  0.10000000000E+00 0. -1.
         21    1    1    2  504  503  0.95713812440E+02  0.13518799287E+02 -0.52351345083E+03  0.53236286969E+03  0.00000000000E+00 0.  1.
<mgrwt>
<rscale>  1 0.15802219E+03</rscale>
<asrwt>0</asrwt>
<pdfrwt beam="1">  1       21 0.13590897E-02 0.15802219E+03</pdfrwt>
<pdfrwt beam="2">  1       21 0.29903530E+00 0.15802219E+03</pdfrwt>
<totfact> 0.81980833E+04</totfact>
</mgrwt>
</event>
<event>
 6    1  0.4424270E-002  0.1269172E+03  0.7546771E-02  0.1232103E+00
         21   -1    0    0  503  502  0.00000000000E+00  0.00000000000E+00  0.54039776638E+02  0.54039776638E+02  0.00000000000E+00 0.  1.
         21   -1    0    0  504  503 -0.00000000000E+00 -0.00000000000E+00 -0.13364252261E+03  0.13364252261E+03  0.00000000000E+00 0.  1.
         25    2    1    2    0    0 -0.61091903882E+01 -0.20906052293E+02 -0.97053864681E+02  0.15977303960E+03  0.12503434049E+03 0.  0.
          5    1    3    3  501    0 -0.15265845567E+02  0.72951000907E+01  0.27198560001E+02  0.32031799705E+02  0.10000000000E+00 0.  1.
         -5    1    3    3    0  501  0.91566551793E+01 -0.28201152384E+02 -0.12425242468E+03  0.12774123989E+03  0.10000000000E+00 0.  1.
         21    1    1    2  504  502  0.61091903882E+01  0.20906052293E+02  0.17451118713E+02  0.27909259647E+02  0.00000000000E+00 0.  1.
<mgrwt>
<rscale>  1 0.12691718E+03</rscale>
<asrwt>0</asrwt>
<pdfrwt beam="1">  1       21 0.83138119E-02 0.12691718E+03</pdfrwt>
<pdfrwt beam="2">  1       21 0.20560388E-01 0.12691718E+03</pdfrwt>
<totfact> 0.24392784E+06</totfact>
</mgrwt>
</event>
<event>
 6    1  0.4424270E-002  0.1355319E+03  0.7546771E-02  0.1219471E+00
         21   -1    0    0  503  502  0.00000000000E+00  0.00000000000E+00  0.20432483192E+03  0.20432483192E+03  0.00000000000E+00 0. -1.
         21   -1    0    0  504  503 -0.00000000000E+00 -0.00000000000E+00 -0.43903388434E+02  0.43903388434E+02  0.00000000000E+00 0. -1.
         25    2    1    2    0    0  0.18760914223E+00 -0.52405364876E+02  0.12908651347E+03  0.18716894338E+03  0.12499011138E+03 0.  0.
          5    1    3    3  501    0  0.56735052466E+02 -0.42497667154E+02  0.40598370146E+02  0.81689384563E+02  0.10000000000E+00 0. -1.
         -5    1    3    3    0  501 -0.56547443324E+02 -0.99076977216E+01  0.88488143322E+02  0.10547955882E+03  0.10000000000E+00 0. -1.
         21    1    1    2  504  502 -0.18760914223E+00  0.52405364876E+02  0.31334930022E+02  0.61059276973E+02  0.00000000000E+00 0. -1.
<mgrwt>
<rscale>  1 0.13553186E+03</rscale>
<asrwt>0</asrwt>
<pdfrwt beam="1">  1       21 0.31434589E-01 0.13553186E+03</pdfrwt>
<pdfrwt beam="2">  1       21 0.67543676E-02 0.13553186E+03</pdfrwt>
<totfact> 0.15615216E+06</totfact>
</mgrwt>
</event>
<event>
 6    1  0.4424270E-002  0.1324578E+03  0.7546771E-02  0.1223854E+00
         21   -1    0    0  504  502  0.00000000000E+00  0.00000000000E+00  0.37964121594E+02  0.37964121594E+02  0.00000000000E+00 0.  1.
         21   -1    0    0  502  503 -0.00000000000E+00 -0.00000000000E+00 -0.46765712945E+03  0.46765712945E+03  0.00000000000E+00 0.  1.
         25    2    1    2    0    0  0.44045489359E+02 -0.32818784933E-02 -0.44073806108E+03  0.46021201912E+03  0.12492021020E+03 0.  0.
          5    1    3    3  501    0  0.93619037453E+01 -0.30430421463E+01 -0.41910772332E+03  0.41922332842E+03  0.10000000000E+00 0.  1.
         -5    1    3    3    0  501  0.34683585613E+02  0.30397602678E+01 -0.21630337755E+02  0.40988690695E+02  0.10000000000E+00 0.  1.
         21    1    1    2  504  503 -0.44045489359E+02  0.32818784933E-02  0.11045053219E+02  0.45409231927E+02  0.00000000000E+00 0.  1.
<mgrwt>
<rscale>  1 0.13245778E+03</rscale>
<asrwt>0</asrwt>
<pdfrwt beam="1">  1       21 0.58406343E-02 0.13245778E+03</pdfrwt>
<pdfrwt beam="2">  1       21 0.71947249E-01 0.13245778E+03</pdfrwt>
<totfact> 0.36451998E+05</totfact>
</mgrwt>
</event>
<event>
 6    1  0.4424270E-002  0.1261068E+03  0.7546771E-02  0.1233350E+00
         21   -1    0    0  504  502  0.00000000000E+00  0.00000000000E+00  0.97027303650E+02  0.97027303650E+02  0.00000000000E+00 0.  1.
         21   -1    0    0  502  503 -0.00000000000E+00 -0.00000000000E+00 -0.61131022086E+02  0.61131022086E+02  0.00000000000E+00 0.  1.
         25    2    1    2    0    0 -0.73928372087E+01 -0.14991891973E+02  0.89185007624E+01  0.12642172976E+03  0.12499401279E+03 0.  0.
          5    1    3    3  501    0 -0.64835839298E+02 -0.21309620406E+02  0.27416268203E+01  0.68303092879E+02  0.10000000000E+00 0. -1.
         -5    1    3    3    0  501  0.57443002089E+02  0.63177284322E+01  0.61768739422E+01  0.58118636884E+02  0.10000000000E+00 0. -1.
         21    1    1    2  504  503  0.73928372087E+01  0.14991891973E+02  0.26977780802E+02  0.31736595972E+02  0.00000000000E+00 0.  1.
<mgrwt>
<rscale>  1 0.12610676E+03</rscale>
<asrwt>0</asrwt>
<pdfrwt beam="1">  1       21 0.14927277E-01 0.12610676E+03</pdfrwt>
<pdfrwt beam="2">  1       21 0.94047726E-02 0.12610676E+03</pdfrwt>
<totfact> 0.35333019E+06</totfact>
</mgrwt>
</event>
<event>
 6    1  0.4424270E-002  0.1361545E+03  0.7546771E-02  0.1218599E+00
         21   -1    0    0  503  502  0.00000000000E+00  0.00000000000E+00  0.15575466536E+03  0.15575466536E+03  0.00000000000E+00 0.  1.
         21   -1    0    0  504  503 -0.00000000000E+00 -0.00000000000E+00 -0.71296044133E+02  0.71296044133E+02  0.00000000000E+00 0.  1.
         25    2    1    2    0    0 -0.53382379782E+02  0.79793226652E+01  0.11977971285E+02  0.13668040089E+03  0.12499884851E+03 0.  0.
          5    1    3    3  501    0 -0.86638194157E+02  0.32112615222E+02  0.20668617487E+02  0.94681563633E+02  0.10000000000E+00 0.  1.
         -5    1    3    3    0  501  0.33255814375E+02 -0.24133292557E+02 -0.86906462019E+01  0.41998837256E+02  0.10000000000E+00 0.  1.
         21    1    1    2  504  502  0.53382379782E+02 -0.79793226652E+01  0.72480649946E+02  0.90370308608E+02  0.00000000000E+00 0.  1.
<mgrwt>
<rscale>  1 0.13615455E+03</rscale>
<asrwt>0</asrwt>
<pdfrwt beam="1">  1       21 0.23962256E-01 0.13615455E+03</pdfrwt>
<pdfrwt beam="2">  1       21 0.10968622E-01 0.13615455E+03</pdfrwt>
<totfact> 0.11315507E+06</totfact>
</mgrwt>
</event>
<event>
 6    1  0.4424270E-002  0.1272554E+03  0.7546771E-02  0.1231586E+00
         21   -1    0    0  503  502  0.00000000000E+00  0.00000000000E+00  0.13555742090E+04  0.13555742090E+04  0.00000000000E+00 0. -1.
         21   -1    0    0  504  503 -0.00000000000E+00 -0.00000000000E+00 -0.42188688923E+01  0.42188688923E+01  0.00000000000E+00 0. -1.
         25    2    1    2    0    0 -0.38881342144E+01  0.23539296287E+02  0.11162640538E+04  0.11234942650E+04  0.12499883886E+03 0.  0.
          5    1    3    3  501    0  0.80024068958E+01 -0.25657504700E+01  0.17166708175E+01  0.85777940227E+01  0.10000000000E+00 0. -1.
         -5    1    3    3    0  501 -0.11890541110E+02  0.26105046757E+02  0.11145473830E+04  0.11149164710E+04  0.10000000000E+00 0. -1.
         21    1    1    2  504  502  0.38881342144E+01 -0.23539296287E+02  0.23509128634E+03  0.23629881288E+03  0.00000000000E+00 0. -1.
<mgrwt>
<rscale>  1 0.12725536E+03</rscale>
<asrwt>0</asrwt>
<pdfrwt beam="1">  1       21 0.20854953E+00 0.12725536E+03</pdfrwt>
<pdfrwt beam="2">  1       21 0.64905783E-03 0.12725536E+03</pdfrwt>
<totfact> 0.89959441E+05</totfact>
</mgrwt>
</event>
<event>
 6    1  0.4424270E-002  0.1382575E+03  0.7546771E-02  0.1215693E+00
         21   -1    0    0  504  502  0.00000000000E+00  0.00000000000E+00  0.75831388264E+02  0.75831388264E+02  0.00000000000E+00 0. -1.
         21   -1    0    0  502  503 -0.00000000000E+00 -0.00000000000E+00 -0.14023148145E+03  0.14023148145E+03  0.00000000000E+00 0. -1.
         25    2    1    2    0    0  0.21068986692E+02  0.55195221730E+02 -0.73023374031E+02  0.15635712732E+03  0.12499889363E+03 0.  0.
          5    1    3    3  501    0 -0.52820273919E+02  0.24855099663E+02 -0.30142577739E+02  0.65698876009E+02  0.10000000000E+00 0. -1.
         -5    1    3    3    0  501  0.73889260611E+02  0.30340122067E+02 -0.42880796292E+02  0.90658251314E+02  0.10000000000E+00 0. -1.
         21    1    1    2  504  503 -0.21068986692E+02 -0.55195221730E+02  0.86232808438E+01  0.59705742392E+02  0.00000000000E+00 0. -1.
<mgrwt>
<rscale>  1 0.13825751E+03</rscale>
<asrwt>0</asrwt>
<pdfrwt beam="1">  1       21 0.11666367E-01 0.13825751E+03</pdfrwt>
<pdfrwt beam="2">  1       21 0.21574074E-01 0.13825751E+03</pdfrwt>
<totfact> 0.12356624E+06</totfact>
</mgrwt>
</event>
<event>
 6    1  0.4424270E-002  0.1528080E+03  0.7546771E-02  0.1197064E+00
         21   -1    0    0  503  502  0.00000000000E+00  0.00000000000E+00  0.11006633303E+03  0.11006633303E+03  0.00000000000E+00 0.  1.
         21   -1    0    0  504  503 -0.00000000000E+00 -0.00000000000E+00 -0.16368052949E+04  0.16368052949E+04  0.00000000000E+00 0.  1.
         25    2    1    2    0    0 -0.87300644836E+02  0.10104047468E+02 -0.16150618000E+04  0.16222746050E+04  0.12500712800E+03 0.  0.
          5    1    3    3  501    0  0.10714693071E+02 -0.38900374478E+02 -0.58816795395E+03  0.58955033359E+03  0.10000000000E+00 0.  1.
         -5    1    3    3    0  501 -0.98015337907E+02  0.49004421946E+02 -0.10268938460E+04  0.10327242715E+04  0.10000000000E+00 0.  1.
         21    1    1    2  504  502  0.87300644836E+02 -0.10104047468E+02  0.88322838145E+02  0.12459702285E+03  0.00000000000E+00 0.  1.
<mgrwt>
<rscale>  1 0.15280797E+03</rscale>
<asrwt>0</asrwt>
<pdfrwt beam="1">  1       21 0.16933281E-01 0.15280797E+03</pdfrwt>
<pdfrwt beam="2">  1       21 0.25181622E+00 0.15280797E+03</pdfrwt>
<totfact> 0.21438394E+03</totfact>
</mgrwt>
</event>
<event>
 6    1  0.4424270E-002  0.1267112E+03  0.7546771E-02  0.1232419E+00
         21   -1    0    0  503  502  0.00000000000E+00  0.00000000000E+00  0.16743607675E+02  0.16743607675E+02  0.00000000000E+00 0.  1.
         21   -1    0    0  504  503 -0.00000000000E+00 -0.00000000000E+00 -0.11727995635E+04  0.11727995635E+04  0.00000000000E+00 0. -1.
         25    2    1    2    0    0  0.34318305296E+01 -0.20472095678E+02 -0.11612522506E+04  0.11681449085E+04  0.12499941418E+03 0.  0.
          5    1    3    3  501    0  0.63370920016E+02 -0.85901427965E+00 -0.54408046338E+03  0.54775922816E+03  0.10000000000E+00 0. -1.
         -5    1    3    3    0  501 -0.59939089486E+02 -0.19613081398E+02 -0.61717178726E+03  0.62038568036E+03  0.10000000000E+00 0. -1.
         21    1    1    2  504  502 -0.34318305296E+01  0.20472095678E+02  0.51962948560E+01  0.21398262604E+02  0.00000000000E+00 0.  1.
<mgrwt>
<rscale>  1 0.12671124E+03</rscale>
<asrwt>0</asrwt>
<pdfrwt beam="1">  1       21 0.25759393E-02 0.12671124E+03</pdfrwt>
<pdfrwt beam="2">  1       21 0.18043073E+00 0.12671124E+03</pdfrwt>
<totfact> 0.15207720E+05</totfact>
</mgrwt>
</event>
<event>
 6    1  0.4424270E-002  0.1261537E+03  0.7546771E-02  0.1233277E+00
         21   -1    0    0  503  502  0.00000000000E+00  0.00000000000E+00  0.11553538398E+02  0.11553538398E+02  0.00000000000E+00 0.  1.
         21   -1    0    0  504  503 -0.00000000000E+00 -0.00000000000E+00 -0.20221007899E+04  0.20221007899E+04  0.00000000000E+00 0.  1.
         25    2    1    2    0    0 -0.11924598715E+02 -0.12078919427E+02 -0.20126065656E+04  0.20165564593E+04  0.12500667663E+03 0.  0.
          5    1    3    3  501    0 -0.43330019934E+02 -0.30004764921E+02 -0.18087333940E+04  0.18095011128E+04  0.10000000000E+00 0.  1.
         -5    1    3    3    0  501  0.31405421219E+02  0.17925845493E+02 -0.20387317163E+03  0.20705534654E+03  0.10000000000E+00 0.  1.
         21    1    1    2  504  502  0.11924598715E+02  0.12078919427E+02  0.20593141365E+01  0.17097868983E+02  0.00000000000E+00 0.  1.
<mgrwt>
<rscale>  1 0.12615374E+03</rscale>
<asrwt>0</asrwt>
<pdfrwt beam="1">  1       21 0.17774674E-02 0.12615374E+03</pdfrwt>
<pdfrwt beam="2">  1       21 0.31109243E+00 0.12615374E+03</pdfrwt>
<totfact> 0.47211935E+04</totfact>
</mgrwt>
</event>
<event>
 6    1  0.4424270E-002  0.1281692E+03  0.7546771E-02  0.1230198E+00
         21   -1    0    0  503  502  0.00000000000E+00  0.00000000000E+00  0.25504908891E+03  0.25504908891E+03  0.00000000000E+00 0. -1.
         21   -1    0    0  504  503 -0.00000000000E+00 -0.00000000000E+00 -0.24909329752E+02  0.24909329752E+02  0.00000000000E+00 0. -1.
         25    2    1    2    0    0  0.25710777225E+02  0.11937963843E+02  0.16510594385E+03  0.20901508790E+03  0.12499510082E+03 0.  0.
          5    1    3    3  501    0  0.31300021560E+02 -0.55484015075E+01  0.18158453192E+03  0.18434594745E+03  0.10000000000E+00 0.  1.
         -5    1    3    3    0  501 -0.55892443353E+01  0.17486365351E+02 -0.16478588073E+02  0.24669140445E+02  0.10000000000E+00 0.  1.
         21    1    1    2  504  502 -0.25710777225E+02 -0.11937963843E+02  0.65033815314E+02  0.70943330768E+02  0.00000000000E+00 0. -1.
<mgrwt>
<rscale>  1 0.12816916E+03</rscale>
<asrwt>0</asrwt>
<pdfrwt beam="1">  1       21 0.39238319E-01 0.12816916E+03</pdfrwt>
<pdfrwt beam="2">  1       21 0.38322048E-02 0.12816916E+03</pdfrwt>
<totfact> 0.26160837E+06</totfact>
</mgrwt>
</event>
<event>
 6    1  0.4424270E-002  0.1259080E+03  0.7546771E-02  0.1233657E+00
         21   -1    0    0  503  502  0.00000000000E+00  0.00000000000E+00  0.34671151233E+02  0.34671151233E+02  0.00000000000E+00 0.  1.
         21   -1    0    0  504  503 -0.00000000000E+00 -0.00000000000E+00 -0.30288773355E+03  0.30288773355E+03  0.00000000000E+00 0.  1.
         25    2    1    2    0    0 -0.77451446598E+01  0.13048096641E+02 -0.28700514736E+03  0.31340830988E+03  0.12499029560E+03 0.  0.
          5    1    3    3  501    0 -0.60321285385E+01  0.69081950582E+02 -0.17249783432E+03  0.18591453767E+03  0.10000000000E+00 0. -1.
         -5    1    3    3    0  501 -0.17130161213E+01 -0.56033853941E+02 -0.11450731304E+03  0.12749377221E+03  0.10000000000E+00 0. -1.
         21    1    1    2  504  502  0.77451446598E+01 -0.13048096641E+02  0.18788565047E+02  0.24150574906E+02  0.00000000000E+00 0.  1.
<mgrwt>
<rscale>  1 0.12590796E+03</rscale>
<asrwt>0</asrwt>
<pdfrwt beam="1">  1       21 0.53340235E-02 0.12590796E+03</pdfrwt>
<pdfrwt beam="2">  1       21 0.46598111E-01 0.12590796E+03</pdfrwt>
<totfact> 0.10641513E+06</totfact>
</mgrwt>
</event>
<event>
 6    1  0.4424270E-002  0.1373039E+03  0.7546771E-02  0.1217003E+00
         21   -1    0    0  504  502  0.00000000000E+00  0.00000000000E+00  0.11299005936E+03  0.11299005936E+03  0.00000000000E+00 0. -1.
         21   -1    0    0  502  503 -0.00000000000E+00 -0.00000000000E+00 -0.11937761961E+03  0.11937761961E+03  0.00000000000E+00 0. -1.
         25    2    1    2    0    0  0.14605524750E+02  0.54906301219E+02 -0.63969674669E+02  0.15147439638E+03  0.12499740083E+03 0.  0.
          5    1    3    3  501    0  0.61775675765E+02  0.62130953919E+02 -0.28919355876E+02  0.92264991711E+02  0.10000000000E+00 0. -1.
         -5    1    3    3    0  501 -0.47170151015E+02 -0.72246527003E+01 -0.35050318793E+02  0.59209404666E+02  0.10000000000E+00 0. -1.
         21    1    1    2  504  503 -0.14605524750E+02 -0.54906301219E+02  0.57582114426E+02  0.80893282592E+02  0.00000000000E+00 0. -1.
<mgrwt>
<rscale>  1 0.13730395E+03</rscale>
<asrwt>0</asrwt>
<pdfrwt beam="1">  1       21 0.17383086E-01 0.13730395E+03</pdfrwt>
<pdfrwt beam="2">  1       21 0.18365788E-01 0.13730395E+03</pdfrwt>
<totfact> 0.81249998E+05</totfact>
</mgrwt>
</event>
<event>
 6    1  0.4424270E-002  0.1277878E+03  0.7546771E-02  0.1230776E+00
         21   -1    0    0  504  502  0.00000000000E+00  0.00000000000E+00  0.15300798062E+02  0.15300798062E+02  0.00000000000E+00 0.  1.
         21   -1    0    0  502  503 -0.00000000000E+00 -0.00000000000E+00 -0.38993350626E+03  0.38993350626E+03  0.00000000000E+00 0.  1.
         25    2    1    2    0    0  0.17888947147E+02 -0.19633807010E+02 -0.31633588461E+03  0.34117167522E+03  0.12499687703E+03 0.  0.
          5    1    3    3  501    0  0.22769122651E+02 -0.20758390963E+02 -0.32749429897E+03  0.32894052593E+03  0.10000000000E+00 0.  1.
         -5    1    3    3    0  501 -0.48801755032E+01  0.11245839524E+01  0.11158414355E+02  0.12231149288E+02  0.10000000000E+00 0.  1.
         21    1    1    2  504  503 -0.17888947147E+02  0.19633807010E+02 -0.58296823582E+02  0.64062629103E+02  0.00000000000E+00 0.  1.
<mgrwt>
<rscale>  1 0.12778779E+03</rscale>
<asrwt>0</asrwt>
<pdfrwt beam="1">  1       21 0.23539694E-02 0.12778779E+03</pdfrwt>
<pdfrwt beam="2">  1       21 0.59989757E-01 0.12778779E+03</pdfrwt>
<totfact> 0.24312139E+06</totfact>
</mgrwt>
</event>
<event>
 6    1  0.4424270E-002  0.1272952E+03  0.7546771E-02  0.1231525E+00
         21   -1    0    0  504  502  0.00000000000E+00  0.00000000000E+00  0.16303952963E+03  0.16303952963E+03  0.00000000000E+00 0. -1.
         21   -1    0    0  502  503 -0.00000000000E+00 -0.00000000000E+00 -0.37648665208E+02  0.37648665208E+02  0.00000000000E+00 0. -1.
         25    2    1    2    0    0  0.23960983837E+02 -0.23545821388E+01  0.12210116572E+03  0.17638809358E+03  0.12499756831E+03 0.  0.
          5    1    3    3  501    0  0.37268562228E+02 -0.49350530558E+02  0.10980210703E+03  0.12601957509E+03  0.10000000000E+00 0.  1.
         -5    1    3    3    0  501 -0.13307578391E+02  0.46995948419E+02  0.12299058687E+02  0.50368518491E+02  0.10000000000E+00 0.  1.
         21    1    1    2  504  503 -0.23960983837E+02  0.23545821388E+01  0.32896986999E+01  0.24300101256E+02  0.00000000000E+00 0. -1.
<mgrwt>
<rscale>  1 0.12729519E+03</rscale>
<asrwt>0</asrwt>
<pdfrwt beam="1">  1       21 0.25083004E-01 0.12729519E+03</pdfrwt>
<pdfrwt beam="2">  1       21 0.57921024E-02 0.12729519E+03</pdfrwt>
<totfact> 0.31192517E+06</totfact>
</mgrwt>
</event>
<event>
 6    1  0.4424270E-002  0.1607996E+03  0.7546771E-02  0.1187797E+00
         21   -1    0    0  504  502  0.00000000000E+00  0.00000000000E+00  0.13819315040E+03  0.13819315040E+03  0.00000000000E+00 0. -1.
         21   -1    0    0  502  503 -0.00000000000E+00 -0.00000000000E+00 -0.12445742423E+03  0.12445742423E+03  0.00000000000E+00 0. -1.
         25    2    1    2    0    0  0.10066789140E+03 -0.98470837160E+01  0.14967535022E+02  0.16149472077E+03  0.12500211325E+03 0.  0.
          5    1    3    3  501    0 -0.22967148446E+02 -0.70382433951E+01 -0.21840680048E+02  0.32466168280E+02  0.10000000000E+00 0. -1.
         -5    1    3    3    0  501  0.12363503984E+03 -0.28088403209E+01  0.36808215070E+02  0.12902855249E+03  0.10000000000E+00 0. -1.
         21    1    1    2  504  503 -0.10066789140E+03  0.98470837160E+01 -0.12318088567E+01  0.10115585386E+03  0.00000000000E+00 0. -1.
<mgrwt>
<rscale>  1 0.16079962E+03</rscale>
<asrwt>0</asrwt>
<pdfrwt beam="1">  1       21 0.21260485E-01 0.16079962E+03</pdfrwt>
<pdfrwt beam="2">  1       21 0.19147296E-01 0.16079962E+03</pdfrwt>
<totfact> 0.51803675E+05</totfact>
</mgrwt>
</event>
<event>
 6    1  0.4424270E-002  0.1389770E+03  0.7546771E-02  0.1214712E+00
         21   -1    0    0  504  502  0.00000000000E+00  0.00000000000E+00  0.16686716923E+04  0.16686716923E+04  0.00000000000E+00 0. -1.
         21   -1    0    0  502  503 -0.00000000000E+00 -0.00000000000E+00 -0.96289969939E+02  0.96289969939E+02  0.00000000000E+00 0.  1.
         25    2    1    2    0    0 -0.37418429365E+02 -0.47864821739E+02 -0.45273955607E+02  0.14616548221E+03  0.12499374831E+03 0.  0.
          5    1    3    3  501    0  0.12919458631E+02 -0.75750044753E+02 -0.44118384173E+02  0.88608258720E+02  0.10000000000E+00 0.  1.
         -5    1    3    3    0  501 -0.50337887995E+02  0.27885223013E+02 -0.11555714345E+01  0.57557223488E+02  0.10000000000E+00 0.  1.
         21    1    1    2  504  503  0.37418429365E+02  0.47864821739E+02  0.16176556780E+04  0.16187961800E+04  0.00000000000E+00 0. -1.
<mgrwt>
<rscale>  1 0.13897704E+03</rscale>
<asrwt>0</asrwt>
<pdfrwt beam="1">  1       21 0.25671870E+00 0.13897704E+03</pdfrwt>
<pdfrwt beam="2">  1       21 0.14813843E-01 0.13897704E+03</pdfrwt>
<totfact> 0.26119379E+03</totfact>
</mgrwt>
</event>
<event>
 6    1  0.4424270E-002  0.1276227E+03  0.7546771E-02  0.1231026E+00
         21   -1    0    0  503  502  0.00000000000E+00  0.00000000000E+00  0.30061029522E+03  0.30061029522E+03  0.00000000000E+00 0.  1.
         21   -1    0    0  504  503 -0.00000000000E+00 -0.00000000000E+00 -0.30833257291E+02  0.30833257291E+02  0.00000000000E+00 0.  1.
         25    2    1    2    0    0  0.22205159392E+02 -0.12929125542E+02  0.10668769726E+03  0.16634247914E+03  0.12500929656E+03 0.  0.
          5    1    3    3  501    0 -0.20357009125E+02 -0.51110674019E+02  0.12913458867E+02  0.56510850632E+02  0.10000000000E+00 0.  1.
         -5    1    3    3    0  501  0.42562168517E+02  0.38181548477E+02  0.93774238398E+02  0.10983162851E+03  0.10000000000E+00 0.  1.
         21    1    1    2  504  502 -0.22205159392E+02  0.12929125542E+02  0.16308934067E+03  0.16510107337E+03  0.00000000000E+00 0.  1.
<mgrwt>
<rscale>  1 0.12762271E+03</rscale>
<asrwt>0</asrwt>
<pdfrwt beam="1">  1       21 0.46247736E-01 0.12762271E+03</pdfrwt>
<pdfrwt beam="2">  1       21 0.47435783E-02 0.12762271E+03</pdfrwt>
<totfact> 0.13161942E+06</totfact>
</mgrwt>
</event>
<event>
 6    1  0.4424270E-002  0.1371664E+03  0.7546771E-02  0.1217193E+00
         21   -1    0    0  503  502  0.00000000000E+00  0.00000000000E+00  0.44532486351E+02  0.44532486351E+02  0.00000000000E+00 0. -1.
         21   -1    0    0  504  503 -0.00000000000E+00 -0.00000000000E+00 -0.27454930248E+03  0.27454930248E+03  0.00000000000E+00 0. -1.
         25    2    1    2    0    0 -0.72227317970E+01 -0.56014591836E+02 -0.22349231915E+03  0.26222784074E+03  0.12499928554E+03 0.  0.
          5    1    3    3  501    0 -0.24006678237E+02 -0.54095308358E+02 -0.23463926678E+03  0.24198805446E+03  0.10000000000E+00 0. -1.
         -5    1    3    3    0  501  0.16783946440E+02 -0.19192834783E+01  0.11146947628E+02  0.20239786278E+02  0.10000000000E+00 0. -1.
         21    1    1    2  504  502  0.72227317970E+01  0.56014591836E+02 -0.65244969799E+01  0.56853948096E+02  0.00000000000E+00 0. -1.
<mgrwt>
<rscale>  1 0.13716641E+03</rscale>
<asrwt>0</asrwt>
<pdfrwt beam="1">  1       21 0.68511518E-02 0.13716641E+03</pdfrwt>
<pdfrwt beam="2">  1       21 0.42238354E-01 0.13716641E+03</pdfrwt>
<totfact> 0.84963421E+05</totfact>
</mgrwt>
</event>
<event>
 6    1  0.4424270E-002  0.1261482E+03  0.7546771E-02  0.1233286E+00
         21   -1    0    0  503  502  0.00000000000E+00  0.00000000000E+00  0.44122578503E+01  0.44122578503E+01  0.00000000000E+00 0.  1.
         21   -1    0    0  504  503 -0.00000000000E+00 -0.00000000000E+00 -0.12005330228E+04  0.12005330228E+04  0.00000000000E+00 0.  1.
         25    2    1    2    0    0  0.16611737883E+02 -0.37725968410E+01 -0.11108399662E+04  0.11179797877E+04  0.12499277163E+03 0.  0.
          5    1    3    3  501    0  0.12773199071E+02 -0.47997293502E+02 -0.94491039262E+03  0.94621485661E+03  0.10000000000E+00 0.  1.
         -5    1    3    3    0  501  0.38385388122E+01  0.44224696661E+02 -0.16592957359E+03  0.17176493113E+03  0.10000000000E+00 0.  1.
         21    1    1    2  504  502 -0.16611737883E+02  0.37725968410E+01 -0.85280798792E+02  0.86965492955E+02  0.00000000000E+00 0.  1.
<mgrwt>
<rscale>  1 0.12614823E+03</rscale>
<asrwt>0</asrwt>
<pdfrwt beam="1">  1       21 0.67880782E-03 0.12614823E+03</pdfrwt>
<pdfrwt beam="2">  1       21 0.18469768E+00 0.12614823E+03</pdfrwt>
<totfact> 0.11889731E+06</totfact>
</mgrwt>
</event>
<event>
 6    1  0.4424270E-002  0.1548989E+03  0.7546771E-02  0.1194579E+00
         21   -1    0    0  503  502  0.00000000000E+00  0.00000000000E+00  0.10794168408E+03  0.10794168408E+03  0.00000000000E+00 0. -1.
         21   -1    0    0  504  503 -0.00000000000E+00 -0.00000000000E+00 -0.14947493330E+03  0.14947493330E+03  0.00000000000E+00 0. -1.
         25    2    1    2    0    0 -0.16481175952E+02  0.89977897994E+02  0.45995500838E+01  0.15496718371E+03  0.12500408344E+03 0.  0.
          5    1    3    3  501    0 -0.39221326149E+02  0.25987716881E+01  0.41741809878E+02  0.57336329941E+02  0.10000000000E+00 0. -1.
         -5    1    3    3    0  501  0.22740150198E+02  0.87379126306E+02 -0.37142259794E+02  0.97630853769E+02  0.10000000000E+00 0. -1.
         21    1    1    2  504  502  0.16481175952E+02 -0.89977897994E+02 -0.46132799300E+02  0.10244943367E+03  0.00000000000E+00 0. -1.
<mgrwt>
<rscale>  1 0.15489891E+03</rscale>
<asrwt>0</asrwt>
<pdfrwt beam="1">  1       21 0.16606413E-01 0.15489891E+03</pdfrwt>
<pdfrwt beam="2">  1       21 0.22996143E-01 0.15489891E+03</pdfrwt>
<totfact> 0.58114795E+05</totfact>
</mgrwt>
</event>
<event>
 6    1  0.4424270E-002  0.1271316E+03  0.7546771E-02  0.1231775E+00
         21   -1    0    0  503  502  0.00000000000E+00  0.00000000000E+00  0.54950838517E+02  0.54950838517E+02  0.00000000000E+00 0. -1.
         21   -1    0    0  504  503 -0.00000000000E+00 -0.00000000000E+00 -0.13875812238E+03  0.13875812238E+03  0.00000000000E+00 0.  1.
         25    2    1    2    0    0 -0.19443951620E+02  0.12600037039E+02 -0.10300218990E+03  0.16362121247E+03  0.12500248741E+03 0.  0.
          5    1    3    3  501    0  0.45055840906E+02 -0.12313610531E+02 -0.76378459945E+02  0.89528391852E+02  0.10000000000E+00 0.  1.
         -5    1    3    3    0  501 -0.64499792526E+02  0.24913647569E+02 -0.26623729950E+02  0.74092820620E+02  0.10000000000E+00 0.  1.
         21    1    1    2  504  502  0.19443951620E+02 -0.12600037039E+02  0.19194906029E+02  0.30087748428E+02  0.00000000000E+00 0. -1.
<mgrwt>
<rscale>  1 0.12713162E+03</rscale>
<asrwt>0</asrwt>
<pdfrwt beam="1">  1       21 0.84539752E-02 0.12713162E+03</pdfrwt>
<pdfrwt beam="2">  1       21 0.21347403E-01 0.12713162E+03</pdfrwt>
<totfact> 0.22103093E+06</totfact>
</mgrwt>
</event>
<event>
 6    1  0.4424270E-002  0.1296628E+03  0.7546771E-02  0.1227957E+00
         21   -1    0    0  503  502  0.00000000000E+00  0.00000000000E+00  0.41759875407E+03  0.41759875407E+03  0.00000000000E+00 0.  1.
         21   -1    0    0  504  503 -0.00000000000E+00 -0.00000000000E+00 -0.90646958950E+02  0.90646958950E+02  0.00000000000E+00 0. -1.
         25    2    1    2    0    0  0.88596318311E+00  0.34451496378E+02 -0.43065055102E+02  0.13662741425E+03  0.12499904328E+03 0.  0.
          5    1    3    3  501    0 -0.50283147186E+02  0.37256064837E+02 -0.55774959636E+02  0.83828786109E+02  0.10000000000E+00 0. -1.
         -5    1    3    3    0  501  0.51169110369E+02 -0.28045684595E+01  0.12709904534E+02  0.52798628140E+02  0.10000000000E+00 0. -1.
         21    1    1    2  504  502 -0.88596318311E+00 -0.34451496378E+02  0.37001685022E+03  0.37161829877E+03  0.00000000000E+00 0.  1.
<mgrwt>
<rscale>  1 0.12966284E+03</rscale>
<asrwt>0</asrwt>
<pdfrwt beam="1">  1       21 0.64245961E-01 0.12966284E+03</pdfrwt>
<pdfrwt beam="2">  1       21 0.13945686E-01 0.12966284E+03</pdfrwt>
<totfact> 0.10260041E+05</totfact>
</mgrwt>
</event>
<event>
 6    1  0.4424270E-002  0.1387209E+03  0.7546771E-02  0.1215060E+00
         21   -1    0    0  504  502  0.00000000000E+00  0.00000000000E+00  0.33340486870E+03  0.33340486870E+03  0.00000000000E+00 0.  1.
         21   -1    0    0  502  503 -0.00000000000E+00 -0.00000000000E+00 -0.29938327750E+02  0.29938327750E+02  0.00000000000E+00 0.  1.
         25    2    1    2    0    0 -0.60037602903E+02  0.35094127583E+01  0.19481071574E+03  0.23915415469E+03  0.12500665982E+03 0.  0.
          5    1    3    3  501    0  0.11517464326E+02  0.49627989847E+02  0.96380464753E+02  0.10901739928E+03  0.10000000000E+00 0. -1.
         -5    1    3    3    0  501 -0.71555067229E+02 -0.46118577089E+02  0.98430250982E+02  0.13013675540E+03  0.10000000000E+00 0. -1.
         21    1    1    2  504  503  0.60037602903E+02 -0.35094127583E+01  0.10865582521E+03  0.12418904176E+03  0.00000000000E+00 0.  1.
<mgrwt>
<rscale>  1 0.13872092E+03</rscale>
<asrwt>0</asrwt>
<pdfrwt beam="1">  1       21 0.51293054E-01 0.13872092E+03</pdfrwt>
<pdfrwt beam="2">  1       21 0.46058968E-02 0.13872092E+03</pdfrwt>
<totfact> 0.11184086E+06</totfact>
</mgrwt>
</event>
<event>
 6    1  0.4424270E-002  0.1259093E+03  0.7546771E-02  0.1233655E+00
         21   -1    0    0  503  502  0.00000000000E+00  0.00000000000E+00  0.32409690918E+02  0.32409690918E+02  0.00000000000E+00 0.  1.
         21   -1    0    0  504  503 -0.00000000000E+00 -0.00000000000E+00 -0.21883828630E+03  0.21883828630E+03  0.00000000000E+00 0.  1.
         25    2    1    2    0    0  0.13551988166E+02 -0.73021385100E+01 -0.19611921018E+03  0.23305771540E+03  0.12496470099E+03 0.  0.
          5    1    3    3  501    0  0.16471132619E+02 -0.32152722261E+02 -0.20372682490E+03  0.20690511096E+03  0.10000000000E+00 0.  1.
         -5    1    3    3    0  501 -0.29191444538E+01  0.24850583751E+02  0.76076147176E+01  0.26152604436E+02  0.10000000000E+00 0.  1.
         21    1    1    2  504  502 -0.13551988166E+02  0.73021385100E+01  0.96906147969E+01  0.18190261823E+02  0.00000000000E+00 0.  1.
<mgrwt>
<rscale>  1 0.12590931E+03</rscale>
<asrwt>0</asrwt>
<pdfrwt beam="1">  1       21 0.49861062E-02 0.12590931E+03</pdfrwt>
<pdfrwt beam="2">  1       21 0.33667429E-01 0.12590931E+03</pdfrwt>
<totfact> 0.22801229E+06</totfact>
</mgrwt>
</event>
<event>
 6    1  0.4424270E-002  0.1268609E+03  0.7546771E-02  0.1232189E+00
         21   -1    0    0  504  502  0.00000000000E+00  0.00000000000E+00  0.74995693414E+02  0.74995693414E+02  0.00000000000E+00 0. -1.
         21   -1    0    0  502  503 -0.00000000000E+00 -0.00000000000E+00 -0.10448106634E+03  0.10448106634E+03  0.00000000000E+00 0. -1.
         25    2    1    2    0    0  0.14926197409E+01 -0.21599531566E+02 -0.61378300735E+02  0.14092904229E+03  0.12499972593E+03 0.  0.
          5    1    3    3  501    0  0.20208025446E+02 -0.13236156968E+02  0.34926423059E+02  0.42466753719E+02  0.10000000000E+00 0. -1.
         -5    1    3    3    0  501 -0.18715405706E+02 -0.83633745980E+01 -0.96304723794E+02  0.98462288570E+02  0.10000000000E+00 0. -1.
         21    1    1    2  504  503 -0.14926197409E+01  0.21599531566E+02  0.31892927808E+02  0.38547717465E+02  0.00000000000E+00 0.  1.
<mgrwt>
<rscale>  1 0.12686094E+03</rscale>
<asrwt>0</asrwt>
<pdfrwt beam="1">  1       21 0.11537799E-01 0.12686094E+03</pdfrwt>
<pdfrwt beam="2">  1       21 0.16074010E-01 0.12686094E+03</pdfrwt>
<totfact> 0.21605074E+06</totfact>
</mgrwt>
</event>
<event>
 6    1  0.4424270E-002  0.1955009E+03  0.7546771E-02  0.1153591E+00
         21   -1    0    0  504  502  0.00000000000E+00  0.00000000000E+00  0.53743036314E+03  0.53743036314E+03  0.00000000000E+00 0. -1.
         21   -1    0    0  502  503 -0.00000000000E+00 -0.00000000000E+00 -0.67634373921E+02  0.67634373921E+02  0.00000000000E+00 0.  1.
         25    2    1    2    0    0  0.15015631070E+03 -0.70126847116E+01  0.13359088187E+03  0.23678499339E+03  0.12499805593E+03 0.  0.
          5    1    3    3  501    0 -0.10072407956E+02 -0.18050431032E+01 -0.15027390349E+02  0.18180870258E+02  0.10000000000E+00 0.  1.
         -5    1    3    3    0  501  0.16022871866E+03 -0.52076416084E+01  0.14861827222E+03  0.21860412314E+03  0.10000000000E+00 0.  1.
         21    1    1    2  504  503 -0.15015631070E+03  0.70126847116E+01  0.33620510735E+03  0.36827974367E+03  0.00000000000E+00 0. -1.
<mgrwt>
<rscale>  1 0.19550092E+03</rscale>
<asrwt>0</asrwt>
<pdfrwt beam="1">  1       21 0.82681592E-01 0.19550092E+03</pdfrwt>
<pdfrwt beam="2">  1       21 0.10405289E-01 0.19550092E+03</pdfrwt>
<totfact> 0.96422668E+04</totfact>
</mgrwt>
</event>
<event>
 6    1  0.4424270E-002  0.1269214E+03  0.7546771E-02  0.1232097E+00
         21   -1    0    0  503  502  0.00000000000E+00  0.00000000000E+00  0.16195038192E+03  0.16195038192E+03  0.00000000000E+00 0.  1.
         21   -1    0    0  504  503 -0.00000000000E+00 -0.00000000000E+00 -0.34240820381E+02  0.34240820381E+02  0.00000000000E+00 0.  1.
         25    2    1    2    0    0  0.79538893299E+01  0.20522447432E+02  0.10843916095E+03  0.16693742403E+03  0.12499846683E+03 0.  0.
          5    1    3    3  501    0  0.43036529038E+02 -0.37104755059E+02  0.66616952027E+02  0.87559887946E+02  0.10000000000E+00 0. -1.
         -5    1    3    3    0  501 -0.35082639709E+02  0.57627202492E+02  0.41822208926E+02  0.79377536088E+02  0.10000000000E+00 0. -1.
         21    1    1    2  504  502 -0.79538893299E+01 -0.20522447432E+02  0.19270400581E+02  0.29253778262E+02  0.00000000000E+00 0.  1.
<mgrwt>
<rscale>  1 0.12692144E+03</rscale>
<asrwt>0</asrwt>
<pdfrwt beam="1">  1       21 0.24915443E-01 0.12692144E+03</pdfrwt>
<pdfrwt beam="2">  1       21 0.52678186E-02 0.12692144E+03</pdfrwt>
<totfact> 0.37070528E+06</totfact>
</mgrwt>
</event>
<event>
 6    1  0.4424270E-002  0.1301828E+03  0.7546771E-02  0.1227185E+00
         21   -1    0    0  503  502  0.00000000000E+00  0.00000000000E+00  0.15349396782E+02  0.15349396782E+02  0.00000000000E+00 0. -1.
         21   -1    0    0  504  503 -0.00000000000E+00 -0.00000000000E+00 -0.14293105149E+04  0.14293105149E+04  0.00000000000E+00 0.  1.
         25    2    1    2    0    0 -0.19118587868E+02  0.30899689834E+02 -0.13995161204E+04  0.14055578760E+04  0.12500904099E+03 0.  0.
          5    1    3    3  501    0 -0.17892984785E+02 -0.40622808510E+02 -0.88262069307E+03  0.88373619894E+03  0.10000000000E+00 0.  1.
         -5    1    3    3    0  501 -0.12256030834E+01  0.71522498344E+02 -0.51689542731E+03  0.52182167706E+03  0.10000000000E+00 0.  1.
         21    1    1    2  504  502  0.19118587868E+02 -0.30899689834E+02 -0.14444997707E+02  0.39102035659E+02  0.00000000000E+00 0. -1.
<mgrwt>
<rscale>  1 0.13018284E+03</rscale>
<asrwt>0</asrwt>
<pdfrwt beam="1">  1       21 0.23614455E-02 0.13018284E+03</pdfrwt>
<pdfrwt beam="2">  1       21 0.21989394E+00 0.13018284E+03</pdfrwt>
<totfact> 0.98610197E+04</totfact>
</mgrwt>
</event>
<event>
 6    1  0.4424270E-002  0.1293279E+03  0.7546771E-02  0.1228456E+00
         21   -1    0    0  503  502  0.00000000000E+00  0.00000000000E+00  0.12372790078E+02  0.12372790078E+02  0.00000000000E+00 0.  1.
         21   -1    0    0  504  503 -0.00000000000E+00 -0.00000000000E+00 -0.53524321668E+03  0.53524321668E+03  0.00000000000E+00 0.  1.
         25    2    1    2    0    0  0.26675769650E+02  0.19716620437E+02 -0.40322142749E+03  0.42345391594E+03  0.12500143011E+03 0.  0.
          5    1    3    3  501    0  0.51616490831E+02  0.60795472905E+02 -0.21907568702E+03  0.23314055481E+03  0.10000000000E+00 0. -1.
         -5    1    3    3    0  501 -0.24940721181E+02 -0.41078852468E+02 -0.18414574047E+03  0.19031336113E+03  0.10000000000E+00 0. -1.
         21    1    1    2  504  502 -0.26675769650E+02 -0.19716620437E+02 -0.11964899911E+03  0.12416209081E+03  0.00000000000E+00 0.  1.
<mgrwt>
<rscale>  1 0.12932788E+03</rscale>
<asrwt>0</asrwt>
<pdfrwt beam="1">  1       21 0.19035062E-02 0.12932788E+03</pdfrwt>
<pdfrwt beam="2">  1       21 0.82345110E-01 0.12932788E+03</pdfrwt>
<totfact> 0.17172413E+06</totfact>
</mgrwt>
</event>
<event>
 6    1  0.4424270E-002  0.1393644E+03  0.7546771E-02  0.1214187E+00
         21   -1    0    0  504  502  0.00000000000E+00  0.00000000000E+00  0.15326976875E+03  0.15326976875E+03  0.00000000000E+00 0.  1.
         21   -1    0    0  502  503 -0.00000000000E+00 -0.00000000000E+00 -0.66141773993E+02  0.66141773993E+02  0.00000000000E+00 0.  1.
         25    2    1    2    0    0  0.52051680813E+02 -0.32984597372E+02  0.54107213366E+02  0.14949921806E+03  0.12500025809E+03 0.  0.
          5    1    3    3  501    0  0.45863377269E+01 -0.71757419730E+02  0.70884873722E+01  0.72252463164E+02  0.10000000000E+00 0.  1.
         -5    1    3    3    0  501  0.47465343086E+02  0.38772822358E+02  0.47018725994E+02  0.77246754896E+02  0.10000000000E+00 0.  1.
         21    1    1    2  504  503 -0.52051680813E+02  0.32984597372E+02  0.33020781395E+02  0.69912324687E+02  0.00000000000E+00 0.  1.
<mgrwt>
<rscale>  1 0.13936436E+03</rscale>
<asrwt>0</asrwt>
<pdfrwt beam="1">  1       21 0.23579964E-01 0.13936436E+03</pdfrwt>
<pdfrwt beam="2">  1       21 0.10175658E-01 0.13936436E+03</pdfrwt>
<totfact> 0.13312247E+06</totfact>
</mgrwt>
</event>
<event>
 6    1  0.4424270E-002  0.1276232E+03  0.7546771E-02  0.1231026E+00
         21   -1    0    0  504  502  0.00000000000E+00  0.00000000000E+00  0.30172408229E+02  0.30172408229E+02  0.00000000000E+00 0. -1.
         21   -1    0    0  502  503 -0.00000000000E+00 -0.00000000000E+00 -0.22391557189E+03  0.22391557189E+03  0.00000000000E+00 0. -1.
         25    2    1    2    0    0  0.25376169695E+02  0.46194276158E+01 -0.18870127370E+03  0.22780662257E+03  0.12498958954E+03 0.  0.
          5    1    3    3  501    0 -0.31648754061E+02  0.42898010397E+02 -0.11670987894E+03  0.12830856858E+03  0.10000000000E+00 0. -1.
         -5    1    3    3    0  501  0.57024923756E+02 -0.38278582781E+02 -0.71991394754E+02  0.99498053990E+02  0.10000000000E+00 0. -1.
         21    1    1    2  504  503 -0.25376169695E+02 -0.46194276158E+01 -0.50418899642E+01  0.26281357543E+02  0.00000000000E+00 0. -1.
<mgrwt>
<rscale>  1 0.12762322E+03</rscale>
<asrwt>0</asrwt>
<pdfrwt beam="1">  1       21 0.46419090E-02 0.12762322E+03</pdfrwt>
<pdfrwt beam="2">  1       21 0.34448549E-01 0.12762322E+03</pdfrwt>
<totfact> 0.24586676E+06</totfact>
</mgrwt>
</event>
<event>
 6    1  0.4424270E-002  0.1260478E+03  0.7546771E-02  0.1233441E+00
         21   -1    0    0  503  502  0.00000000000E+00  0.00000000000E+00  0.42684117555E+03  0.42684117555E+03  0.00000000000E+00 0.  1.
         21   -1    0    0  504  503 -0.00000000000E+00 -0.00000000000E+00 -0.47598527551E+02  0.47598527551E+02  0.00000000000E+00 0. -1.
         25    2    1    2    0    0  0.10344190472E+02 -0.12601234920E+02  0.36384416068E+02  0.13119407589E+03  0.12498906519E+03 0.  0.
          5    1    3    3  501    0 -0.34847027273E+02  0.42297359900E+02  0.18887940697E+02  0.57966768653E+02  0.10000000000E+00 0. -1.
         -5    1    3    3    0  501  0.45191217745E+02 -0.54898594820E+02  0.17496475371E+02  0.73227307235E+02  0.10000000000E+00 0. -1.
         21    1    1    2  504  502 -0.10344190472E+02  0.12601234920E+02  0.34285823193E+03  0.34324562721E+03  0.00000000000E+00 0.  1.
<mgrwt>
<rscale>  1 0.12604785E+03</rscale>
<asrwt>0</asrwt>
<pdfrwt beam="1">  1       21 0.65667871E-01 0.12604785E+03</pdfrwt>
<pdfrwt beam="2">  1       21 0.73228507E-02 0.12604785E+03</pdfrwt>
<totfact> 0.30272267E+05</totfact>
</mgrwt>
</event>
<event>
 6    1  0.4424270E-002  0.1366077E+03  0.7546771E-02  0.1217968E+00
         21   -1    0    0  504  502  0.00000000000E+00  0.00000000000E+00  0.95151898868E+03  0.95151898868E+03  0.00000000000E+00 0.  1.
         21   -1    0    0  502  503 -0.00000000000E+00 -0.00000000000E+00 -0.36562154683E+02  0.36562154683E+02  0.00000000000E+00 0.  1.
         25    2    1    2    0    0 -0.31389881276E+02 -0.45288514953E+02  0.95277512566E+02  0.16655173779E+03  0.12500121091E+03 0.  0.
          5    1    3    3  501    0  0.35820644935E+02 -0.57865111998E+02  0.43307157262E+02  0.80666037836E+02  0.10000000000E+00 0.  1.
         -5    1    3    3    0  501 -0.67210526211E+02  0.12576597045E+02  0.51970355304E+02  0.85885699957E+02  0.10000000000E+00 0.  1.
         21    1    1    2  504  503  0.31389881276E+02  0.45288514953E+02  0.81967932143E+03  0.82152940557E+03  0.00000000000E+00 0.  1.
<mgrwt>
<rscale>  1 0.13660775E+03</rscale>
<asrwt>0</asrwt>
<pdfrwt beam="1">  1       21 0.14638752E+00 0.13660775E+03</pdfrwt>
<pdfrwt beam="2">  1       21 0.56249476E-02 0.13660775E+03</pdfrwt>
<totfact> 0.72293217E+04</totfact>
</mgrwt>
</event>
<event>
 6    1  0.4424270E-002  0.1392089E+03  0.7546771E-02  0.1214397E+00
         21   -1    0    0  503  502  0.00000000000E+00  0.00000000000E+00  0.16638076733E+02  0.16638076733E+02  0.00000000000E+00 0. -1.
         21   -1    0    0  504  503 -0.00000000000E+00 -0.00000000000E+00 -0.12306701690E+04  0.12306701690E+04  0.00000000000E+00 0. -1.
         25    2    1    2    0    0 -0.56209489485E+02  0.24386770446E+02 -0.11510563853E+04  0.11594437993E+04  0.12499960104E+03 0.  0.
          5    1    3    3  501    0 -0.56087715003E+02  0.23754177952E+02 -0.21698324327E+03  0.22537042975E+03  0.10000000000E+00 0.  1.
         -5    1    3    3    0  501 -0.12177448244E+00  0.63259249389E+00 -0.93407314206E+03  0.93407336956E+03  0.10000000000E+00 0.  1.
         21    1    1    2  504  502  0.56209489485E+02 -0.24386770446E+02 -0.62975706925E+02  0.87864446415E+02  0.00000000000E+00 0. -1.
<mgrwt>
<rscale>  1 0.13920891E+03</rscale>
<asrwt>0</asrwt>
<pdfrwt beam="1">  1       21 0.25597038E-02 0.13920891E+03</pdfrwt>
<pdfrwt beam="2">  1       21 0.18933390E+00 0.13920891E+03</pdfrwt>
<totfact> 0.13332286E+05</totfact>
</mgrwt>
</event>
<event>
 6    1  0.4424270E-002  0.1300672E+03  0.7546771E-02  0.1227356E+00
         21   -1    0    0  503  502  0.00000000000E+00  0.00000000000E+00  0.14589689130E+02  0.14589689130E+02  0.00000000000E+00 0.  1.
         21   -1    0    0  504  503 -0.00000000000E+00 -0.00000000000E+00 -0.48228296509E+03  0.48228296509E+03  0.00000000000E+00 0.  1.
         25    2    1    2    0    0 -0.26984827729E+01  0.35887878082E+02 -0.39293555187E+03  0.41390314829E+03  0.12498898608E+03 0.  0.
          5    1    3    3  501    0 -0.55319895570E+01 -0.40331093764E+02 -0.61131734790E+02  0.73445891859E+02  0.10000000000E+00 0. -1.
         -5    1    3    3    0  501  0.28335067841E+01  0.76218971846E+02 -0.33180381708E+03  0.34045725643E+03  0.10000000000E+00 0. -1.
         21    1    1    2  504  502  0.26984827729E+01 -0.35887878082E+02 -0.74757724089E+02  0.82969505925E+02  0.00000000000E+00 0.  1.
<mgrwt>
<rscale>  1 0.13006717E+03</rscale>
<asrwt>0</asrwt>
<pdfrwt beam="1">  1       21 0.22445677E-02 0.13006717E+03</pdfrwt>
<pdfrwt beam="2">  1       21 0.74197373E-01 0.13006717E+03</pdfrwt>
<totfact> 0.16591431E+06</totfact>
</mgrwt>
</event>
<event>
 6    1  0.4424270E-002  0.1279122E+03  0.7546771E-02  0.1230587E+00
         21   -1    0    0  503  502  0.00000000000E+00  0.00000000000E+00  0.94206977388E+02  0.94206977388E+02  0.00000000000E+00 0. -1.
         21   -1    0    0  504  503 -0.00000000000E+00 -0.00000000000E+00 -0.73305304879E+02  0.73305304879E+02  0.00000000000E+00 0. -1.
         25    2    1    2    0    0 -0.24894488572E+02 -0.10610137621E+02 -0.76922136947E+01  0.12814324736E+03  0.12501684331E+03 0.  0.
          5    1    3    3  501    0 -0.21586737098E+02 -0.84885237447E+01 -0.65868937552E+02  0.69833868489E+02  0.10000000000E+00 0.  1.
         -5    1    3    3    0  501 -0.33077514739E+01 -0.21216138760E+01  0.58176723857E+02  0.58309378868E+02  0.10000000000E+00 0.  1.
         21    1    1    2  504  502  0.24894488572E+02  0.10610137621E+02  0.28593886203E+02  0.39369034910E+02  0.00000000000E+00 0. -1.
<mgrwt>
<rscale>  1 0.12791216E+03</rscale>
<asrwt>0</asrwt>
<pdfrwt beam="1">  1       21 0.14493381E-01 0.12791216E+03</pdfrwt>
<pdfrwt beam="2">  1       21 0.11277739E-01 0.12791216E+03</pdfrwt>
<totfact> 0.27119206E+06</totfact>
</mgrwt>
</event>
<event>
 6    1  0.4424270E-002  0.1262648E+03  0.7546771E-02  0.1233106E+00
         21   -1    0    0  504  502  0.00000000000E+00  0.00000000000E+00  0.13769898482E+03  0.13769898482E+03  0.00000000000E+00 0.  1.
         21   -1    0    0  502  503 -0.00000000000E+00 -0.00000000000E+00 -0.41567421261E+02  0.41567421261E+02  0.00000000000E+00 0.  1.
         25    2    1    2    0    0  0.17729440108E+02  0.16380991950E+01  0.61766612792E+02  0.14056283704E+03  0.12500312110E+03 0.  0.
          5    1    3    3  501    0 -0.35202096696E+02  0.42744951954E+02  0.45319095406E+02  0.71555216006E+02  0.10000000000E+00 0.  1.
         -5    1    3    3    0  501  0.52931536804E+02 -0.41106852759E+02  0.16447517386E+02  0.69007621031E+02  0.10000000000E+00 0.  1.
         21    1    1    2  504  503 -0.17729440108E+02 -0.16380991950E+01  0.34364950765E+02  0.38703569042E+02  0.00000000000E+00 0.  1.
<mgrwt>
<rscale>  1 0.12626479E+03</rscale>
<asrwt>0</asrwt>
<pdfrwt beam="1">  1       21 0.21184459E-01 0.12626479E+03</pdfrwt>
<pdfrwt beam="2">  1       21 0.63949880E-02 0.12626479E+03</pdfrwt>
<totfact> 0.36174814E+06</totfact>
</mgrwt>
</event>
<event>
 6    1  0.4424270E-002  0.1364832E+03  0.7546771E-02  0.1218141E+00
         21   -1    0    0  503  502  0.00000000000E+00  0.00000000000E+00  0.98894537269E+02  0.98894537269E+02  0.00000000000E+00 0. -1.
         21   -1    0    0  504  503 -0.00000000000E+00 -0.00000000000E+00 -0.95112793042E+02  0.95112793042E+02  0.00000000000E+00 0. -1.
         25    2    1    2    0    0  0.38600168879E+02  0.38908102124E+02 -0.11899838242E+02  0.13700096683E+03  0.12499538117E+03 0.  0.
          5    1    3    3  501    0  0.22798839521E+02 -0.31032303099E+02 -0.43974005192E+02  0.58450954242E+02  0.10000000000E+00 0. -1.
         -5    1    3    3    0  501  0.15801329357E+02  0.69940405223E+02  0.32074166950E+02  0.78550012589E+02  0.10000000000E+00 0. -1.
         21    1    1    2  504  502 -0.38600168879E+02 -0.38908102124E+02  0.15681582469E+02  0.57006363479E+02  0.00000000000E+00 0. -1.
<mgrwt>
<rscale>  1 0.13648318E+03</rscale>
<asrwt>0</asrwt>
<pdfrwt beam="1">  1       21 0.15214544E-01 0.13648318E+03</pdfrwt>
<pdfrwt beam="2">  1       21 0.14632737E-01 0.13648318E+03</pdfrwt>
<totfact> 0.15648236E+06</totfact>
</mgrwt>
</event>
<event>
 6    1  0.4424270E-002  0.1270608E+03  0.7546771E-02  0.1231883E+00
         21   -1    0    0  504  502  0.00000000000E+00  0.00000000000E+00  0.19273617357E+02  0.19273617357E+02  0.00000000000E+00 0.  1.
         21   -1    0    0  502  503 -0.00000000000E+00 -0.00000000000E+00 -0.35554190563E+03  0.35554190563E+03  0.00000000000E+00 0. -1.
         25    2    1    2    0    0  0.79064259623E+01 -0.21136126765E+02 -0.32626116558E+03  0.35012969850E+03  0.12504083405E+03 0.  0.
          5    1    3    3  501    0 -0.17717119825E+02  0.37666236322E+02 -0.43589456452E+02  0.60271821006E+02  0.10000000000E+00 0. -1.
         -5    1    3    3    0  501  0.25623545787E+02 -0.58802363088E+02 -0.28267170913E+03  0.28985787750E+03  0.10000000000E+00 0. -1.
         21    1    1    2  504  503 -0.79064259623E+01  0.21136126765E+02 -0.10007122695E+02  0.24685824490E+02  0.00000000000E+00 0.  1.
<mgrwt>
<rscale>  1 0.12706084E+03</rscale>
<asrwt>0</asrwt>
<pdfrwt beam="1">  1       21 0.29651724E-02 0.12706084E+03</pdfrwt>
<pdfrwt beam="2">  1       21 0.54698745E-01 0.12706084E+03</pdfrwt>
<totfact> 0.20265331E+06</totfact>
</mgrwt>
</event>
<event>
 6    1  0.4424270E-002  0.1308019E+03  0.7546771E-02  0.1226271E+00
         21   -1    0    0  504  502  0.00000000000E+00  0.00000000000E+00  0.61338104580E+03  0.61338104580E+03  0.00000000000E+00 0. -1.
         21   -1    0    0  502  503 -0.00000000000E+00 -0.00000000000E+00 -0.12313470746E+02  0.12313470746E+02  0.00000000000E+00 0. -1.
         25    2    1    2    0    0 -0.25594642809E+02 -0.28792774029E+02  0.39610859013E+03  0.41714645235E+03  0.12500015184E+03 0.  0.
          5    1    3    3  501    0  0.55924398812E+01  0.47721095530E+02  0.13683833220E+03  0.14502867821E+03  0.10000000000E+00 0. -1.
         -5    1    3    3    0  501 -0.31187082691E+02 -0.76513869559E+02  0.25927025792E+03  0.27211777415E+03  0.10000000000E+00 0. -1.
         21    1    1    2  504  503  0.25594642809E+02  0.28792774029E+02  0.20495898493E+03  0.20854806420E+03  0.00000000000E+00 0. -1.
<mgrwt>
<rscale>  1 0.13080194E+03</rscale>
<asrwt>0</asrwt>
<pdfrwt beam="1">  1       21 0.94366291E-01 0.13080194E+03</pdfrwt>
<pdfrwt beam="2">  1       21 0.18943806E-02 0.13080194E+03</pdfrwt>
<totfact> 0.12689244E+06</totfact>
</mgrwt>
</event>
<event>
 6    1  0.4424270E-002  0.1288487E+03  0.7546771E-02  0.1229174E+00
         21   -1    0    0  504  502  0.00000000000E+00  0.00000000000E+00  0.37344728014E+02  0.37344728014E+02  0.00000000000E+00 0. -1.
         21   -1    0    0  502  503 -0.00000000000E+00 -0.00000000000E+00 -0.34334291323E+03  0.34334291323E+03  0.00000000000E+00 0. -1.
         25    2    1    2    0    0 -0.29790870669E+02 -0.94595473745E+01 -0.32109018075E+03  0.34597817076E+03  0.12500004582E+03 0.  0.
          5    1    3    3  501    0 -0.22080119348E+02  0.55580708127E+02 -0.11338039610E+03  0.12818685973E+03  0.10000000000E+00 0.  1.
         -5    1    3    3    0  501 -0.77107513206E+01 -0.65040255502E+02 -0.20770978465E+03  0.21779131103E+03  0.10000000000E+00 0.  1.
         21    1    1    2  504  503  0.29790870669E+02  0.94595473745E+01  0.15091995540E+02  0.34709470482E+02  0.00000000000E+00 0. -1.
<mgrwt>
<rscale>  1 0.12884871E+03</rscale>
<asrwt>0</asrwt>
<pdfrwt beam="1">  1       21 0.57453426E-02 0.12884871E+03</pdfrwt>
<pdfrwt beam="2">  1       21 0.52821988E-01 0.12884871E+03</pdfrwt>
<totfact> 0.72515754E+05</totfact>
</mgrwt>
</event>
<event>
 6    1  0.4424270E-002  0.1752357E+03  0.7546771E-02  0.1172495E+00
         21   -1    0    0  503  502  0.00000000000E+00  0.00000000000E+00  0.49722751438E+03  0.49722751438E+03  0.00000000000E+00 0.  1.
         21   -1    0    0  504  503 -0.00000000000E+00 -0.00000000000E+00 -0.54466529459E+03  0.54466529459E+03  0.00000000000E+00 0.  1.
         25    2    1    2    0    0  0.58211516112E+02  0.10821540668E+03 -0.52254892521E+03  0.55114872602E+03  0.12493351877E+03 0.  0.
          5    1    3    3  501    0  0.37965890364E+02  0.11856966319E+02 -0.32667309075E+02  0.51469987018E+02  0.10000000000E+00 0.  1.
         -5    1    3    3    0  501  0.20245625747E+02  0.96358440358E+02 -0.48988161613E+03  0.49967873901E+03  0.10000000000E+00 0.  1.
         21    1    1    2  504  502 -0.58211516112E+02 -0.10821540668E+03  0.47511114499E+03  0.49074408295E+03  0.00000000000E+00 0.  1.
<mgrwt>
<rscale>  1 0.17523567E+03</rscale>
<asrwt>0</asrwt>
<pdfrwt beam="1">  1       21 0.76496541E-01 0.17523567E+03</pdfrwt>
<pdfrwt beam="2">  1       21 0.83794661E-01 0.17523567E+03</pdfrwt>
<totfact> 0.19145109E+03</totfact>
</mgrwt>
</event>
<event>
 6    1  0.4424270E-002  0.1280661E+03  0.7546771E-02  0.1230354E+00
         21   -1    0    0  504  502  0.00000000000E+00  0.00000000000E+00  0.13470099437E+02  0.13470099437E+02  0.00000000000E+00 0.  1.
         21   -1    0    0  502  503 -0.00000000000E+00 -0.00000000000E+00 -0.45509833240E+03  0.45509833240E+03  0.00000000000E+00 0.  1.
         25    2    1    2    0    0 -0.27274829990E+02 -0.57724086801E+01 -0.37785115439E+03  0.39896417332E+03  0.12499471854E+03 0.  0.
          5    1    3    3  501    0 -0.27483918476E+01  0.44990634173E+02 -0.54451767976E+02  0.70687451905E+02  0.10000000000E+00 0.  1.
         -5    1    3    3    0  501 -0.24526438143E+02 -0.50763042853E+02 -0.32339938641E+03  0.32827672141E+03  0.10000000000E+00 0.  1.
         21    1    1    2  504  503  0.27274829990E+02  0.57724086801E+01 -0.63777078573E+02  0.69604258521E+02  0.00000000000E+00 0.  1.
<mgrwt>
<rscale>  1 0.12806606E+03</rscale>
<asrwt>0</asrwt>
<pdfrwt beam="1">  1       21 0.20723232E-02 0.12806606E+03</pdfrwt>
<pdfrwt beam="2">  1       21 0.70015120E-01 0.12806606E+03</pdfrwt>
<totfact> 0.21433970E+06</totfact>
</mgrwt>
</event>
<event>
 6    1  0.4424270E-002  0.1306040E+03  0.7546771E-02  0.1226562E+00
         21   -1    0    0  504  502  0.00000000000E+00  0.00000000000E+00  0.82172099129E+02  0.82172099129E+02  0.00000000000E+00 0. -1.
         21   -1    0    0  502  503 -0.00000000000E+00 -0.00000000000E+00 -0.66048411270E+03  0.66048411270E+03  0.00000000000E+00 0. -1.
         25    2    1    2    0    0 -0.35772021832E+02  0.12306895378E+02 -0.64925301830E+03  0.66225892723E+03  0.12500523069E+03 0.  0.
          5    1    3    3  501    0 -0.79892683567E+02 -0.90801304975E+01 -0.44476987838E+03  0.45197958402E+03  0.10000000000E+00 0. -1.
         -5    1    3    3    0  501  0.44120661734E+02  0.21387025875E+02 -0.20448313992E+03  0.21027934321E+03  0.10000000000E+00 0. -1.
         21    1    1    2  504  503  0.35772021832E+02 -0.12306895378E+02  0.70941004728E+02  0.80397284603E+02  0.00000000000E+00 0. -1.
<mgrwt>
<rscale>  1 0.13060400E+03</rscale>
<asrwt>0</asrwt>
<pdfrwt beam="1">  1       21 0.12641861E-01 0.13060400E+03</pdfrwt>
<pdfrwt beam="2">  1       21 0.10161294E+00 0.13060400E+03</pdfrwt>
<totfact> 0.43714459E+04</totfact>
</mgrwt>
</event>
<event>
 6    1  0.4424270E-002  0.1263966E+03  0.7546771E-02  0.1232903E+00
         21   -1    0    0  504  502  0.00000000000E+00  0.00000000000E+00  0.53078067352E+02  0.53078067352E+02  0.00000000000E+00 0.  1.
         21   -1    0    0  502  503 -0.00000000000E+00 -0.00000000000E+00 -0.12341407793E+03  0.12341407793E+03  0.00000000000E+00 0.  1.
         25    2    1    2    0    0 -0.32622377157E+01  0.18439308077E+02 -0.85329765304E+02  0.15250333627E+03  0.12500179378E+03 0.  0.
          5    1    3    3  501    0 -0.28832345524E+02  0.60704937903E+02 -0.77346033844E+02  0.10246371351E+03  0.10000000000E+00 0.  1.
         -5    1    3    3    0  501  0.25570107808E+02 -0.42265629826E+02 -0.79837314599E+01  0.50039622759E+02  0.10000000000E+00 0.  1.
         21    1    1    2  504  503  0.32622377157E+01 -0.18439308077E+02  0.14993754725E+02  0.23988809017E+02  0.00000000000E+00 0.  1.
<mgrwt>
<rscale>  1 0.12639659E+03</rscale>
<asrwt>0</asrwt>
<pdfrwt beam="1">  1       21 0.81658566E-02 0.12639659E+03</pdfrwt>
<pdfrwt beam="2">  1       21 0.18986781E-01 0.12639659E+03</pdfrwt>
<totfact> 0.29140426E+06</totfact>
</mgrwt>
</event>
<event>
 6    1  0.4424270E-002  0.1586210E+03  0.7546771E-02  0.1190262E+00
         21   -1    0    0  504  502  0.00000000000E+00  0.00000000000E+00  0.35775998180E+02  0.35775998180E+02  0.00000000000E+00 0. -1.
         21   -1    0    0  502  503 -0.00000000000E+00 -0.00000000000E+00 -0.46074060261E+03  0.46074060261E+03  0.00000000000E+00 0. -1.
         25    2    1    2    0    0 -0.36772062264E+02 -0.90457991100E+02 -0.27800601003E+03  0.32007493569E+03  0.12500316046E+03 0.  0.
          5    1    3    3  501    0 -0.74119810155E+02 -0.20605714836E+02 -0.10884937130E+03  0.13329117515E+03  0.10000000000E+00 0. -1.
         -5    1    3    3    0  501  0.37347747891E+02 -0.69852276264E+02 -0.16915663873E+03  0.18678376053E+03  0.10000000000E+00 0. -1.
         21    1    1    2  504  503  0.36772062264E+02  0.90457991100E+02 -0.14695859439E+03  0.17644166510E+03  0.00000000000E+00 0. -1.
<mgrwt>
<rscale>  1 0.15862100E+03</rscale>
<asrwt>0</asrwt>
<pdfrwt beam="1">  1       21 0.55040001E-02 0.15862100E+03</pdfrwt>
<pdfrwt beam="2">  1       21 0.70883165E-01 0.15862100E+03</pdfrwt>
<totfact> 0.41479970E+05</totfact>
</mgrwt>
</event>
<event>
 6    1  0.4424270E-002  0.1680159E+03  0.7546771E-02  0.1179933E+00
         21   -1    0    0  504  502  0.00000000000E+00  0.00000000000E+00  0.65536988678E+03  0.65536988678E+03  0.00000000000E+00 0. -1.
         21   -1    0    0  502  503 -0.00000000000E+00 -0.00000000000E+00 -0.30345220411E+02  0.30345220411E+02  0.00000000000E+00 0. -1.
         25    2    1    2    0    0  0.98117027310E+02 -0.54574352799E+02  0.41133475043E+03  0.44432602044E+03  0.12499609791E+03 0.  0.
          5    1    3    3  501    0  0.12911364604E+02 -0.44472972563E+02  0.30106984339E+03  0.30461058619E+03  0.10000000000E+00 0.  1.
         -5    1    3    3    0  501  0.85205662706E+02 -0.10101380236E+02  0.11026490705E+03  0.13971543424E+03  0.10000000000E+00 0.  1.
         21    1    1    2  504  503 -0.98117027310E+02  0.54574352799E+02  0.21368991594E+03  0.24138908676E+03  0.00000000000E+00 0. -1.
<mgrwt>
<rscale>  1 0.16801588E+03</rscale>
<asrwt>0</asrwt>
<pdfrwt beam="1">  1       21 0.10082613E+00 0.16801588E+03</pdfrwt>
<pdfrwt beam="2">  1       21 0.46684960E-02 0.16801588E+03</pdfrwt>
<totfact> 0.24506126E+05</totfact>
</mgrwt>
</event>
<event>
 6    1  0.4424270E-002  0.1784120E+03  0.7546771E-02  0.1169349E+00
         21   -1    0    0  504  502  0.00000000000E+00  0.00000000000E+00  0.44742790350E+02  0.44742790350E+02  0.00000000000E+00 0.  1.
         21   -1    0    0  502  503 -0.00000000000E+00 -0.00000000000E+00 -0.74883729852E+03  0.74883729852E+03  0.00000000000E+00 0.  1.
         25    2    1    2    0    0 -0.79831278340E+02  0.99168793644E+02 -0.60922221834E+03  0.63480907762E+03  0.12499348416E+03 0.  0.
          5    1    3    3  501    0 -0.10786323682E+03  0.60792646264E+02 -0.34971748045E+03  0.37098861145E+03  0.10000000000E+00 0.  1.
         -5    1    3    3    0  501  0.28031958478E+02  0.38376147380E+02 -0.25950473789E+03  0.26382046617E+03  0.10000000000E+00 0.  1.
         21    1    1    2  504  503  0.79831278340E+02 -0.99168793644E+02 -0.94872289834E+02  0.15877101125E+03  0.00000000000E+00 0.  1.
<mgrwt>
<rscale>  1 0.17841203E+03</rscale>
<asrwt>0</asrwt>
<pdfrwt beam="1">  1       21 0.68835062E-02 0.17841203E+03</pdfrwt>
<pdfrwt beam="2">  1       21 0.11520574E+00 0.17841203E+03</pdfrwt>
<totfact> 0.91462061E+04</totfact>
</mgrwt>
</event>
<event>
 6    1  0.4424270E-002  0.1630837E+03  0.7546771E-02  0.1185259E+00
         21   -1    0    0  503  502  0.00000000000E+00  0.00000000000E+00  0.58414608625E+03  0.58414608625E+03  0.00000000000E+00 0. -1.
         21   -1    0    0  504  503 -0.00000000000E+00 -0.00000000000E+00 -0.31311283067E+02  0.31311283067E+02  0.00000000000E+00 0. -1.
         25    2    1    2    0    0  0.10374339668E+03 -0.14465069207E+02  0.37743219904E+03  0.41115855845E+03  0.12499745890E+03 0.  0.
          5    1    3    3  501    0 -0.25868089993E+02 -0.19552025333E+02  0.59044589778E+02  0.67362551589E+02  0.10000000000E+00 0.  1.
         -5    1    3    3    0  501  0.12961148667E+03  0.50869561261E+01  0.31838760927E+03  0.34379600686E+03  0.10000000000E+00 0.  1.
         21    1    1    2  504  502 -0.10374339668E+03  0.14465069207E+02  0.17540260414E+03  0.20429881086E+03  0.00000000000E+00 0. -1.
<mgrwt>
<rscale>  1 0.16308371E+03</rscale>
<asrwt>0</asrwt>
<pdfrwt beam="1">  1       21 0.89868621E-01 0.16308371E+03</pdfrwt>
<pdfrwt beam="2">  1       21 0.48171209E-02 0.16308371E+03</pdfrwt>
<totfact> 0.30446080E+05</totfact>
</mgrwt>
</event>
<event>
 6    1  0.4424270E-002  0.1882839E+03  0.7546771E-02  0.1160018E+00
         21   -1    0    0  504  502  0.00000000000E+00  0.00000000000E+00  0.10237648830E+03  0.10237648830E+03  0.00000000000E+00 0. -1.
         21   -1    0    0  502  503 -0.00000000000E+00 -0.00000000000E+00 -0.32993193485E+03  0.32993193485E+03  0.00000000000E+00 0.  1.
         25    2    1    2    0    0 -0.14040534303E+03  0.94941926212E+01 -0.22252428339E+03  0.29149254106E+03  0.12508814792E+03 0.  0.
          5    1    3    3  501    0 -0.86295083022E+02 -0.43571268008E+02 -0.18068984478E+03  0.20492468557E+03  0.10000000000E+00 0. -1.
         -5    1    3    3    0  501 -0.54110260008E+02  0.53065460629E+02 -0.41834438609E+02  0.86567855487E+02  0.10000000000E+00 0. -1.
         21    1    1    2  504  503  0.14040534303E+03 -0.94941926212E+01 -0.50311631599E+01  0.14081588209E+03  0.00000000000E+00 0. -1.
<mgrwt>
<rscale>  1 0.18828395E+03</rscale>
<asrwt>0</asrwt>
<pdfrwt beam="1">  1       21 0.15750229E-01 0.18828395E+03</pdfrwt>
<pdfrwt beam="2">  1       21 0.50758760E-01 0.18828395E+03</pdfrwt>
<totfact> 0.13270898E+05</totfact>
</mgrwt>
</event>
<event>
 6    1  0.4424270E-002  0.1297492E+03  0.7546771E-02  0.1227828E+00
         21   -1    0    0  504  502  0.00000000000E+00  0.00000000000E+00  0.41470458517E+03  0.41470458517E+03  0.00000000000E+00 0. -1.
         21   -1    0    0  502  503 -0.00000000000E+00 -0.00000000000E+00 -0.21611436941E+02  0.21611436941E+02  0.00000000000E+00 0. -1.
         25    2    1    2    0    0 -0.24041030853E+02  0.25161813749E+02  0.18883584082E+03  0.22911530864E+03  0.12499504725E+03 0.  0.
          5    1    3    3  501    0  0.36191140351E+02  0.71337005634E+01  0.81143708082E+01  0.37769582169E+02  0.10000000000E+00 0.  1.
         -5    1    3    3    0  501 -0.60232171204E+02  0.18028113185E+02  0.18072147001E+03  0.19134572647E+03  0.10000000000E+00 0.  1.
         21    1    1    2  504  503  0.24041030853E+02 -0.25161813749E+02  0.20425730741E+03  0.20720071348E+03  0.00000000000E+00 0. -1.
<mgrwt>
<rscale>  1 0.12974918E+03</rscale>
<asrwt>0</asrwt>
<pdfrwt beam="1">  1       21 0.63800699E-01 0.12974918E+03</pdfrwt>
<pdfrwt beam="2">  1       21 0.33248368E-02 0.12974918E+03</pdfrwt>
<totfact> 0.12123198E+06</totfact>
</mgrwt>
</event>
<event>
 6    1  0.4424270E-002  0.1260258E+03  0.7546771E-02  0.1233475E+00
         21   -1    0    0  503  502  0.00000000000E+00  0.00000000000E+00  0.29658302010E+03  0.29658302010E+03  0.00000000000E+00 0.  1.
         21   -1    0    0  504  503 -0.00000000000E+00 -0.00000000000E+00 -0.18355354284E+03  0.18355354284E+03  0.00000000000E+00 0.  1.
         25    2    1    2    0    0  0.11645516717E+02 -0.11051243453E+02 -0.16165954212E+03  0.20497878018E+03  0.12499897889E+03 0.  0.
          5    1    3    3  501    0 -0.23785255922E+02  0.46148544967E+02 -0.10452710030E+03  0.11671054493E+03  0.10000000000E+00 0. -1.
         -5    1    3    3    0  501  0.35430772639E+02 -0.57199788420E+02 -0.57132441822E+02  0.88268235247E+02  0.10000000000E+00 0. -1.
         21    1    1    2  504  502 -0.11645516717E+02  0.11051243453E+02  0.27468901939E+03  0.27515778276E+03  0.00000000000E+00 0.  1.
<mgrwt>
<rscale>  1 0.12602576E+03</rscale>
<asrwt>0</asrwt>
<pdfrwt beam="1">  1       21 0.45628157E-01 0.12602576E+03</pdfrwt>
<pdfrwt beam="2">  1       21 0.28239007E-01 0.12602576E+03</pdfrwt>
<totfact> 0.56993569E+04</totfact>
</mgrwt>
</event>
<event>
 6    1  0.4424270E-002  0.1302364E+03  0.7546771E-02  0.1227105E+00
         21   -1    0    0  503  502  0.00000000000E+00  0.00000000000E+00  0.36049341027E+03  0.36049341027E+03  0.00000000000E+00 0.  1.
         21   -1    0    0  504  503 -0.00000000000E+00 -0.00000000000E+00 -0.84591700145E+02  0.84591700145E+02  0.00000000000E+00 0.  1.
         25    2    1    2    0    0  0.19179974046E+02 -0.31152519184E+02 -0.32735355147E+02  0.13428744486E+03  0.12499265384E+03 0.  0.
          5    1    3    3  501    0  0.57775349369E+02 -0.33935456217E+02 -0.57543234738E+02  0.88322364367E+02  0.10000000000E+00 0. -1.
         -5    1    3    3    0  501 -0.38595375323E+02  0.27829370328E+01  0.24807879591E+02  0.45965080492E+02  0.10000000000E+00 0. -1.
         21    1    1    2  504  502 -0.19179974046E+02  0.31152519184E+02  0.30863706527E+03  0.31079766555E+03  0.00000000000E+00 0.  1.
<mgrwt>
<rscale>  1 0.13023638E+03</rscale>
<asrwt>0</asrwt>
<pdfrwt beam="1">  1       21 0.55460524E-01 0.13023638E+03</pdfrwt>
<pdfrwt beam="2">  1       21 0.13014108E-01 0.13023638E+03</pdfrwt>
<totfact> 0.15859500E+05</totfact>
</mgrwt>
</event>
<event>
 6    1  0.4424270E-002  0.2248123E+03  0.7546771E-02  0.1130345E+00
         21   -1    0    0  504  502  0.00000000000E+00  0.00000000000E+00  0.65744101248E+02  0.65744101248E+02  0.00000000000E+00 0. -1.
         21   -1    0    0  502  503 -0.00000000000E+00 -0.00000000000E+00 -0.17129212913E+04  0.17129212913E+04  0.00000000000E+00 0.  1.
         25    2    1    2    0    0  0.18302499952E+03  0.37760512996E+02 -0.15533871797E+04  0.15695707421E+04  0.12496630635E+03 0.  0.
          5    1    3    3  501    0  0.13499522126E+03 -0.66036692568E+01 -0.65454224179E+03  0.66835086182E+03  0.10000000000E+00 0.  1.
         -5    1    3    3    0  501  0.48029778258E+02  0.44364182253E+02 -0.89884493792E+03  0.90121988033E+03  0.10000000000E+00 0.  1.
         21    1    1    2  504  503 -0.18302499952E+03 -0.37760512996E+02 -0.93790010363E+02  0.20909465042E+03  0.00000000000E+00 0. -1.
<mgrwt>
<rscale>  1 0.22481233E+03</rscale>
<asrwt>0</asrwt>
<pdfrwt beam="1">  1       21 0.10114478E-01 0.22481233E+03</pdfrwt>
<pdfrwt beam="2">  1       21 0.26352632E+00 0.22481233E+03</pdfrwt>
<totfact> 0.42651646E+03</totfact>
</mgrwt>
</event>
<event>
 6    1  0.4424270E-002  0.1276318E+03  0.7546771E-02  0.1231013E+00
         21   -1    0    0  503  502  0.00000000000E+00  0.00000000000E+00  0.11830057349E+03  0.11830057349E+03  0.00000000000E+00 0.  1.
         21   -1    0    0  504  503 -0.00000000000E+00 -0.00000000000E+00 -0.50966093363E+02  0.50966093363E+02  0.00000000000E+00 0.  1.
         25    2    1    2    0    0  0.19022101313E+02  0.17414753549E+02  0.45578554932E+02  0.13552597539E+03  0.12499908542E+03 0.  0.
          5    1    3    3  501    0  0.41992200759E+02  0.57856344568E+02  0.15866088119E+01  0.71506844839E+02  0.10000000000E+00 0.  1.
         -5    1    3    3    0  501 -0.22970099446E+02 -0.40441591018E+02  0.43991946120E+02  0.64019130548E+02  0.10000000000E+00 0.  1.
         21    1    1    2  504  502 -0.19022101313E+02 -0.17414753549E+02  0.21755925196E+02  0.33740691467E+02  0.00000000000E+00 0.  1.
<mgrwt>
<rscale>  1 0.12763184E+03</rscale>
<asrwt>0</asrwt>
<pdfrwt beam="1">  1       21 0.18200088E-01 0.12763184E+03</pdfrwt>
<pdfrwt beam="2">  1       21 0.78409375E-02 0.12763184E+03</pdfrwt>
<totfact> 0.33789552E+06</totfact>
</mgrwt>
</event>
<event>
 6    1  0.4424270E-002  0.1377979E+03  0.7546771E-02  0.1216323E+00
         21   -1    0    0  504  502  0.00000000000E+00  0.00000000000E+00  0.75740495576E+03  0.75740495576E+03  0.00000000000E+00 0. -1.
         21   -1    0    0  502  503 -0.00000000000E+00 -0.00000000000E+00 -0.36520211380E+02  0.36520211380E+02  0.00000000000E+00 0. -1.
         25    2    1    2    0    0 -0.57062181351E+02  0.10126781883E+02  0.99798916383E+02  0.17014135043E+03  0.12501844329E+03 0.  0.
          5    1    3    3  501    0 -0.75042886927E+02 -0.14020004747E+02  0.11372348394E+03  0.13697093199E+03  0.10000000000E+00 0.  1.
         -5    1    3    3    0  501  0.17980705576E+02  0.24146786630E+02 -0.13924567557E+02  0.33170418436E+02  0.10000000000E+00 0.  1.
         21    1    1    2  504  503  0.57062181351E+02 -0.10126781883E+02  0.62108582799E+03  0.62378381671E+03  0.00000000000E+00 0. -1.
<mgrwt>
<rscale>  1 0.13779788E+03</rscale>
<asrwt>0</asrwt>
<pdfrwt beam="1">  1       21 0.11652383E+00 0.13779788E+03</pdfrwt>
<pdfrwt beam="2">  1       21 0.56184946E-02 0.13779788E+03</pdfrwt>
<totfact> 0.12805827E+05</totfact>
</mgrwt>
</event>
<event>
 6    1  0.4424270E-002  0.1375862E+03  0.7546771E-02  0.1216614E+00
         21   -1    0    0  504  502  0.00000000000E+00  0.00000000000E+00  0.11974352402E+03  0.11974352402E+03  0.00000000000E+00 0. -1.
         21   -1    0    0  502  503 -0.00000000000E+00 -0.00000000000E+00 -0.88037625199E+03  0.88037625199E+03  0.00000000000E+00 0. -1.
         25    2    1    2    0    0 -0.25117109553E+02  0.51712003005E+02 -0.86772892840E+03  0.87856897759E+03  0.12499981906E+03 0.  0.
          5    1    3    3  501    0 -0.59319130159E+01  0.84143947031E+01 -0.77738401120E+00  0.10324919184E+02  0.10000000000E+00 0.  1.
         -5    1    3    3    0  501 -0.19185196537E+02  0.43297608302E+02 -0.86695154439E+03  0.86824405841E+03  0.10000000000E+00 0.  1.
         21    1    1    2  504  503  0.25117109553E+02 -0.51712003005E+02  0.10709620043E+03  0.12155079841E+03  0.00000000000E+00 0. -1.
<mgrwt>
<rscale>  1 0.13758617E+03</rscale>
<asrwt>0</asrwt>
<pdfrwt beam="1">  1       21 0.18422080E-01 0.13758617E+03</pdfrwt>
<pdfrwt beam="2">  1       21 0.13544250E+00 0.13758617E+03</pdfrwt>
<totfact> 0.10949049E+04</totfact>
</mgrwt>
</event>
<event>
 6    1  0.4424270E-002  0.1267242E+03  0.7546771E-02  0.1232399E+00
         21   -1    0    0  504  502  0.00000000000E+00  0.00000000000E+00  0.28532220345E+02  0.28532220345E+02  0.00000000000E+00 0.  1.
         21   -1    0    0  502  503 -0.00000000000E+00 -0.00000000000E+00 -0.22707662538E+03  0.22707662538E+03  0.00000000000E+00 0.  1.
         25    2    1    2    0    0 -0.11651710517E+02  0.17274523053E+02 -0.19760825799E+03  0.23475104441E+03  0.12499943088E+03 0.  0.
          5    1    3    3  501    0 -0.46893610654E+02 -0.29461390546E+02 -0.45185371536E+02  0.71475254836E+02  0.10000000000E+00 0. -1.
         -5    1    3    3    0  501  0.35241900137E+02  0.46735913599E+02 -0.15242288645E+03  0.16327578957E+03  0.10000000000E+00 0. -1.
         21    1    1    2  504  503  0.11651710517E+02 -0.17274523053E+02 -0.93614704850E+00  0.20857801322E+02  0.00000000000E+00 0.  1.
<mgrwt>
<rscale>  1 0.12672423E+03</rscale>
<asrwt>0</asrwt>
<pdfrwt beam="1">  1       21 0.43895724E-02 0.12672423E+03</pdfrwt>
<pdfrwt beam="2">  1       21 0.34934865E-01 0.12672423E+03</pdfrwt>
<totfact> 0.26254921E+06</totfact>
</mgrwt>
</event>
<event>
 6    1  0.4424270E-002  0.1291852E+03  0.7546771E-02  0.1228670E+00
         21   -1    0    0  503  502  0.00000000000E+00  0.00000000000E+00  0.97937141002E+01  0.97937141002E+01  0.00000000000E+00 0.  1.
         21   -1    0    0  504  503 -0.00000000000E+00 -0.00000000000E+00 -0.71953571138E+03  0.71953571138E+03  0.00000000000E+00 0.  1.
         25    2    1    2    0    0 -0.91974528020E+01  0.31288714920E+02 -0.63122630475E+03  0.64431007008E+03  0.12500096710E+03 0.  0.
          5    1    3    3  501    0 -0.27544757686E+02  0.28078095731E+02 -0.62249913118E+03  0.62374054819E+03  0.10000000000E+00 0.  1.
         -5    1    3    3    0  501  0.18347304884E+02  0.32106191890E+01 -0.87271735642E+01  0.20569521883E+02  0.10000000000E+00 0.  1.
         21    1    1    2  504  502  0.91974528020E+01 -0.31288714920E+02 -0.78515692528E+02  0.85019355399E+02  0.00000000000E+00 0.  1.
<mgrwt>
<rscale>  1 0.12918521E+03</rscale>
<asrwt>0</asrwt>
<pdfrwt beam="1">  1       21 0.15067257E-02 0.12918521E+03</pdfrwt>
<pdfrwt beam="2">  1       21 0.11069777E+00 0.12918521E+03</pdfrwt>
<totfact> 0.12581347E+06</totfact>
</mgrwt>
</event>
<event>
 6    1  0.4424270E-002  0.1260369E+03  0.7546771E-02  0.1233458E+00
         21   -1    0    0  503  502  0.00000000000E+00  0.00000000000E+00  0.77511551910E+01  0.77511551910E+01  0.00000000000E+00 0.  1.
         21   -1    0    0  504  503 -0.00000000000E+00 -0.00000000000E+00 -0.69024447908E+03  0.69024447908E+03  0.00000000000E+00 0.  1.
         25    2    1    2    0    0  0.77474249327E+01 -0.14161488827E+02 -0.64461787700E+03  0.65682380123E+03  0.12499891262E+03 0.  0.
          5    1    3    3  501    0 -0.31438475791E+02 -0.41441913900E+02 -0.13037438682E+03  0.14036844633E+03  0.10000000000E+00 0.  1.
         -5    1    3    3    0  501  0.39185900724E+02  0.27280425073E+02 -0.51424349018E+03  0.51645535490E+03  0.10000000000E+00 0.  1.
         21    1    1    2  504  502 -0.77474249327E+01  0.14161488827E+02 -0.37875446892E+02  0.41171833043E+02  0.00000000000E+00 0.  1.
<mgrwt>
<rscale>  1 0.12603689E+03</rscale>
<asrwt>0</asrwt>
<pdfrwt beam="1">  1       21 0.11924855E-02 0.12603689E+03</pdfrwt>
<pdfrwt beam="2">  1       21 0.10619145E+00 0.12603689E+03</pdfrwt>
<totfact> 0.20146955E+06</totfact>
</mgrwt>
</event>
<event>
 6    1  0.4424270E-002  0.1312926E+03  0.7546771E-02  0.1225550E+00
         21   -1    0    0  504  502  0.00000000000E+00  0.00000000000E+00  0.20266185317E+02  0.20266185317E+02  0.00000000000E+00 0.  1.
         21   -1    0    0  502  503 -0.00000000000E+00 -0.00000000000E+00 -0.36480509419E+03  0.36480509419E+03  0.00000000000E+00 0.  1.
         25    2    1    2    0    0  0.11691963105E+02  0.38407522869E+02 -0.27606918918E+03  0.30569910347E+03  0.12500361928E+03 0.  0.
          5    1    3    3  501    0  0.32154703104E+01  0.76545972374E+02 -0.24208068602E+03  0.25391473702E+03  0.10000000000E+00 0. -1.
         -5    1    3    3    0  501  0.84764927942E+01 -0.38138449506E+02 -0.33988503168E+02  0.51784366448E+02  0.10000000000E+00 0. -1.
         21    1    1    2  504  503 -0.11691963105E+02 -0.38407522869E+02 -0.68469719688E+02  0.79372176034E+02  0.00000000000E+00 0.  1.
<mgrwt>
<rscale>  1 0.13129259E+03</rscale>
<asrwt>0</asrwt>
<pdfrwt beam="1">  1       21 0.31178746E-02 0.13129259E+03</pdfrwt>
<pdfrwt beam="2">  1       21 0.56123861E-01 0.13129259E+03</pdfrwt>
<totfact> 0.17695442E+06</totfact>
</mgrwt>
</event>
<event>
 6    1  0.4424270E-002  0.1445452E+03  0.7546771E-02  0.1207341E+00
         21   -1    0    0  504  502  0.00000000000E+00  0.00000000000E+00  0.97395863118E+02  0.97395863118E+02  0.00000000000E+00 0. -1.
         21   -1    0    0  502  503 -0.00000000000E+00 -0.00000000000E+00 -0.36951540288E+03  0.36951540288E+03  0.00000000000E+00 0. -1.
         25    2    1    2    0    0  0.32356081846E+02  0.64994658229E+02 -0.33879242140E+03  0.36833898401E+03  0.12498832232E+03 0.  0.
          5    1    3    3  501    0 -0.28431550833E+02  0.72901737705E+02 -0.14090529046E+03  0.16117483465E+03  0.10000000000E+00 0. -1.
         -5    1    3    3    0  501  0.60787632679E+02 -0.79070794765E+01 -0.19788713094E+03  0.20716414937E+03  0.10000000000E+00 0. -1.
         21    1    1    2  504  503 -0.32356081846E+02 -0.64994658229E+02  0.66672881633E+02  0.98572281986E+02  0.00000000000E+00 0. -1.
<mgrwt>
<rscale>  1 0.14454516E+03</rscale>
<asrwt>0</asrwt>
<pdfrwt beam="1">  1       21 0.14983979E-01 0.14454516E+03</pdfrwt>
<pdfrwt beam="2">  1       21 0.56848523E-01 0.14454516E+03</pdfrwt>
<totfact> 0.11632914E+05</totfact>
</mgrwt>
</event>
<event>
 6    1  0.4424270E-002  0.1258942E+03  0.7546771E-02  0.1233678E+00
         21   -1    0    0  504  502  0.00000000000E+00  0.00000000000E+00  0.16558375566E+03  0.16558375566E+03  0.00000000000E+00 0.  1.
         21   -1    0    0  502  503 -0.00000000000E+00 -0.00000000000E+00 -0.64868234951E+02  0.64868234951E+02  0.00000000000E+00 0.  1.
         25    2    1    2    0    0  0.51120459934E+01 -0.14118950234E+02 -0.27285324496E+01  0.12592376522E+03  0.12499548787E+03 0.  0.
          5    1    3    3  501    0  0.34294276650E+02 -0.60941165697E+02  0.54896428312E+01  0.70143205415E+02  0.10000000000E+00 0. -1.
         -5    1    3    3    0  501 -0.29182230657E+02  0.46822215463E+02 -0.82181752808E+01  0.55780559803E+02  0.10000000000E+00 0. -1.
         21    1    1    2  504  503 -0.51120459934E+01  0.14118950234E+02  0.10344405316E+03  0.10452822539E+03  0.00000000000E+00 0.  1.
<mgrwt>
<rscale>  1 0.12589420E+03</rscale>
<asrwt>0</asrwt>
<pdfrwt beam="1">  1       21 0.25474424E-01 0.12589420E+03</pdfrwt>
<pdfrwt beam="2">  1       21 0.99797285E-02 0.12589420E+03</pdfrwt>
<totfact> 0.11887844E+06</totfact>
</mgrwt>
</event>
<event>
 6    1  0.4424270E-002  0.1308953E+03  0.7546771E-02  0.1226133E+00
         21   -1    0    0  504  502  0.00000000000E+00  0.00000000000E+00  0.13663318812E+03  0.13663318812E+03  0.00000000000E+00 0.  1.
         21   -1    0    0  502  503 -0.00000000000E+00 -0.00000000000E+00 -0.16288471428E+03  0.16288471428E+03  0.00000000000E+00 0.  1.
         25    2    1    2    0    0 -0.15454082168E+02 -0.35708571176E+02 -0.13257085054E+03  0.18630249070E+03  0.12497862584E+03 0.  0.
          5    1    3    3  501    0  0.30360566369E+02  0.26987660359E+02 -0.11062458954E+02  0.42100900228E+02  0.10000000000E+00 0.  1.
         -5    1    3    3    0  501 -0.45814648538E+02 -0.62696231534E+02 -0.12150839158E+03  0.14420159047E+03  0.10000000000E+00 0.  1.
         21    1    1    2  504  503  0.15454082168E+02  0.35708571176E+02  0.10631932437E+03  0.11321541170E+03  0.00000000000E+00 0.  1.
<mgrwt>
<rscale>  1 0.13089533E+03</rscale>
<asrwt>0</asrwt>
<pdfrwt beam="1">  1       21 0.21020491E-01 0.13089533E+03</pdfrwt>
<pdfrwt beam="2">  1       21 0.25059187E-01 0.13089533E+03</pdfrwt>
<totfact> 0.32098403E+05</totfact>
</mgrwt>
</event>
<event>
 6    1  0.4424270E-002  0.1362110E+03  0.7546771E-02  0.1218520E+00
         21   -1    0    0  504  502  0.00000000000E+00  0.00000000000E+00  0.38269858764E+03  0.38269858764E+03  0.00000000000E+00 0.  1.
         21   -1    0    0  502  503 -0.00000000000E+00 -0.00000000000E+00 -0.33238720247E+02  0.33238720247E+02  0.00000000000E+00 0.  1.
         25    2    1    2    0    0  0.94862655420E+01  0.53279118370E+02  0.12442177699E+03  0.18448364984E+03  0.12499913913E+03 0.  0.
          5    1    3    3  501    0  0.60754703663E+02  0.10534500398E+02  0.29275628035E+02  0.68258201798E+02  0.10000000000E+00 0.  1.
         -5    1    3    3    0  501 -0.51268438121E+02  0.42744617972E+02  0.95146148954E+02  0.11622544805E+03  0.10000000000E+00 0.  1.
         21    1    1    2  504  503 -0.94862655420E+01 -0.53279118370E+02  0.22503809040E+03  0.23145365804E+03  0.00000000000E+00 0.  1.
<mgrwt>
<rscale>  1 0.13621101E+03</rscale>
<asrwt>0</asrwt>
<pdfrwt beam="1">  1       21 0.58876703E-01 0.13621101E+03</pdfrwt>
<pdfrwt beam="2">  1       21 0.51136495E-02 0.13621101E+03</pdfrwt>
<totfact> 0.70266103E+05</totfact>
</mgrwt>
</event>
<event>
 6    1  0.4424270E-002  0.1266233E+03  0.7546771E-02  0.1232554E+00
         21   -1    0    0  504  502  0.00000000000E+00  0.00000000000E+00  0.51442214669E+03  0.51442214669E+03  0.00000000000E+00 0.  1.
         21   -1    0    0  502  503 -0.00000000000E+00 -0.00000000000E+00 -0.16890482935E+02  0.16890482935E+02  0.00000000000E+00 0.  1.
         25    2    1    2    0    0 -0.13311356896E+02 -0.15257345277E+02  0.22622356304E+03  0.25925001859E+03  0.12499397129E+03 0.  0.
          5    1    3    3  501    0  0.48683403342E+01 -0.65647350222E+02  0.80475981052E+02  0.10396955735E+03  0.10000000000E+00 0.  1.
         -5    1    3    3    0  501 -0.18179697231E+02  0.50390004944E+02  0.14574758199E+03  0.15528046125E+03  0.10000000000E+00 0.  1.
         21    1    1    2  504  503  0.13311356896E+02  0.15257345277E+02  0.27130810072E+03  0.27206261103E+03  0.00000000000E+00 0.  1.
<mgrwt>
<rscale>  1 0.12662335E+03</rscale>
<asrwt>0</asrwt>
<pdfrwt beam="1">  1       21 0.79141857E-01 0.12662335E+03</pdfrwt>
<pdfrwt beam="2">  1       21 0.25985362E-02 0.12662335E+03</pdfrwt>
<totfact> 0.11332496E+06</totfact>
</mgrwt>
</event>
<event>
 6    1  0.4424270E-002  0.1261648E+03  0.7546771E-02  0.1233260E+00
         21   -1    0    0  503  502  0.00000000000E+00  0.00000000000E+00  0.71413735356E+01  0.71413735356E+01  0.00000000000E+00 0. -1.
         21   -1    0    0  504  503 -0.00000000000E+00 -0.00000000000E+00 -0.75508688370E+03  0.75508688370E+03  0.00000000000E+00 0. -1.
         25    2    1    2    0    0  0.54148522448E+01  0.16228947211E+02 -0.58876750119E+03  0.60213347939E+03  0.12499942877E+03 0.  0.
          5    1    3    3  501    0 -0.44307970450E+01  0.31046202808E+01  0.54555351110E+01  0.76839763722E+01  0.10000000000E+00 0.  1.
         -5    1    3    3    0  501  0.98456492897E+01  0.13124326930E+02 -0.59422303630E+03  0.59444950302E+03  0.10000000000E+00 0.  1.
         21    1    1    2  504  502 -0.54148522448E+01 -0.16228947211E+02 -0.15917800898E+03  0.16009477785E+03  0.00000000000E+00 0. -1.
<mgrwt>
<rscale>  1 0.12616480E+03</rscale>
<asrwt>0</asrwt>
<pdfrwt beam="1">  1       21 0.10986735E-02 0.12616480E+03</pdfrwt>
<pdfrwt beam="2">  1       21 0.11616714E+00 0.12616480E+03</pdfrwt>
<totfact> 0.18505187E+06</totfact>
</mgrwt>
</event>
<event>
 6    1  0.4424270E-002  0.2350664E+03  0.7546771E-02  0.1123124E+00
         21   -1    0    0  504  502  0.00000000000E+00  0.00000000000E+00  0.11688255521E+03  0.11688255521E+03  0.00000000000E+00 0. -1.
         21   -1    0    0  502  503 -0.00000000000E+00 -0.00000000000E+00 -0.40318688786E+03  0.40318688786E+03  0.00000000000E+00 0. -1.
         25    2    1    2    0    0  0.13352118596E+03 -0.14762624092E+03 -0.15898131532E+03  0.28378028791E+03  0.12503911018E+03 0.  0.
          5    1    3    3  501    0  0.87970274143E+02 -0.13616506425E+03 -0.57587026259E+02  0.17203479139E+03  0.10000000000E+00 0.  1.
         -5    1    3    3    0  501  0.45550911816E+02 -0.11461176671E+02 -0.10139428906E+03  0.11174549652E+03  0.10000000000E+00 0.  1.
         21    1    1    2  504  503 -0.13352118596E+03  0.14762624092E+03 -0.12732301733E+03  0.23628915516E+03  0.00000000000E+00 0. -1.
<mgrwt>
<rscale>  1 0.23506636E+03</rscale>
<asrwt>0</asrwt>
<pdfrwt beam="1">  1       21 0.17981931E-01 0.23506636E+03</pdfrwt>
<pdfrwt beam="2">  1       21 0.62028753E-01 0.23506636E+03</pdfrwt>
<totfact> 0.66619740E+04</totfact>
</mgrwt>
</event>
<event>
 6    1  0.4424270E-002  0.1300404E+03  0.7546771E-02  0.1227396E+00
         21   -1    0    0  503  502  0.00000000000E+00  0.00000000000E+00  0.64767502878E+02  0.64767502878E+02  0.00000000000E+00 0. -1.
         21   -1    0    0  504  503 -0.00000000000E+00 -0.00000000000E+00 -0.21291493770E+03  0.21291493770E+03  0.00000000000E+00 0. -1.
         25    2    1    2    0    0 -0.28222223073E+02  0.22087792237E+02 -0.18509496840E+03  0.22620929537E+03  0.12500453409E+03 0.  0.
          5    1    3    3  501    0 -0.64540179604E+02  0.38005159624E+02 -0.63113769078E+02  0.97944804806E+02  0.10000000000E+00 0.  1.
         -5    1    3    3    0  501  0.36317956531E+02 -0.15917367387E+02 -0.12198119932E+03  0.12826449056E+03  0.10000000000E+00 0.  1.
         21    1    1    2  504  502  0.28222223073E+02 -0.22087792237E+02  0.36947533573E+02  0.51473145214E+02  0.00000000000E+00 0. -1.
<mgrwt>
<rscale>  1 0.13004037E+03</rscale>
<asrwt>0</asrwt>
<pdfrwt beam="1">  1       21 0.99642310E-02 0.13004037E+03</pdfrwt>
<pdfrwt beam="2">  1       21 0.32756145E-01 0.13004037E+03</pdfrwt>
<totfact> 0.73574307E+05</totfact>
</mgrwt>
</event>
<event>
 6    1  0.4424270E-002  0.1268836E+03  0.7546771E-02  0.1232155E+00
         21   -1    0    0  504  502  0.00000000000E+00  0.00000000000E+00  0.71318311107E+01  0.71318311107E+01  0.00000000000E+00 0. -1.
         21   -1    0    0  502  503 -0.00000000000E+00 -0.00000000000E+00 -0.84612630414E+03  0.84612630414E+03  0.00000000000E+00 0. -1.
         25    2    1    2    0    0 -0.85271699696E+01 -0.20017311379E+02 -0.78246657769E+03  0.79268744651E+03  0.12500414904E+03 0.  0.
          5    1    3    3  501    0  0.44177192113E+02  0.24986205433E+02 -0.21024667583E+03  0.21628594374E+03  0.10000000000E+00 0.  1.
         -5    1    3    3    0  501 -0.52704362083E+02 -0.45003516812E+02 -0.57221990186E+03  0.57640150277E+03  0.10000000000E+00 0.  1.
         21    1    1    2  504  503  0.85271699696E+01  0.20017311379E+02 -0.56527895345E+02  0.60570688742E+02  0.00000000000E+00 0. -1.
<mgrwt>
<rscale>  1 0.12688358E+03</rscale>
<asrwt>0</asrwt>
<pdfrwt beam="1">  1       21 0.10972047E-02 0.12688358E+03</pdfrwt>
<pdfrwt beam="2">  1       21 0.13017328E+00 0.12688358E+03</pdfrwt>
<totfact> 0.14025729E+06</totfact>
</mgrwt>
</event>
<event>
 6    1  0.4424270E-002  0.1839902E+03  0.7546771E-02  0.1163996E+00
         21   -1    0    0  504  502  0.00000000000E+00  0.00000000000E+00  0.12624637005E+03  0.12624637005E+03  0.00000000000E+00 0.  1.
         21   -1    0    0  502  503 -0.00000000000E+00 -0.00000000000E+00 -0.56071423296E+03  0.56071423296E+03  0.00000000000E+00 0. -1.
         25    2    1    2    0    0 -0.13260205384E+03 -0.25460306867E+02 -0.50296090756E+03  0.53555773291E+03  0.12498351428E+03 0.  0.
          5    1    3    3  501    0 -0.14171460389E+02 -0.21121394014E+02 -0.29582061388E+03  0.29691208997E+03  0.10000000000E+00 0. -1.
         -5    1    3    3    0  501 -0.11843059345E+03 -0.43389128522E+01 -0.20714029368E+03  0.23864564294E+03  0.10000000000E+00 0. -1.
         21    1    1    2  504  503  0.13260205384E+03  0.25460306867E+02  0.68493044646E+02  0.15140287009E+03  0.00000000000E+00 0.  1.
<mgrwt>
<rscale>  1 0.18399025E+03</rscale>
<asrwt>0</asrwt>
<pdfrwt beam="1">  1       21 0.19422518E-01 0.18399025E+03</pdfrwt>
<pdfrwt beam="2">  1       21 0.86263729E-01 0.18399025E+03</pdfrwt>
<totfact> 0.28379022E+04</totfact>
</mgrwt>
</event>
<event>
 6    1  0.4424270E-002  0.1321693E+03  0.7546771E-02  0.1224272E+00
         21   -1    0    0  503  502  0.00000000000E+00  0.00000000000E+00  0.27927351605E+02  0.27927351605E+02  0.00000000000E+00 0. -1.
         21   -1    0    0  504  503 -0.00000000000E+00 -0.00000000000E+00 -0.27720490281E+03  0.27720490281E+03  0.00000000000E+00 0. -1.
         25    2    1    2    0    0  0.41370332164E+02  0.11551497403E+02 -0.20043834754E+03  0.24009219529E+03  0.12499515831E+03 0.  0.
          5    1    3    3  501    0 -0.27575746723E+02  0.32356856220E+01 -0.15415715979E+03  0.15663757973E+03  0.10000000000E+00 0.  1.
         -5    1    3    3    0  501  0.68946078887E+02  0.83158117812E+01 -0.46281187744E+02  0.83454615561E+02  0.10000000000E+00 0.  1.
         21    1    1    2  504  502 -0.41370332164E+02 -0.11551497403E+02 -0.48839203669E+02  0.65040059123E+02  0.00000000000E+00 0. -1.
<mgrwt>
<rscale>  1 0.13216933E+03</rscale>
<asrwt>0</asrwt>
<pdfrwt beam="1">  1       21 0.42965156E-02 0.13216933E+03</pdfrwt>
<pdfrwt beam="2">  1       21 0.42646908E-01 0.13216933E+03</pdfrwt>
<totfact> 0.18317755E+06</totfact>
</mgrwt>
</event>
<event>
 6    1  0.4424270E-002  0.1259530E+03  0.7546771E-02  0.1233587E+00
         21   -1    0    0  504  502  0.00000000000E+00  0.00000000000E+00  0.49983432828E+03  0.49983432828E+03  0.00000000000E+00 0.  1.
         21   -1    0    0  502  503 -0.00000000000E+00 -0.00000000000E+00 -0.10009323728E+02  0.10009323728E+02  0.00000000000E+00 0.  1.
         25    2    1    2    0    0 -0.93125305643E+01  0.12399995682E+02  0.43502898329E+03  0.45289554349E+03  0.12499469543E+03 0.  0.
          5    1    3    3  501    0 -0.48158967929E+02  0.33196923777E+02  0.10720825311E+03  0.12212674349E+03  0.10000000000E+00 0. -1.
         -5    1    3    3    0  501  0.38846437365E+02 -0.20796928095E+02  0.32782073018E+03  0.33076880000E+03  0.10000000000E+00 0. -1.
         21    1    1    2  504  503  0.93125305643E+01 -0.12399995682E+02  0.54796021254E+02  0.56948108517E+02  0.00000000000E+00 0. -1.
<mgrwt>
<rscale>  1 0.12595300E+03</rscale>
<asrwt>0</asrwt>
<pdfrwt beam="1">  1       21 0.76897570E-01 0.12595300E+03</pdfrwt>
<pdfrwt beam="2">  1       21 0.15398963E-02 0.12595300E+03</pdfrwt>
<totfact> 0.28092327E+06</totfact>
</mgrwt>
</event>
<event>
 6    1  0.4424270E-002  0.1369400E+03  0.7546771E-02  0.1217507E+00
         21   -1    0    0  503  502  0.00000000000E+00  0.00000000000E+00  0.97795231182E+02  0.97795231182E+02  0.00000000000E+00 0. -1.
         21   -1    0    0  504  503 -0.00000000000E+00 -0.00000000000E+00 -0.10744865834E+03  0.10744865834E+03  0.00000000000E+00 0. -1.
         25    2    1    2    0    0  0.70222338699E+01  0.55481147433E+02 -0.38595208921E+02  0.14227487952E+03  0.12500032681E+03 0.  0.
          5    1    3    3  501    0  0.24113967430E+02  0.70898034308E+02 -0.70555381472E+02  0.10288870953E+03  0.10000000000E+00 0.  1.
         -5    1    3    3    0  501 -0.17091733561E+02 -0.15416886875E+02  0.31960172550E+02  0.39386169990E+02  0.10000000000E+00 0.  1.
         21    1    1    2  504  502 -0.70222338699E+01 -0.55481147433E+02  0.28941781764E+02  0.62969010002E+02  0.00000000000E+00 0. -1.
<mgrwt>
<rscale>  1 0.13693995E+03</rscale>
<asrwt>0</asrwt>
<pdfrwt beam="1">  1       21 0.15045420E-01 0.13693995E+03</pdfrwt>
<pdfrwt beam="2">  1       21 0.16530563E-01 0.13693995E+03</pdfrwt>
<totfact> 0.12804263E+06</totfact>
</mgrwt>
</event>
<event>
 6    1  0.4424270E-002  0.1297173E+03  0.7546771E-02  0.1227876E+00
         21   -1    0    0  503  502  0.00000000000E+00  0.00000000000E+00  0.12767083572E+03  0.12767083572E+03  0.00000000000E+00 0. -1.
         21   -1    0    0  504  503 -0.00000000000E+00 -0.00000000000E+00 -0.54319735934E+02  0.54319735934E+02  0.00000000000E+00 0. -1.
         25    2    1    2    0    0  0.34561164545E+02 -0.24884723961E+01  0.45269241616E+02  0.13738948032E+03  0.12500359386E+03 0.  0.
          5    1    3    3  501    0 -0.66901859624E+01 -0.23319184503E+02 -0.36287366531E+02  0.43650039220E+02  0.10000000000E+00 0.  1.
         -5    1    3    3    0  501  0.41251350508E+02  0.20830712107E+02  0.81556608148E+02  0.93739441102E+02  0.10000000000E+00 0.  1.
         21    1    1    2  504  502 -0.34561164545E+02  0.24884723961E+01  0.28081858167E+02  0.44601091328E+02  0.00000000000E+00 0. -1.
<mgrwt>
<rscale>  1 0.12971725E+03</rscale>
<asrwt>0</asrwt>
<pdfrwt beam="1">  1       21 0.19641667E-01 0.12971725E+03</pdfrwt>
<pdfrwt beam="2">  1       21 0.83568825E-02 0.12971725E+03</pdfrwt>
<totfact> 0.26328748E+06</totfact>
</mgrwt>
</event>
<event>
 6    1  0.4424270E-002  0.1259448E+03  0.7546771E-02  0.1233600E+00
         21   -1    0    0  503  502  0.00000000000E+00  0.00000000000E+00  0.64808761618E+02  0.64808761618E+02  0.00000000000E+00 0. -1.
         21   -1    0    0  504  503 -0.00000000000E+00 -0.00000000000E+00 -0.81634601638E+02  0.81634601638E+02  0.00000000000E+00 0. -1.
         25    2    1    2    0    0 -0.12250021208E+02 -0.93290376325E+01 -0.25886337959E+02  0.12857756953E+03  0.12499997972E+03 0.  0.
          5    1    3    3  501    0  0.42432018212E+02  0.35291753964E+02 -0.14745709096E+02  0.57126438749E+02  0.10000000000E+00 0. -1.
         -5    1    3    3    0  501 -0.54682039419E+02 -0.44620791596E+02 -0.11140628863E+02  0.71451130776E+02  0.10000000000E+00 0. -1.
         21    1    1    2  504  502  0.12250021208E+02  0.93290376325E+01  0.90604979389E+01  0.17865793731E+02  0.00000000000E+00 0. -1.
<mgrwt>
<rscale>  1 0.12594479E+03</rscale>
<asrwt>0</asrwt>
<pdfrwt beam="1">  1       21 0.99705788E-02 0.12594479E+03</pdfrwt>
<pdfrwt beam="2">  1       21 0.12559169E-01 0.12594479E+03</pdfrwt>
<totfact> 0.43459052E+06</totfact>
</mgrwt>
</event>
<event>
 6    1  0.4424270E-002  0.2280060E+03  0.7546771E-02  0.1128051E+00
         21   -1    0    0  503  502  0.00000000000E+00  0.00000000000E+00  0.13814099523E+03  0.13814099523E+03  0.00000000000E+00 0.  1.
         21   -1    0    0  504  503 -0.00000000000E+00 -0.00000000000E+00 -0.34447553720E+03  0.34447553720E+03  0.00000000000E+00 0.  1.
         25    2    1    2    0    0  0.16498800027E+03  0.95603962400E+02 -0.44050322335E+02  0.23222219183E+03  0.12500223048E+03 0.  0.
          5    1    3    3  501    0  0.85312601006E+02  0.11490879277E+03 -0.10044686638E+02  0.14346838075E+03  0.10000000000E+00 0.  1.
         -5    1    3    3    0  501  0.79675399260E+02 -0.19304830367E+02 -0.34005635697E+02  0.88753811083E+02  0.10000000000E+00 0.  1.
         21    1    1    2  504  502 -0.16498800027E+03 -0.95603962400E+02 -0.16228421964E+03  0.25039434060E+03  0.00000000000E+00 0.  1.
<mgrwt>
<rscale>  1 0.22800595E+03</rscale>
<asrwt>0</asrwt>
<pdfrwt beam="1">  1       21 0.21252461E-01 0.22800595E+03</pdfrwt>
<pdfrwt beam="2">  1       21 0.52996236E-01 0.22800595E+03</pdfrwt>
<totfact> 0.68437325E+04</totfact>
</mgrwt>
</event>
<event>
 6    1  0.4424270E-002  0.1458048E+03  0.7546771E-02  0.1205725E+00
         21   -1    0    0  504  502  0.00000000000E+00  0.00000000000E+00  0.29440692911E+02  0.29440692911E+02  0.00000000000E+00 0.  1.
         21   -1    0    0  502  503 -0.00000000000E+00 -0.00000000000E+00 -0.50416934467E+03  0.50416934467E+03  0.00000000000E+00 0.  1.
         25    2    1    2    0    0  0.69527100971E+02 -0.28271948485E+02 -0.40767646974E+03  0.43296553473E+03  0.12500291773E+03 0.  0.
          5    1    3    3  501    0  0.10527353875E+03 -0.31351398669E+02 -0.30088551719E+03  0.32030849601E+03  0.10000000000E+00 0.  1.
         -5    1    3    3    0  501 -0.35746437775E+02  0.30794501845E+01 -0.10679095255E+03  0.11265703872E+03  0.10000000000E+00 0.  1.
         21    1    1    2  504  503 -0.69527100971E+02  0.28271948485E+02 -0.67052182010E+02  0.10064450284E+03  0.00000000000E+00 0.  1.
<mgrwt>
<rscale>  1 0.14580484E+03</rscale>
<asrwt>0</asrwt>
<pdfrwt beam="1">  1       21 0.45293372E-02 0.14580484E+03</pdfrwt>
<pdfrwt beam="2">  1       21 0.77564518E-01 0.14580484E+03</pdfrwt>
<totfact> 0.47284831E+05</totfact>
</mgrwt>
</event>
<event>
 6    1  0.4424270E-002  0.1272928E+03  0.7546771E-02  0.1231529E+00
         21   -1    0    0  504  502  0.00000000000E+00  0.00000000000E+00  0.11032628070E+02  0.11032628070E+02  0.00000000000E+00 0. -1.
         21   -1    0    0  502  503 -0.00000000000E+00 -0.00000000000E+00 -0.10691589801E+04  0.10691589801E+04  0.00000000000E+00 0. -1.
         25    2    1    2    0    0 -0.11581724705E+02  0.21124004817E+02 -0.10450633681E+04  0.10527872020E+04  0.12499235786E+03 0.  0.
          5    1    3    3  501    0  0.40337102170E+02 -0.54347452583E+01 -0.79388634619E+03  0.79492902761E+03  0.10000000000E+00 0.  1.
         -5    1    3    3    0  501 -0.51918826875E+02  0.26558750075E+02 -0.25117702191E+03  0.25785817444E+03  0.10000000000E+00 0.  1.
         21    1    1    2  504  503  0.11581724705E+02 -0.21124004817E+02 -0.13062983961E+02  0.27404406153E+02  0.00000000000E+00 0. -1.
<mgrwt>
<rscale>  1 0.12729277E+03</rscale>
<asrwt>0</asrwt>
<pdfrwt beam="1">  1       21 0.16973265E-02 0.12729277E+03</pdfrwt>
<pdfrwt beam="2">  1       21 0.16448609E+00 0.12729277E+03</pdfrwt>
<totfact> 0.38359050E+05</totfact>
</mgrwt>
</event>
<event>
 6    1  0.4424270E-002  0.1387963E+03  0.7546771E-02  0.1214958E+00
         21   -1    0    0  503  502  0.00000000000E+00  0.00000000000E+00  0.23277322282E+03  0.23277322282E+03  0.00000000000E+00 0. -1.
         21   -1    0    0  504  503 -0.00000000000E+00 -0.00000000000E+00 -0.42891286199E+02  0.42891286199E+02  0.00000000000E+00 0. -1.
         25    2    1    2    0    0 -0.54591116046E+02 -0.25694845439E+02  0.14273973022E+03  0.19909556847E+03  0.12499599900E+03 0.  0.
          5    1    3    3  501    0  0.19226105947E+02 -0.23479441136E+01  0.11536099529E+03  0.11697574631E+03  0.10000000000E+00 0. -1.
         -5    1    3    3    0  501 -0.73817221992E+02 -0.23346901325E+02  0.27378734937E+02  0.82119822156E+02  0.10000000000E+00 0. -1.
         21    1    1    2  504  502  0.54591116046E+02  0.25694845439E+02  0.47142206399E+02  0.76568940553E+02  0.00000000000E+00 0. -1.
<mgrwt>
<rscale>  1 0.13879631E+03</rscale>
<asrwt>0</asrwt>
<pdfrwt beam="1">  1       21 0.35811264E-01 0.13879631E+03</pdfrwt>
<pdfrwt beam="2">  1       21 0.65986595E-02 0.13879631E+03</pdfrwt>
<totfact> 0.12593978E+06</totfact>
</mgrwt>
</event>
<event>
 6    1  0.4424270E-002  0.1275568E+03  0.7546771E-02  0.1231127E+00
         21   -1    0    0  504  502  0.00000000000E+00  0.00000000000E+00  0.13770551799E+03  0.13770551799E+03  0.00000000000E+00 0. -1.
         21   -1    0    0  502  503 -0.00000000000E+00 -0.00000000000E+00 -0.42920857768E+02  0.42920857768E+02  0.00000000000E+00 0. -1.
         25    2    1    2    0    0  0.12288702224E+02 -0.22227497672E+02  0.71823585651E+02  0.14638773091E+03  0.12500266578E+03 0.  0.
          5    1    3    3  501    0 -0.43775446474E+02  0.23678009758E+02  0.50388443870E+02  0.70823323388E+02  0.10000000000E+00 0. -1.
         -5    1    3    3    0  501  0.56064148698E+02 -0.45905507431E+02  0.21435141781E+02  0.75564407527E+02  0.10000000000E+00 0. -1.
         21    1    1    2  504  503 -0.12288702224E+02  0.22227497672E+02  0.22961074568E+02  0.34238644839E+02  0.00000000000E+00 0. -1.
<mgrwt>
<rscale>  1 0.12755681E+03</rscale>
<asrwt>0</asrwt>
<pdfrwt beam="1">  1       21 0.21185464E-01 0.12755681E+03</pdfrwt>
<pdfrwt beam="2">  1       21 0.66032089E-02 0.12755681E+03</pdfrwt>
<totfact> 0.34265855E+06</totfact>
</mgrwt>
</event>
<event>
 6    1  0.4424270E-002  0.1260553E+03  0.7546771E-02  0.1233429E+00
         21   -1    0    0  503  502  0.00000000000E+00  0.00000000000E+00  0.13334551647E+02  0.13334551647E+02  0.00000000000E+00 0.  1.
         21   -1    0    0  504  503 -0.00000000000E+00 -0.00000000000E+00 -0.41794377008E+03  0.41794377008E+03  0.00000000000E+00 0.  1.
         25    2    1    2    0    0  0.70514708675E+01 -0.14612438191E+02 -0.38840143896E+03  0.40834496814E+03  0.12500675433E+03 0.  0.
          5    1    3    3  501    0  0.42482292670E+02 -0.98398352481E+01 -0.36014580537E+03  0.36277621018E+03  0.10000000000E+00 0. -1.
         -5    1    3    3    0  501 -0.35430821802E+02 -0.47726029432E+01 -0.28255633589E+02  0.45568757959E+02  0.10000000000E+00 0. -1.
         21    1    1    2  504  502 -0.70514708675E+01  0.14612438191E+02 -0.16207779480E+02  0.22933353592E+02  0.00000000000E+00 0.  1.
<mgrwt>
<rscale>  1 0.12605529E+03</rscale>
<asrwt>0</asrwt>
<pdfrwt beam="1">  1       21 0.20514695E-02 0.12605529E+03</pdfrwt>
<pdfrwt beam="2">  1       21 0.64299042E-01 0.12605529E+03</pdfrwt>
<totfact> 0.26184411E+06</totfact>
</mgrwt>
</event>
<event>
 6    1  0.4424270E-002  0.1297325E+03  0.7546771E-02  0.1227853E+00
         21   -1    0    0  504  502  0.00000000000E+00  0.00000000000E+00  0.14563563392E+03  0.14563563392E+03  0.00000000000E+00 0. -1.
         21   -1    0    0  502  503 -0.00000000000E+00 -0.00000000000E+00 -0.92755610794E+02  0.92755610794E+02  0.00000000000E+00 0. -1.
         25    2    1    2    0    0  0.32512320068E+02  0.12163045507E+02 -0.42798865273E+02  0.13660990891E+03  0.12500213483E+03 0.  0.
          5    1    3    3  501    0 -0.23739493764E+02  0.26903815345E+02  0.27623248817E+02  0.45281704026E+02  0.10000000000E+00 0.  1.
         -5    1    3    3    0  501  0.56251813832E+02 -0.14740769838E+02 -0.70422114090E+02  0.91328204886E+02  0.10000000000E+00 0.  1.
         21    1    1    2  504  503 -0.32512320068E+02 -0.12163045507E+02  0.95678888395E+02  0.10178133580E+03  0.00000000000E+00 0. -1.
<mgrwt>
<rscale>  1 0.12973251E+03</rscale>
<asrwt>0</asrwt>
<pdfrwt beam="1">  1       21 0.22405482E-01 0.12973251E+03</pdfrwt>
<pdfrwt beam="2">  1       21 0.14270094E-01 0.12973251E+03</pdfrwt>
<totfact> 0.80356634E+05</totfact>
</mgrwt>
</event>
<event>
 6    1  0.4424270E-002  0.1303206E+03  0.7546771E-02  0.1226981E+00
         21   -1    0    0  504  502  0.00000000000E+00  0.00000000000E+00  0.11924760985E+03  0.11924760985E+03  0.00000000000E+00 0.  1.
         21   -1    0    0  502  503 -0.00000000000E+00 -0.00000000000E+00 -0.11959868871E+03  0.11959868871E+03  0.00000000000E+00 0.  1.
         25    2    1    2    0    0  0.31983088213E+02 -0.18296918662E+02 -0.78717554284E+02  0.15224953398E+03  0.12500308829E+03 0.  0.
          5    1    3    3  501    0  0.68771921469E+02 -0.45849657923E+02 -0.62066406977E+02  0.10336351963E+03  0.10000000000E+00 0.  1.
         -5    1    3    3    0  501 -0.36788833256E+02  0.27552739261E+02 -0.16651147307E+02  0.48886014358E+02  0.10000000000E+00 0.  1.
         21    1    1    2  504  503 -0.31983088213E+02  0.18296918662E+02  0.78366475429E+02  0.86596764578E+02  0.00000000000E+00 0.  1.
<mgrwt>
<rscale>  1 0.13032063E+03</rscale>
<asrwt>0</asrwt>
<pdfrwt beam="1">  1       21 0.18345786E-01 0.13032063E+03</pdfrwt>
<pdfrwt beam="2">  1       21 0.18399798E-01 0.13032063E+03</pdfrwt>
<totfact> 0.73363148E+05</totfact>
</mgrwt>
</event>
<event>
 6    1  0.4424270E-002  0.1603248E+03  0.7546771E-02  0.1188331E+00
         21   -1    0    0  503  502  0.00000000000E+00  0.00000000000E+00  0.12575955024E+04  0.12575955024E+04  0.00000000000E+00 0. -1.
         21   -1    0    0  504  503 -0.00000000000E+00 -0.00000000000E+00 -0.40880082797E+03  0.40880082797E+03  0.00000000000E+00 0.  1.
         25    2    1    2    0    0 -0.86728533788E+02  0.50562282270E+02 -0.39097425564E+03  0.42256942001E+03  0.12500265275E+03 0.  0.
          5    1    3    3  501    0 -0.89465498716E+02 -0.18310026762E+02 -0.21625013332E+03  0.23474126757E+03  0.10000000000E+00 0.  1.
         -5    1    3    3    0  501  0.27369649278E+01  0.68872309033E+02 -0.17472412232E+03  0.18782815244E+03  0.10000000000E+00 0.  1.
         21    1    1    2  504  502  0.86728533788E+02 -0.50562282270E+02  0.12397689300E+04  0.12438269103E+04  0.00000000000E+00 0. -1.
<mgrwt>
<rscale>  1 0.16032481E+03</rscale>
<asrwt>0</asrwt>
<pdfrwt beam="1">  1       21 0.19347623E+00 0.16032481E+03</pdfrwt>
<pdfrwt beam="2">  1       21 0.62892435E-01 0.16032481E+03</pdfrwt>
<totfact> 0.36204847E+02</totfact>
</mgrwt>
</event>
<event>
 6    1  0.4424270E-002  0.1268466E+03  0.7546771E-02  0.1232211E+00
         21   -1    0    0  504  502  0.00000000000E+00  0.00000000000E+00  0.15087407562E+03  0.15087407562E+03  0.00000000000E+00 0.  1.
         21   -1    0    0  502  503 -0.00000000000E+00 -0.00000000000E+00 -0.91739868332E+02  0.91739868332E+02  0.00000000000E+00 0.  1.
         25    2    1    2    0    0  0.10465073782E+02  0.18808445919E+02 -0.46279389933E+02  0.13502536702E+03  0.12500716939E+03 0.  0.
          5    1    3    3  501    0 -0.16129902745E+02  0.67998071510E+02 -0.34252567856E+02  0.77827757878E+02  0.10000000000E+00 0.  1.
         -5    1    3    3    0  501  0.26594976527E+02 -0.49189625591E+02 -0.12026822077E+02  0.57197609142E+02  0.10000000000E+00 0.  1.
         21    1    1    2  504  503 -0.10465073782E+02 -0.18808445919E+02  0.10541359722E+03  0.10758857693E+03  0.00000000000E+00 0.  1.
<mgrwt>
<rscale>  1 0.12684663E+03</rscale>
<asrwt>0</asrwt>
<pdfrwt beam="1">  1       21 0.23211396E-01 0.12684663E+03</pdfrwt>
<pdfrwt beam="2">  1       21 0.14113826E-01 0.12684663E+03</pdfrwt>
<totfact> 0.76707010E+05</totfact>
</mgrwt>
</event>
<event>
 6    1  0.4424270E-002  0.2102813E+03  0.7546771E-02  0.1141343E+00
         21   -1    0    0  503  502  0.00000000000E+00  0.00000000000E+00  0.31526909191E+03  0.31526909191E+03  0.00000000000E+00 0. -1.
         21   -1    0    0  504  503 -0.00000000000E+00 -0.00000000000E+00 -0.16750563503E+03  0.16750563503E+03  0.00000000000E+00 0.  1.
         25    2    1    2    0    0  0.13838701276E+03  0.97169077275E+02 -0.56366872179E+02  0.21770495099E+03  0.12500170610E+03 0.  0.
          5    1    3    3  501    0  0.55887468141E+02 -0.23852783796E+02 -0.33731529305E+02  0.69499571648E+02  0.10000000000E+00 0.  1.
         -5    1    3    3    0  501  0.82499544618E+02  0.12102186107E+03 -0.22635342874E+02  0.14820537934E+03  0.10000000000E+00 0.  1.
         21    1    1    2  504  502 -0.13838701276E+03 -0.97169077275E+02  0.20413032906E+03  0.26506977595E+03  0.00000000000E+00 0. -1.
<mgrwt>
<rscale>  1 0.21028129E+03</rscale>
<asrwt>0</asrwt>
<pdfrwt beam="1">  1       21 0.48502937E-01 0.21028129E+03</pdfrwt>
<pdfrwt beam="2">  1       21 0.25770098E-01 0.21028129E+03</pdfrwt>
<totfact> 0.57542870E+04</totfact>
</mgrwt>
</event>
<event>
 6    1  0.4424270E-002  0.1427334E+03  0.7546771E-02  0.1209698E+00
         21   -1    0    0  503  502  0.00000000000E+00  0.00000000000E+00  0.24973396086E+03  0.24973396086E+03  0.00000000000E+00 0.  1.
         21   -1    0    0  504  503 -0.00000000000E+00 -0.00000000000E+00 -0.51369112391E+02  0.51369112391E+02  0.00000000000E+00 0.  1.
         25    2    1    2    0    0 -0.60584074483E+02  0.32802340694E+02  0.78620230396E+02  0.16295388870E+03  0.12500562218E+03 0.  0.
          5    1    3    3  501    0  0.26662395388E+02  0.36241236215E+02  0.57700006233E+02  0.73168376020E+02  0.10000000000E+00 0. -1.
         -5    1    3    3    0  501 -0.87246469871E+02 -0.34388955207E+01  0.20920224164E+02  0.89785512675E+02  0.10000000000E+00 0. -1.
         21    1    1    2  504  502  0.60584074483E+02 -0.32802340694E+02  0.11974461807E+03  0.13814918456E+03  0.00000000000E+00 0.  1.
<mgrwt>
<rscale>  1 0.14273342E+03</rscale>
<asrwt>0</asrwt>
<pdfrwt beam="1">  1       21 0.38420609E-01 0.14273342E+03</pdfrwt>
<pdfrwt beam="2">  1       21 0.79029405E-02 0.14273342E+03</pdfrwt>
<totfact> 0.80371451E+05</totfact>
</mgrwt>
</event>
<event>
 6    1  0.4424270E-002  0.1493223E+03  0.7546771E-02  0.1201308E+00
         21   -1    0    0  504  502  0.00000000000E+00  0.00000000000E+00  0.27124729603E+03  0.27124729603E+03  0.00000000000E+00 0. -1.
         21   -1    0    0  502  503 -0.00000000000E+00 -0.00000000000E+00 -0.26046178920E+03  0.26046178920E+03  0.00000000000E+00 0.  1.
         25    2    1    2    0    0  0.69625746392E+02 -0.42701588733E+02 -0.23180562006E+03  0.27573716276E+03  0.12500386873E+03 0.  0.
          5    1    3    3  501    0  0.85275479317E+02  0.97248793210E+01 -0.18419403496E+03  0.20320908731E+03  0.10000000000E+00 0. -1.
         -5    1    3    3    0  501 -0.15649732924E+02 -0.52426468054E+02 -0.47611585099E+02  0.72528075452E+02  0.10000000000E+00 0. -1.
         21    1    1    2  504  503 -0.69625746392E+02  0.42701588733E+02  0.24259112689E+03  0.25597192246E+03  0.00000000000E+00 0. -1.
<mgrwt>
<rscale>  1 0.14932226E+03</rscale>
<asrwt>0</asrwt>
<pdfrwt beam="1">  1       21 0.41730353E-01 0.14932226E+03</pdfrwt>
<pdfrwt beam="2">  1       21 0.40071044E-01 0.14932226E+03</pdfrwt>
<totfact> 0.33975366E+04</totfact>
</mgrwt>
</event>
<event>
 6    1  0.4424270E-002  0.1272680E+03  0.7546771E-02  0.1231567E+00
         21   -1    0    0  504  502  0.00000000000E+00  0.00000000000E+00  0.44885489686E+02  0.44885489686E+02  0.00000000000E+00 0.  1.
         21   -1    0    0  502  503 -0.00000000000E+00 -0.00000000000E+00 -0.18010608212E+03  0.18010608212E+03  0.00000000000E+00 0.  1.
         25    2    1    2    0    0 -0.19704219294E+02  0.13478196262E+02 -0.15015346574E+03  0.19683293658E+03  0.12500889416E+03 0.  0.
          5    1    3    3  501    0 -0.36433973854E+02 -0.34169509348E+02 -0.13525193015E+03  0.14418073529E+03  0.10000000000E+00 0.  1.
         -5    1    3    3    0  501  0.16729754561E+02  0.47647705611E+02 -0.14901535583E+02  0.52652201287E+02  0.10000000000E+00 0.  1.
         21    1    1    2  504  503  0.19704219294E+02 -0.13478196262E+02  0.14932873304E+02  0.28158635222E+02  0.00000000000E+00 0.  1.
<mgrwt>
<rscale>  1 0.12726799E+03</rscale>
<asrwt>0</asrwt>
<pdfrwt beam="1">  1       21 0.69054599E-02 0.12726799E+03</pdfrwt>
<pdfrwt beam="2">  1       21 0.27708628E-01 0.12726799E+03</pdfrwt>
<totfact> 0.19146191E+06</totfact>
</mgrwt>
</event>
<event>
 6    1  0.4424270E-002  0.1665545E+03  0.7546771E-02  0.1181489E+00
         21   -1    0    0  503  502  0.00000000000E+00  0.00000000000E+00  0.54194409292E+03  0.54194409292E+03  0.00000000000E+00 0.  1.
         21   -1    0    0  504  503 -0.00000000000E+00 -0.00000000000E+00 -0.10100851163E+04  0.10100851163E+04  0.00000000000E+00 0.  1.
         25    2    1    2    0    0  0.29371977439E+02  0.10607916891E+03 -0.99751953264E+03  0.10113286367E+04  0.12499956075E+03 0.  0.
          5    1    3    3  501    0 -0.45841118866E+02  0.56857441582E+02 -0.34491973024E+03  0.35256745050E+03  0.10000000000E+00 0. -1.
         -5    1    3    3    0  501  0.75213096305E+02  0.49221727332E+02 -0.65259980239E+03  0.65876118615E+03  0.10000000000E+00 0. -1.
         21    1    1    2  504  502 -0.29371977439E+02 -0.10607916891E+03  0.52937850924E+03  0.54070057258E+03  0.00000000000E+00 0.  1.
<mgrwt>
<rscale>  1 0.16655448E+03</rscale>
<asrwt>0</asrwt>
<pdfrwt beam="1">  1       21 0.83376016E-01 0.16655448E+03</pdfrwt>
<pdfrwt beam="2">  1       21 0.15539771E+00 0.16655448E+03</pdfrwt>
<totfact> 0.35247097E+02</totfact>
</mgrwt>
</event>
<event>
 6    1  0.4424270E-002  0.1433870E+03  0.7546771E-02  0.1208843E+00
         21   -1    0    0  503  502  0.00000000000E+00  0.00000000000E+00  0.56875539093E+02  0.56875539093E+02  0.00000000000E+00 0.  1.
         21   -1    0    0  504  503 -0.00000000000E+00 -0.00000000000E+00 -0.20063932854E+03  0.20063932854E+03  0.00000000000E+00 0.  1.
         25    2    1    2    0    0 -0.66005605752E+02  0.24034006265E+02 -0.98008702417E+02  0.17368228782E+03  0.12500183161E+03 0.  0.
          5    1    3    3  501    0 -0.91021214336E+02  0.37530690733E+02 -0.34882887578E+02  0.10445209453E+03  0.10000000000E+00 0.  1.
         -5    1    3    3    0  501  0.25015608584E+02 -0.13496684468E+02 -0.63125814838E+02  0.69230193294E+02  0.10000000000E+00 0.  1.
         21    1    1    2  504  502  0.66005605752E+02 -0.24034006265E+02 -0.45755087026E+02  0.83832579804E+02  0.00000000000E+00 0.  1.
<mgrwt>
<rscale>  1 0.14338700E+03</rscale>
<asrwt>0</asrwt>
<pdfrwt beam="1">  1       21 0.87500830E-02 0.14338700E+03</pdfrwt>
<pdfrwt beam="2">  1       21 0.30867589E-01 0.14338700E+03</pdfrwt>
<totfact> 0.10360817E+06</totfact>
</mgrwt>
</event>
<event>
 6    1  0.4424270E-002  0.1484723E+03  0.7546771E-02  0.1202363E+00
         21   -1    0    0  503  502  0.00000000000E+00  0.00000000000E+00  0.46574619729E+03  0.46574619729E+03  0.00000000000E+00 0.  1.
         21   -1    0    0  504  503 -0.00000000000E+00 -0.00000000000E+00 -0.28407307152E+02  0.28407307152E+02  0.00000000000E+00 0.  1.
         25    2    1    2    0    0  0.33531013579E+01  0.80050193204E+02  0.30972936760E+03  0.34347680763E+03  0.12499903801E+03 0.  0.
          5    1    3    3  501    0  0.22598218363E+02  0.35094100288E+02  0.14443528341E+02  0.44169003375E+02  0.10000000000E+00 0.  1.
         -5    1    3    3    0  501 -0.19245117005E+02  0.44956092917E+02  0.29528583926E+03  0.29930780425E+03  0.10000000000E+00 0.  1.
         21    1    1    2  504  502 -0.33531013579E+01 -0.80050193204E+02  0.12760952254E+03  0.15067669681E+03  0.00000000000E+00 0.  1.
<mgrwt>
<rscale>  1 0.14847234E+03</rscale>
<asrwt>0</asrwt>
<pdfrwt beam="1">  1       21 0.71653255E-01 0.14847234E+03</pdfrwt>
<pdfrwt beam="2">  1       21 0.43703553E-02 0.14847234E+03</pdfrwt>
<totfact> 0.59813227E+05</totfact>
</mgrwt>
</event>
<event>
 6    1  0.4424270E-002  0.1276678E+03  0.7546771E-02  0.1230958E+00
         21   -1    0    0  504  502  0.00000000000E+00  0.00000000000E+00  0.51451389675E+03  0.51451389675E+03  0.00000000000E+00 0. -1.
         21   -1    0    0  502  503 -0.00000000000E+00 -0.00000000000E+00 -0.11888720751E+02  0.11888720751E+02  0.00000000000E+00 0. -1.
         25    2    1    2    0    0  0.21329724786E+02  0.14798539011E+02  0.37418168773E+03  0.39536184677E+03  0.12500040212E+03 0.  0.
          5    1    3    3  501    0 -0.48073011970E+02  0.18374223134E+02  0.99456363835E+02  0.11198305614E+03  0.10000000000E+00 0.  1.
         -5    1    3    3    0  501  0.69402736756E+02 -0.35756841229E+01  0.27472532390E+03  0.28337879063E+03  0.10000000000E+00 0.  1.
         21    1    1    2  504  503 -0.21329724786E+02 -0.14798539011E+02  0.12844348826E+03  0.13104077073E+03  0.00000000000E+00 0. -1.
<mgrwt>
<rscale>  1 0.12766775E+03</rscale>
<asrwt>0</asrwt>
<pdfrwt beam="1">  1       21 0.79155967E-01 0.12766775E+03</pdfrwt>
<pdfrwt beam="2">  1       21 0.18290344E-02 0.12766775E+03</pdfrwt>
<totfact> 0.19999433E+06</totfact>
</mgrwt>
</event>
<event>
 6    1  0.4424270E-002  0.1332128E+03  0.7546771E-02  0.1222765E+00
         21   -1    0    0  504  502  0.00000000000E+00  0.00000000000E+00  0.41576288965E+03  0.41576288965E+03  0.00000000000E+00 0. -1.
         21   -1    0    0  502  503 -0.00000000000E+00 -0.00000000000E+00 -0.85139896144E+02  0.85139896144E+02  0.00000000000E+00 0. -1.
         25    2    1    2    0    0  0.14641286280E+02 -0.43664039426E+02 -0.30660618786E+02  0.13669575111E+03  0.12499895689E+03 0.  0.
          5    1    3    3  501    0  0.41855584223E+02  0.14389190041E+02 -0.52771119705E+02  0.68874812491E+02  0.10000000000E+00 0. -1.
         -5    1    3    3    0  501 -0.27214297943E+02 -0.58053229468E+02  0.22110500919E+02  0.67820938618E+02  0.10000000000E+00 0. -1.
         21    1    1    2  504  503 -0.14641286280E+02  0.43664039426E+02  0.36128361229E+03  0.36420703469E+03  0.00000000000E+00 0. -1.
<mgrwt>
<rscale>  1 0.13321282E+03</rscale>
<asrwt>0</asrwt>
<pdfrwt beam="1">  1       21 0.63963520E-01 0.13321282E+03</pdfrwt>
<pdfrwt beam="2">  1       21 0.13098446E-01 0.13321282E+03</pdfrwt>
<totfact> 0.11570500E+05</totfact>
</mgrwt>
</event>
<event>
 6    1  0.4424270E-002  0.1269842E+03  0.7546771E-02  0.1232001E+00
         21   -1    0    0  503  502  0.00000000000E+00  0.00000000000E+00  0.35915984019E+03  0.35915984019E+03  0.00000000000E+00 0.  1.
         21   -1    0    0  504  503 -0.00000000000E+00 -0.00000000000E+00 -0.65102672246E+02  0.65102672246E+02  0.00000000000E+00 0.  1.
         25    2    1    2    0    0  0.12492565042E+01  0.22324914779E+02 -0.23571275356E+01  0.12700606250E+03  0.12500008560E+03 0.  0.
          5    1    3    3  501    0  0.21430028746E+02  0.17186937275E+02  0.57448367936E+02  0.63678582926E+02  0.10000000000E+00 0.  1.
         -5    1    3    3    0  501 -0.20180772242E+02  0.51379775040E+01 -0.59805495471E+02  0.63327479578E+02  0.10000000000E+00 0.  1.
         21    1    1    2  504  502 -0.12492565042E+01 -0.22324914779E+02  0.29641429548E+03  0.29725644993E+03  0.00000000000E+00 0.  1.
<mgrwt>
<rscale>  1 0.12698419E+03</rscale>
<asrwt>0</asrwt>
<pdfrwt beam="1">  1       21 0.55255359E-01 0.12698419E+03</pdfrwt>
<pdfrwt beam="2">  1       21 0.10015796E-01 0.12698419E+03</pdfrwt>
<totfact> 0.25398374E+05</totfact>
</mgrwt>
</event>
<event>
 6    1  0.4424270E-002  0.1262661E+03  0.7546771E-02  0.1233104E+00
         21   -1    0    0  503  502  0.00000000000E+00  0.00000000000E+00  0.26408614555E+03  0.26408614555E+03  0.00000000000E+00 0. -1.
         21   -1    0    0  504  503 -0.00000000000E+00 -0.00000000000E+00 -0.22544187569E+02  0.22544187569E+02  0.00000000000E+00 0. -1.
         25    2    1    2    0    0 -0.19070186841E+01 -0.17318048345E+02  0.16302982180E+03  0.20620827739E+03  0.12505830381E+03 0.  0.
          5    1    3    3  501    0 -0.61347299201E+02 -0.93533283619E+01  0.56330364409E+02  0.83809879043E+02  0.10000000000E+00 0.  1.
         -5    1    3    3    0  501  0.59440280517E+02 -0.79647199836E+01  0.10669945739E+03  0.12239839835E+03  0.10000000000E+00 0.  1.
         21    1    1    2  504  502  0.19070186841E+01  0.17318048345E+02  0.78512136184E+02  0.80422055724E+02  0.00000000000E+00 0. -1.
<mgrwt>
<rscale>  1 0.12626611E+03</rscale>
<asrwt>0</asrwt>
<pdfrwt beam="1">  1       21 0.40628636E-01 0.12626611E+03</pdfrwt>
<pdfrwt beam="2">  1       21 0.34683367E-02 0.12626611E+03</pdfrwt>
<totfact> 0.28764947E+06</totfact>
</mgrwt>
</event>
<event>
 6    1  0.4424270E-002  0.2303740E+03  0.7546771E-02  0.1126377E+00
         21   -1    0    0  504  502  0.00000000000E+00  0.00000000000E+00  0.10994984305E+04  0.10994984305E+04  0.00000000000E+00 0. -1.
         21   -1    0    0  502  503 -0.00000000000E+00 -0.00000000000E+00 -0.42791164700E+02  0.42791164700E+02  0.00000000000E+00 0. -1.
         25    2    1    2    0    0 -0.18694887682E+03 -0.49975479948E+02  0.45117281444E+03  0.50658573103E+03  0.12499905300E+03 0.  0.
          5    1    3    3  501    0 -0.15160828799E+03 -0.88440929268E+02  0.37711073174E+03  0.41595598920E+03  0.10000000000E+00 0. -1.
         -5    1    3    3    0  501 -0.35340588823E+02  0.38465449319E+02  0.74062082698E+02  0.90629741825E+02  0.10000000000E+00 0. -1.
         21    1    1    2  504  503  0.18694887682E+03  0.49975479948E+02  0.60553445132E+03  0.63570386413E+03  0.00000000000E+00 0. -1.
<mgrwt>
<rscale>  1 0.23037403E+03</rscale>
<asrwt>0</asrwt>
<pdfrwt beam="1">  1       21 0.16915358E+00 0.23037403E+03</pdfrwt>
<pdfrwt beam="2">  1       21 0.65832569E-02 0.23037403E+03</pdfrwt>
<totfact> 0.35554336E+04</totfact>
</mgrwt>
</event>
<event>
 6    1  0.4424270E-002  0.1263375E+03  0.7546771E-02  0.1232994E+00
         21   -1    0    0  504  502  0.00000000000E+00  0.00000000000E+00  0.14682758785E+03  0.14682758785E+03  0.00000000000E+00 0. -1.
         21   -1    0    0  502  503 -0.00000000000E+00 -0.00000000000E+00 -0.40001878982E+02  0.40001878982E+02  0.00000000000E+00 0. -1.
         25    2    1    2    0    0 -0.11538019746E+02 -0.13909683331E+02  0.66794443864E+02  0.14290786204E+03  0.12503821060E+03 0.  0.
          5    1    3    3  501    0 -0.27342994495E+01  0.54746258048E+02  0.43156644509E+02  0.69764855973E+02  0.10000000000E+00 0.  1.
         -5    1    3    3    0  501 -0.88037202965E+01 -0.68655941378E+02  0.23637799356E+02  0.73143006064E+02  0.10000000000E+00 0.  1.
         21    1    1    2  504  503  0.11538019746E+02  0.13909683331E+02  0.40031265003E+02  0.43921604795E+02  0.00000000000E+00 0. -1.
<mgrwt>
<rscale>  1 0.12633748E+03</rscale>
<asrwt>0</asrwt>
<pdfrwt beam="1">  1       21 0.22588859E-01 0.12633748E+03</pdfrwt>
<pdfrwt beam="2">  1       21 0.61541353E-02 0.12633748E+03</pdfrwt>
<totfact> 0.34260573E+06</totfact>
</mgrwt>
</event>
<event>
 6    1  0.4424270E-002  0.1305117E+03  0.7546771E-02  0.1226698E+00
         21   -1    0    0  503  502  0.00000000000E+00  0.00000000000E+00  0.12049111662E+02  0.12049111662E+02  0.00000000000E+00 0. -1.
         21   -1    0    0  504  503 -0.00000000000E+00 -0.00000000000E+00 -0.65914026101E+03  0.65914026101E+03  0.00000000000E+00 0. -1.
         25    2    1    2    0    0 -0.24635333498E+02  0.28323492749E+02 -0.57807912369E+03  0.59262869814E+03  0.12499672281E+03 0.  0.
          5    1    3    3  501    0  0.23465301684E+02  0.23355563030E+02 -0.38043279014E+02  0.50432170147E+02  0.10000000000E+00 0. -1.
         -5    1    3    3    0  501 -0.48100635182E+02  0.49679297189E+01 -0.54003584467E+03  0.54219652799E+03  0.10000000000E+00 0. -1.
         21    1    1    2  504  502  0.24635333498E+02 -0.28323492749E+02 -0.69012025661E+02  0.78560674538E+02  0.00000000000E+00 0. -1.
<mgrwt>
<rscale>  1 0.13051169E+03</rscale>
<asrwt>0</asrwt>
<pdfrwt beam="1">  1       21 0.18537094E-02 0.13051169E+03</pdfrwt>
<pdfrwt beam="2">  1       21 0.10140620E+00 0.13051169E+03</pdfrwt>
<totfact> 0.11112394E+06</totfact>
</mgrwt>
</event>
<event>
 6    1  0.4424270E-002  0.1322432E+03  0.7546771E-02  0.1224165E+00
         21   -1    0    0  504  502  0.00000000000E+00  0.00000000000E+00  0.75634906720E+02  0.75634906720E+02  0.00000000000E+00 0. -1.
         21   -1    0    0  502  503 -0.00000000000E+00 -0.00000000000E+00 -0.17940159346E+03  0.17940159346E+03  0.00000000000E+00 0. -1.
         25    2    1    2    0    0 -0.38244167248E+02 -0.19984351782E+02 -0.14437214132E+03  0.19578455012E+03  0.12500513682E+03 0.  0.
          5    1    3    3  501    0 -0.73493333900E+02 -0.47801992663E+01 -0.38368264158E+02  0.83043688064E+02  0.10000000000E+00 0. -1.
         -5    1    3    3    0  501  0.35249166652E+02 -0.15204152516E+02 -0.10600387717E+03  0.11274086206E+03  0.10000000000E+00 0. -1.
         21    1    1    2  504  503  0.38244167248E+02  0.19984351782E+02  0.40605454580E+02  0.59251950063E+02  0.00000000000E+00 0. -1.
<mgrwt>
<rscale>  1 0.13224324E+03</rscale>
<asrwt>0</asrwt>
<pdfrwt beam="1">  1       21 0.11636140E-01 0.13224324E+03</pdfrwt>
<pdfrwt beam="2">  1       21 0.27600245E-01 0.13224324E+03</pdfrwt>
<totfact> 0.77954292E+05</totfact>
</mgrwt>
</event>
<event>
 6    1  0.4424270E-002  0.1769633E+03  0.7546771E-02  0.1170775E+00
         21   -1    0    0  504  502  0.00000000000E+00  0.00000000000E+00  0.60988668378E+03  0.60988668378E+03  0.00000000000E+00 0.  1.
         21   -1    0    0  502  503 -0.00000000000E+00 -0.00000000000E+00 -0.13470107908E+03  0.13470107908E+03  0.00000000000E+00 0. -1.
         25    2    1    2    0    0  0.98182726374E+02  0.77789451661E+02 -0.66169176258E+02  0.18892955369E+03  0.12499987929E+03 0.  0.
          5    1    3    3  501    0  0.11942401687E+03  0.77931931590E+02 -0.80069276600E+02  0.16354381927E+03  0.10000000000E+00 0.  1.
         -5    1    3    3    0  501 -0.21241290497E+02 -0.14247992873E+00  0.13900100341E+02  0.25385734419E+02  0.10000000000E+00 0.  1.
         21    1    1    2  504  503 -0.98182726374E+02 -0.77789451661E+02  0.54135478096E+03  0.55565820917E+03  0.00000000000E+00 0.  1.
<mgrwt>
<rscale>  1 0.17696332E+03</rscale>
<asrwt>0</asrwt>
<pdfrwt beam="1">  1       21 0.93828719E-01 0.17696332E+03</pdfrwt>
<pdfrwt beam="2">  1       21 0.20723243E-01 0.17696332E+03</pdfrwt>
<totfact> 0.20795895E+04</totfact>
</mgrwt>
</event>
<event>
 6    1  0.4424270E-002  0.1282140E+03  0.7546771E-02  0.1230130E+00
         21   -1    0    0  504  502  0.00000000000E+00  0.00000000000E+00  0.85829245144E+02  0.85829245144E+02  0.00000000000E+00 0.  1.
         21   -1    0    0  502  503 -0.00000000000E+00 -0.00000000000E+00 -0.10579645543E+04  0.10579645543E+04  0.00000000000E+00 0.  1.
         25    2    1    2    0    0 -0.24262212221E+02  0.14982071085E+02 -0.10515899176E+04  0.10593772596E+04  0.12500282420E+03 0.  0.
          5    1    3    3  501    0  0.38314991181E+01  0.15426576929E+02 -0.10038991926E+04  0.10040250289E+04  0.10000000000E+00 0.  1.
         -5    1    3    3    0  501 -0.28093711339E+02 -0.44450584322E+00 -0.47690724981E+02  0.55352230772E+02  0.10000000000E+00 0.  1.
         21    1    1    2  504  503  0.24262212221E+02 -0.14982071085E+02  0.79454608422E+02  0.84416539821E+02  0.00000000000E+00 0.  1.
<mgrwt>
<rscale>  1 0.12821398E+03</rscale>
<asrwt>0</asrwt>
<pdfrwt beam="1">  1       21 0.13204500E-01 0.12821398E+03</pdfrwt>
<pdfrwt beam="2">  1       21 0.16276377E+00 0.12821398E+03</pdfrwt>
<totfact> 0.12540183E+04</totfact>
</mgrwt>
</event>
<event>
 6    1  0.4424270E-002  0.1319915E+03  0.7546771E-02  0.1224530E+00
         21   -1    0    0  504  502  0.00000000000E+00  0.00000000000E+00  0.41712527500E+02  0.41712527500E+02  0.00000000000E+00 0.  1.
         21   -1    0    0  502  503 -0.00000000000E+00 -0.00000000000E+00 -0.21894153471E+03  0.21894153471E+03  0.00000000000E+00 0.  1.
         25    2    1    2    0    0 -0.18116647958E+02 -0.38329941180E+02 -0.17363331552E+03  0.21810613250E+03  0.12499743777E+03 0.  0.
          5    1    3    3  501    0 -0.71550533238E+02 -0.24999530446E+02 -0.86281406781E+02  0.11484313861E+03  0.10000000000E+00 0. -1.
         -5    1    3    3    0  501  0.53433885280E+02 -0.13330410734E+02 -0.87351908744E+02  0.10326299389E+03  0.10000000000E+00 0. -1.
         21    1    1    2  504  503  0.18116647958E+02  0.38329941180E+02 -0.35956916871E+01  0.42547929713E+02  0.00000000000E+00 0.  1.
<mgrwt>
<rscale>  1 0.13199150E+03</rscale>
<asrwt>0</asrwt>
<pdfrwt beam="1">  1       21 0.64173121E-02 0.13199150E+03</pdfrwt>
<pdfrwt beam="2">  1       21 0.33683312E-01 0.13199150E+03</pdfrwt>
<totfact> 0.14887158E+06</totfact>
</mgrwt>
</event>
<event>
 6    1  0.4424270E-002  0.1418313E+03  0.7546771E-02  0.1210886E+00
         21   -1    0    0  504  502  0.00000000000E+00  0.00000000000E+00  0.63914433939E+03  0.63914433939E+03  0.00000000000E+00 0. -1.
         21   -1    0    0  502  503 -0.00000000000E+00 -0.00000000000E+00 -0.17900231692E+02  0.17900231692E+02  0.00000000000E+00 0. -1.
         25    2    1    2    0    0 -0.12980785471E+02 -0.65746194594E+02  0.48333297645E+03  0.50371309024E+03  0.12500019305E+03 0.  0.
          5    1    3    3  501    0  0.44585574342E+02 -0.15230066321E+01  0.83357726892E+02  0.94544770459E+02  0.10000000000E+00 0. -1.
         -5    1    3    3    0  501 -0.57566359813E+02 -0.64223187962E+02  0.39997524955E+03  0.40916831978E+03  0.10000000000E+00 0. -1.
         21    1    1    2  504  503  0.12980785471E+02  0.65746194594E+02  0.13791113125E+03  0.15333148085E+03  0.00000000000E+00 0. -1.
<mgrwt>
<rscale>  1 0.14183128E+03</rscale>
<asrwt>0</asrwt>
<pdfrwt beam="1">  1       21 0.98329881E-01 0.14183128E+03</pdfrwt>
<pdfrwt beam="2">  1       21 0.27538823E-02 0.14183128E+03</pdfrwt>
<totfact> 0.62781711E+05</totfact>
</mgrwt>
</event>
<event>
 6    1  0.4424270E-002  0.1332498E+03  0.7546771E-02  0.1222712E+00
         21   -1    0    0  503  502  0.00000000000E+00  0.00000000000E+00  0.10530607021E+04  0.10530607021E+04  0.00000000000E+00 0.  1.
         21   -1    0    0  504  503 -0.00000000000E+00 -0.00000000000E+00 -0.21953661246E+02  0.21953661246E+02  0.00000000000E+00 0.  1.
         25    2    1    2    0    0 -0.10174932676E+02 -0.45080569947E+02  0.18686440670E+03  0.22950776233E+03  0.12497887596E+03 0.  0.
          5    1    3    3  501    0 -0.11176515842E+02 -0.64583447357E+02  0.19692049737E+03  0.20754187159E+03  0.10000000000E+00 0. -1.
         -5    1    3    3    0  501  0.10015831665E+01  0.19502877410E+02 -0.10056090674E+02  0.21965890734E+02  0.10000000000E+00 0. -1.
         21    1    1    2  504  502  0.10174932676E+02  0.45080569947E+02  0.84424263415E+03  0.84550660101E+03  0.00000000000E+00 0.  1.
<mgrwt>
<rscale>  1 0.13324979E+03</rscale>
<asrwt>0</asrwt>
<pdfrwt beam="1">  1       21 0.16200930E+00 0.13324979E+03</pdfrwt>
<pdfrwt beam="2">  1       21 0.33774872E-02 0.13324979E+03</pdfrwt>
<totfact> 0.13017705E+05</totfact>
</mgrwt>
</event>
<event>
 6    1  0.4424270E-002  0.1275441E+03  0.7546771E-02  0.1231146E+00
         21   -1    0    0  504  502  0.00000000000E+00  0.00000000000E+00  0.44183049003E+02  0.44183049003E+02  0.00000000000E+00 0. -1.
         21   -1    0    0  502  503 -0.00000000000E+00 -0.00000000000E+00 -0.17092073796E+03  0.17092073796E+03  0.00000000000E+00 0. -1.
         25    2    1    2    0    0 -0.12113611643E+02  0.22209883887E+02 -0.13755726348E+03  0.18758866889E+03  0.12500995733E+03 0.  0.
          5    1    3    3  501    0  0.30378215567E+02  0.39568511539E+02 -0.84899138152E+01  0.50602289701E+02  0.10000000000E+00 0.  1.
         -5    1    3    3    0  501 -0.42491827210E+02 -0.17358627651E+02 -0.12906734967E+03  0.13698637919E+03  0.10000000000E+00 0.  1.
         21    1    1    2  504  503  0.12113611643E+02 -0.22209883887E+02  0.10819574528E+02  0.27515118068E+02  0.00000000000E+00 0. -1.
<mgrwt>
<rscale>  1 0.12754414E+03</rscale>
<asrwt>0</asrwt>
<pdfrwt beam="1">  1       21 0.67973922E-02 0.12754414E+03</pdfrwt>
<pdfrwt beam="2">  1       21 0.26295498E-01 0.12754414E+03</pdfrwt>
<totfact> 0.21732762E+06</totfact>
</mgrwt>
</event>
<event>
 6    1  0.4424270E-002  0.1263857E+03  0.7546771E-02  0.1232920E+00
         21   -1    0    0  504  502  0.00000000000E+00  0.00000000000E+00  0.23150667017E+02  0.23150667017E+02  0.00000000000E+00 0.  1.
         21   -1    0    0  502  503 -0.00000000000E+00 -0.00000000000E+00 -0.22757859501E+03  0.22757859501E+03  0.00000000000E+00 0.  1.
         25    2    1    2    0    0  0.15185771664E+01 -0.18629478531E+02 -0.18100559667E+03  0.22076312862E+03  0.12499587747E+03 0.  0.
          5    1    3    3  501    0 -0.55842634327E+02 -0.47030717565E+01 -0.42912555541E+02  0.70583398300E+02  0.10000000000E+00 0.  1.
         -5    1    3    3    0  501  0.57361211493E+02 -0.13926406774E+02 -0.13809304113E+03  0.15017973032E+03  0.10000000000E+00 0.  1.
         21    1    1    2  504  503 -0.15185771664E+01  0.18629478531E+02 -0.23422331321E+02  0.29966133408E+02  0.00000000000E+00 0.  1.
<mgrwt>
<rscale>  1 0.12638565E+03</rscale>
<asrwt>0</asrwt>
<pdfrwt beam="1">  1       21 0.35616411E-02 0.12638565E+03</pdfrwt>
<pdfrwt beam="2">  1       21 0.35012091E-01 0.12638565E+03</pdfrwt>
<totfact> 0.36976309E+06</totfact>
</mgrwt>
</event>
<event>
 6    1  0.4424270E-002  0.1759500E+03  0.7546771E-02  0.1171781E+00
         21   -1    0    0  504  502  0.00000000000E+00  0.00000000000E+00  0.22911676125E+03  0.22911676125E+03  0.00000000000E+00 0.  1.
         21   -1    0    0  502  503 -0.00000000000E+00 -0.00000000000E+00 -0.98710503972E+02  0.98710503972E+02  0.00000000000E+00 0.  1.
         25    2    1    2    0    0  0.12631157430E+02 -0.12318431488E+03  0.89576173437E+02  0.19743931594E+03  0.12499788423E+03 0.  0.
          5    1    3    3  501    0  0.68886225751E+02 -0.71273429012E+02  0.56057467181E+02  0.11387564888E+03  0.10000000000E+00 0. -1.
         -5    1    3    3    0  501 -0.56255068321E+02 -0.51910885872E+02  0.33518706256E+02  0.83563667062E+02  0.10000000000E+00 0. -1.
         21    1    1    2  504  503 -0.12631157430E+02  0.12318431488E+03  0.40830083846E+02  0.13038794928E+03  0.00000000000E+00 0.  1.
<mgrwt>
<rscale>  1 0.17594997E+03</rscale>
<asrwt>0</asrwt>
<pdfrwt beam="1">  1       21 0.35248732E-01 0.17594997E+03</pdfrwt>
<pdfrwt beam="2">  1       21 0.15186231E-01 0.17594997E+03</pdfrwt>
<totfact> 0.29877975E+05</totfact>
</mgrwt>
</event>
<event>
 6    1  0.4424270E-002  0.1401879E+03  0.7546771E-02  0.1213076E+00
         21   -1    0    0  504  502  0.00000000000E+00  0.00000000000E+00  0.71563540126E+02  0.71563540126E+02  0.00000000000E+00 0.  1.
         21   -1    0    0  502  503 -0.00000000000E+00 -0.00000000000E+00 -0.34358159721E+03  0.34358159721E+03  0.00000000000E+00 0. -1.
         25    2    1    2    0    0 -0.36681838524E+02 -0.51795141482E+02 -0.31066872324E+03  0.34083384645E+03  0.12499744530E+03 0.  0.
          5    1    3    3  501    0 -0.70047586248E+01 -0.85170846821E+02 -0.25796333596E+03  0.27175031277E+03  0.10000000000E+00 0.  1.
         -5    1    3    3    0  501 -0.29677079899E+02  0.33375705338E+02 -0.52705387280E+02  0.69083533685E+02  0.10000000000E+00 0.  1.
         21    1    1    2  504  503  0.36681838524E+02  0.51795141482E+02  0.38650666152E+02  0.74311290883E+02  0.00000000000E+00 0.  1.
<mgrwt>
<rscale>  1 0.14018793E+03</rscale>
<asrwt>0</asrwt>
<pdfrwt beam="1">  1       21 0.11009776E-01 0.14018793E+03</pdfrwt>
<pdfrwt beam="2">  1       21 0.52858706E-01 0.14018793E+03</pdfrwt>
<totfact> 0.23525130E+05</totfact>
</mgrwt>
</event>
<event>
 6    1  0.4424270E-002  0.1259772E+03  0.7546771E-02  0.1233550E+00
         21   -1    0    0  503  502  0.00000000000E+00  0.00000000000E+00  0.23722377554E+03  0.23722377554E+03  0.00000000000E+00 0.  1.
         21   -1    0    0  504  503 -0.00000000000E+00 -0.00000000000E+00 -0.23291264248E+02  0.23291264248E+02  0.00000000000E+00 0.  1.
         25    2    1    2    0    0 -0.12368202652E+02 -0.97975422926E+01  0.15622934007E+03  0.20069346975E+03  0.12498519045E+03 0.  0.
          5    1    3    3  501    0 -0.18284872794E+02  0.48855489981E+02  0.27189806556E+02  0.58825938623E+02  0.10000000000E+00 0.  1.
         -5    1    3    3    0  501  0.59166701420E+01 -0.58653032273E+02  0.12903953351E+03  0.14186753113E+03  0.10000000000E+00 0.  1.
         21    1    1    2  504  502  0.12368202652E+02  0.97975422926E+01  0.57703171226E+02  0.59821570034E+02  0.00000000000E+00 0.  1.
<mgrwt>
<rscale>  1 0.12597723E+03</rscale>
<asrwt>0</asrwt>
<pdfrwt beam="1">  1       21 0.36495964E-01 0.12597723E+03</pdfrwt>
<pdfrwt beam="2">  1       21 0.35832716E-02 0.12597723E+03</pdfrwt>
<totfact> 0.33731977E+06</totfact>
</mgrwt>
</event>
<event>
 6    1  0.4424270E-002  0.1299817E+03  0.7546771E-02  0.1227483E+00
         21   -1    0    0  503  502  0.00000000000E+00  0.00000000000E+00  0.67938993608E+01  0.67938993608E+01  0.00000000000E+00 0.  1.
         21   -1    0    0  504  503 -0.00000000000E+00 -0.00000000000E+00 -0.12229672171E+04  0.12229672171E+04  0.00000000000E+00 0.  1.
         25    2    1    2    0    0 -0.18221616408E+02 -0.30617721280E+02 -0.11139208676E+04  0.11214789124E+04  0.12500311785E+03 0.  0.
          5    1    3    3  501    0  0.65394412911E+01 -0.17888307662E+02 -0.10651525123E+04  0.10653227869E+04  0.10000000000E+00 0. -1.
         -5    1    3    3    0  501 -0.24761057699E+02 -0.12729413618E+02 -0.48768355312E+02  0.56156125483E+02  0.10000000000E+00 0. -1.
         21    1    1    2  504  502  0.18221616408E+02  0.30617721280E+02 -0.10225245008E+03  0.10828220402E+03  0.00000000000E+00 0.  1.
<mgrwt>
<rscale>  1 0.12998174E+03</rscale>
<asrwt>0</asrwt>
<pdfrwt beam="1">  1       21 0.10452147E-02 0.12998174E+03</pdfrwt>
<pdfrwt beam="2">  1       21 0.18814890E+00 0.12998174E+03</pdfrwt>
<totfact> 0.57323390E+05</totfact>
</mgrwt>
</event>
<event>
 6    1  0.4424270E-002  0.1417280E+03  0.7546771E-02  0.1211023E+00
         21   -1    0    0  504  502  0.00000000000E+00  0.00000000000E+00  0.64556824324E+03  0.64556824324E+03  0.00000000000E+00 0. -1.
         21   -1    0    0  502  503 -0.00000000000E+00 -0.00000000000E+00 -0.17277838273E+02  0.17277838273E+02  0.00000000000E+00 0. -1.
         25    2    1    2    0    0 -0.22499084237E+02  0.62860248316E+02  0.47386325034E+03  0.49460409598E+03  0.12501684738E+03 0.  0.
          5    1    3    3  501    0  0.26844535441E+02 -0.25447613804E+02  0.83121019462E+02  0.90979799999E+02  0.10000000000E+00 0.  1.
         -5    1    3    3    0  501 -0.49343619678E+02  0.88307862120E+02  0.39074223088E+03  0.40362429598E+03  0.10000000000E+00 0.  1.
         21    1    1    2  504  503  0.22499084237E+02 -0.62860248316E+02  0.15442715463E+03  0.16824198553E+03  0.00000000000E+00 0. -1.
<mgrwt>
<rscale>  1 0.14172802E+03</rscale>
<asrwt>0</asrwt>
<pdfrwt beam="1">  1       21 0.99318173E-01 0.14172802E+03</pdfrwt>
<pdfrwt beam="2">  1       21 0.26581295E-02 0.14172802E+03</pdfrwt>
<totfact> 0.64987198E+05</totfact>
</mgrwt>
</event>
<event>
 6    1  0.4424270E-002  0.1283193E+03  0.7546771E-02  0.1229971E+00
         21   -1    0    0  503  502  0.00000000000E+00  0.00000000000E+00  0.57314237770E+02  0.57314237770E+02  0.00000000000E+00 0. -1.
         21   -1    0    0  504  503 -0.00000000000E+00 -0.00000000000E+00 -0.16539802950E+03  0.16539802950E+03  0.00000000000E+00 0. -1.
         25    2    1    2    0    0  0.14159403742E+02  0.25270949581E+02 -0.13277588329E+03  0.18464904365E+03  0.12500689793E+03 0.  0.
          5    1    3    3  501    0 -0.39425805968E+02  0.18638694752E+02 -0.12204022532E+03  0.12959792326E+03  0.10000000000E+00 0. -1.
         -5    1    3    3    0  501  0.53585209709E+02  0.66322548299E+01 -0.10735657971E+02  0.55051120386E+02  0.10000000000E+00 0. -1.
         21    1    1    2  504  502 -0.14159403742E+02 -0.25270949581E+02  0.24692091558E+02  0.38063223623E+02  0.00000000000E+00 0. -1.
<mgrwt>
<rscale>  1 0.12831927E+03</rscale>
<asrwt>0</asrwt>
<pdfrwt beam="1">  1       21 0.88175750E-02 0.12831927E+03</pdfrwt>
<pdfrwt beam="2">  1       21 0.25445851E-01 0.12831927E+03</pdfrwt>
<totfact> 0.14784333E+06</totfact>
</mgrwt>
</event>
<event>
 6    1  0.4424270E-002  0.1296755E+03  0.7546771E-02  0.1227938E+00
         21   -1    0    0  504  502  0.00000000000E+00  0.00000000000E+00  0.28632426646E+02  0.28632426646E+02  0.00000000000E+00 0.  1.
         21   -1    0    0  502  503 -0.00000000000E+00 -0.00000000000E+00 -0.31383414497E+03  0.31383414497E+03  0.00000000000E+00 0.  1.
         25    2    1    2    0    0 -0.33786902071E+02  0.69598565908E+01 -0.27866058798E+03  0.30735559411E+03  0.12500297429E+03 0.  0.
          5    1    3    3  501    0 -0.55354391097E+02  0.37079183488E+02 -0.25462220507E+03  0.26319470317E+03  0.10000000000E+00 0.  1.
         -5    1    3    3    0  501  0.21567489026E+02 -0.30119326897E+02 -0.24038382913E+02  0.44160890941E+02  0.10000000000E+00 0.  1.
         21    1    1    2  504  503  0.33786902071E+02 -0.69598565908E+01 -0.65411303429E+01  0.35110977507E+02  0.00000000000E+00 0.  1.
<mgrwt>
<rscale>  1 0.12967551E+03</rscale>
<asrwt>0</asrwt>
<pdfrwt beam="1">  1       21 0.44049888E-02 0.12967551E+03</pdfrwt>
<pdfrwt beam="2">  1       21 0.48282176E-01 0.12967551E+03</pdfrwt>
<totfact> 0.13644077E+06</totfact>
</mgrwt>
</event>
<event>
 6    1  0.4424270E-002  0.1349170E+03  0.7546771E-02  0.1220337E+00
         21   -1    0    0  504  502  0.00000000000E+00  0.00000000000E+00  0.25333421256E+03  0.25333421256E+03  0.00000000000E+00 0. -1.
         21   -1    0    0  502  503 -0.00000000000E+00 -0.00000000000E+00 -0.45856313914E+02  0.45856313914E+02  0.00000000000E+00 0. -1.
         25    2    1    2    0    0 -0.48514152605E+02  0.14941452588E+02  0.68661304593E+02  0.15138350096E+03  0.12500287839E+03 0.  0.
          5    1    3    3  501    0 -0.53879797824E+02 -0.24969301582E+02  0.88432820311E+02  0.10652169893E+03  0.10000000000E+00 0. -1.
         -5    1    3    3    0  501  0.53656452191E+01  0.39910754170E+02 -0.19771515718E+02  0.44861802024E+02  0.10000000000E+00 0. -1.
         21    1    1    2  504  503  0.48514152605E+02 -0.14941452588E+02  0.13881659405E+03  0.14780702552E+03  0.00000000000E+00 0. -1.
<mgrwt>
<rscale>  1 0.13491697E+03</rscale>
<asrwt>0</asrwt>
<pdfrwt beam="1">  1       21 0.38974494E-01 0.13491697E+03</pdfrwt>
<pdfrwt beam="2">  1       21 0.70548177E-02 0.13491697E+03</pdfrwt>
<totfact> 0.94951857E+05</totfact>
</mgrwt>
</event>
<event>
 6    1  0.4424270E-002  0.1274474E+03  0.7546771E-02  0.1231293E+00
         21   -1    0    0  504  502  0.00000000000E+00  0.00000000000E+00  0.80413458111E+02  0.80413458111E+02  0.00000000000E+00 0. -1.
         21   -1    0    0  502  503 -0.00000000000E+00 -0.00000000000E+00 -0.87599041139E+02  0.87599041139E+02  0.00000000000E+00 0. -1.
         25    2    1    2    0    0  0.24684894987E+02  0.35147528736E+01 -0.33484400832E+02  0.13177266832E+03  0.12498453299E+03 0.  0.
          5    1    3    3  501    0  0.22977371826E+02 -0.18761010909E+02  0.42917405439E+02  0.52171341136E+02  0.10000000000E+00 0.  1.
         -5    1    3    3    0  501  0.17075231612E+01  0.22275763782E+02 -0.76401806271E+02  0.79601327180E+02  0.10000000000E+00 0.  1.
         21    1    1    2  504  503 -0.24684894987E+02 -0.35147528736E+01  0.26298817803E+02  0.36239830934E+02  0.00000000000E+00 0. -1.
<mgrwt>
<rscale>  1 0.12744737E+03</rscale>
<asrwt>0</asrwt>
<pdfrwt beam="1">  1       21 0.12371301E-01 0.12744737E+03</pdfrwt>
<pdfrwt beam="2">  1       21 0.13476776E-01 0.12744737E+03</pdfrwt>
<totfact> 0.26225429E+06</totfact>
</mgrwt>
</event>
<event>
 6    1  0.4424270E-002  0.1271419E+03  0.7546771E-02  0.1231759E+00
         21   -1    0    0  504  502  0.00000000000E+00  0.00000000000E+00  0.81601742518E+01  0.81601742518E+01  0.00000000000E+00 0. -1.
         21   -1    0    0  502  503 -0.00000000000E+00 -0.00000000000E+00 -0.82289078471E+03  0.82289078471E+03  0.00000000000E+00 0. -1.
         25    2    1    2    0    0  0.22801237105E+02  0.45165830328E+01 -0.77207189165E+03  0.78247048731E+03  0.12499904677E+03 0.  0.
          5    1    3    3  501    0 -0.38341919055E+02 -0.92706113855E+01 -0.55849668031E+03  0.55988802355E+03  0.10000000000E+00 0. -1.
         -5    1    3    3    0  501  0.61143156160E+02  0.13787194418E+02 -0.21357521134E+03  0.22258246376E+03  0.10000000000E+00 0. -1.
         21    1    1    2  504  503 -0.22801237105E+02 -0.45165830328E+01 -0.42658718804E+02  0.48580471651E+02  0.00000000000E+00 0. -1.
<mgrwt>
<rscale>  1 0.12714188E+03</rscale>
<asrwt>0</asrwt>
<pdfrwt beam="1">  1       21 0.12554110E-02 0.12714188E+03</pdfrwt>
<pdfrwt beam="2">  1       21 0.12659862E+00 0.12714188E+03</pdfrwt>
<totfact> 0.12141670E+06</totfact>
</mgrwt>
</event>
<event>
 6    1  0.4424270E-002  0.1405283E+03  0.7546771E-02  0.1212620E+00
         21   -1    0    0  503  502  0.00000000000E+00  0.00000000000E+00  0.12340248962E+03  0.12340248962E+03  0.00000000000E+00 0.  1.
         21   -1    0    0  504  503 -0.00000000000E+00 -0.00000000000E+00 -0.85125056636E+02  0.85125056636E+02  0.00000000000E+00 0.  1.
         25    2    1    2    0    0 -0.49199801995E+02 -0.41269479861E+02  0.21581238915E+02  0.14217580641E+03  0.12499767826E+03 0.  0.
          5    1    3    3  501    0 -0.12540314724E+02  0.40763932425E+02 -0.14932427995E+02  0.45187886495E+02  0.10000000000E+00 0.  1.
         -5    1    3    3    0  501 -0.36659487271E+02 -0.82033412286E+02  0.36513666909E+02  0.96987919915E+02  0.10000000000E+00 0.  1.
         21    1    1    2  504  502  0.49199801995E+02  0.41269479861E+02  0.16696194072E+02  0.66351739848E+02  0.00000000000E+00 0.  1.
<mgrwt>
<rscale>  1 0.14052832E+03</rscale>
<asrwt>0</asrwt>
<pdfrwt beam="1">  1       21 0.18984999E-01 0.14052832E+03</pdfrwt>
<pdfrwt beam="2">  1       21 0.13096162E-01 0.14052832E+03</pdfrwt>
<totfact> 0.12754003E+06</totfact>
</mgrwt>
</event>
<event>
 6    1  0.4424270E-002  0.1285276E+03  0.7546771E-02  0.1229657E+00
         21   -1    0    0  504  502  0.00000000000E+00  0.00000000000E+00  0.36405487056E+02  0.36405487056E+02  0.00000000000E+00 0.  1.
         21   -1    0    0  502  503 -0.00000000000E+00 -0.00000000000E+00 -0.19326982062E+03  0.19326982062E+03  0.00000000000E+00 0.  1.
         25    2    1    2    0    0  0.22026869066E+02 -0.20160818885E+02 -0.15259566415E+03  0.19951137031E+03  0.12501083388E+03 0.  0.
          5    1    3    3  501    0  0.24119267080E+02 -0.36243548728E+01  0.16595708377E+02  0.29500890313E+02  0.10000000000E+00 0.  1.
         -5    1    3    3    0  501 -0.20923980143E+01 -0.16536464012E+02 -0.16919137252E+03  0.17001047999E+03  0.10000000000E+00 0.  1.
         21    1    1    2  504  503 -0.22026869066E+02  0.20160818885E+02 -0.42686694165E+01  0.30163937368E+02  0.00000000000E+00 0.  1.
<mgrwt>
<rscale>  1 0.12852762E+03</rscale>
<asrwt>0</asrwt>
<pdfrwt beam="1">  1       21 0.56008441E-02 0.12852762E+03</pdfrwt>
<pdfrwt beam="2">  1       21 0.29733819E-01 0.12852762E+03</pdfrwt>
<totfact> 0.23873149E+06</totfact>
</mgrwt>
</event>
<event>
 6    1  0.4424270E-002  0.1260479E+03  0.7546771E-02  0.1233441E+00
         21   -1    0    0  504  502  0.00000000000E+00  0.00000000000E+00  0.89324401851E+03  0.89324401851E+03  0.00000000000E+00 0. -1.
         21   -1    0    0  502  503 -0.00000000000E+00 -0.00000000000E+00 -0.56684866916E+01  0.56684866916E+01  0.00000000000E+00 0. -1.
         25    2    1    2    0    0 -0.16172157538E+02  0.11997769602E+01  0.77860175037E+03  0.78873871890E+03  0.12500041149E+03 0.  0.
          5    1    3    3  501    0  0.28450363654E+02  0.37382719336E+02  0.14240962618E+03  0.14995800254E+03  0.10000000000E+00 0. -1.
         -5    1    3    3    0  501 -0.44622521192E+02 -0.36182942376E+02  0.63619212418E+03  0.63878071636E+03  0.10000000000E+00 0. -1.
         21    1    1    2  504  503  0.16172157538E+02 -0.11997769602E+01  0.10897378145E+03  0.11017378630E+03  0.00000000000E+00 0. -1.
<mgrwt>
<rscale>  1 0.12604793E+03</rscale>
<asrwt>0</asrwt>
<pdfrwt beam="1">  1       21 0.13742204E+00 0.12604793E+03</pdfrwt>
<pdfrwt beam="2">  1       21 0.87207559E-03 0.12604793E+03</pdfrwt>
<totfact> 0.17581568E+06</totfact>
</mgrwt>
</event>
<event>
 6    1  0.4424270E-002  0.1344687E+03  0.7546771E-02  0.1220972E+00
         21   -1    0    0  503  502  0.00000000000E+00  0.00000000000E+00  0.45639523922E+01  0.45639523922E+01  0.00000000000E+00 0.  1.
         21   -1    0    0  504  503 -0.00000000000E+00 -0.00000000000E+00 -0.21273885163E+04  0.21273885163E+04  0.00000000000E+00 0.  1.
         25    2    1    2    0    0 -0.24824173363E+02  0.42900029492E+02 -0.11443561532E+04  0.11522295064E+04  0.12500071164E+03 0.  0.
          5    1    3    3  501    0 -0.54891189754E+02 -0.20865661137E+02 -0.68277027242E+03  0.68529094072E+03  0.10000000000E+00 0. -1.
         -5    1    3    3    0  501  0.30067016391E+02  0.63765690629E+02 -0.46158588079E+03  0.46693856569E+03  0.10000000000E+00 0. -1.
         21    1    1    2  504  502  0.24824173363E+02 -0.42900029492E+02 -0.97846841071E+03  0.97972296231E+03  0.00000000000E+00 0.  1.
<mgrwt>
<rscale>  1 0.13446870E+03</rscale>
<asrwt>0</asrwt>
<pdfrwt beam="1">  1       21 0.70214575E-03 0.13446870E+03</pdfrwt>
<pdfrwt beam="2">  1       21 0.32729090E+00 0.13446870E+03</pdfrwt>
<totfact> 0.16455465E+05</totfact>
</mgrwt>
</event>
<event>
 6    1  0.4424270E-002  0.1396483E+03  0.7546771E-02  0.1213803E+00
         21   -1    0    0  503  502  0.00000000000E+00  0.00000000000E+00  0.14184883287E+03  0.14184883287E+03  0.00000000000E+00 0. -1.
         21   -1    0    0  504  503 -0.00000000000E+00 -0.00000000000E+00 -0.12793059362E+03  0.12793059362E+03  0.00000000000E+00 0.  1.
         25    2    1    2    0    0  0.27517023242E+02  0.55864544881E+02 -0.77083302824E+02  0.15951014426E+03  0.12499446630E+03 0.  0.
          5    1    3    3  501    0  0.24585663361E+02 -0.32613391980E+01  0.28919252508E+02  0.38097563464E+02  0.10000000000E+00 0.  1.
         -5    1    3    3    0  501  0.29313598814E+01  0.59125884079E+02 -0.10600255533E+03  0.12141258080E+03  0.10000000000E+00 0.  1.
         21    1    1    2  504  502 -0.27517023242E+02 -0.55864544881E+02  0.91001542075E+02  0.11026928223E+03  0.00000000000E+00 0. -1.
<mgrwt>
<rscale>  1 0.13964831E+03</rscale>
<asrwt>0</asrwt>
<pdfrwt beam="1">  1       21 0.21822897E-01 0.13964831E+03</pdfrwt>
<pdfrwt beam="2">  1       21 0.19681630E-01 0.13964831E+03</pdfrwt>
<totfact> 0.46972262E+05</totfact>
</mgrwt>
</event>
<event>
 6    1  0.4424270E-002  0.1511012E+03  0.7546771E-02  0.1199126E+00
         21   -1    0    0  503  502  0.00000000000E+00  0.00000000000E+00  0.23774823548E+02  0.23774823548E+02  0.00000000000E+00 0. -1.
         21   -1    0    0  504  503 -0.00000000000E+00 -0.00000000000E+00 -0.62512106334E+03  0.62512106334E+03  0.00000000000E+00 0. -1.
         25    2    1    2    0    0 -0.57613999066E+02  0.62354032407E+02 -0.30123068242E+03  0.33700368432E+03  0.12499664383E+03 0.  0.
          5    1    3    3  501    0  0.30848328967E+02  0.21894049841E+02 -0.28261330374E+02  0.47219504582E+02  0.10000000000E+00 0. -1.
         -5    1    3    3    0  501 -0.88462328033E+02  0.40459982566E+02 -0.27296935204E+03  0.28978417974E+03  0.10000000000E+00 0. -1.
         21    1    1    2  504  502  0.57613999066E+02 -0.62354032407E+02 -0.30011555738E+03  0.31189220257E+03  0.00000000000E+00 0. -1.
<mgrwt>
<rscale>  1 0.15110116E+03</rscale>
<asrwt>0</asrwt>
<pdfrwt beam="1">  1       21 0.36576653E-02 0.15110116E+03</pdfrwt>
<pdfrwt beam="2">  1       21 0.96172467E-01 0.15110116E+03</pdfrwt>
<totfact> 0.41350965E+05</totfact>
</mgrwt>
</event>
<event>
 6    1  0.4424270E-002  0.1263899E+03  0.7546771E-02  0.1232913E+00
         21   -1    0    0  504  502  0.00000000000E+00  0.00000000000E+00  0.49658450599E+02  0.49658450599E+02  0.00000000000E+00 0.  1.
         21   -1    0    0  502  503 -0.00000000000E+00 -0.00000000000E+00 -0.54565442970E+03  0.54565442970E+03  0.00000000000E+00 0.  1.
         25    2    1    2    0    0 -0.70406730041E+01  0.17313117829E+02 -0.53624378645E+03  0.55093719866E+03  0.12500033292E+03 0.  0.
          5    1    3    3  501    0 -0.50120574896E+02 -0.30831070619E+02 -0.19716687749E+03  0.20576057573E+03  0.10000000000E+00 0.  1.
         -5    1    3    3    0  501  0.43079901892E+02  0.48144188448E+02 -0.33907690896E+03  0.34517662293E+03  0.10000000000E+00 0.  1.
         21    1    1    2  504  503  0.70406730041E+01 -0.17313117829E+02  0.40247807347E+02  0.44375681646E+02  0.00000000000E+00 0.  1.
<mgrwt>
<rscale>  1 0.12638987E+03</rscale>
<asrwt>0</asrwt>
<pdfrwt beam="1">  1       21 0.76397614E-02 0.12638987E+03</pdfrwt>
<pdfrwt beam="2">  1       21 0.83946837E-01 0.12638987E+03</pdfrwt>
<totfact> 0.16387185E+05</totfact>
</mgrwt>
</event>
<event>
 6    1  0.4424270E-002  0.1516247E+03  0.7546771E-02  0.1198491E+00
         21   -1    0    0  504  502  0.00000000000E+00  0.00000000000E+00  0.12291143383E+03  0.12291143383E+03  0.00000000000E+00 0.  1.
         21   -1    0    0  502  503 -0.00000000000E+00 -0.00000000000E+00 -0.11782216389E+03  0.11782216389E+03  0.00000000000E+00 0.  1.
         25    2    1    2    0    0  0.80867180202E+02  0.28706831386E+02 -0.15713529308E+02  0.15243671523E+03  0.12500581644E+03 0.  0.
          5    1    3    3  501    0  0.73159102179E+02 -0.36150098752E+02  0.10061775639E+02  0.82221245432E+02  0.10000000000E+00 0.  1.
         -5    1    3    3    0  501  0.77080780231E+01  0.64856930139E+02 -0.25775304947E+02  0.70215469798E+02  0.10000000000E+00 0.  1.
         21    1    1    2  504  503 -0.80867180202E+02 -0.28706831386E+02  0.20802799247E+02  0.88296882496E+02  0.00000000000E+00 0.  1.
<mgrwt>
<rscale>  1 0.15162466E+03</rscale>
<asrwt>0</asrwt>
<pdfrwt beam="1">  1       21 0.18909451E-01 0.15162466E+03</pdfrwt>
<pdfrwt beam="2">  1       21 0.18126487E-01 0.15162466E+03</pdfrwt>
<totfact> 0.71299369E+05</totfact>
</mgrwt>
</event>
<event>
 6    1  0.4424270E-002  0.1339258E+03  0.7546771E-02  0.1221744E+00
         21   -1    0    0  503  502  0.00000000000E+00  0.00000000000E+00  0.18247550919E+03  0.18247550919E+03  0.00000000000E+00 0.  1.
         21   -1    0    0  504  503 -0.00000000000E+00 -0.00000000000E+00 -0.14209465269E+04  0.14209465269E+04  0.00000000000E+00 0. -1.
         25    2    1    2    0    0  0.45454882716E+02 -0.15685544542E+02 -0.14145600146E+04  0.14208856904E+04  0.12499570980E+03 0.  0.
          5    1    3    3  501    0  0.85361348553E+02 -0.17303431061E+02 -0.11540328455E+04  0.11573149040E+04  0.10000000000E+00 0.  1.
         -5    1    3    3    0  501 -0.39906465838E+02  0.16178865187E+01 -0.26052716907E+03  0.26357078631E+03  0.10000000000E+00 0.  1.
         21    1    1    2  504  502 -0.45454882716E+02  0.15685544542E+02  0.17608899692E+03  0.18253634571E+03  0.00000000000E+00 0.  1.
<mgrwt>
<rscale>  1 0.13392576E+03</rscale>
<asrwt>0</asrwt>
<pdfrwt beam="1">  1       21 0.28073155E-01 0.13392576E+03</pdfrwt>
<pdfrwt beam="2">  1       21 0.21860716E+00 0.13392576E+03</pdfrwt>
<totfact> 0.13429388E+03</totfact>
</mgrwt>
</event>
<event>
 6    1  0.4424270E-002  0.1267813E+03  0.7546771E-02  0.1232311E+00
         21   -1    0    0  503  502  0.00000000000E+00  0.00000000000E+00  0.12738666217E+04  0.12738666217E+04  0.00000000000E+00 0. -1.
         21   -1    0    0  504  503 -0.00000000000E+00 -0.00000000000E+00 -0.20289627180E+02  0.20289627180E+02  0.00000000000E+00 0. -1.
         25    2    1    2    0    0  0.15466368467E+02  0.14668245772E+02  0.17890394021E+03  0.21927181805E+03  0.12497657532E+03 0.  0.
          5    1    3    3  501    0 -0.35401257378E+02 -0.32536226246E+02  0.11615432266E+03  0.12571273489E+03  0.10000000000E+00 0. -1.
         -5    1    3    3    0  501  0.50867625845E+02  0.47204472018E+02  0.62749617554E+02  0.93559083155E+02  0.10000000000E+00 0. -1.
         21    1    1    2  504  502 -0.15466368467E+02 -0.14668245772E+02  0.10746730543E+04  0.10748844308E+04  0.00000000000E+00 0. -1.
<mgrwt>
<rscale>  1 0.12678135E+03</rscale>
<asrwt>0</asrwt>
<pdfrwt beam="1">  1       21 0.19597942E+00 0.12678135E+03</pdfrwt>
<pdfrwt beam="2">  1       21 0.31214821E-02 0.12678135E+03</pdfrwt>
<totfact> 0.88024290E+04</totfact>
</mgrwt>
</event>
<event>
 6    1  0.4424270E-002  0.1299276E+03  0.7546771E-02  0.1227563E+00
         21   -1    0    0  503  502  0.00000000000E+00  0.00000000000E+00  0.14621782396E+03  0.14621782396E+03  0.00000000000E+00 0. -1.
         21   -1    0    0  504  503 -0.00000000000E+00 -0.00000000000E+00 -0.12757271799E+03  0.12757271799E+03  0.00000000000E+00 0. -1.
         25    2    1    2    0    0 -0.34806599153E+02 -0.62857954042E+01 -0.90971043261E+02  0.15860933366E+03  0.12502071606E+03 0.  0.
          5    1    3    3  501    0 -0.40492754606E+02 -0.39885588322E+02  0.47180821316E+01  0.57033267751E+02  0.10000000000E+00 0.  1.
         -5    1    3    3    0  501  0.56861554529E+01  0.33599792918E+02 -0.95689125393E+02  0.10157606591E+03  0.10000000000E+00 0.  1.
         21    1    1    2  504  502  0.34806599153E+02  0.62857954042E+01  0.10961614923E+03  0.11518120828E+03  0.00000000000E+00 0. -1.
<mgrwt>
<rscale>  1 0.12992763E+03</rscale>
<asrwt>0</asrwt>
<pdfrwt beam="1">  1       21 0.22495050E-01 0.12992763E+03</pdfrwt>
<pdfrwt beam="2">  1       21 0.19626572E-01 0.12992763E+03</pdfrwt>
<totfact> 0.44656176E+05</totfact>
</mgrwt>
</event>
<event>
 6    1  0.4424270E-002  0.1264322E+03  0.7546771E-02  0.1232848E+00
         21   -1    0    0  503  502  0.00000000000E+00  0.00000000000E+00  0.16472277769E+02  0.16472277769E+02  0.00000000000E+00 0. -1.
         21   -1    0    0  504  503 -0.00000000000E+00 -0.00000000000E+00 -0.32127499503E+03  0.32127499503E+03  0.00000000000E+00 0. -1.
         25    2    1    2    0    0 -0.20269863646E+01  0.18880652068E+02 -0.26128845342E+03  0.29027013247E+03  0.12499802485E+03 0.  0.
          5    1    3    3  501    0 -0.16276151170E+02 -0.51812112474E+02 -0.11052946164E+03  0.12315104541E+03  0.10000000000E+00 0. -1.
         -5    1    3    3    0  501  0.14249164806E+02  0.70692764542E+02 -0.15075899178E+03  0.16711908706E+03  0.10000000000E+00 0. -1.
         21    1    1    2  504  502  0.20269863646E+01 -0.18880652068E+02 -0.43514263842E+02  0.47477140330E+02  0.00000000000E+00 0.  1.
<mgrwt>
<rscale>  1 0.12643217E+03</rscale>
<asrwt>0</asrwt>
<pdfrwt beam="1">  1       21 0.25341966E-02 0.12643217E+03</pdfrwt>
<pdfrwt beam="2">  1       21 0.49426923E-01 0.12643217E+03</pdfrwt>
<totfact> 0.32312097E+06</totfact>
</mgrwt>
</event>
<event>
 6    1  0.4424270E-002  0.1262048E+03  0.7546771E-02  0.1233198E+00
         21   -1    0    0  503  502  0.00000000000E+00  0.00000000000E+00  0.67235547539E+01  0.67235547539E+01  0.00000000000E+00 0.  1.
         21   -1    0    0  504  503 -0.00000000000E+00 -0.00000000000E+00 -0.83313800061E+03  0.83313800061E+03  0.00000000000E+00 0.  1.
         25    2    1    2    0    0 -0.12304967887E+02 -0.12287208689E+02 -0.78280098258E+03  0.79290921878E+03  0.12500105264E+03 0.  0.
          5    1    3    3  501    0 -0.65526041489E+02  0.35047500835E+01 -0.31059205501E+03  0.31744823203E+03  0.10000000000E+00 0.  1.
         -5    1    3    3    0  501  0.53221073602E+02 -0.15791958772E+02 -0.47220892757E+03  0.47546098675E+03  0.10000000000E+00 0.  1.
         21    1    1    2  504  502  0.12304967887E+02  0.12287208689E+02 -0.43613463277E+02  0.46952336588E+02  0.00000000000E+00 0.  1.
<mgrwt>
<rscale>  1 0.12620480E+03</rscale>
<asrwt>0</asrwt>
<pdfrwt beam="1">  1       21 0.10343933E-02 0.12620480E+03</pdfrwt>
<pdfrwt beam="2">  1       21 0.12817504E+00 0.12620480E+03</pdfrwt>
<totfact> 0.15995853E+06</totfact>
</mgrwt>
</event>
<event>
 6    1  0.4424270E-002  0.1284850E+03  0.7546771E-02  0.1229721E+00
         21   -1    0    0  504  502  0.00000000000E+00  0.00000000000E+00  0.27636833844E+02  0.27636833844E+02  0.00000000000E+00 0. -1.
         21   -1    0    0  502  503 -0.00000000000E+00 -0.00000000000E+00 -0.20079958191E+04  0.20079958191E+04  0.00000000000E+00 0.  1.
         25    2    1    2    0    0  0.25910544153E+02 -0.14440205839E+02 -0.19973299195E+04  0.20014582700E+04  0.12501409190E+03 0.  0.
          5    1    3    3  501    0  0.74607627612E+02 -0.34588397962E+01 -0.94595810674E+03  0.94890200304E+03  0.10000000000E+00 0.  1.
         -5    1    3    3    0  501 -0.48697083459E+02 -0.10981366042E+02 -0.10513718128E+04  0.10525562669E+04  0.10000000000E+00 0.  1.
         21    1    1    2  504  503 -0.25910544153E+02  0.14440205839E+02  0.16970934254E+02  0.34174382985E+02  0.00000000000E+00 0. -1.
<mgrwt>
<rscale>  1 0.12848501E+03</rscale>
<asrwt>0</asrwt>
<pdfrwt beam="1">  1       21 0.42518192E-02 0.12848501E+03</pdfrwt>
<pdfrwt beam="2">  1       21 0.30892253E+00 0.12848501E+03</pdfrwt>
<totfact> 0.11635537E+04</totfact>
</mgrwt>
</event>
<event>
 6    1  0.4424270E-002  0.1267438E+03  0.7546771E-02  0.1232369E+00
         21   -1    0    0  503  502  0.00000000000E+00  0.00000000000E+00  0.62488995838E+01  0.62488995838E+01  0.00000000000E+00 0.  1.
         21   -1    0    0  504  503 -0.00000000000E+00 -0.00000000000E+00 -0.89148018229E+03  0.89148018229E+03  0.00000000000E+00 0.  1.
         25    2    1    2    0    0 -0.66706044747E+01 -0.19858267912E+02 -0.79897274578E+03  0.80896319338E+03  0.12500060786E+03 0.  0.
          5    1    3    3  501    0  0.31881989467E+02  0.39427594764E+02 -0.22454893409E+03  0.23020258531E+03  0.10000000000E+00 0. -1.
         -5    1    3    3    0  501 -0.38552593942E+02 -0.59285862676E+02 -0.57442381169E+03  0.57876060807E+03  0.10000000000E+00 0. -1.
         21    1    1    2  504  502  0.66706044747E+01  0.19858267912E+02 -0.86258536925E+02  0.88765888499E+02  0.00000000000E+00 0.  1.
<mgrwt>
<rscale>  1 0.12674384E+03</rscale>
<asrwt>0</asrwt>
<pdfrwt beam="1">  1       21 0.96136943E-03 0.12674384E+03</pdfrwt>
<pdfrwt beam="2">  1       21 0.13715076E+00 0.12674384E+03</pdfrwt>
<totfact> 0.15161005E+06</totfact>
</mgrwt>
</event>
<event>
 6    1  0.4424270E-002  0.1419455E+03  0.7546771E-02  0.1210735E+00
         21   -1    0    0  503  502  0.00000000000E+00  0.00000000000E+00  0.22977386267E+03  0.22977386267E+03  0.00000000000E+00 0. -1.
         21   -1    0    0  504  503 -0.00000000000E+00 -0.00000000000E+00 -0.47960844394E+02  0.47960844394E+02  0.00000000000E+00 0. -1.
         25    2    1    2    0    0  0.64544106620E+01 -0.66933970580E+02  0.11207315110E+03  0.18085609793E+03  0.12500688431E+03 0.  0.
          5    1    3    3  501    0  0.11747576327E+02 -0.10206733134E+03  0.99888028835E+02  0.14329471023E+03  0.10000000000E+00 0.  1.
         -5    1    3    3    0  501 -0.52931656649E+01  0.35133360758E+02  0.12185122263E+02  0.37561387694E+02  0.10000000000E+00 0.  1.
         21    1    1    2  504  502 -0.64544106620E+01  0.66933970580E+02  0.69739867177E+02  0.96878609137E+02  0.00000000000E+00 0. -1.
<mgrwt>
<rscale>  1 0.14194554E+03</rscale>
<asrwt>0</asrwt>
<pdfrwt beam="1">  1       21 0.35349825E-01 0.14194554E+03</pdfrwt>
<pdfrwt beam="2">  1       21 0.73785915E-02 0.14194554E+03</pdfrwt>
<totfact> 0.10670735E+06</totfact>
</mgrwt>
</event>
<event>
 6    1  0.4424270E-002  0.1300706E+03  0.7546771E-02  0.1227351E+00
         21   -1    0    0  503  502  0.00000000000E+00  0.00000000000E+00  0.23813356683E+02  0.23813356683E+02  0.00000000000E+00 0.  1.
         21   -1    0    0  504  503 -0.00000000000E+00 -0.00000000000E+00 -0.29110383324E+03  0.29110383324E+03  0.00000000000E+00 0.  1.
         25    2    1    2    0    0 -0.78031889073E+01 -0.35089911783E+02 -0.21903292584E+03  0.25474258675E+03  0.12500468485E+03 0.  0.
          5    1    3    3  501    0  0.11326724383E+02 -0.12396037786E+02 -0.22401729345E+03  0.22464575269E+03  0.10000000000E+00 0.  1.
         -5    1    3    3    0  501 -0.19129913290E+02 -0.22693873998E+02  0.49843676135E+01  0.30096834053E+02  0.10000000000E+00 0.  1.
         21    1    1    2  504  502  0.78031889073E+01  0.35089911783E+02 -0.48257550719E+02  0.60174603177E+02  0.00000000000E+00 0.  1.
<mgrwt>
<rscale>  1 0.13007061E+03</rscale>
<asrwt>0</asrwt>
<pdfrwt beam="1">  1       21 0.36635931E-02 0.13007061E+03</pdfrwt>
<pdfrwt beam="2">  1       21 0.44785208E-01 0.13007061E+03</pdfrwt>
<totfact> 0.21609704E+06</totfact>
</mgrwt>
</event>
<event>
 6    1  0.4424270E-002  0.1279184E+03  0.7546771E-02  0.1230578E+00
         21   -1    0    0  504  502  0.00000000000E+00  0.00000000000E+00  0.60584117620E+02  0.60584117620E+02  0.00000000000E+00 0.  1.
         21   -1    0    0  502  503 -0.00000000000E+00 -0.00000000000E+00 -0.99791132084E+02  0.99791132084E+02  0.00000000000E+00 0.  1.
         25    2    1    2    0    0  0.63842771244E+01 -0.26420809383E+02 -0.36698719119E+02  0.13307855195E+03  0.12499714733E+03 0.  0.
          5    1    3    3  501    0  0.65736994807E+02 -0.13999162900E+02 -0.17117301173E+02  0.69356622234E+02  0.10000000000E+00 0.  1.
         -5    1    3    3    0  501 -0.59352717683E+02 -0.12421646483E+02 -0.19581417946E+02  0.63721929714E+02  0.10000000000E+00 0.  1.
         21    1    1    2  504  503 -0.63842771244E+01  0.26420809383E+02 -0.25082953459E+01  0.27296697756E+02  0.00000000000E+00 0. -1.
<mgrwt>
<rscale>  1 0.12791835E+03</rscale>
<asrwt>0</asrwt>
<pdfrwt beam="1">  1       21 0.93206335E-02 0.12791835E+03</pdfrwt>
<pdfrwt beam="2">  1       21 0.15352482E-01 0.12791835E+03</pdfrwt>
<totfact> 0.34138662E+06</totfact>
</mgrwt>
</event>
<event>
 6    1  0.4424270E-002  0.1575174E+03  0.7546771E-02  0.1191528E+00
         21   -1    0    0  503  502  0.00000000000E+00  0.00000000000E+00  0.95781791547E+03  0.95781791547E+03  0.00000000000E+00 0.  1.
         21   -1    0    0  504  503 -0.00000000000E+00 -0.00000000000E+00 -0.27844399733E+02  0.27844399733E+02  0.00000000000E+00 0. -1.
         25    2    1    2    0    0 -0.42250387231E+02  0.86031782495E+02  0.22767179820E+03  0.27685044646E+03  0.12500063675E+03 0.  0.
          5    1    3    3  501    0  0.21633741723E+02 -0.16762306403E+02  0.87391647438E+02  0.91576764186E+02  0.10000000000E+00 0. -1.
         -5    1    3    3    0  501 -0.63884128954E+02  0.10279408890E+03  0.14028015077E+03  0.18527368227E+03  0.10000000000E+00 0. -1.
         21    1    1    2  504  502  0.42250387231E+02 -0.86031782495E+02  0.70230171753E+03  0.70881186874E+03  0.00000000000E+00 0.  1.
<mgrwt>
<rscale>  1 0.15751737E+03</rscale>
<asrwt>0</asrwt>
<pdfrwt beam="1">  1       21 0.14735658E+00 0.15751737E+03</pdfrwt>
<pdfrwt beam="2">  1       21 0.42837545E-02 0.15751737E+03</pdfrwt>
<totfact> 0.11122963E+05</totfact>
</mgrwt>
</event>
<event>
 6    1  0.4424270E-002  0.1267303E+03  0.7546771E-02  0.1232390E+00
         21   -1    0    0  503  502  0.00000000000E+00  0.00000000000E+00  0.91068374673E+03  0.91068374673E+03  0.00000000000E+00 0.  1.
         21   -1    0    0  504  503 -0.00000000000E+00 -0.00000000000E+00 -0.85458711857E+02  0.85458711857E+02  0.00000000000E+00 0. -1.
         25    2    1    2    0    0 -0.20449560535E+02 -0.43498328887E+01 -0.38279121434E+02  0.13238523950E+03  0.12499381955E+03 0.  0.
          5    1    3    3  501    0  0.35239176534E+02 -0.24546341320E+02 -0.55983285738E+02  0.70558208006E+02  0.10000000000E+00 0. -1.
         -5    1    3    3    0  501 -0.55688737070E+02  0.20196508431E+02  0.17704164303E+02  0.61827031490E+02  0.10000000000E+00 0. -1.
         21    1    1    2  504  502  0.20449560535E+02  0.43498328887E+01  0.86350415631E+03  0.86375721909E+03  0.00000000000E+00 0.  1.
<mgrwt>
<rscale>  1 0.12673027E+03</rscale>
<asrwt>0</asrwt>
<pdfrwt beam="1">  1       21 0.14010518E+00 0.12673027E+03</pdfrwt>
<pdfrwt beam="2">  1       21 0.13147495E-01 0.12673027E+03</pdfrwt>
<totfact> 0.18681582E+04</totfact>
</mgrwt>
</event>
<event>
 6    1  0.4424270E-002  0.1283753E+03  0.7546771E-02  0.1229887E+00
         21   -1    0    0  503  502  0.00000000000E+00  0.00000000000E+00  0.95472591235E+03  0.95472591235E+03  0.00000000000E+00 0.  1.
         21   -1    0    0  504  503 -0.00000000000E+00 -0.00000000000E+00 -0.23881698808E+03  0.23881698808E+03  0.00000000000E+00 0.  1.
         25    2    1    2    0    0  0.26197296383E+02  0.12997365379E+02 -0.22132048340E+03  0.25585734949E+03  0.12499998829E+03 0.  0.
          5    1    3    3  501    0  0.73960953205E+02 -0.85640945680E+01 -0.14874947287E+03  0.16634296496E+03  0.10000000000E+00 0. -1.
         -5    1    3    3    0  501 -0.47763656822E+02  0.21561459947E+02 -0.72571010531E+02  0.89514384529E+02  0.10000000000E+00 0. -1.
         21    1    1    2  504  502 -0.26197296383E+02 -0.12997365379E+02  0.93722940767E+03  0.93768555094E+03  0.00000000000E+00 0.  1.
<mgrwt>
<rscale>  1 0.12837534E+03</rscale>
<asrwt>0</asrwt>
<pdfrwt beam="1">  1       21 0.14688091E+00 0.12837534E+03</pdfrwt>
<pdfrwt beam="2">  1       21 0.36741076E-01 0.12837534E+03</pdfrwt>
<totfact> 0.24188890E+03</totfact>
</mgrwt>
</event>
<event>
 6    1  0.4424270E-002  0.1325088E+03  0.7546771E-02  0.1223780E+00
         21   -1    0    0  503  502  0.00000000000E+00  0.00000000000E+00  0.20182297843E+03  0.20182297843E+03  0.00000000000E+00 0.  1.
         21   -1    0    0  504  503 -0.00000000000E+00 -0.00000000000E+00 -0.50047082012E+02  0.50047082012E+02  0.00000000000E+00 0.  1.
         25    2    1    2    0    0 -0.10000862658E+02 -0.42808345499E+02  0.51110216673E+02  0.14202402830E+03  0.12500399461E+03 0.  0.
          5    1    3    3  501    0  0.21569732607E+01  0.80206275979E+01 -0.37902824196E+02  0.38802281927E+02  0.10000000000E+00 0.  1.
         -5    1    3    3    0  501 -0.12157835919E+02 -0.50828973097E+02  0.89013040869E+02  0.10322174638E+03  0.10000000000E+00 0.  1.
         21    1    1    2  504  502  0.10000862658E+02  0.42808345499E+02  0.10066567975E+03  0.10984603214E+03  0.00000000000E+00 0.  1.
<mgrwt>
<rscale>  1 0.13250876E+03</rscale>
<asrwt>0</asrwt>
<pdfrwt beam="1">  1       21 0.31049688E-01 0.13250876E+03</pdfrwt>
<pdfrwt beam="2">  1       21 0.76995512E-02 0.13250876E+03</pdfrwt>
<totfact> 0.12771194E+06</totfact>
</mgrwt>
</event>
<event>
 6    1  0.4424270E-002  0.1293833E+03  0.7546771E-02  0.1228374E+00
         21   -1    0    0  504  502  0.00000000000E+00  0.00000000000E+00  0.68148905039E+01  0.68148905039E+01  0.00000000000E+00 0.  1.
         21   -1    0    0  502  503 -0.00000000000E+00 -0.00000000000E+00 -0.11394169789E+04  0.11394169789E+04  0.00000000000E+00 0.  1.
         25    2    1    2    0    0  0.80868361514E+01  0.32388218463E+02 -0.10354994501E+04  0.10435512190E+04  0.12500256713E+03 0.  0.
          5    1    3    3  501    0  0.22856117029E+02  0.17902233962E+02 -0.49875680812E+02  0.57710359581E+02  0.10000000000E+00 0. -1.
         -5    1    3    3    0  501 -0.14769280878E+02  0.14485984500E+02 -0.98562376932E+03  0.98584085939E+03  0.10000000000E+00 0. -1.
         21    1    1    2  504  503 -0.80868361514E+01 -0.32388218463E+02 -0.97102638236E+02  0.10268065040E+03  0.00000000000E+00 0.  1.
<mgrwt>
<rscale>  1 0.12938329E+03</rscale>
<asrwt>0</asrwt>
<pdfrwt beam="1">  1       21 0.10484440E-02 0.12938329E+03</pdfrwt>
<pdfrwt beam="2">  1       21 0.17529504E+00 0.12938329E+03</pdfrwt>
<totfact> 0.69447684E+05</totfact>
</mgrwt>
</event>
<event>
 6    1  0.4424270E-002  0.1260205E+03  0.7546771E-02  0.1233483E+00
         21   -1    0    0  503  502  0.00000000000E+00  0.00000000000E+00  0.47995225182E+03  0.47995225182E+03  0.00000000000E+00 0. -1.
         21   -1    0    0  504  503 -0.00000000000E+00 -0.00000000000E+00 -0.21499053817E+02  0.21499053817E+02  0.00000000000E+00 0. -1.
         25    2    1    2    0    0  0.15496298296E+02  0.35392185125E+01  0.16525684315E+03  0.20782439300E+03  0.12501397037E+03 0.  0.
          5    1    3    3  501    0  0.49616804155E+02 -0.27250815887E+02  0.28152241522E+02  0.63221775708E+02  0.10000000000E+00 0. -1.
         -5    1    3    3    0  501 -0.34120505859E+02  0.30790034399E+02  0.13710460163E+03  0.14460261729E+03  0.10000000000E+00 0. -1.
         21    1    1    2  504  502 -0.15496298296E+02 -0.35392185125E+01  0.29319635485E+03  0.29362691264E+03  0.00000000000E+00 0. -1.
<mgrwt>
<rscale>  1 0.12602045E+03</rscale>
<asrwt>0</asrwt>
<pdfrwt beam="1">  1       21 0.73838800E-01 0.12602045E+03</pdfrwt>
<pdfrwt beam="2">  1       21 0.33075471E-02 0.12602045E+03</pdfrwt>
<totfact> 0.89006495E+05</totfact>
</mgrwt>
</event>
<event>
 6    1  0.4424270E-002  0.1262647E+03  0.7546771E-02  0.1233106E+00
         21   -1    0    0  503  502  0.00000000000E+00  0.00000000000E+00  0.17664377035E+01  0.17664377035E+01  0.00000000000E+00 0. -1.
         21   -1    0    0  504  503 -0.00000000000E+00 -0.00000000000E+00 -0.33264789182E+04  0.33264789182E+04  0.00000000000E+00 0. -1.
         25    2    1    2    0    0  0.11906777447E+02  0.13249868820E+02 -0.31694898225E+04  0.31720038635E+04  0.12500178064E+03 0.  0.
          5    1    3    3  501    0 -0.47992295340E+02  0.29669337051E+02 -0.97179539050E+03  0.97343198066E+03  0.10000000000E+00 0.  1.
         -5    1    3    3    0  501  0.59899072787E+02 -0.16419468231E+02 -0.21976944320E+04  0.21985718829E+04  0.10000000000E+00 0.  1.
         21    1    1    2  504  502 -0.11906777447E+02 -0.13249868820E+02 -0.15522265804E+03  0.15624149238E+03  0.00000000000E+00 0.  1.
<mgrwt>
<rscale>  1 0.12626470E+03</rscale>
<asrwt>0</asrwt>
<pdfrwt beam="1">  1       21 0.27175909E-03 0.12626470E+03</pdfrwt>
<pdfrwt beam="2">  1       21 0.51176704E+00 0.12626470E+03</pdfrwt>
<totfact> 0.49203322E+04</totfact>
</mgrwt>
</event>
<event>
 6    1  0.4424270E-002  0.1390118E+03  0.7546771E-02  0.1214665E+00
         21   -1    0    0  503  502  0.00000000000E+00  0.00000000000E+00  0.78727888093E+02  0.78727888093E+02  0.00000000000E+00 0. -1.
         21   -1    0    0  504  503 -0.00000000000E+00 -0.00000000000E+00 -0.22641215791E+03  0.22641215791E+03  0.00000000000E+00 0. -1.
         25    2    1    2    0    0 -0.10933226063E+02 -0.59832758231E+02 -0.18678199348E+03  0.23283426211E+03  0.12499914452E+03 0.  0.
          5    1    3    3  501    0  0.45368137675E+02 -0.95327986992E+01 -0.21451740514E+02  0.51081594906E+02  0.10000000000E+00 0. -1.
         -5    1    3    3    0  501 -0.56301363737E+02 -0.50299959532E+02 -0.16533025297E+03  0.18175266720E+03  0.10000000000E+00 0. -1.
         21    1    1    2  504  502  0.10933226063E+02  0.59832758231E+02  0.39097723663E+02  0.72305783899E+02  0.00000000000E+00 0. -1.
<mgrwt>
<rscale>  1 0.13901180E+03</rscale>
<asrwt>0</asrwt>
<pdfrwt beam="1">  1       21 0.12111983E-01 0.13901180E+03</pdfrwt>
<pdfrwt beam="2">  1       21 0.34832639E-01 0.13901180E+03</pdfrwt>
<totfact> 0.46219836E+05</totfact>
</mgrwt>
</event>
<event>
 6    1  0.4424270E-002  0.1296131E+03  0.7546771E-02  0.1228031E+00
         21   -1    0    0  503  502  0.00000000000E+00  0.00000000000E+00  0.60992093269E+02  0.60992093269E+02  0.00000000000E+00 0. -1.
         21   -1    0    0  504  503 -0.00000000000E+00 -0.00000000000E+00 -0.44475659405E+03  0.44475659405E+03  0.00000000000E+00 0.  1.
         25    2    1    2    0    0  0.32893975040E+02  0.95950283818E+01 -0.42948313024E+03  0.44861488608E+03  0.12500191475E+03 0.  0.
          5    1    3    3  501    0 -0.86700453215E+01 -0.48253670679E+02 -0.26303699458E+03  0.26756692049E+03  0.10000000000E+00 0.  1.
         -5    1    3    3    0  501  0.41564020362E+02  0.57848699061E+02 -0.16644613566E+03  0.18104796560E+03  0.10000000000E+00 0.  1.
         21    1    1    2  504  502 -0.32893975040E+02 -0.95950283818E+01  0.45718629461E+02  0.57133801234E+02  0.00000000000E+00 0. -1.
<mgrwt>
<rscale>  1 0.12961310E+03</rscale>
<asrwt>0</asrwt>
<pdfrwt beam="1">  1       21 0.93833990E-02 0.12961310E+03</pdfrwt>
<pdfrwt beam="2">  1       21 0.68424091E-01 0.12961310E+03</pdfrwt>
<totfact> 0.18030030E+05</totfact>
</mgrwt>
</event>
<event>
 6    1  0.4424270E-002  0.1260639E+03  0.7546771E-02  0.1233416E+00
         21   -1    0    0  504  502  0.00000000000E+00  0.00000000000E+00  0.10660430483E+03  0.10660430483E+03  0.00000000000E+00 0. -1.
         21   -1    0    0  502  503 -0.00000000000E+00 -0.00000000000E+00 -0.48799783785E+02  0.48799783785E+02  0.00000000000E+00 0. -1.
         25    2    1    2    0    0 -0.16465627394E+02  0.13672189663E+01  0.42931393140E+02  0.13317356665E+03  0.12497643043E+03 0.  0.
          5    1    3    3  501    0 -0.52269884783E+02  0.45085359303E+02  0.29642598266E+02  0.75123392566E+02  0.10000000000E+00 0. -1.
         -5    1    3    3    0  501  0.35804257389E+02 -0.43718140336E+02  0.13288794873E+02  0.58050174081E+02  0.10000000000E+00 0. -1.
         21    1    1    2  504  503  0.16465627394E+02 -0.13672189663E+01  0.14873127901E+02  0.22230521963E+02  0.00000000000E+00 0. -1.
<mgrwt>
<rscale>  1 0.12606385E+03</rscale>
<asrwt>0</asrwt>
<pdfrwt beam="1">  1       21 0.16400662E-01 0.12606385E+03</pdfrwt>
<pdfrwt beam="2">  1       21 0.75076591E-02 0.12606385E+03</pdfrwt>
<totfact> 0.43993872E+06</totfact>
</mgrwt>
</event>
<event>
 6    1  0.4424270E-002  0.1409555E+03  0.7546771E-02  0.1212049E+00
         21   -1    0    0  503  502  0.00000000000E+00  0.00000000000E+00  0.28271682927E+02  0.28271682927E+02  0.00000000000E+00 0. -1.
         21   -1    0    0  504  503 -0.00000000000E+00 -0.00000000000E+00 -0.40733972323E+03  0.40733972323E+03  0.00000000000E+00 0. -1.
         25    2    1    2    0    0  0.21315302065E+02  0.61708548603E+02 -0.31016067960E+03  0.34068769241E+03  0.12492465535E+03 0.  0.
          5    1    3    3  501    0  0.50113884724E+02 -0.26547674405E+01 -0.48863339064E+02  0.70043451776E+02  0.10000000000E+00 0.  1.
         -5    1    3    3    0  501 -0.28798582658E+02  0.64363316044E+02 -0.26129734054E+03  0.27064424063E+03  0.10000000000E+00 0.  1.
         21    1    1    2  504  502 -0.21315302065E+02 -0.61708548603E+02 -0.68907360700E+02  0.94923713747E+02  0.00000000000E+00 0. -1.
<mgrwt>
<rscale>  1 0.14095551E+03</rscale>
<asrwt>0</asrwt>
<pdfrwt beam="1">  1       21 0.43494896E-02 0.14095551E+03</pdfrwt>
<pdfrwt beam="2">  1       21 0.62667651E-01 0.14095551E+03</pdfrwt>
<totfact> 0.80686419E+05</totfact>
</mgrwt>
</event>
<event>
 6    1  0.4424270E-002  0.1389973E+03  0.7546771E-02  0.1214685E+00
         21   -1    0    0  503  502  0.00000000000E+00  0.00000000000E+00  0.98280962821E+02  0.98280962821E+02  0.00000000000E+00 0.  1.
         21   -1    0    0  504  503 -0.00000000000E+00 -0.00000000000E+00 -0.10397014191E+03  0.10397014191E+03  0.00000000000E+00 0.  1.
         25    2    1    2    0    0 -0.60606656284E+02 -0.50325989576E+01 -0.18135135568E+02  0.14017537943E+03  0.12498703940E+03 0.  0.
          5    1    3    3  501    0 -0.29853773338E+02 -0.48944177128E+02  0.32948958441E+02  0.66124308084E+02  0.10000000000E+00 0.  1.
         -5    1    3    3    0  501 -0.30752882946E+02  0.43911578170E+02 -0.51084094009E+02  0.74051071346E+02  0.10000000000E+00 0.  1.
         21    1    1    2  504  502  0.60606656284E+02  0.50325989576E+01  0.12445956484E+02  0.62075725296E+02  0.00000000000E+00 0.  1.
<mgrwt>
<rscale>  1 0.13899732E+03</rscale>
<asrwt>0</asrwt>
<pdfrwt beam="1">  1       21 0.15120148E-01 0.13899732E+03</pdfrwt>
<pdfrwt beam="2">  1       21 0.15995407E-01 0.13899732E+03</pdfrwt>
<totfact> 0.13474991E+06</totfact>
</mgrwt>
</event>
<event>
 6    1  0.4424270E-002  0.1264938E+03  0.7546771E-02  0.1232753E+00
         21   -1    0    0  503  502  0.00000000000E+00  0.00000000000E+00  0.18039683643E+03  0.18039683643E+03  0.00000000000E+00 0.  1.
         21   -1    0    0  504  503 -0.00000000000E+00 -0.00000000000E+00 -0.54060280107E+02  0.54060280107E+02  0.00000000000E+00 0.  1.
         25    2    1    2    0    0  0.76229679604E+01  0.17769701654E+02  0.22059960148E+02  0.12840297731E+03  0.12500724300E+03 0.  0.
          5    1    3    3  501    0 -0.19233771950E+02  0.52168837760E+02  0.51477366692E+02  0.75772388759E+02  0.10000000000E+00 0. -1.
         -5    1    3    3    0  501  0.26856739911E+02 -0.34399136106E+02 -0.29417406544E+02  0.52630588552E+02  0.10000000000E+00 0. -1.
         21    1    1    2  504  502 -0.76229679604E+01 -0.17769701654E+02  0.10427659618E+03  0.10605413923E+03  0.00000000000E+00 0.  1.
<mgrwt>
<rscale>  1 0.12649381E+03</rscale>
<asrwt>0</asrwt>
<pdfrwt beam="1">  1       21 0.27753359E-01 0.12649381E+03</pdfrwt>
<pdfrwt beam="2">  1       21 0.83169663E-02 0.12649381E+03</pdfrwt>
<totfact> 0.13865240E+06</totfact>
</mgrwt>
</event>
<event>
 6    1  0.4424270E-002  0.1333201E+03  0.7546771E-02  0.1222611E+00
         21   -1    0    0  504  502  0.00000000000E+00  0.00000000000E+00  0.53847425587E+02  0.53847425587E+02  0.00000000000E+00 0. -1.
         21   -1    0    0  502  503 -0.00000000000E+00 -0.00000000000E+00 -0.15478229620E+03  0.15478229620E+03  0.00000000000E+00 0. -1.
         25    2    1    2    0    0 -0.33810765269E+02 -0.31698363247E+02 -0.90466331213E+02  0.16111609850E+03  0.12500514402E+03 0.  0.
          5    1    3    3  501    0 -0.38660364737E+02 -0.77369597147E+02 -0.49995887885E+02  0.99901337176E+02  0.10000000000E+00 0.  1.
         -5    1    3    3    0  501  0.48495994687E+01  0.45671233900E+02 -0.40470443328E+02  0.61214761325E+02  0.10000000000E+00 0.  1.
         21    1    1    2  504  503  0.33810765269E+02  0.31698363247E+02 -0.10468539401E+02  0.47513623286E+02  0.00000000000E+00 0. -1.
<mgrwt>
<rscale>  1 0.13332007E+03</rscale>
<asrwt>0</asrwt>
<pdfrwt beam="1">  1       21 0.82842193E-02 0.13332007E+03</pdfrwt>
<pdfrwt beam="2">  1       21 0.23812661E-01 0.13332007E+03</pdfrwt>
<totfact> 0.18684096E+06</totfact>
</mgrwt>
</event>
<event>
 6    1  0.4424270E-002  0.1266419E+03  0.7546771E-02  0.1232525E+00
         21   -1    0    0  503  502  0.00000000000E+00  0.00000000000E+00  0.24296544657E+03  0.24296544657E+03  0.00000000000E+00 0. -1.
         21   -1    0    0  504  503 -0.00000000000E+00 -0.00000000000E+00 -0.25041617167E+02  0.25041617167E+02  0.00000000000E+00 0. -1.
         25    2    1    2    0    0  0.38321111607E+01 -0.19953209256E+02  0.14601831251E+03  0.19328612293E+03  0.12500144836E+03 0.  0.
          5    1    3    3  501    0  0.58438112335E+02  0.10373334854E+02  0.44862054250E+02  0.74399146237E+02  0.10000000000E+00 0. -1.
         -5    1    3    3    0  501 -0.54606001174E+02 -0.30326544109E+02  0.10115625826E+03  0.11888697669E+03  0.10000000000E+00 0. -1.
         21    1    1    2  504  502 -0.38321111607E+01  0.19953209256E+02  0.71905516886E+02  0.74720940801E+02  0.00000000000E+00 0. -1.
<mgrwt>
<rscale>  1 0.12664193E+03</rscale>
<asrwt>0</asrwt>
<pdfrwt beam="1">  1       21 0.37379298E-01 0.12664193E+03</pdfrwt>
<pdfrwt beam="2">  1       21 0.38525566E-02 0.12664193E+03</pdfrwt>
<totfact> 0.28544914E+06</totfact>
</mgrwt>
</event>
<event>
 6    1  0.4424270E-002  0.1364120E+03  0.7546771E-02  0.1218240E+00
         21   -1    0    0  504  502  0.00000000000E+00  0.00000000000E+00  0.42661648235E+02  0.42661648235E+02  0.00000000000E+00 0. -1.
         21   -1    0    0  502  503 -0.00000000000E+00 -0.00000000000E+00 -0.44672974762E+03  0.44672974762E+03  0.00000000000E+00 0. -1.
         25    2    1    2    0    0  0.50818970004E+02  0.20057826554E+02 -0.41217253892E+03  0.43415946616E+03  0.12499342420E+03 0.  0.
          5    1    3    3  501    0  0.63971578224E+02 -0.38854343340E+02 -0.19917566809E+03  0.21277448056E+03  0.10000000000E+00 0. -1.
         -5    1    3    3    0  501 -0.13152608220E+02  0.58912169893E+02 -0.21299687083E+03  0.22138498560E+03  0.10000000000E+00 0. -1.
         21    1    1    2  504  503 -0.50818970004E+02 -0.20057826554E+02  0.81044395365E+01  0.55231929701E+02  0.00000000000E+00 0. -1.
<mgrwt>
<rscale>  1 0.13641202E+03</rscale>
<asrwt>0</asrwt>
<pdfrwt beam="1">  1       21 0.65633305E-02 0.13641202E+03</pdfrwt>
<pdfrwt beam="2">  1       21 0.68727653E-01 0.13641202E+03</pdfrwt>
<totfact> 0.33013222E+05</totfact>
</mgrwt>
</event>
<event>
 6    1  0.4424270E-002  0.1261901E+03  0.7546771E-02  0.1233221E+00
         21   -1    0    0  504  502  0.00000000000E+00  0.00000000000E+00  0.32731270799E+02  0.32731270799E+02  0.00000000000E+00 0. -1.
         21   -1    0    0  502  503 -0.00000000000E+00 -0.00000000000E+00 -0.16998759752E+03  0.16998759752E+03  0.00000000000E+00 0. -1.
         25    2    1    2    0    0  0.15848891028E+02 -0.69012355433E+01 -0.13578733436E+03  0.18537031398E+03  0.12500055493E+03 0.  0.
          5    1    3    3  501    0  0.15492140159E+01 -0.58335384362E+02 -0.27229794067E+02  0.64396341648E+02  0.10000000000E+00 0.  1.
         -5    1    3    3    0  501  0.14299677012E+02  0.51434148818E+02 -0.10855754030E+03  0.12097397234E+03  0.10000000000E+00 0.  1.
         21    1    1    2  504  503 -0.15848891028E+02  0.69012355433E+01 -0.14689923532E+01  0.17348554331E+02  0.00000000000E+00 0. -1.
<mgrwt>
<rscale>  1 0.12619015E+03</rscale>
<asrwt>0</asrwt>
<pdfrwt beam="1">  1       21 0.50355800E-02 0.12619015E+03</pdfrwt>
<pdfrwt beam="2">  1       21 0.26151939E-01 0.12619015E+03</pdfrwt>
<totfact> 0.36477545E+06</totfact>
</mgrwt>
</event>
<event>
 6    1  0.4424270E-002  0.1260977E+03  0.7546771E-02  0.1233364E+00
         21   -1    0    0  504  502  0.00000000000E+00  0.00000000000E+00  0.10064650861E+03  0.10064650861E+03  0.00000000000E+00 0.  1.
         21   -1    0    0  502  503 -0.00000000000E+00 -0.00000000000E+00 -0.64588679428E+02  0.64588679428E+02  0.00000000000E+00 0.  1.
         25    2    1    2    0    0  0.83179005410E+01 -0.14375344420E+02  0.62079378390E+00  0.12609925219E+03  0.12499919209E+03 0.  0.
          5    1    3    3  501    0  0.57160083302E+02 -0.20980706062E+02  0.30872783483E+02  0.68268615849E+02  0.10000000000E+00 0.  1.
         -5    1    3    3    0  501 -0.48842182761E+02  0.66053616420E+01 -0.30251989699E+02  0.57830636344E+02  0.10000000000E+00 0.  1.
         21    1    1    2  504  503 -0.83179005410E+01  0.14375344420E+02  0.35437035394E+02  0.39135935841E+02  0.00000000000E+00 0.  1.
<mgrwt>
<rscale>  1 0.12609772E+03</rscale>
<asrwt>0</asrwt>
<pdfrwt beam="1">  1       21 0.15484078E-01 0.12609772E+03</pdfrwt>
<pdfrwt beam="2">  1       21 0.99367199E-02 0.12609772E+03</pdfrwt>
<totfact> 0.30047608E+06</totfact>
</mgrwt>
</event>
<event>
 6    1  0.4424270E-002  0.1270845E+03  0.7546771E-02  0.1231847E+00
         21   -1    0    0  504  502  0.00000000000E+00  0.00000000000E+00  0.19325539407E+03  0.19325539407E+03  0.00000000000E+00 0.  1.
         21   -1    0    0  502  503 -0.00000000000E+00 -0.00000000000E+00 -0.31218255488E+03  0.31218255488E+03  0.00000000000E+00 0. -1.
         25    2    1    2    0    0 -0.59370749918E+01  0.22154236545E+02 -0.29848929009E+03  0.32441690783E+03  0.12499765892E+03 0.  0.
          5    1    3    3  501    0  0.58247451343E+01  0.67363708114E+02 -0.24118904574E+03  0.25048745001E+03  0.10000000000E+00 0.  1.
         -5    1    3    3    0  501 -0.11761820126E+02 -0.45209471569E+02 -0.57300244347E+02  0.73929457826E+02  0.10000000000E+00 0.  1.
         21    1    1    2  504  503  0.59370749918E+01 -0.22154236545E+02  0.17956212927E+03  0.18102104111E+03  0.00000000000E+00 0.  1.
<mgrwt>
<rscale>  1 0.12708451E+03</rscale>
<asrwt>0</asrwt>
<pdfrwt beam="1">  1       21 0.29731599E-01 0.12708451E+03</pdfrwt>
<pdfrwt beam="2">  1       21 0.48028085E-01 0.12708451E+03</pdfrwt>
<totfact> 0.46467420E+04</totfact>
</mgrwt>
</event>
<event>
 6    1  0.4424270E-002  0.1260410E+03  0.7546771E-02  0.1233451E+00
         21   -1    0    0  503  502  0.00000000000E+00  0.00000000000E+00  0.26136064329E+03  0.26136064329E+03  0.00000000000E+00 0.  1.
         21   -1    0    0  504  503 -0.00000000000E+00 -0.00000000000E+00 -0.19613885535E+02  0.19613885535E+02  0.00000000000E+00 0.  1.
         25    2    1    2    0    0 -0.16177501477E+02  0.73975833807E+00  0.22339706864E+03  0.25650066753E+03  0.12499633341E+03 0.  0.
          5    1    3    3  501    0 -0.33022765258E+01 -0.35989332939E+02  0.21323411687E+03  0.21627513891E+03  0.10000000000E+00 0.  1.
         -5    1    3    3    0  501 -0.12875224951E+02  0.36729091277E+02  0.10162951778E+02  0.40225528616E+02  0.10000000000E+00 0.  1.
         21    1    1    2  504  502  0.16177501477E+02 -0.73975833807E+00  0.18349689111E+02  0.24473861300E+02  0.00000000000E+00 0.  1.
<mgrwt>
<rscale>  1 0.12604103E+03</rscale>
<asrwt>0</asrwt>
<pdfrwt beam="1">  1       21 0.40209327E-01 0.12604103E+03</pdfrwt>
<pdfrwt beam="2">  1       21 0.30175211E-02 0.12604103E+03</pdfrwt>
<totfact> 0.36923316E+06</totfact>
</mgrwt>
</event>
<event>
 6    1  0.4424270E-002  0.1261717E+03  0.7546771E-02  0.1233249E+00
         21   -1    0    0  504  502  0.00000000000E+00  0.00000000000E+00  0.86039384789E+03  0.86039384789E+03  0.00000000000E+00 0.  1.
         21   -1    0    0  502  503 -0.00000000000E+00 -0.00000000000E+00 -0.21660194463E+03  0.21660194463E+03  0.00000000000E+00 0.  1.
         25    2    1    2    0    0 -0.35935490449E+01  0.16786504336E+02 -0.19813310402E+03  0.23489578764E+03  0.12499841527E+03 0.  0.
          5    1    3    3  501    0  0.25904357800E+02  0.28288755758E+02 -0.44188963228E+01  0.38611217283E+02  0.10000000000E+00 0. -1.
         -5    1    3    3    0  501 -0.29497906845E+02 -0.11502251422E+02 -0.19371420770E+03  0.19628457036E+03  0.10000000000E+00 0. -1.
         21    1    1    2  504  503  0.35935490449E+01 -0.16786504336E+02  0.84192500729E+03  0.84210000488E+03  0.00000000000E+00 0.  1.
<mgrwt>
<rscale>  1 0.12617172E+03</rscale>
<asrwt>0</asrwt>
<pdfrwt beam="1">  1       21 0.13236828E+00 0.12617172E+03</pdfrwt>
<pdfrwt beam="2">  1       21 0.33323376E-01 0.12617172E+03</pdfrwt>
<totfact> 0.38251917E+03</totfact>
</mgrwt>
</event>
<event>
 6    1  0.4424270E-002  0.1476224E+03  0.7546771E-02  0.1203425E+00
         21   -1    0    0  503  502  0.00000000000E+00  0.00000000000E+00  0.73335939718E+02  0.73335939718E+02  0.00000000000E+00 0.  1.
         21   -1    0    0  504  503 -0.00000000000E+00 -0.00000000000E+00 -0.17727666545E+03  0.17727666545E+03  0.00000000000E+00 0.  1.
         25    2    1    2    0    0  0.50882365675E+02  0.59815787960E+02 -0.52245816789E+02  0.15659501513E+03  0.12500171905E+03 0.  0.
          5    1    3    3  501    0 -0.16077296152E+02  0.64284362867E+02 -0.59548979749E+02  0.89090121506E+02  0.10000000000E+00 0. -1.
         -5    1    3    3    0  501  0.66959661827E+02 -0.44685749070E+01  0.73031629609E+01  0.67504893622E+02  0.10000000000E+00 0. -1.
         21    1    1    2  504  502 -0.50882365675E+02 -0.59815787960E+02 -0.51694908940E+02  0.94017590036E+02  0.00000000000E+00 0.  1.
<mgrwt>
<rscale>  1 0.14762240E+03</rscale>
<asrwt>0</asrwt>
<pdfrwt beam="1">  1       21 0.11282452E-01 0.14762240E+03</pdfrwt>
<pdfrwt beam="2">  1       21 0.27273333E-01 0.14762240E+03</pdfrwt>
<totfact> 0.84228022E+05</totfact>
</mgrwt>
</event>
<event>
 6    1  0.4424270E-002  0.1267199E+03  0.7546771E-02  0.1232406E+00
         21   -1    0    0  504  502  0.00000000000E+00  0.00000000000E+00  0.18739691861E+02  0.18739691861E+02  0.00000000000E+00 0.  1.
         21   -1    0    0  502  503 -0.00000000000E+00 -0.00000000000E+00 -0.38032358452E+03  0.38032358452E+03  0.00000000000E+00 0.  1.
         25    2    1    2    0    0  0.18429702545E+02 -0.95977805458E+01 -0.35550300810E+03  0.37741267629E+03  0.12500467243E+03 0.  0.
          5    1    3    3  501    0 -0.39640405711E+01 -0.51899075832E+02 -0.66375073753E+02  0.84349796120E+02  0.10000000000E+00 0. -1.
         -5    1    3    3    0  501  0.22393743116E+02  0.42301295287E+02 -0.28912793434E+03  0.29306288017E+03  0.10000000000E+00 0. -1.
         21    1    1    2  504  503 -0.18429702545E+02  0.95977805458E+01 -0.60808845607E+01  0.21650600092E+02  0.00000000000E+00 0.  1.
<mgrwt>
<rscale>  1 0.12671993E+03</rscale>
<asrwt>0</asrwt>
<pdfrwt beam="1">  1       21 0.28830294E-02 0.12671993E+03</pdfrwt>
<pdfrwt beam="2">  1       21 0.58511323E-01 0.12671993E+03</pdfrwt>
<totfact> 0.18416285E+06</totfact>
</mgrwt>
</event>
<event>
 6    1  0.4424270E-002  0.1326227E+03  0.7546771E-02  0.1223615E+00
         21   -1    0    0  503  502  0.00000000000E+00  0.00000000000E+00  0.72244432885E+02  0.72244432885E+02  0.00000000000E+00 0. -1.
         21   -1    0    0  504  503 -0.00000000000E+00 -0.00000000000E+00 -0.16984886565E+03  0.16984886565E+03  0.00000000000E+00 0. -1.
         25    2    1    2    0    0 -0.31016429859E+02 -0.31625599611E+02 -0.13115737271E+03  0.18652354731E+03  0.12500631909E+03 0.  0.
          5    1    3    3  501    0  0.21969612476E+02  0.60981683422E+01  0.14488137522E+02  0.27014212154E+02  0.10000000000E+00 0.  1.
         -5    1    3    3    0  501 -0.52986042335E+02 -0.37723767953E+02 -0.14564551023E+03  0.15950933516E+03  0.10000000000E+00 0.  1.
         21    1    1    2  504  502  0.31016429859E+02  0.31625599611E+02  0.33552939947E+02  0.55569751224E+02  0.00000000000E+00 0. -1.
<mgrwt>
<rscale>  1 0.13262269E+03</rscale>
<asrwt>0</asrwt>
<pdfrwt beam="1">  1       21 0.11114528E-01 0.13262269E+03</pdfrwt>
<pdfrwt beam="2">  1       21 0.26130594E-01 0.13262269E+03</pdfrwt>
<totfact> 0.93822752E+05</totfact>
</mgrwt>
</event>
<event>
 6    1  0.4424270E-002  0.1289617E+03  0.7546771E-02  0.1229005E+00
         21   -1    0    0  504  502  0.00000000000E+00  0.00000000000E+00  0.16555236675E+03  0.16555236675E+03  0.00000000000E+00 0. -1.
         21   -1    0    0  502  503 -0.00000000000E+00 -0.00000000000E+00 -0.86398060955E+02  0.86398060955E+02  0.00000000000E+00 0. -1.
         25    2    1    2    0    0  0.81013226358E+00 -0.31703319680E+02 -0.34874240325E+02  0.13359390645E+03  0.12500144963E+03 0.  0.
          5    1    3    3  501    0  0.34701749510E+02  0.37981563841E+02 -0.15201014064E+02  0.53645982510E+02  0.10000000000E+00 0. -1.
         -5    1    3    3    0  501 -0.33891617247E+02 -0.69684883521E+02 -0.19673226261E+02  0.79947923941E+02  0.10000000000E+00 0. -1.
         21    1    1    2  504  503 -0.81013226358E+00  0.31703319680E+02  0.11402854612E+03  0.11835652126E+03  0.00000000000E+00 0. -1.
<mgrwt>
<rscale>  1 0.12896170E+03</rscale>
<asrwt>0</asrwt>
<pdfrwt beam="1">  1       21 0.25469595E-01 0.12896170E+03</pdfrwt>
<pdfrwt beam="2">  1       21 0.13292009E-01 0.12896170E+03</pdfrwt>
<totfact> 0.71699290E+05</totfact>
</mgrwt>
</event>
<event>
 6    1  0.4424270E-002  0.1262112E+03  0.7546771E-02  0.1233188E+00
         21   -1    0    0  503  502  0.00000000000E+00  0.00000000000E+00  0.23525414301E+02  0.23525414301E+02  0.00000000000E+00 0.  1.
         21   -1    0    0  504  503 -0.00000000000E+00 -0.00000000000E+00 -0.25949149142E+03  0.25949149142E+03  0.00000000000E+00 0.  1.
         25    2    1    2    0    0 -0.15502976024E+02 -0.79382433029E+01 -0.23349857431E+03  0.26542581302E+03  0.12500368010E+03 0.  0.
          5    1    3    3  501    0  0.25989071611E+02  0.44128139471E+02 -0.56173845953E+02  0.76014705850E+02  0.10000000000E+00 0. -1.
         -5    1    3    3    0  501 -0.41492047634E+02 -0.52066382774E+02 -0.17732472836E+03  0.18941110717E+03  0.10000000000E+00 0. -1.
         21    1    1    2  504  502  0.15502976024E+02  0.79382433029E+01 -0.24675028079E+01  0.17591092702E+02  0.00000000000E+00 0.  1.
<mgrwt>
<rscale>  1 0.12621124E+03</rscale>
<asrwt>0</asrwt>
<pdfrwt beam="1">  1       21 0.36192943E-02 0.12621124E+03</pdfrwt>
<pdfrwt beam="2">  1       21 0.39921770E-01 0.12621124E+03</pdfrwt>
<totfact> 0.27768540E+06</totfact>
</mgrwt>
</event>
<event>
 6    1  0.4424270E-002  0.1276509E+03  0.7546771E-02  0.1230984E+00
         21   -1    0    0  504  502  0.00000000000E+00  0.00000000000E+00  0.46097945068E+02  0.46097945068E+02  0.00000000000E+00 0. -1.
         21   -1    0    0  502  503 -0.00000000000E+00 -0.00000000000E+00 -0.12943390232E+03  0.12943390232E+03  0.00000000000E+00 0. -1.
         25    2    1    2    0    0 -0.22095642493E+02  0.13496625629E+02 -0.76241121652E+02  0.14868574874E+03  0.12499746768E+03 0.  0.
          5    1    3    3  501    0  0.59324054443E+01  0.39119477080E+02  0.20640731622E+02  0.44627085086E+02  0.10000000000E+00 0.  1.
         -5    1    3    3    0  501 -0.28028047937E+02 -0.25622851451E+02 -0.96881853274E+02  0.10405866365E+03  0.10000000000E+00 0.  1.
         21    1    1    2  504  503  0.22095642493E+02 -0.13496625629E+02 -0.70948356022E+01  0.26846098651E+02  0.00000000000E+00 0. -1.
<mgrwt>
<rscale>  1 0.12765086E+03</rscale>
<asrwt>0</asrwt>
<pdfrwt beam="1">  1       21 0.70919916E-02 0.12765086E+03</pdfrwt>
<pdfrwt beam="2">  1       21 0.19912908E-01 0.12765086E+03</pdfrwt>
<totfact> 0.34021858E+06</totfact>
</mgrwt>
</event>
<event>
 6    1  0.4424270E-002  0.1367703E+03  0.7546771E-02  0.1217742E+00
         21   -1    0    0  504  502  0.00000000000E+00  0.00000000000E+00  0.66658142808E+02  0.66658142808E+02  0.00000000000E+00 0.  1.
         21   -1    0    0  502  503 -0.00000000000E+00 -0.00000000000E+00 -0.16957941292E+03  0.16957941292E+03  0.00000000000E+00 0.  1.
         25    2    1    2    0    0  0.15735260917E+02  0.53224517033E+02 -0.11586014836E+03  0.17924753713E+03  0.12500263172E+03 0.  0.
          5    1    3    3  501    0 -0.26310748577E+02 -0.29822963255E+02 -0.55601481481E+02  0.68360802883E+02  0.10000000000E+00 0.  1.
         -5    1    3    3    0  501  0.42046009494E+02  0.83047480288E+02 -0.60258666881E+02  0.11088673424E+03  0.10000000000E+00 0.  1.
         21    1    1    2  504  503 -0.15735260917E+02 -0.53224517033E+02  0.12938878253E+02  0.56990018599E+02  0.00000000000E+00 0.  1.
<mgrwt>
<rscale>  1 0.13677027E+03</rscale>
<asrwt>0</asrwt>
<pdfrwt beam="1">  1       21 0.10255099E-01 0.13677027E+03</pdfrwt>
<pdfrwt beam="2">  1       21 0.26089140E-01 0.13677027E+03</pdfrwt>
<totfact> 0.10843544E+06</totfact>
</mgrwt>
</event>
<event>
 6    1  0.4424270E-002  0.1738836E+03  0.7546771E-02  0.1173857E+00
         21   -1    0    0  504  502  0.00000000000E+00  0.00000000000E+00  0.28231735782E+03  0.28231735782E+03  0.00000000000E+00 0.  1.
         21   -1    0    0  502  503 -0.00000000000E+00 -0.00000000000E+00 -0.29746150598E+03  0.29746150598E+03  0.00000000000E+00 0.  1.
         25    2    1    2    0    0 -0.11062583944E+03 -0.48702464096E+02 -0.25647943403E+03  0.30986642139E+03  0.12500197064E+03 0.  0.
          5    1    3    3  501    0 -0.54803863465E+02  0.26005096886E+02 -0.17775938874E+03  0.18782475555E+03  0.10000000000E+00 0.  1.
         -5    1    3    3    0  501 -0.55821975974E+02 -0.74707560981E+02 -0.78720045290E+02  0.12204166584E+03  0.10000000000E+00 0.  1.
         21    1    1    2  504  503  0.11062583944E+03  0.48702464096E+02  0.24133528587E+03  0.26991244241E+03  0.00000000000E+00 0.  1.
<mgrwt>
<rscale>  1 0.17388358E+03</rscale>
<asrwt>0</asrwt>
<pdfrwt beam="1">  1       21 0.43433440E-01 0.17388358E+03</pdfrwt>
<pdfrwt beam="2">  1       21 0.45763309E-01 0.17388358E+03</pdfrwt>
<totfact> 0.23580420E+04</totfact>
</mgrwt>
</event>
<event>
 6    1  0.4424270E-002  0.1269124E+03  0.7546771E-02  0.1232110E+00
         21   -1    0    0  504  502  0.00000000000E+00  0.00000000000E+00  0.52522160235E+02  0.52522160235E+02  0.00000000000E+00 0.  1.
         21   -1    0    0  502  503 -0.00000000000E+00 -0.00000000000E+00 -0.29060321209E+03  0.29060321209E+03  0.00000000000E+00 0.  1.
         25    2    1    2    0    0 -0.17732646612E+02  0.12930878367E+02 -0.27346981475E+03  0.30148381964E+03  0.12500039822E+03 0.  0.
          5    1    3    3  501    0  0.65823202114E+01 -0.25860884217E+02 -0.24732824335E+03  0.24876370763E+03  0.10000000000E+00 0.  1.
         -5    1    3    3    0  501 -0.24314966824E+02  0.38791762584E+02 -0.26141571398E+02  0.52720112018E+02  0.10000000000E+00 0.  1.
         21    1    1    2  504  503  0.17732646612E+02 -0.12930878367E+02  0.35388762891E+02  0.41641552687E+02  0.00000000000E+00 0.  1.
<mgrwt>
<rscale>  1 0.12691239E+03</rscale>
<asrwt>0</asrwt>
<pdfrwt beam="1">  1       21 0.80803324E-02 0.12691239E+03</pdfrwt>
<pdfrwt beam="2">  1       21 0.44708186E-01 0.12691239E+03</pdfrwt>
<totfact> 0.57055257E+05</totfact>
</mgrwt>
</event>
<event>
 6    1  0.4424270E-002  0.1586982E+03  0.7546771E-02  0.1190174E+00
         21   -1    0    0  504  502  0.00000000000E+00  0.00000000000E+00  0.42389966634E+03  0.42389966634E+03  0.00000000000E+00 0.  1.
         21   -1    0    0  502  503 -0.00000000000E+00 -0.00000000000E+00 -0.95912065974E+02  0.95912065974E+02  0.00000000000E+00 0.  1.
         25    2    1    2    0    0  0.16963615320E+02 -0.96292820798E+02 -0.18518366110E+02  0.15977498921E+03  0.12500018285E+03 0.  0.
          5    1    3    3  501    0 -0.15111783647E+02 -0.41521616210E+02  0.49763013367E+02  0.66549065486E+02  0.10000000000E+00 0.  1.
         -5    1    3    3    0  501  0.32075398967E+02 -0.54771204588E+02 -0.68281379477E+02  0.93225923724E+02  0.10000000000E+00 0.  1.
         21    1    1    2  504  503 -0.16963615320E+02  0.96292820798E+02  0.34650596647E+03  0.36003674310E+03  0.00000000000E+00 0.  1.
<mgrwt>
<rscale>  1 0.15869820E+03</rscale>
<asrwt>0</asrwt>
<pdfrwt beam="1">  1       21 0.65215332E-01 0.15869820E+03</pdfrwt>
<pdfrwt beam="2">  1       21 0.14755703E-01 0.15869820E+03</pdfrwt>
<totfact> 0.88712353E+04</totfact>
</mgrwt>
</event>
<event>
 6    1  0.4424270E-002  0.1663584E+03  0.7546771E-02  0.1181699E+00
         21   -1    0    0  503  502  0.00000000000E+00  0.00000000000E+00  0.49623492845E+03  0.49623492845E+03  0.00000000000E+00 0. -1.
         21   -1    0    0  504  503 -0.00000000000E+00 -0.00000000000E+00 -0.84957018177E+02  0.84957018177E+02  0.00000000000E+00 0. -1.
         25    2    1    2    0    0 -0.68455138740E+02  0.85837415671E+02  0.11660332338E+02  0.16676658960E+03  0.12498385539E+03 0.  0.
          5    1    3    3  501    0 -0.22179231964E+02  0.75466976737E+02  0.60089529090E+02  0.98984566547E+02  0.10000000000E+00 0. -1.
         -5    1    3    3    0  501 -0.46275906776E+02  0.10370438934E+02 -0.48429196752E+02  0.67782023057E+02  0.10000000000E+00 0. -1.
         21    1    1    2  504  502  0.68455138740E+02 -0.85837415671E+02  0.39961757793E+03  0.41442535702E+03  0.00000000000E+00 0. -1.
<mgrwt>
<rscale>  1 0.16635844E+03</rscale>
<asrwt>0</asrwt>
<pdfrwt beam="1">  1       21 0.76343834E-01 0.16635844E+03</pdfrwt>
<pdfrwt beam="2">  1       21 0.13070311E-01 0.16635844E+03</pdfrwt>
<totfact> 0.77809579E+04</totfact>
</mgrwt>
</event>
<event>
 6    1  0.4424270E-002  0.1289997E+03  0.7546771E-02  0.1228948E+00
         21   -1    0    0  504  502  0.00000000000E+00  0.00000000000E+00  0.79334711700E+02  0.79334711700E+02  0.00000000000E+00 0. -1.
         21   -1    0    0  502  503 -0.00000000000E+00 -0.00000000000E+00 -0.42906463121E+03  0.42906463121E+03  0.00000000000E+00 0.  1.
         25    2    1    2    0    0 -0.24117390511E+02  0.20827453305E+02 -0.41563568459E+03  0.43519414360E+03  0.12500195594E+03 0.  0.
          5    1    3    3  501    0 -0.33041789070E+02  0.35979934023E+02 -0.52796691607E+02  0.71929243857E+02  0.10000000000E+00 0. -1.
         -5    1    3    3    0  501  0.89243985588E+01 -0.15152480718E+02 -0.36283899298E+03  0.36326489975E+03  0.10000000000E+00 0. -1.
         21    1    1    2  504  503  0.24117390511E+02 -0.20827453305E+02  0.65905765073E+02  0.73205199310E+02  0.00000000000E+00 0. -1.
<mgrwt>
<rscale>  1 0.12899969E+03</rscale>
<asrwt>0</asrwt>
<pdfrwt beam="1">  1       21 0.12205340E-01 0.12899969E+03</pdfrwt>
<pdfrwt beam="2">  1       21 0.66009942E-01 0.12899969E+03</pdfrwt>
<totfact> 0.12278765E+05</totfact>
</mgrwt>
</event>
<event>
 6    1  0.4424270E-002  0.1259211E+03  0.7546771E-02  0.1233637E+00
         21   -1    0    0  503  502  0.00000000000E+00  0.00000000000E+00  0.32256823174E+01  0.32256823174E+01  0.00000000000E+00 0. -1.
         21   -1    0    0  504  503 -0.00000000000E+00 -0.00000000000E+00 -0.19978350321E+04  0.19978350321E+04  0.00000000000E+00 0. -1.
         25    2    1    2    0    0  0.14723423561E+02 -0.38523640678E+01 -0.19472264637E+04  0.19512936791E+04  0.12499800507E+03 0.  0.
          5    1    3    3  501    0 -0.14875912268E+02  0.31419032619E+02 -0.16628654307E+04  0.16632287573E+04  0.10000000000E+00 0. -1.
         -5    1    3    3    0  501  0.29599335829E+02 -0.35271396687E+02 -0.28436103298E+03  0.28806492182E+03  0.10000000000E+00 0. -1.
         21    1    1    2  504  502 -0.14723423561E+02  0.38523640678E+01 -0.47382886083E+02  0.49767035313E+02  0.00000000000E+00 0. -1.
<mgrwt>
<rscale>  1 0.12592109E+03</rscale>
<asrwt>0</asrwt>
<pdfrwt beam="1">  1       21 0.49625975E-03 0.12592109E+03</pdfrwt>
<pdfrwt beam="2">  1       21 0.30735866E+00 0.12592109E+03</pdfrwt>
<totfact> 0.36866050E+05</totfact>
</mgrwt>
</event>
<event>
 6    1  0.4424270E-002  0.1279435E+03  0.7546771E-02  0.1230539E+00
         21   -1    0    0  503  502  0.00000000000E+00  0.00000000000E+00  0.47845478657E+03  0.47845478657E+03  0.00000000000E+00 0.  1.
         21   -1    0    0  504  503 -0.00000000000E+00 -0.00000000000E+00 -0.34720766296E+02  0.34720766296E+02  0.00000000000E+00 0.  1.
         25    2    1    2    0    0 -0.18094795388E+02  0.20409032138E+02  0.85449606316E+02  0.15385442699E+03  0.12500239707E+03 0.  0.
          5    1    3    3  501    0 -0.32551932807E+02 -0.87722707477E+01 -0.22874368933E+02  0.40740984495E+02  0.10000000000E+00 0. -1.
         -5    1    3    3    0  501  0.14457137419E+02  0.29181302885E+02  0.10832397525E+03  0.11311344250E+03  0.10000000000E+00 0. -1.
         21    1    1    2  504  502  0.18094795388E+02 -0.20409032138E+02  0.35828441396E+03  0.35932112587E+03  0.00000000000E+00 0.  1.
<mgrwt>
<rscale>  1 0.12794354E+03</rscale>
<asrwt>0</asrwt>
<pdfrwt beam="1">  1       21 0.73608424E-01 0.12794354E+03</pdfrwt>
<pdfrwt beam="2">  1       21 0.53416567E-02 0.12794354E+03</pdfrwt>
<totfact> 0.40343936E+05</totfact>
</mgrwt>
</event>
<event>
 6    1  0.4424270E-002  0.1518610E+03  0.7546771E-02  0.1198205E+00
         21   -1    0    0  504  502  0.00000000000E+00  0.00000000000E+00  0.22218925160E+03  0.22218925160E+03  0.00000000000E+00 0.  1.
         21   -1    0    0  502  503 -0.00000000000E+00 -0.00000000000E+00 -0.64155744657E+02  0.64155744657E+02  0.00000000000E+00 0.  1.
         25    2    1    2    0    0 -0.37803373205E+02 -0.77503381166E+02  0.90185559721E+02  0.17662164842E+03  0.12500360951E+03 0.  0.
          5    1    3    3  501    0 -0.22430137990E+02  0.21571087465E+02 -0.12103514012E+02  0.33390536925E+02  0.10000000000E+00 0. -1.
         -5    1    3    3    0  501 -0.15373235216E+02 -0.99074468631E+02  0.10228907373E+03  0.14323111150E+03  0.10000000000E+00 0. -1.
         21    1    1    2  504  503  0.37803373205E+02  0.77503381166E+02  0.67847947220E+02  0.10972334783E+03  0.00000000000E+00 0.  1.
<mgrwt>
<rscale>  1 0.15186103E+03</rscale>
<asrwt>0</asrwt>
<pdfrwt beam="1">  1       21 0.34182961E-01 0.15186103E+03</pdfrwt>
<pdfrwt beam="2">  1       21 0.98701147E-02 0.15186103E+03</pdfrwt>
<totfact> 0.68779851E+05</totfact>
</mgrwt>
</event>
<event>
 6    1  0.4424270E-002  0.1300038E+03  0.7546771E-02  0.1227450E+00
         21   -1    0    0  504  502  0.00000000000E+00  0.00000000000E+00  0.23128301943E+03  0.23128301943E+03  0.00000000000E+00 0. -1.
         21   -1    0    0  502  503 -0.00000000000E+00 -0.00000000000E+00 -0.11220263439E+03  0.11220263439E+03  0.00000000000E+00 0.  1.
         25    2    1    2    0    0  0.24286584314E+02  0.25898881918E+02 -0.72357158315E+02  0.14878351395E+03  0.12506152646E+03 0.  0.
          5    1    3    3  501    0  0.24023448790E+02  0.75143445270E+02 -0.32074889296E+02  0.85161446572E+02  0.10000000000E+00 0.  1.
         -5    1    3    3    0  501  0.26313552369E+00 -0.49244563353E+02 -0.40282269019E+02  0.63622067377E+02  0.10000000000E+00 0.  1.
         21    1    1    2  504  503 -0.24286584314E+02 -0.25898881918E+02  0.19143754335E+03  0.19470213986E+03  0.00000000000E+00 0. -1.
<mgrwt>
<rscale>  1 0.13000375E+03</rscale>
<asrwt>0</asrwt>
<pdfrwt beam="1">  1       21 0.35582003E-01 0.13000375E+03</pdfrwt>
<pdfrwt beam="2">  1       21 0.17261944E-01 0.13000375E+03</pdfrwt>
<totfact> 0.23462223E+05</totfact>
</mgrwt>
</event>
<event>
 6    1  0.4424270E-002  0.2242550E+03  0.7546771E-02  0.1130750E+00
         21   -1    0    0  503  502  0.00000000000E+00  0.00000000000E+00  0.43014425122E+03  0.43014425122E+03  0.00000000000E+00 0.  1.
         21   -1    0    0  504  503 -0.00000000000E+00 -0.00000000000E+00 -0.34843209892E+03  0.34843209892E+03  0.00000000000E+00 0.  1.
         25    2    1    2    0    0  0.62728979925E+02  0.17529221743E+03 -0.28777404122E+03  0.36483448181E+03  0.12501205503E+03 0.  0.
          5    1    3    3  501    0 -0.56274595898E+01  0.12847292000E+03 -0.11207791921E+03  0.17058261766E+03  0.10000000000E+00 0. -1.
         -5    1    3    3    0  501  0.68356439514E+02  0.46819297436E+02 -0.17569612201E+03  0.19425186415E+03  0.10000000000E+00 0. -1.
         21    1    1    2  504  502 -0.62728979925E+02 -0.17529221743E+03  0.36948619351E+03  0.41374186833E+03  0.00000000000E+00 0.  1.
<mgrwt>
<rscale>  1 0.22425499E+03</rscale>
<asrwt>0</asrwt>
<pdfrwt beam="1">  1       21 0.66176039E-01 0.22425499E+03</pdfrwt>
<pdfrwt beam="2">  1       21 0.53604938E-01 0.22425499E+03</pdfrwt>
<totfact> 0.67492479E+03</totfact>
</mgrwt>
</event>
<event>
 6    1  0.4424270E-002  0.1302292E+03  0.7546771E-02  0.1227116E+00
         21   -1    0    0  503  502  0.00000000000E+00  0.00000000000E+00  0.23246724353E+03  0.23246724353E+03  0.00000000000E+00 0. -1.
         21   -1    0    0  504  503 -0.00000000000E+00 -0.00000000000E+00 -0.70880833578E+02  0.70880833578E+02  0.00000000000E+00 0. -1.
         25    2    1    2    0    0 -0.32403593639E+02  0.17104798444E+02 -0.73957452662E+01  0.13043903804E+03  0.12496831032E+03 0.  0.
          5    1    3    3  501    0 -0.64558075644E+02  0.50988106730E+02  0.39822885103E+01  0.82361403464E+02  0.10000000000E+00 0. -1.
         -5    1    3    3    0  501  0.32154482005E+02 -0.33883308286E+02 -0.11378033776E+02  0.48077634572E+02  0.10000000000E+00 0. -1.
         21    1    1    2  504  502  0.32403593639E+02 -0.17104798444E+02  0.16898215522E+03  0.17290903907E+03  0.00000000000E+00 0. -1.
<mgrwt>
<rscale>  1 0.13022920E+03</rscale>
<asrwt>0</asrwt>
<pdfrwt beam="1">  1       21 0.35764191E-01 0.13022920E+03</pdfrwt>
<pdfrwt beam="2">  1       21 0.10904744E-01 0.13022920E+03</pdfrwt>
<totfact> 0.52871789E+05</totfact>
</mgrwt>
</event>
<event>
 6    1  0.4424270E-002  0.1518311E+03  0.7546771E-02  0.1198241E+00
         21   -1    0    0  503  502  0.00000000000E+00  0.00000000000E+00  0.25337395859E+02  0.25337395859E+02  0.00000000000E+00 0.  1.
         21   -1    0    0  504  503 -0.00000000000E+00 -0.00000000000E+00 -0.58535765657E+03  0.58535765657E+03  0.00000000000E+00 0.  1.
         25    2    1    2    0    0 -0.86138180200E+02 -0.28657462588E+01 -0.41618099799E+03  0.44301162423E+03  0.12499871012E+03 0.  0.
          5    1    3    3  501    0 -0.38774692864E+00  0.43987018261E+02 -0.21376130780E+03  0.21824049769E+03  0.10000000000E+00 0.  1.
         -5    1    3    3    0  501 -0.85750433271E+02 -0.46852764519E+02 -0.20241969019E+03  0.22477112654E+03  0.10000000000E+00 0.  1.
         21    1    1    2  504  502  0.86138180200E+02  0.28657462588E+01 -0.14383926272E+03  0.16768342819E+03  0.00000000000E+00 0.  1.
<mgrwt>
<rscale>  1 0.15183108E+03</rscale>
<asrwt>0</asrwt>
<pdfrwt beam="1">  1       21 0.38980607E-02 0.15183108E+03</pdfrwt>
<pdfrwt beam="2">  1       21 0.90055029E-01 0.15183108E+03</pdfrwt>
<totfact> 0.43302162E+05</totfact>
</mgrwt>
</event>
<event>
 6    1  0.4424270E-002  0.1658855E+03  0.7546771E-02  0.1182208E+00
         21   -1    0    0  503  502  0.00000000000E+00  0.00000000000E+00  0.28077930658E+03  0.28077930658E+03  0.00000000000E+00 0. -1.
         21   -1    0    0  504  503 -0.00000000000E+00 -0.00000000000E+00 -0.11061669204E+03  0.11061669204E+03  0.00000000000E+00 0.  1.
         25    2    1    2    0    0 -0.23165034489E+02  0.10655503695E+03 -0.25075610194E+02  0.16777006292E+03  0.12500965189E+03 0.  0.
          5    1    3    3  501    0 -0.66003924781E+02  0.58773522516E+02 -0.46817181432E+02  0.10001351665E+03  0.10000000000E+00 0.  1.
         -5    1    3    3    0  501  0.42838890293E+02  0.47781514436E+02  0.21741571237E+02  0.67756546275E+02  0.10000000000E+00 0.  1.
         21    1    1    2  504  502  0.23165034489E+02 -0.10655503695E+03  0.19523822473E+03  0.22362593571E+03  0.00000000000E+00 0. -1.
<mgrwt>
<rscale>  1 0.16588553E+03</rscale>
<asrwt>0</asrwt>
<pdfrwt beam="1">  1       21 0.43196816E-01 0.16588553E+03</pdfrwt>
<pdfrwt beam="2">  1       21 0.17017953E-01 0.16588553E+03</pdfrwt>
<totfact> 0.16182700E+05</totfact>
</mgrwt>
</event>
<event>
 6    1  0.4424270E-002  0.1309348E+03  0.7546771E-02  0.1226075E+00
         21   -1    0    0  503  502  0.00000000000E+00  0.00000000000E+00  0.15988132570E+03  0.15988132570E+03  0.00000000000E+00 0.  1.
         21   -1    0    0  504  503 -0.00000000000E+00 -0.00000000000E+00 -0.14291471021E+03  0.14291471021E+03  0.00000000000E+00 0.  1.
         25    2    1    2    0    0 -0.38617932190E+02  0.35883012381E+01 -0.10939266504E+03  0.17061854779E+03  0.12505883852E+03 0.  0.
          5    1    3    3  501    0 -0.17133674967E+02 -0.12676440030E+02 -0.13305865796E+03  0.13475485671E+03  0.10000000000E+00 0.  1.
         -5    1    3    3    0  501 -0.21484257223E+02  0.16264741268E+02  0.23665992919E+02  0.35863691079E+02  0.10000000000E+00 0.  1.
         21    1    1    2  504  502  0.38617932190E+02 -0.35883012381E+01  0.12635928053E+03  0.13217748813E+03  0.00000000000E+00 0.  1.
<mgrwt>
<rscale>  1 0.13093485E+03</rscale>
<asrwt>0</asrwt>
<pdfrwt beam="1">  1       21 0.24597127E-01 0.13093485E+03</pdfrwt>
<pdfrwt beam="2">  1       21 0.21986878E-01 0.13093485E+03</pdfrwt>
<totfact> 0.30576976E+05</totfact>
</mgrwt>
</event>
<event>
 6    1  0.4424270E-002  0.1260558E+03  0.7546771E-02  0.1233428E+00
         21   -1    0    0  503  502  0.00000000000E+00  0.00000000000E+00  0.32450358876E+02  0.32450358876E+02  0.00000000000E+00 0. -1.
         21   -1    0    0  504  503 -0.00000000000E+00 -0.00000000000E+00 -0.58426214391E+03  0.58426214391E+03  0.00000000000E+00 0. -1.
         25    2    1    2    0    0 -0.16210078072E+02 -0.10919909754E+01 -0.57485723057E+03  0.58851584278E+03  0.12500441028E+03 0.  0.
          5    1    3    3  501    0  0.26414716280E+02  0.40187347367E+02 -0.11224219595E+03  0.12211093594E+03  0.10000000000E+00 0.  1.
         -5    1    3    3    0  501 -0.42624794352E+02 -0.41279338343E+02 -0.46261503462E+03  0.46640490684E+03  0.10000000000E+00 0.  1.
         21    1    1    2  504  502  0.16210078072E+02  0.10919909754E+01  0.23045445538E+02  0.28196660004E+02  0.00000000000E+00 0. -1.
<mgrwt>
<rscale>  1 0.12605579E+03</rscale>
<asrwt>0</asrwt>
<pdfrwt beam="1">  1       21 0.49923629E-02 0.12605579E+03</pdfrwt>
<pdfrwt beam="2">  1       21 0.89886484E-01 0.12605579E+03</pdfrwt>
<totfact> 0.28900195E+05</totfact>
</mgrwt>
</event>
<event>
 6    1  0.4424270E-002  0.1264944E+03  0.7546771E-02  0.1232752E+00
         21   -1    0    0  503  502  0.00000000000E+00  0.00000000000E+00  0.35236253762E+02  0.35236253762E+02  0.00000000000E+00 0. -1.
         21   -1    0    0  504  503 -0.00000000000E+00 -0.00000000000E+00 -0.17194304716E+03  0.17194304716E+03  0.00000000000E+00 0. -1.
         25    2    1    2    0    0 -0.18805007802E+02  0.49096077766E+01 -0.13860782646E+03  0.18765120594E+03  0.12499245164E+03 0.  0.
          5    1    3    3  501    0 -0.86856792714E+00 -0.18442259981E+02 -0.15353300131E+03  0.15463914076E+03  0.10000000000E+00 0.  1.
         -5    1    3    3    0  501 -0.17936439875E+02  0.23351867757E+02  0.14925174848E+02  0.33012065179E+02  0.10000000000E+00 0.  1.
         21    1    1    2  504  502  0.18805007802E+02 -0.49096077766E+01  0.19010330641E+01  0.19528094983E+02  0.00000000000E+00 0. -1.
<mgrwt>
<rscale>  1 0.12649445E+03</rscale>
<asrwt>0</asrwt>
<pdfrwt beam="1">  1       21 0.54209622E-02 0.12649445E+03</pdfrwt>
<pdfrwt beam="2">  1       21 0.26452776E-01 0.12649445E+03</pdfrwt>
<totfact> 0.31532231E+06</totfact>
</mgrwt>
</event>
<event>
 6    1  0.4424270E-002  0.1387636E+03  0.7546771E-02  0.1215002E+00
         21   -1    0    0  503  502  0.00000000000E+00  0.00000000000E+00  0.57286429173E+02  0.57286429173E+02  0.00000000000E+00 0. -1.
         21   -1    0    0  504  503 -0.00000000000E+00 -0.00000000000E+00 -0.20024274661E+03  0.20024274661E+03  0.00000000000E+00 0. -1.
         25    2    1    2    0    0  0.19150545756E+02  0.57106620390E+02 -0.14016137380E+03  0.19723223386E+03  0.12500973511E+03 0.  0.
          5    1    3    3  501    0  0.23996141794E+02  0.11084246404E+01  0.17585407854E+02  0.29770790980E+02  0.10000000000E+00 0.  1.
         -5    1    3    3    0  501 -0.48455960383E+01  0.55998195750E+02 -0.15774678166E+03  0.16746144288E+03  0.10000000000E+00 0.  1.
         21    1    1    2  504  502 -0.19150545756E+02 -0.57106620390E+02 -0.27949436337E+01  0.60296941921E+02  0.00000000000E+00 0. -1.
<mgrwt>
<rscale>  1 0.13876362E+03</rscale>
<asrwt>0</asrwt>
<pdfrwt beam="1">  1       21 0.88132966E-02 0.13876362E+03</pdfrwt>
<pdfrwt beam="2">  1       21 0.30806577E-01 0.13876362E+03</pdfrwt>
<totfact> 0.10269500E+06</totfact>
</mgrwt>
</event>
<event>
 6    1  0.4424270E-002  0.1260841E+03  0.7546771E-02  0.1233385E+00
         21   -1    0    0  504  502  0.00000000000E+00  0.00000000000E+00  0.10665500482E+02  0.10665500482E+02  0.00000000000E+00 0.  1.
         21   -1    0    0  502  503 -0.00000000000E+00 -0.00000000000E+00 -0.52797962324E+03  0.52797962324E+03  0.00000000000E+00 0.  1.
         25    2    1    2    0    0 -0.16400879172E+02  0.15873450280E+01 -0.49559991101E+03  0.51138681318E+03  0.12500276956E+03 0.  0.
          5    1    3    3  501    0  0.17539637842E+02  0.13478297023E+02 -0.46084026271E+03  0.46137084988E+03  0.10000000000E+00 0.  1.
         -5    1    3    3    0  501 -0.33940517014E+02 -0.11890951995E+02 -0.34759648297E+02  0.50015963294E+02  0.10000000000E+00 0.  1.
         21    1    1    2  504  503  0.16400879172E+02 -0.15873450280E+01 -0.21714211757E+02  0.27258310551E+02  0.00000000000E+00 0.  1.
<mgrwt>
<rscale>  1 0.12608410E+03</rscale>
<asrwt>0</asrwt>
<pdfrwt beam="1">  1       21 0.16408465E-02 0.12608410E+03</pdfrwt>
<pdfrwt beam="2">  1       21 0.81227623E-01 0.12608410E+03</pdfrwt>
<totfact> 0.22464637E+06</totfact>
</mgrwt>
</event>
<event>
 6    1  0.4424270E-002  0.1275989E+03  0.7546771E-02  0.1231063E+00
         21   -1    0    0  504  502  0.00000000000E+00  0.00000000000E+00  0.10893101758E+03  0.10893101758E+03  0.00000000000E+00 0.  1.
         21   -1    0    0  502  503 -0.00000000000E+00 -0.00000000000E+00 -0.60111237275E+02  0.60111237275E+02  0.00000000000E+00 0.  1.
         25    2    1    2    0    0 -0.12452236719E+02 -0.22381073338E+02  0.17830096576E+02  0.12883863387E+03  0.12500204234E+03 0.  0.
          5    1    3    3  501    0 -0.22842029196E+02 -0.42338610706E+02 -0.42661024166E+02  0.64298438840E+02  0.10000000000E+00 0. -1.
         -5    1    3    3    0  501  0.10389792478E+02  0.19957537369E+02  0.60491120742E+02  0.64540195028E+02  0.10000000000E+00 0. -1.
         21    1    1    2  504  503  0.12452236719E+02  0.22381073338E+02  0.30989683732E+02  0.40203620991E+02  0.00000000000E+00 0.  1.
<mgrwt>
<rscale>  1 0.12759891E+03</rscale>
<asrwt>0</asrwt>
<pdfrwt beam="1">  1       21 0.16758618E-01 0.12759891E+03</pdfrwt>
<pdfrwt beam="2">  1       21 0.92478826E-02 0.12759891E+03</pdfrwt>
<totfact> 0.29522699E+06</totfact>
</mgrwt>
</event>
<event>
 6    1  0.4424270E-002  0.1674395E+03  0.7546771E-02  0.1180545E+00
         21   -1    0    0  503  502  0.00000000000E+00  0.00000000000E+00  0.54377611658E+02  0.54377611658E+02  0.00000000000E+00 0.  1.
         21   -1    0    0  504  503 -0.00000000000E+00 -0.00000000000E+00 -0.42905550606E+03  0.42905550606E+03  0.00000000000E+00 0. -1.
         25    2    1    2    0    0 -0.94225790496E+02  0.59427049703E+02 -0.31576928267E+03  0.35741606186E+03  0.12500371022E+03 0.  0.
          5    1    3    3  501    0 -0.32833866453E+02 -0.60887998355E+01 -0.23274404152E+03  0.23512748698E+03  0.10000000000E+00 0.  1.
         -5    1    3    3    0  501 -0.61391924043E+02  0.65515849539E+02 -0.83025241144E+02  0.12228857488E+03  0.10000000000E+00 0.  1.
         21    1    1    2  504  502  0.94225790496E+02 -0.59427049703E+02 -0.58908611735E+02  0.12601705586E+03  0.00000000000E+00 0.  1.
<mgrwt>
<rscale>  1 0.16743955E+03</rscale>
<asrwt>0</asrwt>
<pdfrwt beam="1">  1       21 0.83657861E-02 0.16743955E+03</pdfrwt>
<pdfrwt beam="2">  1       21 0.66008542E-01 0.16743955E+03</pdfrwt>
<totfact> 0.23562548E+05</totfact>
</mgrwt>
</event>
<event>
 6    1  0.4424270E-002  0.1299239E+03  0.7546771E-02  0.1227569E+00
         21   -1    0    0  504  502  0.00000000000E+00  0.00000000000E+00  0.36785435967E+03  0.36785435967E+03  0.00000000000E+00 0.  1.
         21   -1    0    0  502  503 -0.00000000000E+00 -0.00000000000E+00 -0.18818416866E+02  0.18818416866E+02  0.00000000000E+00 0.  1.
         25    2    1    2    0    0  0.10769408603E+02 -0.33750771383E+02  0.25513841024E+03  0.28631421262E+03  0.12500050094E+03 0.  0.
          5    1    3    3  501    0 -0.49536466184E+02  0.69277665023E+01  0.60334656176E+02  0.78371781699E+02  0.10000000000E+00 0. -1.
         -5    1    3    3    0  501  0.60305874787E+02 -0.40678537885E+02  0.19480375406E+03  0.20794243092E+03  0.10000000000E+00 0. -1.
         21    1    1    2  504  503 -0.10769408603E+02  0.33750771383E+02  0.93897532561E+02  0.10035856392E+03  0.00000000000E+00 0.  1.
<mgrwt>
<rscale>  1 0.12992390E+03</rscale>
<asrwt>0</asrwt>
<pdfrwt beam="1">  1       21 0.56592973E-01 0.12992390E+03</pdfrwt>
<pdfrwt beam="2">  1       21 0.28951413E-02 0.12992390E+03</pdfrwt>
<totfact> 0.19632783E+06</totfact>
</mgrwt>
</event>
<event>
 6    1  0.4424270E-002  0.1457569E+03  0.7546771E-02  0.1205786E+00
         21   -1    0    0  503  502  0.00000000000E+00  0.00000000000E+00  0.87400311680E+02  0.87400311680E+02  0.00000000000E+00 0.  1.
         21   -1    0    0  504  503 -0.00000000000E+00 -0.00000000000E+00 -0.27899869815E+03  0.27899869815E+03  0.00000000000E+00 0.  1.
         25    2    1    2    0    0 -0.31303396047E+02 -0.68119397236E+02 -0.23738000233E+03  0.27855761165E+03  0.12499969046E+03 0.  0.
          5    1    3    3  501    0 -0.68308089299E+02 -0.39439479261E+00 -0.11997718479E+03  0.13806044141E+03  0.10000000000E+00 0.  1.
         -5    1    3    3    0  501  0.37004693252E+02 -0.67725002443E+02 -0.11740281754E+03  0.14049717024E+03  0.10000000000E+00 0.  1.
         21    1    1    2  504  502  0.31303396047E+02  0.68119397236E+02  0.45781615863E+02  0.87841398183E+02  0.00000000000E+00 0.  1.
<mgrwt>
<rscale>  1 0.14575691E+03</rscale>
<asrwt>0</asrwt>
<pdfrwt beam="1">  1       21 0.13446202E-01 0.14575691E+03</pdfrwt>
<pdfrwt beam="2">  1       21 0.42922877E-01 0.14575691E+03</pdfrwt>
<totfact> 0.25257826E+05</totfact>
</mgrwt>
</event>
<event>
 6    1  0.4424270E-002  0.1270644E+03  0.7546771E-02  0.1231878E+00
         21   -1    0    0  503  502  0.00000000000E+00  0.00000000000E+00  0.67939289388E+01  0.67939289388E+01  0.00000000000E+00 0.  1.
         21   -1    0    0  504  503 -0.00000000000E+00 -0.00000000000E+00 -0.82692051325E+03  0.82692051325E+03  0.00000000000E+00 0.  1.
         25    2    1    2    0    0 -0.19284015487E+02  0.12189252645E+02 -0.68925553848E+03  0.70086986469E+03  0.12499967510E+03 0.  0.
          5    1    3    3  501    0 -0.29244371564E+02 -0.44269181074E+02 -0.50801382074E+03  0.51077690407E+03  0.10000000000E+00 0. -1.
         -5    1    3    3    0  501  0.99603560766E+01  0.56458433720E+02 -0.18124171773E+03  0.19009296062E+03  0.10000000000E+00 0. -1.
         21    1    1    2  504  502  0.19284015487E+02 -0.12189252645E+02 -0.13087104584E+03  0.13284457750E+03  0.00000000000E+00 0.  1.
<mgrwt>
<rscale>  1 0.12706443E+03</rscale>
<asrwt>0</asrwt>
<pdfrwt beam="1">  1       21 0.10452199E-02 0.12706443E+03</pdfrwt>
<pdfrwt beam="2">  1       21 0.12721853E+00 0.12706443E+03</pdfrwt>
<totfact> 0.16029957E+06</totfact>
</mgrwt>
</event>
<event>
 6    1  0.4424270E-002  0.1261572E+03  0.7546771E-02  0.1233272E+00
         21   -1    0    0  504  502  0.00000000000E+00  0.00000000000E+00  0.21869153452E+03  0.21869153452E+03  0.00000000000E+00 0.  1.
         21   -1    0    0  502  503 -0.00000000000E+00 -0.00000000000E+00 -0.24547991477E+02  0.24547991477E+02  0.00000000000E+00 0.  1.
         25    2    1    2    0    0 -0.95762656520E+01 -0.14091421177E+02  0.15046161327E+03  0.19635259814E+03  0.12500149085E+03 0.  0.
          5    1    3    3  501    0 -0.59860322966E+02 -0.19868054419E+02  0.39572100160E+02  0.74457766305E+02  0.10000000000E+00 0.  1.
         -5    1    3    3    0  501  0.50284057314E+02  0.57766332421E+01  0.11088951311E+03  0.12189483184E+03  0.10000000000E+00 0.  1.
         21    1    1    2  504  503  0.95762656520E+01  0.14091421177E+02  0.43681929769E+02  0.46886927848E+02  0.00000000000E+00 0.  1.
<mgrwt>
<rscale>  1 0.12615723E+03</rscale>
<asrwt>0</asrwt>
<pdfrwt beam="1">  1       21 0.33644850E-01 0.12615723E+03</pdfrwt>
<pdfrwt beam="2">  1       21 0.37766142E-02 0.12615723E+03</pdfrwt>
<totfact> 0.36281317E+06</totfact>
</mgrwt>
</event>
<event>
 6    1  0.4424270E-002  0.1347575E+03  0.7546771E-02  0.1220562E+00
         21   -1    0    0  504  502  0.00000000000E+00  0.00000000000E+00  0.10641894766E+03  0.10641894766E+03  0.00000000000E+00 0.  1.
         21   -1    0    0  502  503 -0.00000000000E+00 -0.00000000000E+00 -0.81582472341E+02  0.81582472341E+02  0.00000000000E+00 0.  1.
         25    2    1    2    0    0 -0.23452109095E+02 -0.44538882984E+02  0.82766639492E+01  0.13501141273E+03  0.12500345948E+03 0.  0.
          5    1    3    3  501    0 -0.34186128602E+02 -0.31650698843E+02  0.62670574487E+02  0.78090134029E+02  0.10000000000E+00 0.  1.
         -5    1    3    3    0  501  0.10734019507E+02 -0.12888184141E+02 -0.54393910538E+02  0.56921278700E+02  0.10000000000E+00 0.  1.
         21    1    1    2  504  503  0.23452109095E+02  0.44538882984E+02  0.16559811374E+02  0.52990007277E+02  0.00000000000E+00 0.  1.
<mgrwt>
<rscale>  1 0.13475748E+03</rscale>
<asrwt>0</asrwt>
<pdfrwt beam="1">  1       21 0.16372146E-01 0.13475748E+03</pdfrwt>
<pdfrwt beam="2">  1       21 0.12551149E-01 0.13475748E+03</pdfrwt>
<totfact> 0.18029084E+06</totfact>
</mgrwt>
</event>
<event>
 6    1  0.4424270E-002  0.1333532E+03  0.7546771E-02  0.1222563E+00
         21   -1    0    0  503  502  0.00000000000E+00  0.00000000000E+00  0.37914020497E+02  0.37914020497E+02  0.00000000000E+00 0. -1.
         21   -1    0    0  504  503 -0.00000000000E+00 -0.00000000000E+00 -0.22373455826E+03  0.22373455826E+03  0.00000000000E+00 0. -1.
         25    2    1    2    0    0  0.46336903773E+02  0.34012911588E+01 -0.16072221059E+03  0.20884134952E+03  0.12499761142E+03 0.  0.
          5    1    3    3  501    0 -0.91776539821E+01 -0.15039618755E+02  0.15311532008E+02  0.23342503665E+02  0.10000000000E+00 0.  1.
         -5    1    3    3    0  501  0.55514557755E+02  0.18440909914E+02 -0.17603374259E+03  0.18549884585E+03  0.10000000000E+00 0.  1.
         21    1    1    2  504  502 -0.46336903773E+02 -0.34012911588E+01 -0.25098327178E+02  0.52807229239E+02  0.00000000000E+00 0.  1.
<mgrwt>
<rscale>  1 0.13335322E+03</rscale>
<asrwt>0</asrwt>
<pdfrwt beam="1">  1       21 0.58329263E-02 0.13335322E+03</pdfrwt>
<pdfrwt beam="2">  1       21 0.34420701E-01 0.13335322E+03</pdfrwt>
<totfact> 0.16784371E+06</totfact>
</mgrwt>
</event>
<event>
 6    1  0.4424270E-002  0.1341329E+03  0.7546771E-02  0.1221449E+00
         21   -1    0    0  504  502  0.00000000000E+00  0.00000000000E+00  0.39825629732E+03  0.39825629732E+03  0.00000000000E+00 0.  1.
         21   -1    0    0  502  503 -0.00000000000E+00 -0.00000000000E+00 -0.21652130103E+02  0.21652130103E+02  0.00000000000E+00 0.  1.
         25    2    1    2    0    0  0.22845609626E+02  0.42944322454E+02  0.24054221080E+03  0.27541277803E+03  0.12500202564E+03 0.  0.
          5    1    3    3  501    0  0.55302337993E+02 -0.19773890936E+02  0.73690785017E+02  0.94232144976E+02  0.10000000000E+00 0.  1.
         -5    1    3    3    0  501 -0.32456728368E+02  0.62718213390E+02  0.16685142579E+03  0.18118063305E+03  0.10000000000E+00 0.  1.
         21    1    1    2  504  503 -0.22845609626E+02 -0.42944322454E+02  0.13606195642E+03  0.14449564940E+03  0.00000000000E+00 0.  1.
<mgrwt>
<rscale>  1 0.13413293E+03</rscale>
<asrwt>0</asrwt>
<pdfrwt beam="1">  1       21 0.61270194E-01 0.13413293E+03</pdfrwt>
<pdfrwt beam="2">  1       21 0.33310972E-02 0.13413293E+03</pdfrwt>
<totfact> 0.13182999E+06</totfact>
</mgrwt>
</event>
<event>
 6    1  0.4424270E-002  0.1262259E+03  0.7546771E-02  0.1233166E+00
         21   -1    0    0  504  502  0.00000000000E+00  0.00000000000E+00  0.23939699274E+03  0.23939699274E+03  0.00000000000E+00 0. -1.
         21   -1    0    0  502  503 -0.00000000000E+00 -0.00000000000E+00 -0.27031954280E+02  0.27031954280E+02  0.00000000000E+00 0. -1.
         25    2    1    2    0    0 -0.15058307865E+02  0.90083672068E+01  0.12618805894E+03  0.17848365087E+03  0.12500033637E+03 0.  0.
          5    1    3    3  501    0 -0.59677002442E+02  0.38594570271E+02  0.85857111577E+02  0.11145554757E+03  0.10000000000E+00 0. -1.
         -5    1    3    3    0  501  0.44618694577E+02 -0.29586203064E+02  0.40330947366E+02  0.67028103307E+02  0.10000000000E+00 0. -1.
         21    1    1    2  504  503  0.15058307865E+02 -0.90083672068E+01  0.86176979513E+02  0.87945296142E+02  0.00000000000E+00 0. -1.
<mgrwt>
<rscale>  1 0.12622594E+03</rscale>
<asrwt>0</asrwt>
<pdfrwt beam="1">  1       21 0.36830305E-01 0.12622594E+03</pdfrwt>
<pdfrwt beam="2">  1       21 0.41587624E-02 0.12622594E+03</pdfrwt>
<totfact> 0.25884668E+06</totfact>
</mgrwt>
</event>
<event>
 6    1  0.4424270E-002  0.1452132E+03  0.7546771E-02  0.1206481E+00
         21   -1    0    0  503  502  0.00000000000E+00  0.00000000000E+00  0.18640873862E+03  0.18640873862E+03  0.00000000000E+00 0.  1.
         21   -1    0    0  504  503 -0.00000000000E+00 -0.00000000000E+00 -0.15467046227E+03  0.15467046227E+03  0.00000000000E+00 0.  1.
         25    2    1    2    0    0  0.32910485165E+02 -0.66034053070E+02 -0.10940582341E+03  0.18181447443E+03  0.12507306951E+03 0.  0.
          5    1    3    3  501    0  0.80978123463E+02 -0.42778190829E+02 -0.64105951398E+02  0.11179004023E+03  0.10000000000E+00 0. -1.
         -5    1    3    3    0  501 -0.48067638298E+02 -0.23255862241E+02 -0.45299872014E+02  0.70024434197E+02  0.10000000000E+00 0. -1.
         21    1    1    2  504  502 -0.32910485165E+02  0.66034053070E+02  0.14114409976E+03  0.15926472646E+03  0.00000000000E+00 0.  1.
<mgrwt>
<rscale>  1 0.14521318E+03</rscale>
<asrwt>0</asrwt>
<pdfrwt beam="1">  1       21 0.28678267E-01 0.14521318E+03</pdfrwt>
<pdfrwt beam="2">  1       21 0.23795456E-01 0.14521318E+03</pdfrwt>
<totfact> 0.19614421E+05</totfact>
</mgrwt>
</event>
<event>
 6    1  0.4424270E-002  0.1362696E+03  0.7546771E-02  0.1218438E+00
         21   -1    0    0  503  502  0.00000000000E+00  0.00000000000E+00  0.39415599435E+02  0.39415599435E+02  0.00000000000E+00 0.  1.
         21   -1    0    0  504  503 -0.00000000000E+00 -0.00000000000E+00 -0.24640684531E+03  0.24640684531E+03  0.00000000000E+00 0.  1.
         25    2    1    2    0    0  0.47365007770E+02 -0.26408169215E+02 -0.17848227906E+03  0.22455584249E+03  0.12501426758E+03 0.  0.
          5    1    3    3  501    0 -0.28284823607E+02  0.46578370757E+00  0.60726177567E+00  0.28295352407E+02  0.10000000000E+00 0. -1.
         -5    1    3    3    0  501  0.75649831377E+02 -0.26873952923E+02 -0.17908954083E+03  0.19626049009E+03  0.10000000000E+00 0. -1.
         21    1    1    2  504  502 -0.47365007770E+02  0.26408169215E+02 -0.28508966814E+02  0.61266602249E+02  0.00000000000E+00 0.  1.
<mgrwt>
<rscale>  1 0.13626959E+03</rscale>
<asrwt>0</asrwt>
<pdfrwt beam="1">  1       21 0.60639385E-02 0.13626959E+03</pdfrwt>
<pdfrwt beam="2">  1       21 0.37908745E-01 0.13626959E+03</pdfrwt>
<totfact> 0.12991237E+06</totfact>
</mgrwt>
</event>
<event>
 6    1  0.4424270E-002  0.1789286E+03  0.7546771E-02  0.1168844E+00
         21   -1    0    0  504  502  0.00000000000E+00  0.00000000000E+00  0.20149286070E+02  0.20149286070E+02  0.00000000000E+00 0. -1.
         21   -1    0    0  502  503 -0.00000000000E+00 -0.00000000000E+00 -0.11707442424E+04  0.11707442424E+04  0.00000000000E+00 0.  1.
         25    2    1    2    0    0 -0.51507244712E+02  0.11720147942E+03 -0.64786565673E+03  0.67212004060E+03  0.12500502701E+03 0.  0.
          5    1    3    3  501    0  0.20955661511E+02  0.10288520616E+03 -0.37120452987E+03  0.38576847771E+03  0.10000000000E+00 0.  1.
         -5    1    3    3    0  501 -0.72462906223E+02  0.14316273254E+02 -0.27666112686E+03  0.28635156289E+03  0.10000000000E+00 0.  1.
         21    1    1    2  504  503  0.51507244712E+02 -0.11720147942E+03 -0.50272929958E+03  0.51877348785E+03  0.00000000000E+00 0. -1.
<mgrwt>
<rscale>  1 0.17892859E+03</rscale>
<asrwt>0</asrwt>
<pdfrwt beam="1">  1       21 0.30998913E-02 0.17892859E+03</pdfrwt>
<pdfrwt beam="2">  1       21 0.18011443E+00 0.17892859E+03</pdfrwt>
<totfact> 0.10964430E+05</totfact>
</mgrwt>
</event>
<event>
 6    1  0.4424270E-002  0.1272231E+03  0.7546771E-02  0.1231635E+00
         21   -1    0    0  503  502  0.00000000000E+00  0.00000000000E+00  0.87593865164E+02  0.87593865164E+02  0.00000000000E+00 0.  1.
         21   -1    0    0  504  503 -0.00000000000E+00 -0.00000000000E+00 -0.15127846799E+03  0.15127846799E+03  0.00000000000E+00 0.  1.
         25    2    1    2    0    0 -0.87764747934E+01  0.22019129748E+02 -0.12178830021E+03  0.17611957836E+03  0.12499538883E+03 0.  0.
          5    1    3    3  501    0 -0.72150348150E+01 -0.49524270836E+02 -0.25550644022E+02  0.56192130580E+02  0.10000000000E+00 0.  1.
         -5    1    3    3    0  501 -0.15614399784E+01  0.71543400584E+02 -0.96237656189E+02  0.11992744778E+03  0.10000000000E+00 0.  1.
         21    1    1    2  504  502  0.87764747934E+01 -0.22019129748E+02  0.58103697385E+02  0.62752754796E+02  0.00000000000E+00 0.  1.
<mgrwt>
<rscale>  1 0.12722309E+03</rscale>
<asrwt>0</asrwt>
<pdfrwt beam="1">  1       21 0.13475979E-01 0.12722309E+03</pdfrwt>
<pdfrwt beam="2">  1       21 0.23273610E-01 0.12722309E+03</pdfrwt>
<totfact> 0.82911648E+05</totfact>
</mgrwt>
</event>
<event>
 6    1  0.4424270E-002  0.1267152E+03  0.7546771E-02  0.1232413E+00
         21   -1    0    0  503  502  0.00000000000E+00  0.00000000000E+00  0.56765367232E+03  0.56765367232E+03  0.00000000000E+00 0.  1.
         21   -1    0    0  504  503 -0.00000000000E+00 -0.00000000000E+00 -0.98402560344E+01  0.98402560344E+01  0.00000000000E+00 0.  1.
         25    2    1    2    0    0  0.20231195874E+02 -0.46542539676E+01  0.44073406005E+03  0.45858833966E+03  0.12500316083E+03 0.  0.
          5    1    3    3  501    0  0.69479200783E+02  0.16846909003E+02  0.21622070466E+03  0.22773357418E+03  0.10000000000E+00 0.  1.
         -5    1    3    3    0  501 -0.49248004909E+02 -0.21501162970E+02  0.22451335540E+03  0.23085476549E+03  0.10000000000E+00 0.  1.
         21    1    1    2  504  502 -0.20231195874E+02  0.46542539676E+01  0.11707935623E+03  0.11890558869E+03  0.00000000000E+00 0.  1.
<mgrwt>
<rscale>  1 0.12671525E+03</rscale>
<asrwt>0</asrwt>
<pdfrwt beam="1">  1       21 0.87331309E-01 0.12671525E+03</pdfrwt>
<pdfrwt beam="2">  1       21 0.15138860E-02 0.12671525E+03</pdfrwt>
<totfact> 0.21702366E+06</totfact>
</mgrwt>
</event>
<event>
 6    1  0.4424270E-002  0.1343187E+03  0.7546771E-02  0.1221185E+00
         21   -1    0    0  504  502  0.00000000000E+00  0.00000000000E+00  0.11218287552E+02  0.11218287552E+02  0.00000000000E+00 0. -1.
         21   -1    0    0  502  503 -0.00000000000E+00 -0.00000000000E+00 -0.76967854133E+03  0.76967854133E+03  0.00000000000E+00 0. -1.
         25    2    1    2    0    0 -0.46827998194E+02 -0.14965054008E+02 -0.60596830296E+03  0.62067632670E+03  0.12499881629E+03 0.  0.
          5    1    3    3  501    0 -0.37162786289E+02 -0.68557798277E+02 -0.30438059922E+03  0.31421139949E+03  0.10000000000E+00 0. -1.
         -5    1    3    3    0  501 -0.96652119058E+01  0.53592744270E+02 -0.30158770374E+03  0.30646492721E+03  0.10000000000E+00 0. -1.
         21    1    1    2  504  503  0.46827998194E+02  0.14965054008E+02 -0.15249195082E+03  0.16022050219E+03  0.00000000000E+00 0. -1.
<mgrwt>
<rscale>  1 0.13431872E+03</rscale>
<asrwt>0</asrwt>
<pdfrwt beam="1">  1       21 0.17258900E-02 0.13431872E+03</pdfrwt>
<pdfrwt beam="2">  1       21 0.11841211E+00 0.13431872E+03</pdfrwt>
<totfact> 0.86051292E+05</totfact>
</mgrwt>
</event>
<event>
 6    1  0.4424270E-002  0.1265163E+03  0.7546771E-02  0.1232718E+00
         21   -1    0    0  503  502  0.00000000000E+00  0.00000000000E+00  0.31051545673E+03  0.31051545673E+03  0.00000000000E+00 0.  1.
         21   -1    0    0  504  503 -0.00000000000E+00 -0.00000000000E+00 -0.43880104941E+02  0.43880104941E+02  0.00000000000E+00 0.  1.
         25    2    1    2    0    0  0.19524112909E+02  0.99302074557E+00  0.48669445986E+02  0.13555472186E+03  0.12499676224E+03 0.  0.
          5    1    3    3  501    0 -0.12355434069E+02  0.11090150459E+02  0.84749699365E+02  0.86360695520E+02  0.10000000000E+00 0.  1.
         -5    1    3    3    0  501  0.31879546978E+02 -0.10097129713E+02 -0.36080253379E+02  0.49194026343E+02  0.10000000000E+00 0.  1.
         21    1    1    2  504  502 -0.19524112909E+02 -0.99302074557E+00  0.21796590580E+03  0.21884083981E+03  0.00000000000E+00 0.  1.
<mgrwt>
<rscale>  1 0.12651627E+03</rscale>
<asrwt>0</asrwt>
<pdfrwt beam="1">  1       21 0.47771607E-01 0.12651627E+03</pdfrwt>
<pdfrwt beam="2">  1       21 0.67507856E-02 0.12651627E+03</pdfrwt>
<totfact> 0.67848536E+05</totfact>
</mgrwt>
</event>
<event>
 6    1  0.4424270E-002  0.1273548E+03  0.7546771E-02  0.1231434E+00
         21   -1    0    0  504  502  0.00000000000E+00  0.00000000000E+00  0.42090537071E+03  0.42090537071E+03  0.00000000000E+00 0.  1.
         21   -1    0    0  502  503 -0.00000000000E+00 -0.00000000000E+00 -0.20888888272E+02  0.20888888272E+02  0.00000000000E+00 0.  1.
         25    2    1    2    0    0 -0.23444604335E+02  0.47000014816E+01  0.18008676736E+03  0.22056853927E+03  0.12508995664E+03 0.  0.
          5    1    3    3  501    0  0.17825383338E+02  0.43342502634E+02  0.20296880959E+02  0.51071422560E+02  0.10000000000E+00 0. -1.
         -5    1    3    3    0  501 -0.41269987672E+02 -0.38642501152E+02  0.15978988640E+03  0.16949711671E+03  0.10000000000E+00 0. -1.
         21    1    1    2  504  503  0.23444604335E+02 -0.47000014816E+01  0.21992971508E+03  0.22122571971E+03  0.00000000000E+00 0.  1.
<mgrwt>
<rscale>  1 0.12735477E+03</rscale>
<asrwt>0</asrwt>
<pdfrwt beam="1">  1       21 0.64754666E-01 0.12735477E+03</pdfrwt>
<pdfrwt beam="2">  1       21 0.32136754E-02 0.12735477E+03</pdfrwt>
<totfact> 0.12416585E+06</totfact>
</mgrwt>
</event>
<event>
 6    1  0.4424270E-002  0.1344768E+03  0.7546771E-02  0.1220960E+00
         21   -1    0    0  503  502  0.00000000000E+00  0.00000000000E+00  0.19315306666E+03  0.19315306666E+03  0.00000000000E+00 0.  1.
         21   -1    0    0  504  503 -0.00000000000E+00 -0.00000000000E+00 -0.59331025844E+03  0.59331025844E+03  0.00000000000E+00 0. -1.
         25    2    1    2    0    0  0.49565110657E+02  0.16782548831E+01 -0.58233260199E+03  0.59765814293E+03  0.12499791892E+03 0.  0.
          5    1    3    3  501    0 -0.21830553892E+02 -0.41745357154E+02 -0.28239458796E+03  0.28629698084E+03  0.10000000000E+00 0.  1.
         -5    1    3    3    0  501  0.71395664549E+02  0.43423612037E+02 -0.29993801403E+03  0.31136116209E+03  0.10000000000E+00 0.  1.
         21    1    1    2  504  502 -0.49565110657E+02 -0.16782548831E+01  0.18217541020E+03  0.18880518218E+03  0.00000000000E+00 0.  1.
<mgrwt>
<rscale>  1 0.13447675E+03</rscale>
<asrwt>0</asrwt>
<pdfrwt beam="1">  1       21 0.29715856E-01 0.13447675E+03</pdfrwt>
<pdfrwt beam="2">  1       21 0.91278502E-01 0.13447675E+03</pdfrwt>
<totfact> 0.11528807E+04</totfact>
</mgrwt>
</event>
<event>
 6    1  0.4424270E-002  0.1378257E+03  0.7546771E-02  0.1216285E+00
         21   -1    0    0  504  502  0.00000000000E+00  0.00000000000E+00  0.15759103816E+02  0.15759103816E+02  0.00000000000E+00 0.  1.
         21   -1    0    0  502  503 -0.00000000000E+00 -0.00000000000E+00 -0.63353934013E+03  0.63353934013E+03  0.00000000000E+00 0.  1.
         25    2    1    2    0    0  0.52000847976E+02  0.25865520135E+02 -0.48851515348E+03  0.50758544185E+03  0.12499124881E+03 0.  0.
          5    1    3    3  501    0  0.16491759538E+02  0.53941661854E+02 -0.42960166744E+03  0.43328891480E+03  0.10000000000E+00 0. -1.
         -5    1    3    3    0  501  0.35509088438E+02 -0.28076141719E+02 -0.58913486037E+02  0.74296527056E+02  0.10000000000E+00 0. -1.
         21    1    1    2  504  503 -0.52000847976E+02 -0.25865520135E+02 -0.12926508283E+03  0.14171300209E+03  0.00000000000E+00 0.  1.
<mgrwt>
<rscale>  1 0.13782571E+03</rscale>
<asrwt>0</asrwt>
<pdfrwt beam="1">  1       21 0.24244781E-02 0.13782571E+03</pdfrwt>
<pdfrwt beam="2">  1       21 0.97467566E-01 0.13782571E+03</pdfrwt>
<totfact> 0.78932645E+05</totfact>
</mgrwt>
</event>
<event>
 6    1  0.4424270E-002  0.1380205E+03  0.7546771E-02  0.1216018E+00
         21   -1    0    0  504  502  0.00000000000E+00  0.00000000000E+00  0.45260468517E+03  0.45260468517E+03  0.00000000000E+00 0. -1.
         21   -1    0    0  502  503 -0.00000000000E+00 -0.00000000000E+00 -0.23579710130E+02  0.23579710130E+02  0.00000000000E+00 0. -1.
         25    2    1    2    0    0  0.52538893775E+02 -0.25783265747E+02  0.36079260227E+03  0.38629129854E+03  0.12499821327E+03 0.  0.
          5    1    3    3  501    0  0.61590702577E+02 -0.67266316748E+02  0.19705055826E+03  0.21713384011E+03  0.10000000000E+00 0.  1.
         -5    1    3    3    0  501 -0.90518088018E+01  0.41483051001E+02  0.16374204401E+03  0.16915745842E+03  0.10000000000E+00 0.  1.
         21    1    1    2  504  503 -0.52538893775E+02  0.25783265747E+02  0.68232372770E+02  0.89893096762E+02  0.00000000000E+00 0. -1.
<mgrwt>
<rscale>  1 0.13802053E+03</rscale>
<asrwt>0</asrwt>
<pdfrwt beam="1">  1       21 0.69631484E-01 0.13802053E+03</pdfrwt>
<pdfrwt beam="2">  1       21 0.36276480E-02 0.13802053E+03</pdfrwt>
<totfact> 0.86887455E+05</totfact>
</mgrwt>
</event>
<event>
 6    1  0.4424270E-002  0.1295656E+03  0.7546771E-02  0.1228102E+00
         21   -1    0    0  503  502  0.00000000000E+00  0.00000000000E+00  0.84398781776E+02  0.84398781776E+02  0.00000000000E+00 0.  1.
         21   -1    0    0  504  503 -0.00000000000E+00 -0.00000000000E+00 -0.50605786593E+03  0.50605786593E+03  0.00000000000E+00 0. -1.
         25    2    1    2    0    0  0.55774813730E+01  0.33637205435E+02 -0.49387950340E+03  0.51059201946E+03  0.12499870624E+03 0.  0.
          5    1    3    3  501    0  0.30087670850E+02  0.48042757075E+02 -0.94473449779E+02  0.11017539271E+03  0.10000000000E+00 0. -1.
         -5    1    3    3    0  501 -0.24510189477E+02 -0.14405551640E+02 -0.39940605363E+03  0.40041662675E+03  0.10000000000E+00 0. -1.
         21    1    1    2  504  502 -0.55774813730E+01 -0.33637205435E+02  0.72220419253E+02  0.79864628247E+02  0.00000000000E+00 0.  1.
<mgrwt>
<rscale>  1 0.12956561E+03</rscale>
<asrwt>0</asrwt>
<pdfrwt beam="1">  1       21 0.12984428E-01 0.12956561E+03</pdfrwt>
<pdfrwt beam="2">  1       21 0.77855057E-01 0.12956561E+03</pdfrwt>
<totfact> 0.76612639E+04</totfact>
</mgrwt>
</event>
<event>
 6    1  0.4424270E-002  0.1601254E+03  0.7546771E-02  0.1188555E+00
         21   -1    0    0  503  502  0.00000000000E+00  0.00000000000E+00  0.58489295001E+03  0.58489295001E+03  0.00000000000E+00 0.  1.
         21   -1    0    0  504  503 -0.00000000000E+00 -0.00000000000E+00 -0.59572968389E+02  0.59572968389E+02  0.00000000000E+00 0.  1.
         25    2    1    2    0    0  0.99238214690E+02 -0.12946185702E+02  0.64043915461E+02  0.17245804114E+03  0.12499730344E+03 0.  0.
          5    1    3    3  501    0  0.52738471439E+02  0.42438756761E+01  0.98688545844E+02  0.11197676514E+03  0.10000000000E+00 0. -1.
         -5    1    3    3    0  501  0.46499743251E+02 -0.17190061378E+02 -0.34644630383E+02  0.60481276003E+02  0.10000000000E+00 0. -1.
         21    1    1    2  504  502 -0.99238214690E+02  0.12946185702E+02  0.46127606616E+03  0.47200787726E+03  0.00000000000E+00 0.  1.
<mgrwt>
<rscale>  1 0.16012543E+03</rscale>
<asrwt>0</asrwt>
<pdfrwt beam="1">  1       21 0.89983527E-01 0.16012543E+03</pdfrwt>
<pdfrwt beam="2">  1       21 0.91650725E-02 0.16012543E+03</pdfrwt>
<totfact> 0.10081022E+05</totfact>
</mgrwt>
</event>
<event>
 6    1  0.4424270E-002  0.1268417E+03  0.7546771E-02  0.1232219E+00
         21   -1    0    0  504  502  0.00000000000E+00  0.00000000000E+00  0.67144936686E+03  0.67144936686E+03  0.00000000000E+00 0.  1.
         21   -1    0    0  502  503 -0.00000000000E+00 -0.00000000000E+00 -0.83269660274E+01  0.83269660274E+01  0.00000000000E+00 0.  1.
         25    2    1    2    0    0 -0.11292002271E+01 -0.21528193106E+02  0.53333667897E+03  0.54821238725E+03  0.12499628079E+03 0.  0.
          5    1    3    3  501    0  0.35881094974E+02 -0.15967976744E+02  0.50725775168E+02  0.64152502089E+02  0.10000000000E+00 0. -1.
         -5    1    3    3    0  501 -0.37010295201E+02 -0.55602163617E+01  0.48261090380E+03  0.48405988516E+03  0.10000000000E+00 0. -1.
         21    1    1    2  504  503  0.11292002271E+01  0.21528193106E+02  0.12978572186E+03  0.13156394563E+03  0.00000000000E+00 0. -1.
<mgrwt>
<rscale>  1 0.12684167E+03</rscale>
<asrwt>0</asrwt>
<pdfrwt beam="1">  1       21 0.10329986E+00 0.12684167E+03</pdfrwt>
<pdfrwt beam="2">  1       21 0.12810722E-02 0.12684167E+03</pdfrwt>
<totfact> 0.19199006E+06</totfact>
</mgrwt>
</event>
<event>
 6    1  0.4424270E-002  0.1530535E+03  0.7546771E-02  0.1196770E+00
         21   -1    0    0  503  502  0.00000000000E+00  0.00000000000E+00  0.84095858242E+03  0.84095858242E+03  0.00000000000E+00 0.  1.
         21   -1    0    0  504  503 -0.00000000000E+00 -0.00000000000E+00 -0.18098403249E+02  0.18098403249E+02  0.00000000000E+00 0.  1.
         25    2    1    2    0    0  0.27868538067E+02  0.83815354110E+02  0.60292651745E+03  0.62204963440E+03  0.12499477274E+03 0.  0.
          5    1    3    3  501    0  0.68585448042E+00 -0.32552798123E+02  0.10222740921E+03  0.10728750280E+03  0.10000000000E+00 0.  1.
         -5    1    3    3    0  501  0.27182683587E+02  0.11636815223E+03  0.50069910824E+03  0.51476213160E+03  0.10000000000E+00 0.  1.
         21    1    1    2  504  502 -0.27868538067E+02 -0.83815354110E+02  0.21993366172E+03  0.23700735127E+03  0.00000000000E+00 0.  1.
<mgrwt>
<rscale>  1 0.15305346E+03</rscale>
<asrwt>0</asrwt>
<pdfrwt beam="1">  1       21 0.12937821E+00 0.15305346E+03</pdfrwt>
<pdfrwt beam="2">  1       21 0.27843704E-02 0.15305346E+03</pdfrwt>
<totfact> 0.31697421E+05</totfact>
</mgrwt>
</event>
<event>
 6    1  0.4424270E-002  0.1267708E+03  0.7546771E-02  0.1232327E+00
         21   -1    0    0  504  502  0.00000000000E+00  0.00000000000E+00  0.44067633935E+02  0.44067633935E+02  0.00000000000E+00 0.  1.
         21   -1    0    0  502  503 -0.00000000000E+00 -0.00000000000E+00 -0.20986385007E+03  0.20986385007E+03  0.00000000000E+00 0.  1.
         25    2    1    2    0    0  0.64984948041E+01  0.20059535389E+02 -0.18575964119E+03  0.22489437439E+03  0.12500487967E+03 0.  0.
          5    1    3    3  501    0  0.36498409601E+02 -0.16088343176E+02 -0.75472702376E+01  0.40594826981E+02  0.10000000000E+00 0.  1.
         -5    1    3    3    0  501 -0.29999914797E+02  0.36147878566E+02 -0.17821237095E+03  0.18429954740E+03  0.10000000000E+00 0.  1.
         21    1    1    2  504  503 -0.64984948041E+01 -0.20059535389E+02  0.19963425060E+02  0.29037109616E+02  0.00000000000E+00 0.  1.
<mgrwt>
<rscale>  1 0.12677080E+03</rscale>
<asrwt>0</asrwt>
<pdfrwt beam="1">  1       21 0.67796361E-02 0.12677080E+03</pdfrwt>
<pdfrwt beam="2">  1       21 0.32286746E-01 0.12677080E+03</pdfrwt>
<totfact> 0.14712085E+06</totfact>
</mgrwt>
</event>
<event>
 6    1  0.4424270E-002  0.1436914E+03  0.7546771E-02  0.1208446E+00
         21   -1    0    0  504  502  0.00000000000E+00  0.00000000000E+00  0.11813434507E+02  0.11813434507E+02  0.00000000000E+00 0.  1.
         21   -1    0    0  502  503 -0.00000000000E+00 -0.00000000000E+00 -0.20716005804E+04  0.20716005804E+04  0.00000000000E+00 0.  1.
         25    2    1    2    0    0  0.70571154647E+02  0.64479601621E+01 -0.19316459670E+04  0.19369830558E+04  0.12500141020E+03 0.  0.
          5    1    3    3  501    0 -0.95615320061E+01 -0.27639760546E+02 -0.11715505028E+04  0.11719155131E+04  0.10000000000E+00 0. -1.
         -5    1    3    3    0  501  0.80132686653E+02  0.34087720708E+02 -0.76009546422E+03  0.76506754271E+03  0.10000000000E+00 0. -1.
         21    1    1    2  504  503 -0.70571154647E+02 -0.64479601621E+01 -0.12814117891E+03  0.14643095912E+03  0.00000000000E+00 0.  1.
<mgrwt>
<rscale>  1 0.14369139E+03</rscale>
<asrwt>0</asrwt>
<pdfrwt beam="1">  1       21 0.18174495E-02 0.14369139E+03</pdfrwt>
<pdfrwt beam="2">  1       21 0.31870812E+00 0.14369139E+03</pdfrwt>
<totfact> 0.40361744E+04</totfact>
</mgrwt>
</event>
<event>
 6    1  0.4424270E-002  0.1262801E+03  0.7546771E-02  0.1233082E+00
         21   -1    0    0  503  502  0.00000000000E+00  0.00000000000E+00  0.30008850517E+02  0.30008850517E+02  0.00000000000E+00 0.  1.
         21   -1    0    0  504  503 -0.00000000000E+00 -0.00000000000E+00 -0.39809969396E+03  0.39809969396E+03  0.00000000000E+00 0.  1.
         25    2    1    2    0    0  0.40226523456E+01 -0.17468010573E+02 -0.38394460398E+03  0.40417833662E+03  0.12500142298E+03 0.  0.
          5    1    3    3  501    0  0.15942025749E+02 -0.13857484910E+02 -0.38983091384E+03  0.39040277850E+03  0.10000000000E+00 0.  1.
         -5    1    3    3    0  501 -0.11919373403E+02 -0.36105256631E+01  0.58863098628E+01  0.13775558126E+02  0.10000000000E+00 0.  1.
         21    1    1    2  504  502 -0.40226523456E+01  0.17468010573E+02  0.15853760528E+02  0.23930207859E+02  0.00000000000E+00 0.  1.
<mgrwt>
<rscale>  1 0.12628012E+03</rscale>
<asrwt>0</asrwt>
<pdfrwt beam="1">  1       21 0.46167464E-02 0.12628012E+03</pdfrwt>
<pdfrwt beam="2">  1       21 0.61246104E-01 0.12628012E+03</pdfrwt>
<totfact> 0.76724006E+05</totfact>
</mgrwt>
</event>
<event>
 6    1  0.4424270E-002  0.1273739E+03  0.7546771E-02  0.1231405E+00
         21   -1    0    0  504  502  0.00000000000E+00  0.00000000000E+00  0.37927770593E+02  0.37927770593E+02  0.00000000000E+00 0.  1.
         21   -1    0    0  502  503 -0.00000000000E+00 -0.00000000000E+00 -0.15477898631E+03  0.15477898631E+03  0.00000000000E+00 0.  1.
         25    2    1    2    0    0 -0.24496395102E+02 -0.18171687372E+00 -0.10681529744E+03  0.16623363752E+03  0.12499603226E+03 0.  0.
          5    1    3    3  501    0 -0.44393632791E+02  0.35574860824E+02 -0.57262735735E+01  0.57176617284E+02  0.10000000000E+00 0.  1.
         -5    1    3    3    0  501  0.19897237689E+02 -0.35756577698E+02 -0.10108902387E+03  0.10905702024E+03  0.10000000000E+00 0.  1.
         21    1    1    2  504  503  0.24496395102E+02  0.18171687372E+00 -0.10035918271E+02  0.26473119377E+02  0.00000000000E+00 0.  1.
<mgrwt>
<rscale>  1 0.12737392E+03</rscale>
<asrwt>0</asrwt>
<pdfrwt beam="1">  1       21 0.58350417E-02 0.12737392E+03</pdfrwt>
<pdfrwt beam="2">  1       21 0.23812152E-01 0.12737392E+03</pdfrwt>
<totfact> 0.33977495E+06</totfact>
</mgrwt>
</event>
<event>
 6    1  0.4424270E-002  0.1272583E+03  0.7546771E-02  0.1231582E+00
         21   -1    0    0  504  502  0.00000000000E+00  0.00000000000E+00  0.56467306246E+03  0.56467306246E+03  0.00000000000E+00 0.  1.
         21   -1    0    0  502  503 -0.00000000000E+00 -0.00000000000E+00 -0.80136972676E+02  0.80136972676E+02  0.00000000000E+00 0.  1.
         25    2    1    2    0    0  0.11685380544E+01  0.23831343409E+02 -0.29163018118E+02  0.13055710916E+03  0.12500151486E+03 0.  0.
          5    1    3    3  501    0 -0.32538851805E+02  0.65593131376E+02 -0.11901081373E+02  0.74181409385E+02  0.10000000000E+00 0. -1.
         -5    1    3    3    0  501  0.33707389860E+02 -0.41761787968E+02 -0.17261936745E+02  0.56375699779E+02  0.10000000000E+00 0. -1.
         21    1    1    2  504  503 -0.11685380544E+01 -0.23831343409E+02  0.51369910790E+03  0.51425292597E+03  0.00000000000E+00 0.  1.
<mgrwt>
<rscale>  1 0.12725831E+03</rscale>
<asrwt>0</asrwt>
<pdfrwt beam="1">  1       21 0.86872776E-01 0.12725831E+03</pdfrwt>
<pdfrwt beam="2">  1       21 0.12328765E-01 0.12725831E+03</pdfrwt>
<totfact> 0.65753994E+04</totfact>
</mgrwt>
</event>
<event>
 6    1  0.4424270E-002  0.1261320E+03  0.7546771E-02  0.1233311E+00
         21   -1    0    0  504  502  0.00000000000E+00  0.00000000000E+00  0.87643007612E+01  0.87643007612E+01  0.00000000000E+00 0.  1.
         21   -1    0    0  502  503 -0.00000000000E+00 -0.00000000000E+00 -0.60213561707E+03  0.60213561707E+03  0.00000000000E+00 0.  1.
         25    2    1    2    0    0  0.16987611362E+01  0.16820915389E+02 -0.55159254055E+03  0.56583002668E+03  0.12499383715E+03 0.  0.
          5    1    3    3  501    0 -0.61010070170E+02  0.16836251878E+02 -0.26410106436E+03  0.27157884718E+03  0.10000000000E+00 0.  1.
         -5    1    3    3    0  501  0.62708831306E+02 -0.15336488887E-01 -0.28749147619E+03  0.29425117950E+03  0.10000000000E+00 0.  1.
         21    1    1    2  504  503 -0.16987611362E+01 -0.16820915389E+02 -0.41778775763E+02  0.45069891149E+02  0.00000000000E+00 0.  1.
<mgrwt>
<rscale>  1 0.12613203E+03</rscale>
<asrwt>0</asrwt>
<pdfrwt beam="1">  1       21 0.13483539E-02 0.12613203E+03</pdfrwt>
<pdfrwt beam="2">  1       21 0.92636257E-01 0.12613203E+03</pdfrwt>
<totfact> 0.22808327E+06</totfact>
</mgrwt>
</event>
<event>
 6    1  0.4424270E-002  0.1569091E+03  0.7546771E-02  0.1192231E+00
         21   -1    0    0  504  502  0.00000000000E+00  0.00000000000E+00  0.61731227167E+03  0.61731227167E+03  0.00000000000E+00 0. -1.
         21   -1    0    0  502  503 -0.00000000000E+00 -0.00000000000E+00 -0.13469478563E+04  0.13469478563E+04  0.00000000000E+00 0.  1.
         25    2    1    2    0    0 -0.51769426701E+02 -0.79487010445E+02 -0.13386943116E+04  0.13478586426E+04  0.12498880810E+03 0.  0.
          5    1    3    3  501    0 -0.62948007414E+02  0.37506353957E+01 -0.35261356092E+03  0.35820783387E+03  0.10000000000E+00 0.  1.
         -5    1    3    3    0  501  0.11178580713E+02 -0.83237645840E+02 -0.98608075069E+03  0.98965080873E+03  0.10000000000E+00 0.  1.
         21    1    1    2  504  503  0.51769426701E+02  0.79487010445E+02  0.60905872693E+03  0.61640148541E+03  0.00000000000E+00 0. -1.
<mgrwt>
<rscale>  1 0.15690908E+03</rscale>
<asrwt>0</asrwt>
<pdfrwt beam="1">  1       21 0.94971120E-01 0.15690908E+03</pdfrwt>
<pdfrwt beam="2">  1       21 0.20722274E+00 0.15690908E+03</pdfrwt>
<totfact> 0.11848537E+02</totfact>
</mgrwt>
</event>
<event>
 6    1  0.4424270E-002  0.1289220E+03  0.7546771E-02  0.1229064E+00
         21   -1    0    0  504  502  0.00000000000E+00  0.00000000000E+00  0.79753937053E+02  0.79753937053E+02  0.00000000000E+00 0.  1.
         21   -1    0    0  502  503 -0.00000000000E+00 -0.00000000000E+00 -0.92425282603E+02  0.92425282603E+02  0.00000000000E+00 0.  1.
         25    2    1    2    0    0 -0.29518200788E+02  0.11144685619E+02 -0.34925150915E+02  0.13356885772E+03  0.12500138156E+03 0.  0.
          5    1    3    3  501    0 -0.63779371406E+02 -0.33753217535E+02 -0.23984910372E+02  0.76041921572E+02  0.10000000000E+00 0. -1.
         -5    1    3    3    0  501  0.34261170618E+02  0.44897903154E+02 -0.10940240544E+02  0.57526936151E+02  0.10000000000E+00 0. -1.
         21    1    1    2  504  503  0.29518200788E+02 -0.11144685619E+02  0.22253805366E+02  0.38610361932E+02  0.00000000000E+00 0. -1.
<mgrwt>
<rscale>  1 0.12892197E+03</rscale>
<asrwt>0</asrwt>
<pdfrwt beam="1">  1       21 0.12269837E-01 0.12892197E+03</pdfrwt>
<pdfrwt beam="2">  1       21 0.14219274E-01 0.12892197E+03</pdfrwt>
<totfact> 0.24183885E+06</totfact>
</mgrwt>
</event>
<event>
 6    1  0.4424270E-002  0.1418139E+03  0.7546771E-02  0.1210909E+00
         21   -1    0    0  503  502  0.00000000000E+00  0.00000000000E+00  0.97646575358E+03  0.97646575358E+03  0.00000000000E+00 0. -1.
         21   -1    0    0  504  503 -0.00000000000E+00 -0.00000000000E+00 -0.45446326584E+03  0.45446326584E+03  0.00000000000E+00 0. -1.
         25    2    1    2    0    0 -0.62926509863E+02 -0.22964755299E+02 -0.44220973964E+03  0.46439275778E+03  0.12499621599E+03 0.  0.
          5    1    3    3  501    0  0.21306324405E+02  0.84788196552E+01 -0.14047679011E+02  0.26892324704E+02  0.10000000000E+00 0. -1.
         -5    1    3    3    0  501 -0.84232834268E+02 -0.31443574954E+02 -0.42816206063E+03  0.43750043307E+03  0.10000000000E+00 0. -1.
         21    1    1    2  504  502  0.62926509863E+02  0.22964755299E+02  0.96421222739E+03  0.96653626165E+03  0.00000000000E+00 0. -1.
<mgrwt>
<rscale>  1 0.14181389E+03</rscale>
<asrwt>0</asrwt>
<pdfrwt beam="1">  1       21 0.15022550E+00 0.14181389E+03</pdfrwt>
<pdfrwt beam="2">  1       21 0.69917426E-01 0.14181389E+03</pdfrwt>
<totfact> 0.59001492E+02</totfact>
</mgrwt>
</event>
<event>
 6    1  0.4424270E-002  0.1332417E+03  0.7546771E-02  0.1222723E+00
         21   -1    0    0  503  502  0.00000000000E+00  0.00000000000E+00  0.39799551663E+01  0.39799551663E+01  0.00000000000E+00 0.  1.
         21   -1    0    0  504  503 -0.00000000000E+00 -0.00000000000E+00 -0.22654730146E+04  0.22654730146E+04  0.00000000000E+00 0.  1.
         25    2    1    2    0    0 -0.11089529253E+02  0.44795469065E+02 -0.19515519506E+04  0.19560951828E+04  0.12499494620E+03 0.  0.
          5    1    3    3  501    0  0.49086673897E+02  0.51798491149E+02 -0.91827312940E+03  0.92104187495E+03  0.10000000000E+00 0.  1.
         -5    1    3    3    0  501 -0.60176203149E+02 -0.70030220844E+01 -0.10332788212E+04  0.10350533078E+04  0.10000000000E+00 0.  1.
         21    1    1    2  504  502  0.11089529253E+02 -0.44795469065E+02 -0.30994110890E+03  0.31335778703E+03  0.00000000000E+00 0.  1.
<mgrwt>
<rscale>  1 0.13324169E+03</rscale>
<asrwt>0</asrwt>
<pdfrwt beam="1">  1       21 0.61230007E-03 0.13324169E+03</pdfrwt>
<pdfrwt beam="2">  1       21 0.34853472E+00 0.13324169E+03</pdfrwt>
<totfact> 0.15410485E+05</totfact>
</mgrwt>
</event>
<event>
 6    1  0.4424270E-002  0.1259694E+03  0.7546771E-02  0.1233562E+00
         21   -1    0    0  503  502  0.00000000000E+00  0.00000000000E+00  0.13987910785E+02  0.13987910785E+02  0.00000000000E+00 0.  1.
         21   -1    0    0  504  503 -0.00000000000E+00 -0.00000000000E+00 -0.51221287483E+03  0.51221287483E+03  0.00000000000E+00 0.  1.
         25    2    1    2    0    0 -0.12252768293E+02  0.97203429794E+01 -0.49426803833E+03  0.51006781752E+03  0.12499467731E+03 0.  0.
          5    1    3    3  501    0 -0.56489234509E+02 -0.32095373521E+02 -0.26659627016E+03  0.27439884817E+03  0.10000000000E+00 0. -1.
         -5    1    3    3    0  501  0.44236466216E+02  0.41815716500E+02 -0.22767176817E+03  0.23566896934E+03  0.10000000000E+00 0. -1.
         21    1    1    2  504  502  0.12252768293E+02 -0.97203429794E+01 -0.39569257151E+01  0.16132968096E+02  0.00000000000E+00 0.  1.
<mgrwt>
<rscale>  1 0.12596938E+03</rscale>
<asrwt>0</asrwt>
<pdfrwt beam="1">  1       21 0.21519861E-02 0.12596938E+03</pdfrwt>
<pdfrwt beam="2">  1       21 0.78801986E-01 0.12596938E+03</pdfrwt>
<totfact> 0.15538076E+06</totfact>
</mgrwt>
</event>
<event>
 6    1  0.4424270E-002  0.1397726E+03  0.7546771E-02  0.1213635E+00
         21   -1    0    0  504  502  0.00000000000E+00  0.00000000000E+00  0.10891988463E+03  0.10891988463E+03  0.00000000000E+00 0. -1.
         21   -1    0    0  502  503 -0.00000000000E+00 -0.00000000000E+00 -0.10775998897E+04  0.10775998897E+04  0.00000000000E+00 0. -1.
         25    2    1    2    0    0  0.48066648368E+02  0.40017258976E+02 -0.10636557498E+04  0.10728000495E+04  0.12499843379E+03 0.  0.
          5    1    3    3  501    0  0.62331621254E+02 -0.20304995407E+02 -0.76358589187E+03  0.76639477302E+03  0.10000000000E+00 0. -1.
         -5    1    3    3    0  501 -0.14264972886E+02  0.60322254383E+02 -0.30006985795E+03  0.30640527651E+03  0.10000000000E+00 0. -1.
         21    1    1    2  504  503 -0.48066648368E+02 -0.40017258976E+02  0.94975744789E+02  0.11371972476E+03  0.00000000000E+00 0. -1.
<mgrwt>
<rscale>  1 0.13977264E+03</rscale>
<asrwt>0</asrwt>
<pdfrwt beam="1">  1       21 0.16756905E-01 0.13977264E+03</pdfrwt>
<pdfrwt beam="2">  1       21 0.16578460E+00 0.13977264E+03</pdfrwt>
<totfact> 0.76790457E+03</totfact>
</mgrwt>
</event>
<event>
 6    1  0.4424270E-002  0.1371016E+03  0.7546771E-02  0.1217283E+00
         21   -1    0    0  503  502  0.00000000000E+00  0.00000000000E+00  0.50434504622E+02  0.50434504622E+02  0.00000000000E+00 0. -1.
         21   -1    0    0  504  503 -0.00000000000E+00 -0.00000000000E+00 -0.30460792485E+03  0.30460792485E+03  0.00000000000E+00 0. -1.
         25    2    1    2    0    0  0.52315563199E+02  0.20789769462E+02 -0.26439391795E+03  0.29782712347E+03  0.12501087535E+03 0.  0.
          5    1    3    3  501    0  0.46398994884E+01  0.28536723277E+01  0.13889696192E+02  0.14919978999E+02  0.10000000000E+00 0. -1.
         -5    1    3    3    0  501  0.47675663711E+02  0.17936097134E+02 -0.27828361414E+03  0.28290714447E+03  0.10000000000E+00 0. -1.
         21    1    1    2  504  502 -0.52315563199E+02 -0.20789769462E+02  0.10220497725E+02  0.57215306002E+02  0.00000000000E+00 0. -1.
<mgrwt>
<rscale>  1 0.13710161E+03</rscale>
<asrwt>0</asrwt>
<pdfrwt beam="1">  1       21 0.77591548E-02 0.13710161E+03</pdfrwt>
<pdfrwt beam="2">  1       21 0.46862756E-01 0.13710161E+03</pdfrwt>
<totfact> 0.55554120E+05</totfact>
</mgrwt>
</event>
<event>
 6    1  0.4424270E-002  0.1320192E+03  0.7546771E-02  0.1224490E+00
         21   -1    0    0  503  502  0.00000000000E+00  0.00000000000E+00  0.44184123699E+03  0.44184123699E+03  0.00000000000E+00 0.  1.
         21   -1    0    0  504  503 -0.00000000000E+00 -0.00000000000E+00 -0.10711893594E+03  0.10711893594E+03  0.00000000000E+00 0.  1.
         25    2    1    2    0    0 -0.11957922874E+02  0.40761182771E+02 -0.64884292508E+02  0.14710211895E+03  0.12499838417E+03 0.  0.
          5    1    3    3  501    0 -0.44803433863E+02  0.55679640860E+02  0.15732400690E+01  0.71484649936E+02  0.10000000000E+00 0. -1.
         -5    1    3    3    0  501  0.32845510988E+02 -0.14918458088E+02 -0.66457532577E+02  0.75617469014E+02  0.10000000000E+00 0. -1.
         21    1    1    2  504  502  0.11957922874E+02 -0.40761182771E+02  0.39960659356E+03  0.40185805399E+03  0.00000000000E+00 0.  1.
<mgrwt>
<rscale>  1 0.13201917E+03</rscale>
<asrwt>0</asrwt>
<pdfrwt beam="1">  1       21 0.67975574E-01 0.13201917E+03</pdfrwt>
<pdfrwt beam="2">  1       21 0.16479837E-01 0.13201917E+03</pdfrwt>
<totfact> 0.67124092E+04</totfact>
</mgrwt>
</event>
<event>
 6    1  0.4424270E-002  0.1322318E+03  0.7546771E-02  0.1224181E+00
         21   -1    0    0  504  502  0.00000000000E+00  0.00000000000E+00  0.24896312015E+03  0.24896312015E+03  0.00000000000E+00 0. -1.
         21   -1    0    0  502  503 -0.00000000000E+00 -0.00000000000E+00 -0.31952418879E+02  0.31952418879E+02  0.00000000000E+00 0. -1.
         25    2    1    2    0    0 -0.19967329143E+02 -0.38183908751E+02  0.13936043994E+03  0.19211087583E+03  0.12501420428E+03 0.  0.
          5    1    3    3  501    0  0.26493612509E+02 -0.38233305153E+02  0.13995592262E+01  0.46536715534E+02  0.10000000000E+00 0. -1.
         -5    1    3    3    0  501 -0.46460941653E+02  0.49396401586E-01  0.13796088071E+03  0.14557416030E+03  0.10000000000E+00 0. -1.
         21    1    1    2  504  503  0.19967329143E+02  0.38183908751E+02  0.77650261337E+02  0.88804663201E+02  0.00000000000E+00 0. -1.
<mgrwt>
<rscale>  1 0.13223183E+03</rscale>
<asrwt>0</asrwt>
<pdfrwt beam="1">  1       21 0.38302017E-01 0.13223183E+03</pdfrwt>
<pdfrwt beam="2">  1       21 0.49157569E-02 0.13223183E+03</pdfrwt>
<totfact> 0.18134315E+06</totfact>
</mgrwt>
</event>
<event>
 6    1  0.4424270E-002  0.1269064E+03  0.7546771E-02  0.1232120E+00
         21   -1    0    0  504  502  0.00000000000E+00  0.00000000000E+00  0.61768693794E+03  0.61768693794E+03  0.00000000000E+00 0.  1.
         21   -1    0    0  502  503 -0.00000000000E+00 -0.00000000000E+00 -0.10226254798E+02  0.10226254798E+02  0.00000000000E+00 0.  1.
         25    2    1    2    0    0 -0.20771898289E+02 -0.69951567501E+01  0.40875139128E+03  0.42799874441E+03  0.12499928548E+03 0.  0.
          5    1    3    3  501    0 -0.15900053962E+02  0.32606671326E+02  0.37196000697E+03  0.37372485001E+03  0.10000000000E+00 0. -1.
         -5    1    3    3    0  501 -0.48718443275E+01 -0.39601828076E+02  0.36791384310E+02  0.54273894402E+02  0.10000000000E+00 0. -1.
         21    1    1    2  504  503  0.20771898289E+02  0.69951567501E+01  0.19870929187E+03  0.19991444833E+03  0.00000000000E+00 0.  1.
<mgrwt>
<rscale>  1 0.12690636E+03</rscale>
<asrwt>0</asrwt>
<pdfrwt beam="1">  1       21 0.95028731E-01 0.12690636E+03</pdfrwt>
<pdfrwt beam="2">  1       21 0.15732704E-02 0.12690636E+03</pdfrwt>
<totfact> 0.16817678E+06</totfact>
</mgrwt>
</event>
<event>
 6    1  0.4424270E-002  0.1268212E+03  0.7546771E-02  0.1232250E+00
         21   -1    0    0  503  502  0.00000000000E+00  0.00000000000E+00  0.94180650643E+02  0.94180650643E+02  0.00000000000E+00 0.  1.
         21   -1    0    0  504  503 -0.00000000000E+00 -0.00000000000E+00 -0.66756001028E+02  0.66756001028E+02  0.00000000000E+00 0.  1.
         25    2    1    2    0    0  0.42678503466E+00 -0.21418075734E+02  0.87764991775E+00  0.12682420077E+03  0.12499876606E+03 0.  0.
          5    1    3    3  501    0 -0.48549133772E+02 -0.22188126463E+02 -0.36963135895E+02  0.64927765718E+02  0.10000000000E+00 0.  1.
         -5    1    3    3    0  501  0.48975918806E+02  0.77005072923E+00  0.37840785813E+02  0.61896435051E+02  0.10000000000E+00 0.  1.
         21    1    1    2  504  502 -0.42678503466E+00  0.21418075734E+02  0.26546999698E+02  0.34112450903E+02  0.00000000000E+00 0.  1.
<mgrwt>
<rscale>  1 0.12682116E+03</rscale>
<asrwt>0</asrwt>
<pdfrwt beam="1">  1       21 0.14489331E-01 0.12682116E+03</pdfrwt>
<pdfrwt beam="2">  1       21 0.10270154E-01 0.12682116E+03</pdfrwt>
<totfact> 0.31973001E+06</totfact>
</mgrwt>
</event>
<event>
 6    1  0.4424270E-002  0.1264771E+03  0.7546771E-02  0.1232779E+00
         21   -1    0    0  503  502  0.00000000000E+00  0.00000000000E+00  0.13749940520E+02  0.13749940520E+02  0.00000000000E+00 0.  1.
         21   -1    0    0  504  503 -0.00000000000E+00 -0.00000000000E+00 -0.21763809993E+04  0.21763809993E+04  0.00000000000E+00 0.  1.
         25    2    1    2    0    0  0.14768289505E+02 -0.12290732221E+02 -0.21667851883E+04  0.21704733391E+04  0.12500919522E+03 0.  0.
          5    1    3    3  501    0  0.18375956986E+02  0.82070250011E+01 -0.21082844599E+04  0.21083805171E+04  0.10000000000E+00 0.  1.
         -5    1    3    3    0  501 -0.36076674810E+01 -0.20497757222E+02 -0.58500728404E+02  0.62092821965E+02  0.10000000000E+00 0.  1.
         21    1    1    2  504  502 -0.14768289505E+02  0.12290732221E+02  0.41541295587E+01  0.19657600714E+02  0.00000000000E+00 0.  1.
<mgrwt>
<rscale>  1 0.12647713E+03</rscale>
<asrwt>0</asrwt>
<pdfrwt beam="1">  1       21 0.21153764E-02 0.12647713E+03</pdfrwt>
<pdfrwt beam="2">  1       21 0.33482770E+00 0.12647713E+03</pdfrwt>
<totfact> 0.26178374E+04</totfact>
</mgrwt>
</event>
<event>
 6    1  0.4424270E-002  0.1286875E+03  0.7546771E-02  0.1229416E+00
         21   -1    0    0  503  502  0.00000000000E+00  0.00000000000E+00  0.12281128768E+02  0.12281128768E+02  0.00000000000E+00 0.  1.
         21   -1    0    0  504  503 -0.00000000000E+00 -0.00000000000E+00 -0.58392341504E+03  0.58392341504E+03  0.00000000000E+00 0. -1.
         25    2    1    2    0    0 -0.28599704283E+02 -0.10895581445E+02 -0.52406491897E+03  0.53963367976E+03  0.12499524891E+03 0.  0.
          5    1    3    3  501    0 -0.47566510493E+02 -0.38910729269E+02 -0.48079959975E+03  0.48471113345E+03  0.10000000000E+00 0.  1.
         -5    1    3    3    0  501  0.18966806210E+02  0.28015147824E+02 -0.43265319227E+02  0.54922546310E+02  0.10000000000E+00 0.  1.
         21    1    1    2  504  502  0.28599704283E+02  0.10895581445E+02 -0.47577367295E+02  0.56570864045E+02  0.00000000000E+00 0.  1.
<mgrwt>
<rscale>  1 0.12868749E+03</rscale>
<asrwt>0</asrwt>
<pdfrwt beam="1">  1       21 0.18894045E-02 0.12868749E+03</pdfrwt>
<pdfrwt beam="2">  1       21 0.89834369E-01 0.12868749E+03</pdfrwt>
<totfact> 0.14267385E+06</totfact>
</mgrwt>
</event>
<event>
 6    1  0.4424270E-002  0.1260206E+03  0.7546771E-02  0.1233483E+00
         21   -1    0    0  503  502  0.00000000000E+00  0.00000000000E+00  0.19895025560E+03  0.19895025560E+03  0.00000000000E+00 0. -1.
         21   -1    0    0  504  503 -0.00000000000E+00 -0.00000000000E+00 -0.33149620542E+02  0.33149620542E+02  0.00000000000E+00 0. -1.
         25    2    1    2    0    0 -0.15804300075E+02 -0.25970755826E+01  0.90588591628E+02  0.15520142246E+03  0.12499867158E+03 0.  0.
          5    1    3    3  501    0 -0.24886264227E+02 -0.61509254976E+02  0.45339214095E+02  0.80363977812E+02  0.10000000000E+00 0.  1.
         -5    1    3    3    0  501  0.90819641521E+01  0.58912179394E+02  0.45249377533E+02  0.74837444644E+02  0.10000000000E+00 0.  1.
         21    1    1    2  504  502  0.15804300075E+02  0.25970755826E+01  0.75212043428E+02  0.76898453685E+02  0.00000000000E+00 0. -1.
<mgrwt>
<rscale>  1 0.12602059E+03</rscale>
<asrwt>0</asrwt>
<pdfrwt beam="1">  1       21 0.30607731E-01 0.12602059E+03</pdfrwt>
<pdfrwt beam="2">  1       21 0.50999417E-02 0.12602059E+03</pdfrwt>
<totfact> 0.26418071E+06</totfact>
</mgrwt>
</event>
<event>
 6    1  0.4424270E-002  0.1309007E+03  0.7546771E-02  0.1226125E+00
         21   -1    0    0  503  502  0.00000000000E+00  0.00000000000E+00  0.14858570107E+04  0.14858570107E+04  0.00000000000E+00 0.  1.
         21   -1    0    0  504  503 -0.00000000000E+00 -0.00000000000E+00 -0.18134553334E+03  0.18134553334E+03  0.00000000000E+00 0. -1.
         25    2    1    2    0    0  0.37716663186E+02 -0.93883198913E+01 -0.15743154089E+03  0.20474294602E+03  0.12499718655E+03 0.  0.
          5    1    3    3  501    0  0.74567863562E+02 -0.57059546142E+01 -0.47148834803E+02  0.88407843643E+02  0.10000000000E+00 0.  1.
         -5    1    3    3    0  501 -0.36851200376E+02 -0.36823652771E+01 -0.11028270608E+03  0.11633510237E+03  0.10000000000E+00 0.  1.
         21    1    1    2  504  502 -0.37716663186E+02  0.93883198913E+01  0.14619430183E+04  0.14624595981E+04  0.00000000000E+00 0.  1.
<mgrwt>
<rscale>  1 0.13090066E+03</rscale>
<asrwt>0</asrwt>
<pdfrwt beam="1">  1       21 0.22859338E+00 0.13090066E+03</pdfrwt>
<pdfrwt beam="2">  1       21 0.27899314E-01 0.13090066E+03</pdfrwt>
<totfact> 0.11904968E+03</totfact>
</mgrwt>
</event>
<event>
 6    1  0.4424270E-002  0.1262547E+03  0.7546771E-02  0.1233121E+00
         21   -1    0    0  503  502  0.00000000000E+00  0.00000000000E+00  0.30185366491E+02  0.30185366491E+02  0.00000000000E+00 0.  1.
         21   -1    0    0  504  503 -0.00000000000E+00 -0.00000000000E+00 -0.17195830855E+03  0.17195830855E+03  0.00000000000E+00 0.  1.
         25    2    1    2    0    0  0.28792209701E+01 -0.17505183429E+02 -0.12179659180E+03  0.17542708975E+03  0.12500213071E+03 0.  0.
          5    1    3    3  501    0 -0.16029998110E+02 -0.69175051925E+02 -0.73790794971E+02  0.10240722665E+03  0.10000000000E+00 0.  1.
         -5    1    3    3    0  501  0.18909219080E+02  0.51669868496E+02 -0.48005796832E+02  0.73019863093E+02  0.10000000000E+00 0.  1.
         21    1    1    2  504  502 -0.28792209701E+01  0.17505183429E+02 -0.19976350252E+02  0.26716585292E+02  0.00000000000E+00 0.  1.
<mgrwt>
<rscale>  1 0.12625472E+03</rscale>
<asrwt>0</asrwt>
<pdfrwt beam="1">  1       21 0.46439026E-02 0.12625472E+03</pdfrwt>
<pdfrwt beam="2">  1       21 0.26455124E-01 0.12625472E+03</pdfrwt>
<totfact> 0.40875750E+06</totfact>
</mgrwt>
</event>
<event>
 6    1  0.4424270E-002  0.1261628E+03  0.7546771E-02  0.1233263E+00
         21   -1    0    0  504  502  0.00000000000E+00  0.00000000000E+00  0.14419080675E+03  0.14419080675E+03  0.00000000000E+00 0.  1.
         21   -1    0    0  502  503 -0.00000000000E+00 -0.00000000000E+00 -0.37469973632E+02  0.37469973632E+02  0.00000000000E+00 0.  1.
         25    2    1    2    0    0  0.24018866156E+01 -0.16815873438E+02  0.78104227442E+02  0.14838236727E+03  0.12501405487E+03 0.  0.
          5    1    3    3  501    0 -0.21632080407E+02 -0.20187376944E+02 -0.27276579863E+02  0.40242998145E+02  0.10000000000E+00 0.  1.
         -5    1    3    3    0  501  0.24033967023E+02  0.33715035061E+01  0.10538080731E+03  0.10813936913E+03  0.10000000000E+00 0.  1.
         21    1    1    2  504  503 -0.24018866156E+01  0.16815873438E+02  0.28616605675E+02  0.33278413111E+02  0.00000000000E+00 0.  1.
<mgrwt>
<rscale>  1 0.12616282E+03</rscale>
<asrwt>0</asrwt>
<pdfrwt beam="1">  1       21 0.22183201E-01 0.12616282E+03</pdfrwt>
<pdfrwt beam="2">  1       21 0.57646114E-02 0.12616282E+03</pdfrwt>
<totfact> 0.39588572E+06</totfact>
</mgrwt>
</event>
<event>
 6    1  0.4424270E-002  0.1267527E+03  0.7546771E-02  0.1232355E+00
         21   -1    0    0  504  502  0.00000000000E+00  0.00000000000E+00  0.80605891387E+02  0.80605891387E+02  0.00000000000E+00 0. -1.
         21   -1    0    0  502  503 -0.00000000000E+00 -0.00000000000E+00 -0.17536673735E+03  0.17536673735E+03  0.00000000000E+00 0.  1.
         25    2    1    2    0    0  0.20799679453E+02 -0.27803798040E+01 -0.15029362922E+03  0.19660725842E+03  0.12500352757E+03 0.  0.
          5    1    3    3  501    0 -0.21190905158E+02 -0.14451029730E+02  0.12176632435E+02  0.28393081888E+02  0.10000000000E+00 0. -1.
         -5    1    3    3    0  501  0.41990584611E+02  0.11670649926E+02 -0.16247026165E+03  0.16821417653E+03  0.10000000000E+00 0. -1.
         21    1    1    2  504  503 -0.20799679453E+02  0.27803798040E+01  0.55532783252E+02  0.59365370317E+02  0.00000000000E+00 0. -1.
<mgrwt>
<rscale>  1 0.12675267E+03</rscale>
<asrwt>0</asrwt>
<pdfrwt beam="1">  1       21 0.12400907E-01 0.12675267E+03</pdfrwt>
<pdfrwt beam="2">  1       21 0.26979498E-01 0.12675267E+03</pdfrwt>
<totfact> 0.72721983E+05</totfact>
</mgrwt>
</event>
<event>
 6    1  0.4424270E-002  0.1480715E+03  0.7546771E-02  0.1202863E+00
         21   -1    0    0  504  502  0.00000000000E+00  0.00000000000E+00  0.22353154900E+03  0.22353154900E+03  0.00000000000E+00 0. -1.
         21   -1    0    0  502  503 -0.00000000000E+00 -0.00000000000E+00 -0.11533076954E+03  0.11533076954E+03  0.00000000000E+00 0.  1.
         25    2    1    2    0    0  0.70111570914E+02 -0.37212386105E+02 -0.54539598190E+02  0.15779651675E+03  0.12499911549E+03 0.  0.
          5    1    3    3  501    0 -0.59432459987E+01  0.37851009070E+02 -0.11256520314E+01  0.38331425138E+02  0.10000000000E+00 0.  1.
         -5    1    3    3    0  501  0.76054816912E+02 -0.75063395175E+02 -0.53413946159E+02  0.11946509162E+03  0.10000000000E+00 0.  1.
         21    1    1    2  504  503 -0.70111570914E+02  0.37212386105E+02  0.16274037765E+03  0.18106580178E+03  0.00000000000E+00 0. -1.
<mgrwt>
<rscale>  1 0.14807151E+03</rscale>
<asrwt>0</asrwt>
<pdfrwt beam="1">  1       21 0.34389469E-01 0.14807151E+03</pdfrwt>
<pdfrwt beam="2">  1       21 0.17743195E-01 0.14807151E+03</pdfrwt>
<totfact> 0.23762354E+05</totfact>
</mgrwt>
</event>
<event>
 6    1  0.4424270E-002  0.1529706E+03  0.7546771E-02  0.1196870E+00
         21   -1    0    0  504  502  0.00000000000E+00  0.00000000000E+00  0.11299146306E+03  0.11299146306E+03  0.00000000000E+00 0. -1.
         21   -1    0    0  502  503 -0.00000000000E+00 -0.00000000000E+00 -0.13969246546E+03  0.13969246546E+03  0.00000000000E+00 0. -1.
         25    2    1    2    0    0 -0.46442268856E+02 -0.74959143609E+02  0.17637633840E+02  0.15398401864E+03  0.12499693725E+03 0.  0.
          5    1    3    3  501    0 -0.86053501650E+02 -0.71680656140E+02  0.43734085518E+01  0.11208237289E+03  0.10000000000E+00 0.  1.
         -5    1    3    3    0  501  0.39611232795E+02 -0.32784874684E+01  0.13264225288E+02  0.41901645745E+02  0.10000000000E+00 0.  1.
         21    1    1    2  504  503  0.46442268856E+02  0.74959143609E+02 -0.44338636238E+02  0.98699909881E+02  0.00000000000E+00 0. -1.
<mgrwt>
<rscale>  1 0.15297056E+03</rscale>
<asrwt>0</asrwt>
<pdfrwt beam="1">  1       21 0.17383302E-01 0.15297056E+03</pdfrwt>
<pdfrwt beam="2">  1       21 0.21491149E-01 0.15297056E+03</pdfrwt>
<totfact> 0.60695193E+05</totfact>
</mgrwt>
</event>
<event>
 6    1  0.4424270E-002  0.1362229E+03  0.7546771E-02  0.1218504E+00
         21   -1    0    0  503  502  0.00000000000E+00  0.00000000000E+00  0.43887957264E+02  0.43887957264E+02  0.00000000000E+00 0. -1.
         21   -1    0    0  504  503 -0.00000000000E+00 -0.00000000000E+00 -0.30691493978E+03  0.30691493978E+03  0.00000000000E+00 0. -1.
         25    2    1    2    0    0  0.28872604764E+02  0.45799195605E+02 -0.26353461085E+03  0.29666001837E+03  0.12500192702E+03 0.  0.
          5    1    3    3  501    0  0.12705215829E+02  0.74854271421E+02 -0.24909581190E+03  0.26040990374E+03  0.10000000000E+00 0. -1.
         -5    1    3    3    0  501  0.16167388935E+02 -0.29055075817E+02 -0.14438798956E+02  0.36250114634E+02  0.10000000000E+00 0. -1.
         21    1    1    2  504  502 -0.28872604764E+02 -0.45799195605E+02  0.50762834220E+00  0.54142878668E+02  0.00000000000E+00 0. -1.
<mgrwt>
<rscale>  1 0.13622289E+03</rscale>
<asrwt>0</asrwt>
<pdfrwt beam="1">  1       21 0.67519934E-02 0.13622289E+03</pdfrwt>
<pdfrwt beam="2">  1       21 0.47217683E-01 0.13622289E+03</pdfrwt>
<totfact> 0.69449933E+05</totfact>
</mgrwt>
</event>
<event>
 6    1  0.4424270E-002  0.1525467E+03  0.7546771E-02  0.1197378E+00
         21   -1    0    0  503  502  0.00000000000E+00  0.00000000000E+00  0.84170031441E+01  0.84170031441E+01  0.00000000000E+00 0. -1.
         21   -1    0    0  504  503 -0.00000000000E+00 -0.00000000000E+00 -0.17114128363E+04  0.17114128363E+04  0.00000000000E+00 0. -1.
         25    2    1    2    0    0  0.67551592977E+01 -0.87174520076E+02 -0.10640870938E+04  0.10749659730E+04  0.12500188242E+03 0.  0.
          5    1    3    3  501    0  0.19312768161E+02 -0.51333849528E+02 -0.99175356874E+03  0.99326899591E+03  0.10000000000E+00 0. -1.
         -5    1    3    3    0  501 -0.12557608863E+02 -0.35840670548E+02 -0.72333525110E+02  0.81696977059E+02  0.10000000000E+00 0. -1.
         21    1    1    2  504  502 -0.67551592977E+01  0.87174520076E+02 -0.63890873926E+03  0.64486386643E+03  0.00000000000E+00 0. -1.
<mgrwt>
<rscale>  1 0.15254671E+03</rscale>
<asrwt>0</asrwt>
<pdfrwt beam="1">  1       21 0.12949215E-02 0.15254671E+03</pdfrwt>
<pdfrwt beam="2">  1       21 0.26329470E+00 0.15254671E+03</pdfrwt>
<totfact> 0.14221863E+05</totfact>
</mgrwt>
</event>
<event>
 6    1  0.4424270E-002  0.1264134E+03  0.7546771E-02  0.1232877E+00
         21   -1    0    0  504  502  0.00000000000E+00  0.00000000000E+00  0.26076392665E+02  0.26076392665E+02  0.00000000000E+00 0. -1.
         21   -1    0    0  502  503 -0.00000000000E+00 -0.00000000000E+00 -0.20258132231E+03  0.20258132231E+03  0.00000000000E+00 0. -1.
         25    2    1    2    0    0  0.18645198887E+02 -0.28034147878E+01 -0.15628553872E+03  0.20101126231E+03  0.12499942153E+03 0.  0.
          5    1    3    3  501    0  0.46891573932E+02 -0.44347617706E+02 -0.44323686082E+02  0.78295147039E+02  0.10000000000E+00 0. -1.
         -5    1    3    3    0  501 -0.28246375045E+02  0.41544202918E+02 -0.11196185264E+03  0.12271611527E+03  0.10000000000E+00 0. -1.
         21    1    1    2  504  503 -0.18645198887E+02  0.28034147878E+01 -0.20219390925E+02  0.27646452672E+02  0.00000000000E+00 0.  1.
<mgrwt>
<rscale>  1 0.12641344E+03</rscale>
<asrwt>0</asrwt>
<pdfrwt beam="1">  1       21 0.40117527E-02 0.12641344E+03</pdfrwt>
<pdfrwt beam="2">  1       21 0.31166358E-01 0.12641344E+03</pdfrwt>
<totfact> 0.38094533E+06</totfact>
</mgrwt>
</event>
<event>
 6    1  0.4424270E-002  0.1269802E+03  0.7546771E-02  0.1232007E+00
         21   -1    0    0  504  502  0.00000000000E+00  0.00000000000E+00  0.37280728785E+02  0.37280728785E+02  0.00000000000E+00 0. -1.
         21   -1    0    0  502  503 -0.00000000000E+00 -0.00000000000E+00 -0.33610712523E+03  0.33610712523E+03  0.00000000000E+00 0. -1.
         25    2    1    2    0    0  0.20304338114E+02 -0.92606026142E+01 -0.31897551043E+03  0.34332106667E+03  0.12500381456E+03 0.  0.
          5    1    3    3  501    0 -0.47867357286E+02  0.20599271718E+02 -0.14568194196E+03  0.15472185399E+03  0.10000000000E+00 0.  1.
         -5    1    3    3    0  501  0.68171695400E+02 -0.29859874332E+02 -0.17329356848E+03  0.18859921268E+03  0.10000000000E+00 0.  1.
         21    1    1    2  504  503 -0.20304338114E+02  0.92606026142E+01  0.20149113987E+02  0.30066787349E+02  0.00000000000E+00 0. -1.
<mgrwt>
<rscale>  1 0.12698023E+03</rscale>
<asrwt>0</asrwt>
<pdfrwt beam="1">  1       21 0.57354966E-02 0.12698023E+03</pdfrwt>
<pdfrwt beam="2">  1       21 0.51708790E-01 0.12698023E+03</pdfrwt>
<totfact> 0.76015486E+05</totfact>
</mgrwt>
</event>
<event>
 6    1  0.4424270E-002  0.1281193E+03  0.7546771E-02  0.1230273E+00
         21   -1    0    0  503  502  0.00000000000E+00  0.00000000000E+00  0.67227234636E+02  0.67227234636E+02  0.00000000000E+00 0.  1.
         21   -1    0    0  504  503 -0.00000000000E+00 -0.00000000000E+00 -0.10925077198E+03  0.10925077198E+03  0.00000000000E+00 0. -1.
         25    2    1    2    0    0 -0.29767676874E+01 -0.27988486046E+02 -0.61634209619E+02  0.14217356137E+03  0.12498931658E+03 0.  0.
          5    1    3    3  501    0  0.53185818873E+02 -0.38313263636E+02 -0.53260509618E+02  0.84459039684E+02  0.10000000000E+00 0.  1.
         -5    1    3    3    0  501 -0.56162586560E+02  0.10324777590E+02 -0.83737000017E+01  0.57714521683E+02  0.10000000000E+00 0.  1.
         21    1    1    2  504  502  0.29767676874E+01  0.27988486046E+02  0.19610672273E+02  0.34304445251E+02  0.00000000000E+00 0.  1.
<mgrwt>
<rscale>  1 0.12811926E+03</rscale>
<asrwt>0</asrwt>
<pdfrwt beam="1">  1       21 0.10342652E-01 0.12811926E+03</pdfrwt>
<pdfrwt beam="2">  1       21 0.16807811E-01 0.12811926E+03</pdfrwt>
<totfact> 0.24157169E+06</totfact>
</mgrwt>
</event>
<event>
 6    1  0.4424270E-002  0.1299744E+03  0.7546771E-02  0.1227494E+00
         21   -1    0    0  504  502  0.00000000000E+00  0.00000000000E+00  0.78367555107E+02  0.78367555107E+02  0.00000000000E+00 0.  1.
         21   -1    0    0  502  503 -0.00000000000E+00 -0.00000000000E+00 -0.87459944082E+02  0.87459944082E+02  0.00000000000E+00 0.  1.
         25    2    1    2    0    0 -0.18742222363E+02  0.30271000754E+02 -0.72414144618E+01  0.13017598460E+03  0.12500297796E+03 0.  0.
          5    1    3    3  501    0 -0.66257963623E+01 -0.45490939381E+02  0.18053750356E+02  0.49389013405E+02  0.10000000000E+00 0. -1.
         -5    1    3    3    0  501 -0.12116426001E+02  0.75761940135E+02 -0.25295164818E+02  0.80786971197E+02  0.10000000000E+00 0. -1.
         21    1    1    2  504  503  0.18742222363E+02 -0.30271000754E+02 -0.18509745130E+01  0.35651514588E+02  0.00000000000E+00 0.  1.
<mgrwt>
<rscale>  1 0.12997442E+03</rscale>
<asrwt>0</asrwt>
<pdfrwt beam="1">  1       21 0.12056547E-01 0.12997442E+03</pdfrwt>
<pdfrwt beam="2">  1       21 0.13455376E-01 0.12997442E+03</pdfrwt>
<totfact> 0.27549870E+06</totfact>
</mgrwt>
</event>
<event>
 6    1  0.4424270E-002  0.1320483E+03  0.7546771E-02  0.1224448E+00
         21   -1    0    0  503  502  0.00000000000E+00  0.00000000000E+00  0.32576376737E+04  0.32576376737E+04  0.00000000000E+00 0. -1.
         21   -1    0    0  504  503 -0.00000000000E+00 -0.00000000000E+00 -0.14182167578E+02  0.14182167578E+02  0.00000000000E+00 0. -1.
         25    2    1    2    0    0 -0.92679283603E+01  0.41284011987E+02  0.29666809077E+03  0.32472867618E+03  0.12508594209E+03 0.  0.
          5    1    3    3  501    0  0.17571943419E+02 -0.36920175281E+02  0.50103545747E+02  0.64670301026E+02  0.10000000000E+00 0.  1.
         -5    1    3    3    0  501 -0.26839871779E+02  0.78204187268E+02  0.24656454503E+03  0.26005837515E+03  0.10000000000E+00 0.  1.
         21    1    1    2  504  502  0.92679283603E+01 -0.41284011987E+02  0.29467874154E+04  0.29470911651E+04  0.00000000000E+00 0. -1.
<mgrwt>
<rscale>  1 0.13204831E+03</rscale>
<asrwt>0</asrwt>
<pdfrwt beam="1">  1       21 0.50117443E+00 0.13204831E+03</pdfrwt>
<pdfrwt beam="2">  1       21 0.21818745E-02 0.13204831E+03</pdfrwt>
<totfact> 0.22137019E+03</totfact>
</mgrwt>
</event>
<event>
 6    1  0.4424270E-002  0.1262017E+03  0.7546771E-02  0.1233203E+00
         21   -1    0    0  503  502  0.00000000000E+00  0.00000000000E+00  0.10344122498E+02  0.10344122498E+02  0.00000000000E+00 0.  1.
         21   -1    0    0  504  503 -0.00000000000E+00 -0.00000000000E+00 -0.18318424796E+04  0.18318424796E+04  0.00000000000E+00 0.  1.
         25    2    1    2    0    0 -0.44879358164E+01 -0.16765135411E+02 -0.18204290117E+04  0.18247982487E+04  0.12500260298E+03 0.  0.
          5    1    3    3  501    0 -0.15537029128E+02  0.43202992003E+02 -0.33658933463E+03  0.33970617890E+03  0.10000000000E+00 0. -1.
         -5    1    3    3    0  501  0.11049093311E+02 -0.59968127414E+02 -0.14838396770E+04  0.14850920698E+04  0.10000000000E+00 0. -1.
         21    1    1    2  504  502  0.44879358164E+01  0.16765135411E+02 -0.10693454468E+01  0.17388353370E+02  0.00000000000E+00 0.  1.
<mgrwt>
<rscale>  1 0.12620167E+03</rscale>
<asrwt>0</asrwt>
<pdfrwt beam="1">  1       21 0.15914052E-02 0.12620167E+03</pdfrwt>
<pdfrwt beam="2">  1       21 0.28182162E+00 0.12620167E+03</pdfrwt>
<totfact> 0.82265251E+04</totfact>
</mgrwt>
</event>
<event>
 6    1  0.4424270E-002  0.1261941E+03  0.7546771E-02  0.1233215E+00
         21   -1    0    0  504  502  0.00000000000E+00  0.00000000000E+00  0.40534500380E+03  0.40534500380E+03  0.00000000000E+00 0.  1.
         21   -1    0    0  502  503 -0.00000000000E+00 -0.00000000000E+00 -0.44379740671E+02  0.44379740671E+02  0.00000000000E+00 0.  1.
         25    2    1    2    0    0 -0.70418962846E+01 -0.15831316486E+02  0.46050856590E+02  0.13433403070E+03  0.12499892610E+03 0.  0.
          5    1    3    3  501    0  0.49022162602E+02 -0.62936040081E+01 -0.14258547734E+02  0.51440237762E+02  0.10000000000E+00 0.  1.
         -5    1    3    3    0  501 -0.56064058887E+02 -0.95377124778E+01  0.60309404323E+02  0.82893792940E+02  0.10000000000E+00 0.  1.
         21    1    1    2  504  503  0.70418962846E+01  0.15831316486E+02  0.31491440654E+03  0.31539071377E+03  0.00000000000E+00 0.  1.
<mgrwt>
<rscale>  1 0.12619410E+03</rscale>
<asrwt>0</asrwt>
<pdfrwt beam="1">  1       21 0.62360768E-01 0.12619410E+03</pdfrwt>
<pdfrwt beam="2">  1       21 0.68276527E-02 0.12619410E+03</pdfrwt>
<totfact> 0.38124174E+05</totfact>
</mgrwt>
</event>
<event>
 6    1  0.4424270E-002  0.1299524E+03  0.7546771E-02  0.1227526E+00
         21   -1    0    0  504  502  0.00000000000E+00  0.00000000000E+00  0.47927419733E+03  0.47927419733E+03  0.00000000000E+00 0.  1.
         21   -1    0    0  502  503 -0.00000000000E+00 -0.00000000000E+00 -0.19475085364E+03  0.19475085364E+03  0.00000000000E+00 0.  1.
         25    2    1    2    0    0 -0.33812697094E+02 -0.10913828137E+02 -0.17230547662E+03  0.21581660364E+03  0.12500087602E+03 0.  0.
          5    1    3    3  501    0 -0.73325793933E+02  0.21291667761E+02 -0.81484692850E+02  0.11166813485E+03  0.10000000000E+00 0.  1.
         -5    1    3    3    0  501  0.39513096839E+02 -0.32205495898E+02 -0.90820783769E+02  0.10414846879E+03  0.10000000000E+00 0.  1.
         21    1    1    2  504  503  0.33812697094E+02  0.10913828137E+02  0.45682882031E+03  0.45820844732E+03  0.00000000000E+00 0.  1.
<mgrwt>
<rscale>  1 0.12995241E+03</rscale>
<asrwt>0</asrwt>
<pdfrwt beam="1">  1       21 0.73734491E-01 0.12995241E+03</pdfrwt>
<pdfrwt beam="2">  1       21 0.29961670E-01 0.12995241E+03</pdfrwt>
<totfact> 0.18398790E+04</totfact>
</mgrwt>
</event>
<event>
 6    1  0.4424270E-002  0.1259623E+03  0.7546771E-02  0.1233573E+00
         21   -1    0    0  504  502  0.00000000000E+00  0.00000000000E+00  0.61855082045E+02  0.61855082045E+02  0.00000000000E+00 0.  1.
         21   -1    0    0  502  503 -0.00000000000E+00 -0.00000000000E+00 -0.81001971860E+02  0.81001971860E+02  0.00000000000E+00 0.  1.
         25    2    1    2    0    0  0.14723555028E+02  0.50723247124E+01 -0.18002930274E+02  0.12724231106E+03  0.12499595464E+03 0.  0.
          5    1    3    3  501    0 -0.25364890826E+02 -0.50593678848E+02 -0.11684760162E+01  0.56608067995E+02  0.10000000000E+00 0. -1.
         -5    1    3    3    0  501  0.40088445854E+02  0.55666003560E+02 -0.16834454258E+02  0.70634243066E+02  0.10000000000E+00 0. -1.
         21    1    1    2  504  503 -0.14723555028E+02 -0.50723247124E+01 -0.11439595407E+01  0.15614742844E+02  0.00000000000E+00 0.  1.
<mgrwt>
<rscale>  1 0.12596230E+03</rscale>
<asrwt>0</asrwt>
<pdfrwt beam="1">  1       21 0.95161665E-02 0.12596230E+03</pdfrwt>
<pdfrwt beam="2">  1       21 0.12461842E-01 0.12596230E+03</pdfrwt>
<totfact> 0.47801265E+06</totfact>
</mgrwt>
</event>
<event>
 6    1  0.4424270E-002  0.1805251E+03  0.7546771E-02  0.1167296E+00
         21   -1    0    0  504  502  0.00000000000E+00  0.00000000000E+00  0.94863865598E+03  0.94863865598E+03  0.00000000000E+00 0. -1.
         21   -1    0    0  502  503 -0.00000000000E+00 -0.00000000000E+00 -0.71208549388E+02  0.71208549388E+02  0.00000000000E+00 0.  1.
         25    2    1    2    0    0  0.40930398174E+02  0.12364718848E+03  0.57243569861E+02  0.18938355189E+03  0.12500151488E+03 0.  0.
          5    1    3    3  501    0  0.86105435276E+02  0.79184716882E+02  0.33311754645E+02  0.12163078709E+03  0.10000000000E+00 0. -1.
         -5    1    3    3    0  501 -0.45175037102E+02  0.44462471601E+02  0.23931815217E+02  0.67752764796E+02  0.10000000000E+00 0. -1.
         21    1    1    2  504  503 -0.40930398174E+02 -0.12364718848E+03  0.82018653673E+03  0.83046365348E+03  0.00000000000E+00 0. -1.
<mgrwt>
<rscale>  1 0.18052508E+03</rscale>
<asrwt>0</asrwt>
<pdfrwt beam="1">  1       21 0.14594440E+00 0.18052508E+03</pdfrwt>
<pdfrwt beam="2">  1       21 0.10955162E-01 0.18052508E+03</pdfrwt>
<totfact> 0.22349095E+04</totfact>
</mgrwt>
</event>
<event>
 6    1  0.4424270E-002  0.1306548E+03  0.7546771E-02  0.1226487E+00
         21   -1    0    0  504  502  0.00000000000E+00  0.00000000000E+00  0.20967749314E+03  0.20967749314E+03  0.00000000000E+00 0.  1.
         21   -1    0    0  502  503 -0.00000000000E+00 -0.00000000000E+00 -0.86317431528E+02  0.86317431528E+02  0.00000000000E+00 0. -1.
         25    2    1    2    0    0  0.24547310236E+02 -0.29000645670E+02 -0.33268483833E+02  0.13482386915E+03  0.12500830287E+03 0.  0.
          5    1    3    3  501    0  0.24643736348E+01 -0.77376547328E+02 -0.17694119653E+02  0.79412184733E+02  0.10000000000E+00 0. -1.
         -5    1    3    3    0  501  0.22082936601E+02  0.48375901658E+02 -0.15574364180E+02  0.55411684415E+02  0.10000000000E+00 0. -1.
         21    1    1    2  504  503 -0.24547310236E+02  0.29000645670E+02  0.15662854544E+03  0.16117105552E+03  0.00000000000E+00 0.  1.
<mgrwt>
<rscale>  1 0.13065483E+03</rscale>
<asrwt>0</asrwt>
<pdfrwt beam="1">  1       21 0.32258076E-01 0.13065483E+03</pdfrwt>
<pdfrwt beam="2">  1       21 0.13279605E-01 0.13065483E+03</pdfrwt>
<totfact> 0.45631207E+05</totfact>
</mgrwt>
</event>
<event>
 6    1  0.4424270E-002  0.1264358E+03  0.7546771E-02  0.1232842E+00
         21   -1    0    0  503  502  0.00000000000E+00  0.00000000000E+00  0.14374373949E+03  0.14374373949E+03  0.00000000000E+00 0. -1.
         21   -1    0    0  504  503 -0.00000000000E+00 -0.00000000000E+00 -0.44243850357E+02  0.44243850357E+02  0.00000000000E+00 0. -1.
         25    2    1    2    0    0  0.50340123439E+01 -0.18353067971E+02  0.10880197028E+03  0.16680492953E+03  0.12499535750E+03 0.  0.
          5    1    3    3  501    0 -0.40481286348E+02  0.35379145036E+02  0.31819666711E+02  0.62473351419E+02  0.10000000000E+00 0.  1.
         -5    1    3    3    0  501  0.45515298692E+02 -0.53732213007E+02  0.76982303567E+02  0.10433157812E+03  0.10000000000E+00 0.  1.
         21    1    1    2  504  502 -0.50340123439E+01  0.18353067971E+02 -0.93020811472E+01  0.21182660312E+02  0.00000000000E+00 0. -1.
<mgrwt>
<rscale>  1 0.12643582E+03</rscale>
<asrwt>0</asrwt>
<pdfrwt beam="1">  1       21 0.22114421E-01 0.12643582E+03</pdfrwt>
<pdfrwt beam="2">  1       21 0.68067463E-02 0.12643582E+03</pdfrwt>
<totfact> 0.30026992E+06</totfact>
</mgrwt>
</event>
<event>
 6    1  0.4424270E-002  0.1320658E+03  0.7546771E-02  0.1224422E+00
         21   -1    0    0  503  502  0.00000000000E+00  0.00000000000E+00  0.81060308286E+02  0.81060308286E+02  0.00000000000E+00 0.  1.
         21   -1    0    0  504  503 -0.00000000000E+00 -0.00000000000E+00 -0.15432234545E+03  0.15432234545E+03  0.00000000000E+00 0.  1.
         25    2    1    2    0    0 -0.21837035997E+02  0.36604528418E+02 -0.11544797246E+03  0.17541265475E+03  0.12499846983E+03 0.  0.
          5    1    3    3  501    0  0.18223540089E+02  0.48964147969E+01 -0.12240449410E+03  0.12385048433E+03  0.10000000000E+00 0.  1.
         -5    1    3    3    0  501 -0.40060576086E+02  0.31708113621E+02  0.69565216415E+01  0.51562170426E+02  0.10000000000E+00 0.  1.
         21    1    1    2  504  502  0.21837035997E+02 -0.36604528418E+02  0.42185935294E+02  0.59969998987E+02  0.00000000000E+00 0.  1.
<mgrwt>
<rscale>  1 0.13206576E+03</rscale>
<asrwt>0</asrwt>
<pdfrwt beam="1">  1       21 0.12470817E-01 0.13206576E+03</pdfrwt>
<pdfrwt beam="2">  1       21 0.23741899E-01 0.13206576E+03</pdfrwt>
<totfact> 0.91722423E+05</totfact>
</mgrwt>
</event>
<event>
 6    1  0.4424270E-002  0.1265108E+03  0.7546771E-02  0.1232727E+00
         21   -1    0    0  504  502  0.00000000000E+00  0.00000000000E+00  0.50474391701E+03  0.50474391701E+03  0.00000000000E+00 0. -1.
         21   -1    0    0  502  503 -0.00000000000E+00 -0.00000000000E+00 -0.46703580904E+02  0.46703580904E+02  0.00000000000E+00 0. -1.
         25    2    1    2    0    0  0.12490439290E+02 -0.15001922151E+02  0.39616609175E+02  0.13256865624E+03  0.12499561654E+03 0.  0.
          5    1    3    3  501    0  0.36491172289E+02 -0.51833068821E+02 -0.12266078233E+02  0.64565775405E+02  0.10000000000E+00 0. -1.
         -5    1    3    3    0  501 -0.24000732999E+02  0.36831146670E+02  0.51882687407E+02  0.68002880837E+02  0.10000000000E+00 0. -1.
         21    1    1    2  504  503 -0.12490439290E+02  0.15001922151E+02  0.41842372693E+03  0.41887884168E+03  0.00000000000E+00 0. -1.
<mgrwt>
<rscale>  1 0.12651076E+03</rscale>
<asrwt>0</asrwt>
<pdfrwt beam="1">  1       21 0.77652907E-01 0.12651076E+03</pdfrwt>
<pdfrwt beam="2">  1       21 0.71851666E-02 0.12651076E+03</pdfrwt>
<totfact> 0.21672027E+05</totfact>
</mgrwt>
</event>
<event>
 6    1  0.4424270E-002  0.1395717E+03  0.7546771E-02  0.1213906E+00
         21   -1    0    0  503  502  0.00000000000E+00  0.00000000000E+00  0.16929354556E+04  0.16929354556E+04  0.00000000000E+00 0.  1.
         21   -1    0    0  504  503 -0.00000000000E+00 -0.00000000000E+00 -0.17912400009E+02  0.17912400009E+02  0.00000000000E+00 0.  1.
         25    2    1    2    0    0  0.21128541661E+02 -0.58391894728E+02  0.26544057774E+03  0.29989824967E+03  0.12499692476E+03 0.  0.
          5    1    3    3  501    0  0.30762937968E+02 -0.95759911097E+02  0.18131342180E+03  0.20734243620E+03  0.10000000000E+00 0.  1.
         -5    1    3    3    0  501 -0.96343963077E+01  0.37368016368E+02  0.84127155942E+02  0.92555813466E+02  0.10000000000E+00 0.  1.
         21    1    1    2  504  502 -0.21128541661E+02  0.58391894728E+02  0.14095824778E+04  0.14109496059E+04  0.00000000000E+00 0.  1.
<mgrwt>
<rscale>  1 0.13957170E+03</rscale>
<asrwt>0</asrwt>
<pdfrwt beam="1">  1       21 0.26045148E+00 0.13957170E+03</pdfrwt>
<pdfrwt beam="2">  1       21 0.27557552E-02 0.13957170E+03</pdfrwt>
<totfact> 0.44093435E+04</totfact>
</mgrwt>
</event>
<event>
 6    1  0.4424270E-002  0.1270116E+03  0.7546771E-02  0.1231959E+00
         21   -1    0    0  503  502  0.00000000000E+00  0.00000000000E+00  0.55211694334E+02  0.55211694334E+02  0.00000000000E+00 0. -1.
         21   -1    0    0  504  503 -0.00000000000E+00 -0.00000000000E+00 -0.11091838967E+03  0.11091838967E+03  0.00000000000E+00 0. -1.
         25    2    1    2    0    0 -0.18364520149E+02  0.13066833055E+02 -0.63859809669E+02  0.14216195934E+03  0.12499579860E+03 0.  0.
          5    1    3    3  501    0  0.38722728330E+02  0.43832369914E+02 -0.13423263070E+02  0.60007668952E+02  0.10000000000E+00 0.  1.
         -5    1    3    3    0  501 -0.57087248479E+02 -0.30765536858E+02 -0.50436546599E+02  0.82154290393E+02  0.10000000000E+00 0.  1.
         21    1    1    2  504  502  0.18364520149E+02 -0.13066833055E+02  0.81531143322E+01  0.23968124660E+02  0.00000000000E+00 0.  1.
<mgrwt>
<rscale>  1 0.12701160E+03</rscale>
<asrwt>0</asrwt>
<pdfrwt beam="1">  1       21 0.84941069E-02 0.12701160E+03</pdfrwt>
<pdfrwt beam="2">  1       21 0.17064367E-01 0.12701160E+03</pdfrwt>
<totfact> 0.33100862E+06</totfact>
</mgrwt>
</event>
<event>
 6    1  0.4424270E-002  0.1307064E+03  0.7546771E-02  0.1226411E+00
         21   -1    0    0  504  502  0.00000000000E+00  0.00000000000E+00  0.51007074234E+02  0.51007074234E+02  0.00000000000E+00 0.  1.
         21   -1    0    0  502  503 -0.00000000000E+00 -0.00000000000E+00 -0.15139153322E+04  0.15139153322E+04  0.00000000000E+00 0. -1.
         25    2    1    2    0    0 -0.22083100507E+02  0.31204482694E+02 -0.15034956953E+04  0.15091664817E+04  0.12499112235E+03 0.  0.
          5    1    3    3  501    0 -0.45435840251E+02  0.61691153595E+02 -0.12879168654E+04  0.12901938135E+04  0.10000000000E+00 0. -1.
         -5    1    3    3    0  501  0.23352739745E+02 -0.30486670900E+02 -0.21557882984E+03  0.21897266823E+03  0.10000000000E+00 0. -1.
         21    1    1    2  504  503  0.22083100507E+02 -0.31204482694E+02  0.40587437355E+02  0.55755924701E+02  0.00000000000E+00 0.  1.
<mgrwt>
<rscale>  1 0.13070640E+03</rscale>
<asrwt>0</asrwt>
<pdfrwt beam="1">  1       21 0.78472428E-02 0.13070640E+03</pdfrwt>
<pdfrwt beam="2">  1       21 0.23291003E+00 0.13070640E+03</pdfrwt>
<totfact> 0.11110535E+04</totfact>
</mgrwt>
</event>
<event>
 6    1  0.4424270E-002  0.1259460E+03  0.7546771E-02  0.1233598E+00
         21   -1    0    0  503  502  0.00000000000E+00  0.00000000000E+00  0.72289974755E+02  0.72289974755E+02  0.00000000000E+00 0.  1.
         21   -1    0    0  504  503 -0.00000000000E+00 -0.00000000000E+00 -0.26895605100E+03  0.26895605100E+03  0.00000000000E+00 0.  1.
         25    2    1    2    0    0 -0.14659863430E+02  0.44943495266E+01 -0.25313296954E+03  0.28273431060E+03  0.12500911707E+03 0.  0.
          5    1    3    3  501    0 -0.28295329339E+02 -0.15377769876E+02 -0.40153009765E+01  0.32453568535E+02  0.10000000000E+00 0.  1.
         -5    1    3    3    0  501  0.13635465909E+02  0.19872119403E+02 -0.24911766856E+03  0.25028074206E+03  0.10000000000E+00 0.  1.
         21    1    1    2  504  502  0.14659863430E+02 -0.44943495266E+01  0.56466893287E+02  0.58511715159E+02  0.00000000000E+00 0.  1.
<mgrwt>
<rscale>  1 0.12594598E+03</rscale>
<asrwt>0</asrwt>
<pdfrwt beam="1">  1       21 0.11121535E-01 0.12594598E+03</pdfrwt>
<pdfrwt beam="2">  1       21 0.41377854E-01 0.12594598E+03</pdfrwt>
<totfact> 0.38234775E+05</totfact>
</mgrwt>
</event>
<event>
 6    1  0.4424270E-002  0.1288814E+03  0.7546771E-02  0.1229125E+00
         21   -1    0    0  504  502  0.00000000000E+00  0.00000000000E+00  0.45043271589E+03  0.45043271589E+03  0.00000000000E+00 0. -1.
         21   -1    0    0  502  503 -0.00000000000E+00 -0.00000000000E+00 -0.55603635256E+02  0.55603635256E+02  0.00000000000E+00 0.  1.
         25    2    1    2    0    0  0.19188969374E+02  0.24858152499E+02  0.20630148372E+02  0.13052205688E+03  0.12499704004E+03 0.  0.
          5    1    3    3  501    0  0.27706032564E+02 -0.22720810545E+02  0.58851259545E+02  0.68900945003E+02  0.10000000000E+00 0. -1.
         -5    1    3    3    0  501 -0.85170631905E+01  0.47578963044E+02 -0.38221111173E+02  0.61621111878E+02  0.10000000000E+00 0. -1.
         21    1    1    2  504  503 -0.19188969374E+02 -0.24858152499E+02  0.37419893227E+03  0.37551429427E+03  0.00000000000E+00 0. -1.
<mgrwt>
<rscale>  1 0.12888136E+03</rscale>
<asrwt>0</asrwt>
<pdfrwt beam="1">  1       21 0.69297339E-01 0.12888136E+03</pdfrwt>
<pdfrwt beam="2">  1       21 0.85544057E-02 0.12888136E+03</pdfrwt>
<totfact> 0.20600437E+05</totfact>
</mgrwt>
</event>
<event>
 6    1  0.4424270E-002  0.1302741E+03  0.7546771E-02  0.1227050E+00
         21   -1    0    0  504  502  0.00000000000E+00  0.00000000000E+00  0.14534572595E+03  0.14534572595E+03  0.00000000000E+00 0. -1.
         21   -1    0    0  502  503 -0.00000000000E+00 -0.00000000000E+00 -0.52608878344E+02  0.52608878344E+02  0.00000000000E+00 0. -1.
         25    2    1    2    0    0 -0.64787445527E+01  0.36103983893E+02  0.45160251629E+02  0.13787961558E+03  0.12500347308E+03 0.  0.
          5    1    3    3  501    0  0.49324216881E+02  0.51578219864E+02  0.16420868819E+02  0.73231455455E+02  0.10000000000E+00 0. -1.
         -5    1    3    3    0  501 -0.55802961434E+02 -0.15474235970E+02  0.28739382810E+02  0.64648160128E+02  0.10000000000E+00 0. -1.
         21    1    1    2  504  503  0.64787445527E+01 -0.36103983893E+02  0.47576595976E+02  0.60074988711E+02  0.00000000000E+00 0. -1.
<mgrwt>
<rscale>  1 0.13027410E+03</rscale>
<asrwt>0</asrwt>
<pdfrwt beam="1">  1       21 0.22360881E-01 0.13027410E+03</pdfrwt>
<pdfrwt beam="2">  1       21 0.80936736E-02 0.13027410E+03</pdfrwt>
<totfact> 0.21872428E+06</totfact>
</mgrwt>
</event>
<event>
 6    1  0.4424270E-002  0.1589763E+03  0.7546771E-02  0.1189857E+00
         21   -1    0    0  503  502  0.00000000000E+00  0.00000000000E+00  0.12139634572E+03  0.12139634572E+03  0.00000000000E+00 0. -1.
         21   -1    0    0  504  503 -0.00000000000E+00 -0.00000000000E+00 -0.16450387283E+03  0.16450387283E+03  0.00000000000E+00 0. -1.
         25    2    1    2    0    0 -0.35239354658E+02  0.91685541396E+02 -0.83646291976E+02  0.17963902115E+03  0.12500170055E+03 0.  0.
          5    1    3    3  501    0 -0.82160327573E+02  0.52360458351E+02 -0.56946881988E+02  0.11284898933E+03  0.10000000000E+00 0. -1.
         -5    1    3    3    0  501  0.46920972915E+02  0.39325083045E+02 -0.26699409988E+02  0.66790031813E+02  0.10000000000E+00 0. -1.
         21    1    1    2  504  502  0.35239354658E+02 -0.91685541396E+02  0.40538764869E+02  0.10626119741E+03  0.00000000000E+00 0. -1.
<mgrwt>
<rscale>  1 0.15897634E+03</rscale>
<asrwt>0</asrwt>
<pdfrwt beam="1">  1       21 0.18676361E-01 0.15897634E+03</pdfrwt>
<pdfrwt beam="2">  1       21 0.25308288E-01 0.15897634E+03</pdfrwt>
<totfact> 0.39058606E+05</totfact>
</mgrwt>
</event>
<event>
 6    1  0.4424270E-002  0.1273285E+03  0.7546771E-02  0.1231474E+00
         21   -1    0    0  504  502  0.00000000000E+00  0.00000000000E+00  0.51100133056E+02  0.51100133056E+02  0.00000000000E+00 0. -1.
         21   -1    0    0  502  503 -0.00000000000E+00 -0.00000000000E+00 -0.14094808396E+03  0.14094808396E+03  0.00000000000E+00 0. -1.
         25    2    1    2    0    0  0.22687739214E+02 -0.84186877468E+01 -0.10365630221E+03  0.16418644429E+03  0.12500780650E+03 0.  0.
          5    1    3    3  501    0  0.22568513972E+02 -0.12255044343E+02  0.24783234961E+02  0.35689531657E+02  0.10000000000E+00 0. -1.
         -5    1    3    3    0  501  0.11922524159E+00  0.38363565962E+01 -0.12843953717E+03  0.12849691263E+03  0.10000000000E+00 0. -1.
         21    1    1    2  504  503 -0.22687739214E+02  0.84186877468E+01  0.13808351304E+02  0.27861772732E+02  0.00000000000E+00 0. -1.
<mgrwt>
<rscale>  1 0.12732855E+03</rscale>
<asrwt>0</asrwt>
<pdfrwt beam="1">  1       21 0.78615590E-02 0.12732855E+03</pdfrwt>
<pdfrwt beam="2">  1       21 0.21684320E-01 0.12732855E+03</pdfrwt>
<totfact> 0.24336537E+06</totfact>
</mgrwt>
</event>
<event>
 6    1  0.4424270E-002  0.1285179E+03  0.7546771E-02  0.1229672E+00
         21   -1    0    0  503  502  0.00000000000E+00  0.00000000000E+00  0.17988440555E+03  0.17988440555E+03  0.00000000000E+00 0.  1.
         21   -1    0    0  504  503 -0.00000000000E+00 -0.00000000000E+00 -0.72521517103E+02  0.72521517103E+02  0.00000000000E+00 0.  1.
         25    2    1    2    0    0 -0.18105497077E+02 -0.23769040892E+02 -0.12266155369E+02  0.12910189006E+03  0.12499625242E+03 0.  0.
          5    1    3    3  501    0  0.42947171760E+02 -0.37321476362E+02 -0.29693910406E+02  0.64180140816E+02  0.10000000000E+00 0.  1.
         -5    1    3    3    0  501 -0.61052668837E+02  0.13552435470E+02  0.17427755037E+02  0.64921749244E+02  0.10000000000E+00 0.  1.
         21    1    1    2  504  502  0.18105497077E+02  0.23769040892E+02  0.11962904382E+03  0.12330403259E+03  0.00000000000E+00 0.  1.
<mgrwt>
<rscale>  1 0.12851786E+03</rscale>
<asrwt>0</asrwt>
<pdfrwt beam="1">  1       21 0.27674524E-01 0.12851786E+03</pdfrwt>
<pdfrwt beam="2">  1       21 0.11157157E-01 0.12851786E+03</pdfrwt>
<totfact> 0.83518856E+05</totfact>
</mgrwt>
</event>
<event>
 6    1  0.4424270E-002  0.1259333E+03  0.7546771E-02  0.1233618E+00
         21   -1    0    0  503  502  0.00000000000E+00  0.00000000000E+00  0.23989909234E+03  0.23989909234E+03  0.00000000000E+00 0. -1.
         21   -1    0    0  504  503 -0.00000000000E+00 -0.00000000000E+00 -0.15182185533E+03  0.15182185533E+03  0.00000000000E+00 0.  1.
         25    2    1    2    0    0  0.76858148841E+01 -0.13224360724E+02 -0.12538623880E+03  0.17771017464E+03  0.12500096729E+03 0.  0.
          5    1    3    3  501    0 -0.16675224210E+02 -0.63459821358E+02 -0.43950289528E+02  0.78973729675E+02  0.10000000000E+00 0. -1.
         -5    1    3    3    0  501  0.24361039094E+02  0.50235460634E+02 -0.81435949276E+02  0.98736444970E+02  0.10000000000E+00 0. -1.
         21    1    1    2  504  502 -0.76858148841E+01  0.13224360724E+02  0.21346347581E+03  0.21401077303E+03  0.00000000000E+00 0. -1.
<mgrwt>
<rscale>  1 0.12593330E+03</rscale>
<asrwt>0</asrwt>
<pdfrwt beam="1">  1       21 0.36907553E-01 0.12593330E+03</pdfrwt>
<pdfrwt beam="2">  1       21 0.23357208E-01 0.12593330E+03</pdfrwt>
<totfact> 0.12493226E+05</totfact>
</mgrwt>
</event>
<event>
 6    1  0.4424270E-002  0.1272458E+03  0.7546771E-02  0.1231601E+00
         21   -1    0    0  503  502  0.00000000000E+00  0.00000000000E+00  0.97130503399E+02  0.97130503399E+02  0.00000000000E+00 0. -1.
         21   -1    0    0  504  503 -0.00000000000E+00 -0.00000000000E+00 -0.68895550062E+02  0.68895550062E+02  0.00000000000E+00 0. -1.
         25    2    1    2    0    0  0.20059378082E+02  0.12786353668E+02 -0.23646625972E+01  0.12726775133E+03  0.12500247761E+03 0.  0.
          5    1    3    3  501    0 -0.53003181802E+02  0.71197924433E+01 -0.64786543750E+01  0.53870322888E+02  0.10000000000E+00 0. -1.
         -5    1    3    3    0  501  0.73062559884E+02  0.56665612244E+01  0.41139917778E+01  0.73397428437E+02  0.10000000000E+00 0. -1.
         21    1    1    2  504  502 -0.20059378082E+02 -0.12786353668E+02  0.30599615934E+02  0.38758302136E+02  0.00000000000E+00 0. -1.
<mgrwt>
<rscale>  1 0.12724578E+03</rscale>
<asrwt>0</asrwt>
<pdfrwt beam="1">  1       21 0.14943154E-01 0.12724578E+03</pdfrwt>
<pdfrwt beam="2">  1       21 0.10599315E-01 0.12724578E+03</pdfrwt>
<totfact> 0.28622991E+06</totfact>
</mgrwt>
</event>
<event>
 6    1  0.4424270E-002  0.1277958E+03  0.7546771E-02  0.1230763E+00
         21   -1    0    0  504  502  0.00000000000E+00  0.00000000000E+00  0.47483374097E+02  0.47483374097E+02  0.00000000000E+00 0.  1.
         21   -1    0    0  502  503 -0.00000000000E+00 -0.00000000000E+00 -0.12653618093E+03  0.12653618093E+03  0.00000000000E+00 0.  1.
         25    2    1    2    0    0  0.26034799972E+02  0.56976624473E+01 -0.70919251682E+02  0.14615508147E+03  0.12498597287E+03 0.  0.
          5    1    3    3  501    0 -0.38192482008E+02 -0.34961722466E+02 -0.29142414303E+02  0.59416142850E+02  0.10000000000E+00 0.  1.
         -5    1    3    3    0  501  0.64227281980E+02  0.40659384913E+02 -0.41776837379E+02  0.86738938623E+02  0.10000000000E+00 0.  1.
         21    1    1    2  504  503 -0.26034799972E+02 -0.56976624473E+01 -0.81335551470E+01  0.27864473551E+02  0.00000000000E+00 0.  1.
<mgrwt>
<rscale>  1 0.12779580E+03</rscale>
<asrwt>0</asrwt>
<pdfrwt beam="1">  1       21 0.73051345E-02 0.12779580E+03</pdfrwt>
<pdfrwt beam="2">  1       21 0.19467105E-01 0.12779580E+03</pdfrwt>
<totfact> 0.33721012E+06</totfact>
</mgrwt>
</event>
<event>
 6    1  0.4424270E-002  0.1317396E+03  0.7546771E-02  0.1224897E+00
         21   -1    0    0  504  502  0.00000000000E+00  0.00000000000E+00  0.54050433472E+02  0.54050433472E+02  0.00000000000E+00 0. -1.
         21   -1    0    0  502  503 -0.00000000000E+00 -0.00000000000E+00 -0.17916472119E+03  0.17916472119E+03  0.00000000000E+00 0. -1.
         25    2    1    2    0    0 -0.22024814872E+01 -0.41538563622E+02 -0.13688881163E+03  0.18998388581E+03  0.12500010771E+03 0.  0.
          5    1    3    3  501    0 -0.24724497317E+02 -0.48638303171E+02 -0.36666080856E+01  0.54684909415E+02  0.10000000000E+00 0.  1.
         -5    1    3    3    0  501  0.22522015830E+02  0.70997395491E+01 -0.13322220354E+03  0.13529897640E+03  0.10000000000E+00 0.  1.
         21    1    1    2  504  503  0.22024814872E+01  0.41538563622E+02  0.11774523911E+02  0.43231268843E+02  0.00000000000E+00 0. -1.
<mgrwt>
<rscale>  1 0.13173963E+03</rscale>
<asrwt>0</asrwt>
<pdfrwt beam="1">  1       21 0.83154511E-02 0.13173963E+03</pdfrwt>
<pdfrwt beam="2">  1       21 0.27563804E-01 0.13173963E+03</pdfrwt>
<totfact> 0.14063020E+06</totfact>
</mgrwt>
</event>
<event>
 6    1  0.4424270E-002  0.1286819E+03  0.7546771E-02  0.1229425E+00
         21   -1    0    0  504  502  0.00000000000E+00  0.00000000000E+00  0.12670209281E+03  0.12670209281E+03  0.00000000000E+00 0. -1.
         21   -1    0    0  502  503 -0.00000000000E+00 -0.00000000000E+00 -0.56236781908E+02  0.56236781908E+02  0.00000000000E+00 0. -1.
         25    2    1    2    0    0 -0.30653290039E+02 -0.23925851575E+01  0.79041671949E+02  0.15101862060E+03  0.12495474864E+03 0.  0.
          5    1    3    3  501    0  0.19122969534E+02 -0.39159076340E+02  0.77740952141E+02  0.89122314060E+02  0.10000000000E+00 0. -1.
         -5    1    3    3    0  501 -0.49776259573E+02  0.36766491183E+02  0.13007198079E+01  0.61896306537E+02  0.10000000000E+00 0. -1.
         21    1    1    2  504  503  0.30653290039E+02  0.23925851575E+01 -0.85763610518E+01  0.31920254116E+02  0.00000000000E+00 0. -1.
<mgrwt>
<rscale>  1 0.12868193E+03</rscale>
<asrwt>0</asrwt>
<pdfrwt beam="1">  1       21 0.19492630E-01 0.12868193E+03</pdfrwt>
<pdfrwt beam="2">  1       21 0.86518127E-02 0.12868193E+03</pdfrwt>
<totfact> 0.25138888E+06</totfact>
</mgrwt>
</event>
<event>
 6    1  0.4424270E-002  0.1281236E+03  0.7546771E-02  0.1230267E+00
         21   -1    0    0  503  502  0.00000000000E+00  0.00000000000E+00  0.66129736671E+02  0.66129736671E+02  0.00000000000E+00 0.  1.
         21   -1    0    0  504  503 -0.00000000000E+00 -0.00000000000E+00 -0.15327694166E+03  0.15327694166E+03  0.00000000000E+00 0. -1.
         25    2    1    2    0    0  0.28325665399E+02  0.22141152978E+01 -0.12029708537E+03  0.17574708379E+03  0.12493359470E+03 0.  0.
          5    1    3    3  501    0 -0.22320079326E+02 -0.34663605513E-01 -0.12297159558E+03  0.12498084038E+03  0.10000000000E+00 0. -1.
         -5    1    3    3    0  501  0.50645744726E+02  0.22487789033E+01  0.26745102057E+01  0.50766243413E+02  0.10000000000E+00 0. -1.
         21    1    1    2  504  502 -0.28325665399E+02 -0.22141152978E+01  0.33149880377E+02  0.43659594546E+02  0.00000000000E+00 0.  1.
<mgrwt>
<rscale>  1 0.12812357E+03</rscale>
<asrwt>0</asrwt>
<pdfrwt beam="1">  1       21 0.10173806E-01 0.12812357E+03</pdfrwt>
<pdfrwt beam="2">  1       21 0.23581068E-01 0.12812357E+03</pdfrwt>
<totfact> 0.13299018E+06</totfact>
</mgrwt>
</event>
<event>
 6    1  0.4424270E-002  0.2323178E+03  0.7546771E-02  0.1125019E+00
         21   -1    0    0  503  502  0.00000000000E+00  0.00000000000E+00  0.96965214560E+03  0.96965214560E+03  0.00000000000E+00 0. -1.
         21   -1    0    0  504  503 -0.00000000000E+00 -0.00000000000E+00 -0.90080102829E+02  0.90080102829E+02  0.00000000000E+00 0.  1.
         25    2    1    2    0    0  0.19326444117E+03 -0.31562732183E+02  0.94831335967E+02  0.25092737258E+03  0.12499685494E+03 0.  0.
          5    1    3    3  501    0  0.53908730233E+02  0.42029367041E+02  0.27671450132E+01  0.68412615655E+02  0.10000000000E+00 0. -1.
         -5    1    3    3    0  501  0.13935571094E+03 -0.73592099225E+02  0.92064190954E+02  0.18251475692E+03  0.10000000000E+00 0. -1.
         21    1    1    2  504  502 -0.19326444117E+03  0.31562732183E+02  0.78474070681E+03  0.80880487585E+03  0.00000000000E+00 0. -1.
<mgrwt>
<rscale>  1 0.23231781E+03</rscale>
<asrwt>0</asrwt>
<pdfrwt beam="1">  1       21 0.14917725E+00 0.23231781E+03</pdfrwt>
<pdfrwt beam="2">  1       21 0.13858478E-01 0.23231781E+03</pdfrwt>
<totfact> 0.13368767E+04</totfact>
</mgrwt>
</event>
<event>
 6    1  0.4424270E-002  0.1295656E+03  0.7546771E-02  0.1228102E+00
         21   -1    0    0  504  502  0.00000000000E+00  0.00000000000E+00  0.17099268329E+03  0.17099268329E+03  0.00000000000E+00 0.  1.
         21   -1    0    0  502  503 -0.00000000000E+00 -0.00000000000E+00 -0.39289126814E+02  0.39289126814E+02  0.00000000000E+00 0.  1.
         25    2    1    2    0    0  0.30668330879E+02 -0.14893128600E+02  0.10904251820E+03  0.16934436448E+03  0.12499956483E+03 0.  0.
          5    1    3    3  501    0  0.35691999179E+02 -0.11311176954E+02  0.13632477425E+03  0.14137296631E+03  0.10000000000E+00 0. -1.
         -5    1    3    3    0  501 -0.50236682997E+01 -0.35819516466E+01 -0.27282256047E+02  0.27971398173E+02  0.10000000000E+00 0. -1.
         21    1    1    2  504  503 -0.30668330879E+02  0.14893128600E+02  0.22661038280E+02  0.40937445626E+02  0.00000000000E+00 0.  1.
<mgrwt>
<rscale>  1 0.12956559E+03</rscale>
<asrwt>0</asrwt>
<pdfrwt beam="1">  1       21 0.26306566E-01 0.12956559E+03</pdfrwt>
<pdfrwt beam="2">  1       21 0.60444811E-02 0.12956559E+03</pdfrwt>
<totfact> 0.26531569E+06</totfact>
</mgrwt>
</event>
<event>
 6    1  0.4424270E-002  0.1267741E+03  0.7546771E-02  0.1232322E+00
         21   -1    0    0  503  502  0.00000000000E+00  0.00000000000E+00  0.36696303485E+02  0.36696303485E+02  0.00000000000E+00 0.  1.
         21   -1    0    0  504  503 -0.00000000000E+00 -0.00000000000E+00 -0.15004982911E+03  0.15004982911E+03  0.00000000000E+00 0.  1.
         25    2    1    2    0    0  0.19611969925E+02  0.77046504350E+01 -0.10259642650E+03  0.16308802227E+03  0.12501074063E+03 0.  0.
          5    1    3    3  501    0 -0.47875766672E+02  0.28976803172E+02 -0.47611780696E+02  0.73475409611E+02  0.10000000000E+00 0.  1.
         -5    1    3    3    0  501  0.67487736596E+02 -0.21272152737E+02 -0.54984645805E+02  0.89612612657E+02  0.10000000000E+00 0.  1.
         21    1    1    2  504  502 -0.19611969925E+02 -0.77046504350E+01 -0.10757099124E+02  0.23658110327E+02  0.00000000000E+00 0.  1.
<mgrwt>
<rscale>  1 0.12677412E+03</rscale>
<asrwt>0</asrwt>
<pdfrwt beam="1">  1       21 0.56455851E-02 0.12677412E+03</pdfrwt>
<pdfrwt beam="2">  1       21 0.23084590E-01 0.12677412E+03</pdfrwt>
<totfact> 0.38074347E+06</totfact>
</mgrwt>
</event>
<event>
 6    1  0.4424270E-002  0.1461405E+03  0.7546771E-02  0.1205297E+00
         21   -1    0    0  503  502  0.00000000000E+00  0.00000000000E+00  0.36358747575E+03  0.36358747575E+03  0.00000000000E+00 0.  1.
         21   -1    0    0  504  503 -0.00000000000E+00 -0.00000000000E+00 -0.38960347683E+02  0.38960347683E+02  0.00000000000E+00 0.  1.
         25    2    1    2    0    0 -0.57444185656E+02  0.49303416049E+02  0.13737080682E+03  0.20056863850E+03  0.12500551541E+03 0.  0.
          5    1    3    3  501    0  0.38175042117E+02  0.49059614113E+01  0.22200270676E+02  0.44432694225E+02  0.10000000000E+00 0. -1.
         -5    1    3    3    0  501 -0.95619227773E+02  0.44397454638E+02  0.11517053614E+03  0.15613594427E+03  0.10000000000E+00 0. -1.
         21    1    1    2  504  502  0.57444185656E+02 -0.49303416049E+02  0.18725632125E+03  0.20197918493E+03  0.00000000000E+00 0.  1.
<mgrwt>
<rscale>  1 0.14614048E+03</rscale>
<asrwt>0</asrwt>
<pdfrwt beam="1">  1       21 0.55936532E-01 0.14614048E+03</pdfrwt>
<pdfrwt beam="2">  1       21 0.59938999E-02 0.14614048E+03</pdfrwt>
<totfact> 0.59811626E+05</totfact>
</mgrwt>
</event>
<event>
 6    1  0.4424270E-002  0.1413908E+03  0.7546771E-02  0.1211470E+00
         21   -1    0    0  503  502  0.00000000000E+00  0.00000000000E+00  0.18091412516E+03  0.18091412516E+03  0.00000000000E+00 0.  1.
         21   -1    0    0  504  503 -0.00000000000E+00 -0.00000000000E+00 -0.60239584761E+02  0.60239584761E+02  0.00000000000E+00 0.  1.
         25    2    1    2    0    0  0.33425535737E+02  0.57047729256E+02  0.69526227454E+02  0.15756029051E+03  0.12497855411E+03 0.  0.
          5    1    3    3  501    0 -0.66857624740E+01 -0.22273096634E+02 -0.20534128429E+02  0.31023389303E+02  0.10000000000E+00 0.  1.
         -5    1    3    3    0  501  0.40111298211E+02  0.79320825890E+02  0.90060355883E+02  0.12653690120E+03  0.10000000000E+00 0.  1.
         21    1    1    2  504  502 -0.33425535737E+02 -0.57047729256E+02  0.51148312947E+02  0.83593419417E+02  0.00000000000E+00 0.  1.
<mgrwt>
<rscale>  1 0.14139077E+03</rscale>
<asrwt>0</asrwt>
<pdfrwt beam="1">  1       21 0.27832942E-01 0.14139077E+03</pdfrwt>
<pdfrwt beam="2">  1       21 0.92676285E-02 0.14139077E+03</pdfrwt>
<totfact> 0.11444111E+06</totfact>
</mgrwt>
</event>
<event>
 6    1  0.4424270E-002  0.1264503E+03  0.7546771E-02  0.1232820E+00
         21   -1    0    0  503  502  0.00000000000E+00  0.00000000000E+00  0.98539221983E+02  0.98539221983E+02  0.00000000000E+00 0.  1.
         21   -1    0    0  504  503 -0.00000000000E+00 -0.00000000000E+00 -0.18989748061E+03  0.18989748061E+03  0.00000000000E+00 0. -1.
         25    2    1    2    0    0 -0.12285365573E+02  0.14604641872E+02 -0.16753868533E+03  0.20990210394E+03  0.12500182552E+03 0.  0.
          5    1    3    3  501    0 -0.66311675888E+02  0.10811573971E+02 -0.12141021335E+03  0.13876086767E+03  0.10000000000E+00 0.  1.
         -5    1    3    3    0  501  0.54026310315E+02  0.37930679017E+01 -0.46128471987E+02  0.71141236272E+02  0.10000000000E+00 0.  1.
         21    1    1    2  504  502  0.12285365573E+02 -0.14604641872E+02  0.76180426710E+02  0.78534598651E+02  0.00000000000E+00 0.  1.
<mgrwt>
<rscale>  1 0.12645031E+03</rscale>
<asrwt>0</asrwt>
<pdfrwt beam="1">  1       21 0.15159880E-01 0.12645031E+03</pdfrwt>
<pdfrwt beam="2">  1       21 0.29214997E-01 0.12645031E+03</pdfrwt>
<totfact> 0.43594162E+05</totfact>
</mgrwt>
</event>
<event>
 6    1  0.4424270E-002  0.1280342E+03  0.7546771E-02  0.1230402E+00
         21   -1    0    0  503  502  0.00000000000E+00  0.00000000000E+00  0.56958249180E+02  0.56958249180E+02  0.00000000000E+00 0. -1.
         21   -1    0    0  504  503 -0.00000000000E+00 -0.00000000000E+00 -0.11358141674E+03  0.11358141674E+03  0.00000000000E+00 0. -1.
         25    2    1    2    0    0  0.22475907027E+02 -0.16181681849E+02 -0.62113872887E+02  0.14230562496E+03  0.12500297783E+03 0.  0.
          5    1    3    3  501    0 -0.36634413786E+02 -0.15483819162E+02 -0.72110837434E+02  0.82351756537E+02  0.10000000000E+00 0.  1.
         -5    1    3    3    0  501  0.59110320813E+02 -0.69786268694E+00  0.99969645471E+01  0.59953868425E+02  0.10000000000E+00 0.  1.
         21    1    1    2  504  502 -0.22475907027E+02  0.16181681849E+02  0.54907053219E+01  0.28234040963E+02  0.00000000000E+00 0. -1.
<mgrwt>
<rscale>  1 0.12803421E+03</rscale>
<asrwt>0</asrwt>
<pdfrwt beam="1">  1       21 0.87628075E-02 0.12803421E+03</pdfrwt>
<pdfrwt beam="2">  1       21 0.17474064E-01 0.12803421E+03</pdfrwt>
<totfact> 0.30045137E+06</totfact>
</mgrwt>
</event>
<event>
 6    1  0.4424270E-002  0.1289926E+03  0.7546771E-02  0.1228958E+00
         21   -1    0    0  503  502  0.00000000000E+00  0.00000000000E+00  0.14787225535E+03  0.14787225535E+03  0.00000000000E+00 0.  1.
         21   -1    0    0  504  503 -0.00000000000E+00 -0.00000000000E+00 -0.62214873034E+02  0.62214873034E+02  0.00000000000E+00 0. -1.
         25    2    1    2    0    0 -0.53223341469E+00  0.31853741709E+02  0.11654445403E+02  0.12951803502E+03  0.12499660461E+03 0.  0.
          5    1    3    3  501    0  0.18615302383E+02  0.31598632633E+02 -0.51669449381E+02  0.63362015959E+02  0.10000000000E+00 0. -1.
         -5    1    3    3    0  501 -0.19147535798E+02  0.25510907530E+00  0.63323894783E+02  0.66156019063E+02  0.10000000000E+00 0. -1.
         21    1    1    2  504  502  0.53223341469E+00 -0.31853741709E+02  0.74002936915E+02  0.80569093362E+02  0.00000000000E+00 0.  1.
<mgrwt>
<rscale>  1 0.12899262E+03</rscale>
<asrwt>0</asrwt>
<pdfrwt beam="1">  1       21 0.22749578E-01 0.12899262E+03</pdfrwt>
<pdfrwt beam="2">  1       21 0.95715190E-02 0.12899262E+03</pdfrwt>
<totfact> 0.15828082E+06</totfact>
</mgrwt>
</event>
<event>
 6    1  0.4424270E-002  0.1381513E+03  0.7546771E-02  0.1215838E+00
         21   -1    0    0  504  502  0.00000000000E+00  0.00000000000E+00  0.16161349782E+03  0.16161349782E+03  0.00000000000E+00 0.  1.
         21   -1    0    0  502  503 -0.00000000000E+00 -0.00000000000E+00 -0.67390104827E+02  0.67390104827E+02  0.00000000000E+00 0. -1.
         25    2    1    2    0    0  0.73652260250E+01 -0.58359243283E+02  0.28979203297E+02  0.14115798739E+03  0.12500294136E+03 0.  0.
          5    1    3    3  501    0  0.23013496673E+02  0.30717897157E+02  0.33012993421E+02  0.50626850282E+02  0.10000000000E+00 0.  1.
         -5    1    3    3    0  501 -0.15648270649E+02 -0.89077140440E+02 -0.40337901236E+01  0.90531137107E+02  0.10000000000E+00 0.  1.
         21    1    1    2  504  503 -0.73652260250E+01  0.58359243283E+02  0.65244189696E+02  0.87845615258E+02  0.00000000000E+00 0.  1.
<mgrwt>
<rscale>  1 0.13815131E+03</rscale>
<asrwt>0</asrwt>
<pdfrwt beam="1">  1       21 0.24863615E-01 0.13815131E+03</pdfrwt>
<pdfrwt beam="2">  1       21 0.10367708E-01 0.13815131E+03</pdfrwt>
<totfact> 0.11654896E+06</totfact>
</mgrwt>
</event>
<event>
 6    1  0.4424270E-002  0.1267579E+03  0.7546771E-02  0.1232347E+00
         21   -1    0    0  503  502  0.00000000000E+00  0.00000000000E+00  0.42060521115E+02  0.42060521115E+02  0.00000000000E+00 0.  1.
         21   -1    0    0  504  503 -0.00000000000E+00 -0.00000000000E+00 -0.18930401745E+03  0.18930401745E+03  0.00000000000E+00 0.  1.
         25    2    1    2    0    0  0.19094114989E+02 -0.88354486488E+01 -0.16197683508E+03  0.20567949136E+03  0.12499963073E+03 0.  0.
          5    1    3    3  501    0  0.25157952250E+02  0.16994810203E+01 -0.18119417789E+03  0.18294029326E+03  0.10000000000E+00 0. -1.
         -5    1    3    3    0  501 -0.60638372612E+01 -0.10534929669E+02  0.19217342810E+02  0.22739198098E+02  0.10000000000E+00 0. -1.
         21    1    1    2  504  502 -0.19094114989E+02  0.88354486488E+01  0.14733338736E+02  0.25685047214E+02  0.00000000000E+00 0.  1.
<mgrwt>
<rscale>  1 0.12675787E+03</rscale>
<asrwt>0</asrwt>
<pdfrwt beam="1">  1       21 0.64708494E-02 0.12675787E+03</pdfrwt>
<pdfrwt beam="2">  1       21 0.29123695E-01 0.12675787E+03</pdfrwt>
<totfact> 0.19441685E+06</totfact>
</mgrwt>
</event>
<event>
 6    1  0.4424270E-002  0.1949124E+03  0.7546771E-02  0.1154104E+00
         21   -1    0    0  504  502  0.00000000000E+00  0.00000000000E+00  0.73570883098E+02  0.73570883098E+02  0.00000000000E+00 0.  1.
         21   -1    0    0  502  503 -0.00000000000E+00 -0.00000000000E+00 -0.63052729703E+03  0.63052729703E+03  0.00000000000E+00 0.  1.
         25    2    1    2    0    0  0.14915055902E+03 -0.10858369448E+02 -0.51214829190E+03  0.54798424340E+03  0.12500825843E+03 0.  0.
          5    1    3    3  501    0  0.15822167146E+03 -0.37343643802E+02 -0.38730128068E+03  0.42003682823E+03  0.10000000000E+00 0.  1.
         -5    1    3    3    0  501 -0.90711124396E+01  0.26485274354E+02 -0.12484701122E+03  0.12794741517E+03  0.10000000000E+00 0.  1.
         21    1    1    2  504  503 -0.14915055902E+03  0.10858369448E+02 -0.44808122036E+02  0.15611393673E+03  0.00000000000E+00 0.  1.
<mgrwt>
<rscale>  1 0.19491244E+03</rscale>
<asrwt>0</asrwt>
<pdfrwt beam="1">  1       21 0.11318597E-01 0.19491244E+03</pdfrwt>
<pdfrwt beam="2">  1       21 0.97004199E-01 0.19491244E+03</pdfrwt>
<totfact> 0.57393417E+04</totfact>
</mgrwt>
</event>
<event>
 6    1  0.4424270E-002  0.1307632E+03  0.7546771E-02  0.1226328E+00
         21   -1    0    0  504  502  0.00000000000E+00  0.00000000000E+00  0.83458609212E+01  0.83458609212E+01  0.00000000000E+00 0. -1.
         21   -1    0    0  502  503 -0.00000000000E+00 -0.00000000000E+00 -0.85727724581E+03  0.85727724581E+03  0.00000000000E+00 0. -1.
         25    2    1    2    0    0 -0.38134766720E+02  0.44213539563E+01 -0.65097497072E+03  0.66397849184E+03  0.12500086528E+03 0.  0.
          5    1    3    3  501    0 -0.71313096721E+02 -0.24735980320E+02 -0.52683390686E+03  0.53221368068E+03  0.10000000000E+00 0. -1.
         -5    1    3    3    0  501  0.33178330001E+02  0.29157334277E+02 -0.12414106386E+03  0.13176481116E+03  0.10000000000E+00 0. -1.
         21    1    1    2  504  503  0.38134766720E+02 -0.44213539563E+01 -0.19795641417E+03  0.20164461489E+03  0.00000000000E+00 0.  1.
<mgrwt>
<rscale>  1 0.13076324E+03</rscale>
<asrwt>0</asrwt>
<pdfrwt beam="1">  1       21 0.12839782E-02 0.13076324E+03</pdfrwt>
<pdfrwt beam="2">  1       21 0.13188885E+00 0.13076324E+03</pdfrwt>
<totfact> 0.10580730E+06</totfact>
</mgrwt>
</event>
<event>
 6    1  0.4424270E-002  0.1260848E+03  0.7546771E-02  0.1233384E+00
         21   -1    0    0  504  502  0.00000000000E+00  0.00000000000E+00  0.48308121787E+03  0.48308121787E+03  0.00000000000E+00 0. -1.
         21   -1    0    0  502  503 -0.00000000000E+00 -0.00000000000E+00 -0.20773303135E+02  0.20773303135E+02  0.00000000000E+00 0. -1.
         25    2    1    2    0    0  0.58771516839E+01 -0.15471874784E+02  0.17298611514E+03  0.21405972543E+03  0.12499380064E+03 0.  0.
          5    1    3    3  501    0 -0.41951302612E+02 -0.51328609480E+02  0.89232330891E+02  0.11116184965E+03  0.10000000000E+00 0.  1.
         -5    1    3    3    0  501  0.47828454296E+02  0.35856734696E+02  0.83753784247E+02  0.10289787578E+03  0.10000000000E+00 0.  1.
         21    1    1    2  504  503 -0.58771516839E+01  0.15471874784E+02  0.28932179959E+03  0.28979479557E+03  0.00000000000E+00 0. -1.
<mgrwt>
<rscale>  1 0.12608477E+03</rscale>
<asrwt>0</asrwt>
<pdfrwt beam="1">  1       21 0.74320179E-01 0.12608477E+03</pdfrwt>
<pdfrwt beam="2">  1       21 0.31958931E-02 0.12608477E+03</pdfrwt>
<totfact> 0.92841516E+05</totfact>
</mgrwt>
</event>
<event>
 6    1  0.4424270E-002  0.1301113E+03  0.7546771E-02  0.1227291E+00
         21   -1    0    0  504  502  0.00000000000E+00  0.00000000000E+00  0.19987699986E+02  0.19987699986E+02  0.00000000000E+00 0.  1.
         21   -1    0    0  502  503 -0.00000000000E+00 -0.00000000000E+00 -0.85899365807E+03  0.85899365807E+03  0.00000000000E+00 0.  1.
         25    2    1    2    0    0 -0.19231099314E+00  0.36117465834E+02 -0.83209760728E+03  0.84220862859E+03  0.12499775079E+03 0.  0.
          5    1    3    3  501    0  0.33473329796E+02 -0.34946157671E+02 -0.23297011457E+03  0.23794281252E+03  0.10000000000E+00 0.  1.
         -5    1    3    3    0  501 -0.33665640789E+02  0.71063623504E+02 -0.59912749271E+03  0.60426581608E+03  0.10000000000E+00 0.  1.
         21    1    1    2  504  503  0.19231099314E+00 -0.36117465834E+02 -0.69083508042E+01  0.36772729469E+02  0.00000000000E+00 0.  1.
<mgrwt>
<rscale>  1 0.13011128E+03</rscale>
<asrwt>0</asrwt>
<pdfrwt beam="1">  1       21 0.30750303E-02 0.13011128E+03</pdfrwt>
<pdfrwt beam="2">  1       21 0.13215289E+00 0.13011128E+03</pdfrwt>
<totfact> 0.25712694E+05</totfact>
</mgrwt>
</event>
<event>
 6    1  0.4424270E-002  0.1266075E+03  0.7546771E-02  0.1232578E+00
         21   -1    0    0  503  502  0.00000000000E+00  0.00000000000E+00  0.24409016989E+03  0.24409016989E+03  0.00000000000E+00 0. -1.
         21   -1    0    0  504  503 -0.00000000000E+00 -0.00000000000E+00 -0.29046102890E+02  0.29046102890E+02  0.00000000000E+00 0. -1.
         25    2    1    2    0    0  0.58172384659E+01 -0.19249351306E+02  0.11483165948E+03  0.17092617342E+03  0.12500027581E+03 0.  0.
          5    1    3    3  501    0  0.19095543525E+02 -0.47230124065E+02 -0.10720365548E+01  0.50955702959E+02  0.10000000000E+00 0. -1.
         -5    1    3    3    0  501 -0.13278305059E+02  0.27980772759E+02  0.11590369603E+03  0.11997047046E+03  0.10000000000E+00 0. -1.
         21    1    1    2  504  502 -0.58172384659E+01  0.19249351306E+02  0.10021240752E+03  0.10221009936E+03  0.00000000000E+00 0. -1.
<mgrwt>
<rscale>  1 0.12660745E+03</rscale>
<asrwt>0</asrwt>
<pdfrwt beam="1">  1       21 0.37552333E-01 0.12660745E+03</pdfrwt>
<pdfrwt beam="2">  1       21 0.44686314E-02 0.12660745E+03</pdfrwt>
<totfact> 0.22099968E+06</totfact>
</mgrwt>
</event>
<event>
 6    1  0.4424270E-002  0.1261032E+03  0.7546771E-02  0.1233355E+00
         21   -1    0    0  504  502  0.00000000000E+00  0.00000000000E+00  0.56150006068E+03  0.56150006068E+03  0.00000000000E+00 0. -1.
         21   -1    0    0  502  503 -0.00000000000E+00 -0.00000000000E+00 -0.98505170981E+01  0.98505170981E+01  0.00000000000E+00 0. -1.
         25    2    1    2    0    0 -0.10264261819E+02  0.13270939579E+02  0.41672270636E+03  0.43538468385E+03  0.12498214284E+03 0.  0.
          5    1    3    3  501    0 -0.35327908332E+02  0.50439898660E+02  0.11594113658E+03  0.13128062171E+03  0.10000000000E+00 0.  1.
         -5    1    3    3    0  501  0.25063646513E+02 -0.37168959081E+02  0.30078156977E+03  0.30410406214E+03  0.10000000000E+00 0.  1.
         21    1    1    2  504  503  0.10264261819E+02 -0.13270939579E+02  0.13492683723E+03  0.13596589393E+03  0.00000000000E+00 0. -1.
<mgrwt>
<rscale>  1 0.12610317E+03</rscale>
<asrwt>0</asrwt>
<pdfrwt beam="1">  1       21 0.86384599E-01 0.12610317E+03</pdfrwt>
<pdfrwt beam="2">  1       21 0.15154646E-02 0.12610317E+03</pdfrwt>
<totfact> 0.22206699E+06</totfact>
</mgrwt>
</event>
<event>
 6    1  0.4424270E-002  0.1267178E+03  0.7546771E-02  0.1232409E+00
         21   -1    0    0  504  502  0.00000000000E+00  0.00000000000E+00  0.12932484172E+03  0.12932484172E+03  0.00000000000E+00 0. -1.
         21   -1    0    0  502  503 -0.00000000000E+00 -0.00000000000E+00 -0.54522510579E+02  0.54522510579E+02  0.00000000000E+00 0. -1.
         25    2    1    2    0    0 -0.18917498573E+02 -0.83612774994E+01  0.23965449170E+02  0.12896410092E+03  0.12501845407E+03 0.  0.
          5    1    3    3  501    0 -0.15549870407E+02  0.21172262636E+02 -0.45985275776E+02  0.52959595571E+02  0.10000000000E+00 0.  1.
         -5    1    3    3    0  501 -0.33676281661E+01 -0.29533540135E+02  0.69950724946E+02  0.76004505345E+02  0.10000000000E+00 0.  1.
         21    1    1    2  504  503  0.18917498573E+02  0.83612774994E+01  0.50836881971E+02  0.54883251382E+02  0.00000000000E+00 0.  1.
<mgrwt>
<rscale>  1 0.12671778E+03</rscale>
<asrwt>0</asrwt>
<pdfrwt beam="1">  1       21 0.19896129E-01 0.12671778E+03</pdfrwt>
<pdfrwt beam="2">  1       21 0.83880786E-02 0.12671778E+03</pdfrwt>
<totfact> 0.25524204E+06</totfact>
</mgrwt>
</event>
<event>
 6    1  0.4424270E-002  0.1293367E+03  0.7546771E-02  0.1228443E+00
         21   -1    0    0  504  502  0.00000000000E+00  0.00000000000E+00  0.91355901511E+03  0.91355901511E+03  0.00000000000E+00 0.  1.
         21   -1    0    0  502  503 -0.00000000000E+00 -0.00000000000E+00 -0.72561926051E+01  0.72561926051E+01  0.00000000000E+00 0.  1.
         25    2    1    2    0    0 -0.98929654213E+01 -0.31724340753E+02  0.74151655557E+03  0.75271161367E+03  0.12499466631E+03 0.  0.
          5    1    3    3  501    0  0.54720874941E+02 -0.34454741737E+02  0.37173595449E+03  0.37731834469E+03  0.10000000000E+00 0.  1.
         -5    1    3    3    0  501 -0.64613840362E+02  0.27304009843E+01  0.36978060109E+03  0.37539326898E+03  0.10000000000E+00 0.  1.
         21    1    1    2  504  503  0.98929654213E+01  0.31724340753E+02  0.16478626693E+03  0.16810359404E+03  0.00000000000E+00 0.  1.
<mgrwt>
<rscale>  1 0.12933666E+03</rscale>
<asrwt>0</asrwt>
<pdfrwt beam="1">  1       21 0.14054745E+00 0.12933666E+03</pdfrwt>
<pdfrwt beam="2">  1       21 0.11163380E-02 0.12933666E+03</pdfrwt>
<totfact> 0.11254178E+06</totfact>
</mgrwt>
</event>
<event>
 6    1  0.4424270E-002  0.1675025E+03  0.7546771E-02  0.1180478E+00
         21   -1    0    0  504  502  0.00000000000E+00  0.00000000000E+00  0.34098598181E+03  0.34098598181E+03  0.00000000000E+00 0.  1.
         21   -1    0    0  502  503 -0.00000000000E+00 -0.00000000000E+00 -0.17009422034E+03  0.17009422034E+03  0.00000000000E+00 0.  1.
         25    2    1    2    0    0  0.90983135269E+02  0.64441433558E+02 -0.11569219467E+03  0.20357248976E+03  0.12500578153E+03 0.  0.
          5    1    3    3  501    0 -0.72450269017E+01  0.44058584568E+02 -0.89296314101E+02  0.99837322685E+02  0.10000000000E+00 0.  1.
         -5    1    3    3    0  501  0.98228162171E+02  0.20382848990E+02 -0.26395880569E+02  0.10373516707E+03  0.10000000000E+00 0.  1.
         21    1    1    2  504  503 -0.90983135269E+02 -0.64441433558E+02  0.28658395614E+03  0.30750771239E+03  0.00000000000E+00 0.  1.
<mgrwt>
<rscale>  1 0.16750246E+03</rscale>
<asrwt>0</asrwt>
<pdfrwt beam="1">  1       21 0.52459382E-01 0.16750246E+03</pdfrwt>
<pdfrwt beam="2">  1       21 0.26168342E-01 0.16750246E+03</pdfrwt>
<totfact> 0.48423199E+04</totfact>
</mgrwt>
</event>
<event>
 6    1  0.4424270E-002  0.1267385E+03  0.7546771E-02  0.1232377E+00
         21   -1    0    0  503  502  0.00000000000E+00  0.00000000000E+00  0.35302951773E+03  0.35302951773E+03  0.00000000000E+00 0.  1.
         21   -1    0    0  504  503 -0.00000000000E+00 -0.00000000000E+00 -0.22484835047E+02  0.22484835047E+02  0.00000000000E+00 0.  1.
         25    2    1    2    0    0 -0.78192256623E+01 -0.19393539240E+02  0.16204048484E+03  0.20571766746E+03  0.12500156128E+03 0.  0.
          5    1    3    3  501    0 -0.19328094929E+02 -0.14923417238E+02  0.18124716392E+03  0.18288473984E+03  0.10000000000E+00 0. -1.
         -5    1    3    3    0  501  0.11508869266E+02 -0.44701220018E+01 -0.19206679081E+02  0.22832927623E+02  0.10000000000E+00 0. -1.
         21    1    1    2  504  502  0.78192256623E+01  0.19393539240E+02  0.16850419785E+03  0.16979668532E+03  0.00000000000E+00 0.  1.
<mgrwt>
<rscale>  1 0.12673847E+03</rscale>
<asrwt>0</asrwt>
<pdfrwt beam="1">  1       21 0.54312230E-01 0.12673847E+03</pdfrwt>
<pdfrwt beam="2">  1       21 0.34592056E-02 0.12673847E+03</pdfrwt>
<totfact> 0.15963542E+06</totfact>
</mgrwt>
</event>
<event>
 6    1  0.4424270E-002  0.1292084E+03  0.7546771E-02  0.1228635E+00
         21   -1    0    0  504  502  0.00000000000E+00  0.00000000000E+00  0.13556317325E+03  0.13556317325E+03  0.00000000000E+00 0. -1.
         21   -1    0    0  502  503 -0.00000000000E+00 -0.00000000000E+00 -0.57470215633E+02  0.57470215633E+02  0.00000000000E+00 0. -1.
         25    2    1    2    0    0 -0.28634244540E+02  0.15779143789E+02  0.26413468777E+02  0.13188054017E+03  0.12500361676E+03 0.  0.
          5    1    3    3  501    0  0.47718416425E+02  0.21910576242E+02  0.81793286394E+01  0.53141622429E+02  0.10000000000E+00 0. -1.
         -5    1    3    3    0  501 -0.76352660965E+02 -0.61314324529E+01  0.18234140138E+02  0.78738917740E+02  0.10000000000E+00 0. -1.
         21    1    1    2  504  503  0.28634244540E+02 -0.15779143789E+02  0.51679488841E+02  0.61152848715E+02  0.00000000000E+00 0. -1.
<mgrwt>
<rscale>  1 0.12920838E+03</rscale>
<asrwt>0</asrwt>
<pdfrwt beam="1">  1       21 0.20855873E-01 0.12920838E+03</pdfrwt>
<pdfrwt beam="2">  1       21 0.88415717E-02 0.12920838E+03</pdfrwt>
<totfact> 0.21367111E+06</totfact>
</mgrwt>
</event>
<event>
 6    1  0.4424270E-002  0.1277348E+03  0.7546771E-02  0.1230856E+00
         21   -1    0    0  503  502  0.00000000000E+00  0.00000000000E+00  0.14437715007E+02  0.14437715007E+02  0.00000000000E+00 0.  1.
         21   -1    0    0  504  503 -0.00000000000E+00 -0.00000000000E+00 -0.44009613294E+03  0.44009613294E+03  0.00000000000E+00 0.  1.
         25    2    1    2    0    0  0.25003858425E+02 -0.81446023247E+01 -0.38888031234E+03  0.40932149859E+03  0.12499865760E+03 0.  0.
          5    1    3    3  501    0 -0.47010094302E+02  0.15952873903E+02 -0.11847285558E+03  0.12845337933E+03  0.10000000000E+00 0. -1.
         -5    1    3    3    0  501  0.72013952726E+02 -0.24097476228E+02 -0.27040745675E+03  0.28086811926E+03  0.10000000000E+00 0. -1.
         21    1    1    2  504  502 -0.25003858425E+02  0.81446023247E+01 -0.36778105602E+02  0.45212349362E+02  0.00000000000E+00 0.  1.
<mgrwt>
<rscale>  1 0.12773485E+03</rscale>
<asrwt>0</asrwt>
<pdfrwt beam="1">  1       21 0.22211872E-02 0.12773485E+03</pdfrwt>
<pdfrwt beam="2">  1       21 0.67707089E-01 0.12773485E+03</pdfrwt>
<totfact> 0.20605380E+06</totfact>
</mgrwt>
</event>
<event>
 6    1  0.4424270E-002  0.1260088E+03  0.7546771E-02  0.1233501E+00
         21   -1    0    0  504  502  0.00000000000E+00  0.00000000000E+00  0.15329812955E+03  0.15329812955E+03  0.00000000000E+00 0.  1.
         21   -1    0    0  502  503 -0.00000000000E+00 -0.00000000000E+00 -0.25638115182E+03  0.25638115182E+03  0.00000000000E+00 0.  1.
         25    2    1    2    0    0  0.15969353325E+02  0.44457306128E+00 -0.24040704442E+03  0.27142912784E+03  0.12499202592E+03 0.  0.
          5    1    3    3  501    0  0.48145355810E+01  0.45477947768E+01  0.14659168333E+02  0.16086124655E+02  0.10000000000E+00 0. -1.
         -5    1    3    3    0  501  0.11154817744E+02 -0.41032217156E+01 -0.25506621276E+03  0.25534300319E+03  0.10000000000E+00 0. -1.
         21    1    1    2  504  503 -0.15969353325E+02 -0.44457306128E+00  0.13732402215E+03  0.13825015353E+03  0.00000000000E+00 0.  1.
<mgrwt>
<rscale>  1 0.12600883E+03</rscale>
<asrwt>0</asrwt>
<pdfrwt beam="1">  1       21 0.23584327E-01 0.12600883E+03</pdfrwt>
<pdfrwt beam="2">  1       21 0.39443254E-01 0.12600883E+03</pdfrwt>
<totfact> 0.10752488E+05</totfact>
</mgrwt>
</event>
<event>
 6    1  0.4424270E-002  0.1263633E+03  0.7546771E-02  0.1232954E+00
         21   -1    0    0  504  502  0.00000000000E+00  0.00000000000E+00  0.53728789451E+02  0.53728789451E+02  0.00000000000E+00 0.  1.
         21   -1    0    0  502  503 -0.00000000000E+00 -0.00000000000E+00 -0.10502265245E+03  0.10502265245E+03  0.00000000000E+00 0.  1.
         25    2    1    2    0    0 -0.12771985138E+02 -0.13393809687E+02 -0.58037264668E+02  0.13905394946E+03  0.12500063611E+03 0.  0.
          5    1    3    3  501    0  0.50058655655E+02 -0.20687696631E+02 -0.52707092705E+02  0.75577095865E+02  0.10000000000E+00 0. -1.
         -5    1    3    3    0  501 -0.62830640794E+02  0.72938869447E+01 -0.53301719624E+01  0.63476853596E+02  0.10000000000E+00 0. -1.
         21    1    1    2  504  503  0.12771985138E+02  0.13393809687E+02  0.67434016700E+01  0.19697492439E+02  0.00000000000E+00 0.  1.
<mgrwt>
<rscale>  1 0.12636327E+03</rscale>
<asrwt>0</asrwt>
<pdfrwt beam="1">  1       21 0.82659677E-02 0.12636327E+03</pdfrwt>
<pdfrwt beam="2">  1       21 0.16157331E-01 0.12636327E+03</pdfrwt>
<totfact> 0.38306625E+06</totfact>
</mgrwt>
</event>
<event>
 6    1  0.4424270E-002  0.1273246E+03  0.7546771E-02  0.1231480E+00
         21   -1    0    0  504  502  0.00000000000E+00  0.00000000000E+00  0.53582847104E+02  0.53582847104E+02  0.00000000000E+00 0.  1.
         21   -1    0    0  502  503 -0.00000000000E+00 -0.00000000000E+00 -0.12786235778E+03  0.12786235778E+03  0.00000000000E+00 0.  1.
         25    2    1    2    0    0 -0.23888684244E+02  0.47933181136E+01 -0.86755801748E+02  0.15407180589E+03  0.12497162518E+03 0.  0.
          5    1    3    3  501    0  0.76928659421E+00  0.55738487748E+02 -0.68667414944E+01  0.56165229075E+02  0.10000000000E+00 0.  1.
         -5    1    3    3    0  501 -0.24657970838E+02 -0.50945169634E+02 -0.79889060254E+02  0.97906576812E+02  0.10000000000E+00 0.  1.
         21    1    1    2  504  503  0.23888684244E+02 -0.47933181136E+01  0.12476291075E+02  0.27373398993E+02  0.00000000000E+00 0.  1.
<mgrwt>
<rscale>  1 0.12732459E+03</rscale>
<asrwt>0</asrwt>
<pdfrwt beam="1">  1       21 0.82435151E-02 0.12732459E+03</pdfrwt>
<pdfrwt beam="2">  1       21 0.19671132E-01 0.12732459E+03</pdfrwt>
<totfact> 0.26865043E+06</totfact>
</mgrwt>
</event>
<event>
 6    1  0.4424270E-002  0.1276295E+03  0.7546771E-02  0.1231016E+00
         21   -1    0    0  503  502  0.00000000000E+00  0.00000000000E+00  0.72056544647E+02  0.72056544647E+02  0.00000000000E+00 0.  1.
         21   -1    0    0  504  503 -0.00000000000E+00 -0.00000000000E+00 -0.17569329790E+03  0.17569329790E+03  0.00000000000E+00 0.  1.
         25    2    1    2    0    0  0.25766381506E+02  0.79353403115E+00 -0.14862165309E+03  0.19590220687E+03  0.12499897111E+03 0.  0.
          5    1    3    3  501    0  0.38491884018E+02 -0.12926856465E+02 -0.16567845596E+03  0.17058162130E+03  0.10000000000E+00 0.  1.
         -5    1    3    3    0  501 -0.12725502512E+02  0.13720390496E+02  0.17056802877E+02  0.25320585576E+02  0.10000000000E+00 0.  1.
         21    1    1    2  504  502 -0.25766381506E+02 -0.79353403115E+00  0.44984899834E+02  0.51847635676E+02  0.00000000000E+00 0.  1.
<mgrwt>
<rscale>  1 0.12762946E+03</rscale>
<asrwt>0</asrwt>
<pdfrwt beam="1">  1       21 0.11085622E-01 0.12762946E+03</pdfrwt>
<pdfrwt beam="2">  1       21 0.27029738E-01 0.12762946E+03</pdfrwt>
<totfact> 0.88354048E+05</totfact>
</mgrwt>
</event>
<event>
 6    1  0.4424270E-002  0.1259672E+03  0.7546771E-02  0.1233565E+00
         21   -1    0    0  503  502  0.00000000000E+00  0.00000000000E+00  0.61334813265E+03  0.61334813265E+03  0.00000000000E+00 0.  1.
         21   -1    0    0  504  503 -0.00000000000E+00 -0.00000000000E+00 -0.81693838495E+01  0.81693838495E+01  0.00000000000E+00 0.  1.
         25    2    1    2    0    0  0.93137332667E+01  0.12479257582E+02  0.53426422656E+03  0.54891347418E+03  0.12500104341E+03 0.  0.
          5    1    3    3  501    0  0.41133598995E+02 -0.32303783457E+02  0.11841605217E+03  0.12945222595E+03  0.10000000000E+00 0.  1.
         -5    1    3    3    0  501 -0.31819865729E+02  0.44783041039E+02  0.41584817439E+03  0.41946124823E+03  0.10000000000E+00 0.  1.
         21    1    1    2  504  502 -0.93137332667E+01 -0.12479257582E+02  0.70914522242E+02  0.72604042325E+02  0.00000000000E+00 0.  1.
<mgrwt>
<rscale>  1 0.12596721E+03</rscale>
<asrwt>0</asrwt>
<pdfrwt beam="1">  1       21 0.94361215E-01 0.12596721E+03</pdfrwt>
<pdfrwt beam="2">  1       21 0.12568288E-02 0.12596721E+03</pdfrwt>
<totfact> 0.24440880E+06</totfact>
</mgrwt>
</event>
<event>
 6    1  0.4424270E-002  0.1403022E+03  0.7546771E-02  0.1212923E+00
         21   -1    0    0  504  502  0.00000000000E+00  0.00000000000E+00  0.29709494052E+03  0.29709494052E+03  0.00000000000E+00 0.  1.
         21   -1    0    0  502  503 -0.00000000000E+00 -0.00000000000E+00 -0.49443591589E+02  0.49443591589E+02  0.00000000000E+00 0.  1.
         25    2    1    2    0    0  0.23931932506E+02 -0.59040459410E+02  0.67973214690E+02  0.15590079931E+03  0.12500475219E+03 0.  0.
          5    1    3    3  501    0  0.56334563226E+02  0.14617767006E+02  0.40357648308E+02  0.70823808871E+02  0.10000000000E+00 0.  1.
         -5    1    3    3    0  501 -0.32402630719E+02 -0.73658226416E+02  0.27615566382E+02  0.85076990444E+02  0.10000000000E+00 0.  1.
         21    1    1    2  504  503 -0.23931932506E+02  0.59040459410E+02  0.17967813424E+03  0.19063773280E+03  0.00000000000E+00 0.  1.
<mgrwt>
<rscale>  1 0.14030218E+03</rscale>
<asrwt>0</asrwt>
<pdfrwt beam="1">  1       21 0.45706913E-01 0.14030218E+03</pdfrwt>
<pdfrwt beam="2">  1       21 0.76067066E-02 0.14030218E+03</pdfrwt>
<totfact> 0.60483044E+05</totfact>
</mgrwt>
</event>
<event>
 6    1  0.4424270E-002  0.1590934E+03  0.7546771E-02  0.1189724E+00
         21   -1    0    0  504  502  0.00000000000E+00  0.00000000000E+00  0.19256612390E+03  0.19256612390E+03  0.00000000000E+00 0. -1.
         21   -1    0    0  502  503 -0.00000000000E+00 -0.00000000000E+00 -0.18782457794E+03  0.18782457794E+03  0.00000000000E+00 0. -1.
         25    2    1    2    0    0  0.97152306090E+02  0.15737912974E+02 -0.13555781430E+03  0.20901344846E+03  0.12499779253E+03 0.  0.
          5    1    3    3  501    0  0.11978596814E+03  0.36094435700E+02 -0.12484478328E+03  0.17674194852E+03  0.10000000000E+00 0. -1.
         -5    1    3    3    0  501 -0.22633662049E+02 -0.20356522726E+02 -0.10713031015E+02  0.32271499946E+02  0.10000000000E+00 0. -1.
         21    1    1    2  504  503 -0.97152306090E+02 -0.15737912974E+02  0.14029936026E+03  0.17137725337E+03  0.00000000000E+00 0. -1.
<mgrwt>
<rscale>  1 0.15909337E+03</rscale>
<asrwt>0</asrwt>
<pdfrwt beam="1">  1       21 0.29625557E-01 0.15909337E+03</pdfrwt>
<pdfrwt beam="2">  1       21 0.28896089E-01 0.15909337E+03</pdfrwt>
<totfact> 0.12668529E+05</totfact>
</mgrwt>
</event>
<event>
 6    1  0.4424270E-002  0.1264336E+03  0.7546771E-02  0.1232846E+00
         21   -1    0    0  503  502  0.00000000000E+00  0.00000000000E+00  0.24973969654E+03  0.24973969654E+03  0.00000000000E+00 0. -1.
         21   -1    0    0  504  503 -0.00000000000E+00 -0.00000000000E+00 -0.22162081022E+02  0.22162081022E+02  0.00000000000E+00 0. -1.
         25    2    1    2    0    0 -0.36307350076E+01 -0.18576045456E+02  0.21417513671E+03  0.24870957759E+03  0.12500885207E+03 0.  0.
          5    1    3    3  501    0  0.73128261818E+01  0.48761614772E+02  0.46867214942E+02  0.68027335229E+02  0.10000000000E+00 0.  1.
         -5    1    3    3    0  501 -0.10943561189E+02 -0.67337660228E+02  0.16730792177E+03  0.18068224236E+03  0.10000000000E+00 0.  1.
         21    1    1    2  504  502  0.36307350076E+01  0.18576045456E+02  0.13402478801E+02  0.23192199971E+02  0.00000000000E+00 0. -1.
<mgrwt>
<rscale>  1 0.12643364E+03</rscale>
<asrwt>0</asrwt>
<pdfrwt beam="1">  1       21 0.38421490E-01 0.12643364E+03</pdfrwt>
<pdfrwt beam="2">  1       21 0.34095511E-02 0.12643364E+03</pdfrwt>
<totfact> 0.33075626E+06</totfact>
</mgrwt>
</event>
<event>
 6    1  0.4424270E-002  0.1263263E+03  0.7546771E-02  0.1233011E+00
         21   -1    0    0  503  502  0.00000000000E+00  0.00000000000E+00  0.10781952600E+02  0.10781952600E+02  0.00000000000E+00 0. -1.
         21   -1    0    0  504  503 -0.00000000000E+00 -0.00000000000E+00 -0.10138956828E+04  0.10138956828E+04  0.00000000000E+00 0. -1.
         25    2    1    2    0    0  0.16808437219E+02 -0.71712059946E+01 -0.99763281792E+03  0.10055991093E+04  0.12499751802E+03 0.  0.
          5    1    3    3  501    0  0.62785678879E+02 -0.16949196838E+02 -0.79184620088E+03  0.79451226082E+03  0.10000000000E+00 0.  1.
         -5    1    3    3    0  501 -0.45977241660E+02  0.97779908438E+01 -0.20578661704E+03  0.21108684850E+03  0.10000000000E+00 0.  1.
         21    1    1    2  504  502 -0.16808437219E+02  0.71712059946E+01 -0.54809122461E+01  0.19078526049E+02  0.00000000000E+00 0.  1.
<mgrwt>
<rscale>  1 0.12632628E+03</rscale>
<asrwt>0</asrwt>
<pdfrwt beam="1">  1       21 0.16587617E-02 0.12632628E+03</pdfrwt>
<pdfrwt beam="2">  1       21 0.15598397E+00 0.12632628E+03</pdfrwt>
<totfact> 0.45821610E+05</totfact>
</mgrwt>
</event>
<event>
 6    1  0.4424270E-002  0.1714367E+03  0.7546771E-02  0.1176358E+00
         21   -1    0    0  504  502  0.00000000000E+00  0.00000000000E+00  0.46354499650E+02  0.46354499650E+02  0.00000000000E+00 0.  1.
         21   -1    0    0  502  503 -0.00000000000E+00 -0.00000000000E+00 -0.45117772913E+03  0.45117772913E+03  0.00000000000E+00 0.  1.
         25    2    1    2    0    0 -0.44104412487E+02 -0.10867787177E+03 -0.25476326963E+03  0.30707469922E+03  0.12503786761E+03 0.  0.
          5    1    3    3  501    0 -0.83127821299E+02 -0.61319568097E+02 -0.11587028697E+03  0.15522969274E+03  0.10000000000E+00 0. -1.
         -5    1    3    3    0  501  0.39023408812E+02 -0.47358303677E+02 -0.13889298266E+03  0.15184500649E+03  0.10000000000E+00 0. -1.
         21    1    1    2  504  503  0.44104412487E+02  0.10867787177E+03 -0.15005995985E+03  0.19045752956E+03  0.00000000000E+00 0.  1.
<mgrwt>
<rscale>  1 0.17143672E+03</rscale>
<asrwt>0</asrwt>
<pdfrwt beam="1">  1       21 0.71314619E-02 0.17143672E+03</pdfrwt>
<pdfrwt beam="2">  1       21 0.69411954E-01 0.17143672E+03</pdfrwt>
<totfact> 0.27804231E+05</totfact>
</mgrwt>
</event>
<event>
 6    1  0.4424270E-002  0.1368245E+03  0.7546771E-02  0.1217667E+00
         21   -1    0    0  504  502  0.00000000000E+00  0.00000000000E+00  0.48827794056E+02  0.48827794056E+02  0.00000000000E+00 0.  1.
         21   -1    0    0  502  503 -0.00000000000E+00 -0.00000000000E+00 -0.55707417823E+03  0.55707417823E+03  0.00000000000E+00 0.  1.
         25    2    1    2    0    0 -0.27762613358E+02  0.48304555106E+02 -0.52902999125E+03  0.54643726790E+03  0.12496744925E+03 0.  0.
          5    1    3    3  501    0 -0.59017438941E+02 -0.10240490043E+02 -0.14784690860E+03  0.15952004299E+03  0.10000000000E+00 0.  1.
         -5    1    3    3    0  501  0.31254825584E+02  0.58545045149E+02 -0.38118308265E+03  0.38691722491E+03  0.10000000000E+00 0.  1.
         21    1    1    2  504  503  0.27762613358E+02 -0.48304555106E+02  0.20783607070E+02  0.59464704383E+02  0.00000000000E+00 0.  1.
<mgrwt>
<rscale>  1 0.13682455E+03</rscale>
<asrwt>0</asrwt>
<pdfrwt beam="1">  1       21 0.75119686E-02 0.13682455E+03</pdfrwt>
<pdfrwt beam="2">  1       21 0.85703717E-01 0.13682455E+03</pdfrwt>
<totfact> 0.16041142E+05</totfact>
</mgrwt>
</event>
<event>
 6    1  0.4424270E-002  0.1281449E+03  0.7546771E-02  0.1230235E+00
         21   -1    0    0  503  502  0.00000000000E+00  0.00000000000E+00  0.16476165729E+03  0.16476165729E+03  0.00000000000E+00 0. -1.
         21   -1    0    0  504  503 -0.00000000000E+00 -0.00000000000E+00 -0.38438876448E+02  0.38438876448E+02  0.00000000000E+00 0. -1.
         25    2    1    2    0    0 -0.13878495772E+02 -0.24567649433E+02  0.87345106097E+02  0.15508150245E+03  0.12499969120E+03 0.  0.
          5    1    3    3  501    0 -0.10937860661E+02  0.38133880340E+02  0.83200095262E+02  0.92174266893E+02  0.10000000000E+00 0.  1.
         -5    1    3    3    0  501 -0.29406351110E+01 -0.62701529773E+02  0.41450108348E+01  0.62907235558E+02  0.10000000000E+00 0.  1.
         21    1    1    2  504  502  0.13878495772E+02  0.24567649433E+02  0.38977674744E+02  0.48119031286E+02  0.00000000000E+00 0. -1.
<mgrwt>
<rscale>  1 0.12814486E+03</rscale>
<asrwt>0</asrwt>
<pdfrwt beam="1">  1       21 0.25347947E-01 0.12814486E+03</pdfrwt>
<pdfrwt beam="2">  1       21 0.59136734E-02 0.12814486E+03</pdfrwt>
<totfact> 0.29529914E+06</totfact>
</mgrwt>
</event>
<event>
 6    1  0.4424270E-002  0.1262452E+03  0.7546771E-02  0.1233136E+00
         21   -1    0    0  504  502  0.00000000000E+00  0.00000000000E+00  0.49948413751E+03  0.49948413751E+03  0.00000000000E+00 0.  1.
         21   -1    0    0  502  503 -0.00000000000E+00 -0.00000000000E+00 -0.10371837241E+02  0.10371837241E+02  0.00000000000E+00 0.  1.
         25    2    1    2    0    0 -0.17698359323E+02  0.55377286693E+00  0.42875146348E+03  0.44695152972E+03  0.12499725555E+03 0.  0.
          5    1    3    3  501    0 -0.33386657191E+02  0.57529473602E+02  0.24923106922E+03  0.25795434688E+03  0.10000000000E+00 0. -1.
         -5    1    3    3    0  501  0.15688297868E+02 -0.56975700735E+02  0.17952039426E+03  0.18899718284E+03  0.10000000000E+00 0. -1.
         21    1    1    2  504  503  0.17698359323E+02 -0.55377286693E+00  0.60360836790E+02  0.62904445034E+02  0.00000000000E+00 0.  1.
<mgrwt>
<rscale>  1 0.12624521E+03</rscale>
<asrwt>0</asrwt>
<pdfrwt beam="1">  1       21 0.76843695E-01 0.12624521E+03</pdfrwt>
<pdfrwt beam="2">  1       21 0.15956676E-02 0.12624521E+03</pdfrwt>
<totfact> 0.26582048E+06</totfact>
</mgrwt>
</event>
<event>
 6    1  0.4424270E-002  0.1260060E+03  0.7546771E-02  0.1233505E+00
         21   -1    0    0  504  502  0.00000000000E+00  0.00000000000E+00  0.24110207539E+03  0.24110207539E+03  0.00000000000E+00 0.  1.
         21   -1    0    0  502  503 -0.00000000000E+00 -0.00000000000E+00 -0.24393824513E+02  0.24393824513E+02  0.00000000000E+00 0.  1.
         25    2    1    2    0    0 -0.86221604881E+01 -0.13314124019E+02  0.14520809924E+03  0.19225739067E+03  0.12500361848E+03 0.  0.
          5    1    3    3  501    0  0.53983216036E+02 -0.29011739647E+02  0.65633086036E+02  0.89797442243E+02  0.10000000000E+00 0. -1.
         -5    1    3    3    0  501 -0.62605376524E+02  0.15697615628E+02  0.79575013202E+02  0.10245994843E+03  0.10000000000E+00 0. -1.
         21    1    1    2  504  503  0.86221604881E+01  0.13314124019E+02  0.71500151636E+02  0.73238509228E+02  0.00000000000E+00 0. -1.
<mgrwt>
<rscale>  1 0.12600600E+03</rscale>
<asrwt>0</asrwt>
<pdfrwt beam="1">  1       21 0.37092625E-01 0.12600600E+03</pdfrwt>
<pdfrwt beam="2">  1       21 0.37528963E-02 0.12600600E+03</pdfrwt>
<totfact> 0.30263512E+06</totfact>
</mgrwt>
</event>
<event>
 6    1  0.4424270E-002  0.1263521E+03  0.7546771E-02  0.1232971E+00
         21   -1    0    0  504  502  0.00000000000E+00  0.00000000000E+00  0.11212641563E+02  0.11212641563E+02  0.00000000000E+00 0. -1.
         21   -1    0    0  502  503 -0.00000000000E+00 -0.00000000000E+00 -0.46793321104E+03  0.46793321104E+03  0.00000000000E+00 0. -1.
         25    2    1    2    0    0  0.13164221452E+01  0.18298274507E+02 -0.39064620652E+03  0.41057194169E+03  0.12501320259E+03 0.  0.
          5    1    3    3  501    0 -0.48888701458E+02 -0.10195435107E+02 -0.77836459503E+02  0.92480140869E+02  0.10000000000E+00 0.  1.
         -5    1    3    3    0  501  0.50205123603E+02  0.28493709614E+02 -0.31280974701E+03  0.31809180082E+03  0.10000000000E+00 0.  1.
         21    1    1    2  504  503 -0.13164221452E+01 -0.18298274507E+02 -0.66074362963E+02  0.68573910915E+02  0.00000000000E+00 0. -1.
<mgrwt>
<rscale>  1 0.12635213E+03</rscale>
<asrwt>0</asrwt>
<pdfrwt beam="1">  1       21 0.17250213E-02 0.12635213E+03</pdfrwt>
<pdfrwt beam="2">  1       21 0.71989744E-01 0.12635213E+03</pdfrwt>
<totfact> 0.27089128E+06</totfact>
</mgrwt>
</event>
<event>
 6    1  0.4424270E-002  0.1301945E+03  0.7546771E-02  0.1227167E+00
         21   -1    0    0  503  502  0.00000000000E+00  0.00000000000E+00  0.53956851664E+01  0.53956851664E+01  0.00000000000E+00 0. -1.
         21   -1    0    0  504  503 -0.00000000000E+00 -0.00000000000E+00 -0.13015015231E+04  0.13015015231E+04  0.00000000000E+00 0. -1.
         25    2    1    2    0    0  0.35692453345E+02  0.71738501092E+01 -0.10676024874E+04  0.10755118229E+04  0.12500077907E+03 0.  0.
          5    1    3    3  501    0  0.24226164588E+02 -0.45495209284E+02 -0.21059823762E+03  0.21681408812E+03  0.10000000000E+00 0. -1.
         -5    1    3    3    0  501  0.11466288756E+02  0.52669059393E+02 -0.85700424975E+03  0.85869773477E+03  0.10000000000E+00 0. -1.
         21    1    1    2  504  502 -0.35692453345E+02 -0.71738501092E+01 -0.22850335056E+03  0.23138538538E+03  0.00000000000E+00 0. -1.
<mgrwt>
<rscale>  1 0.13019451E+03</rscale>
<asrwt>0</asrwt>
<pdfrwt beam="1">  1       21 0.83010541E-03 0.13019451E+03</pdfrwt>
<pdfrwt beam="2">  1       21 0.20023100E+00 0.13019451E+03</pdfrwt>
<totfact> 0.68935695E+05</totfact>
</mgrwt>
</event>
<event>
 6    1  0.4424270E-002  0.1362201E+03  0.7546771E-02  0.1218508E+00
         21   -1    0    0  503  502  0.00000000000E+00  0.00000000000E+00  0.33884544357E+03  0.33884544357E+03  0.00000000000E+00 0.  1.
         21   -1    0    0  504  503 -0.00000000000E+00 -0.00000000000E+00 -0.30983760511E+02  0.30983760511E+02  0.00000000000E+00 0.  1.
         25    2    1    2    0    0 -0.45062833235E+02  0.30003819602E+02  0.27394673244E+03  0.30594562243E+03  0.12500009414E+03 0.  0.
          5    1    3    3  501    0 -0.10246202516E+02  0.19295994156E+02  0.26817683341E+03  0.26906531555E+03  0.10000000000E+00 0. -1.
         -5    1    3    3    0  501 -0.34816630719E+02  0.10707825446E+02  0.57698990377E+01  0.36880306877E+02  0.10000000000E+00 0. -1.
         21    1    1    2  504  502  0.45062833235E+02 -0.30003819602E+02  0.33914950615E+02  0.63883581655E+02  0.00000000000E+00 0.  1.
<mgrwt>
<rscale>  1 0.13622009E+03</rscale>
<asrwt>0</asrwt>
<pdfrwt beam="1">  1       21 0.52130066E-01 0.13622009E+03</pdfrwt>
<pdfrwt beam="2">  1       21 0.47667326E-02 0.13622009E+03</pdfrwt>
<totfact> 0.10208737E+06</totfact>
</mgrwt>
</event>
<event>
 6    1  0.4424270E-002  0.2036216E+03  0.7546771E-02  0.1146719E+00
         21   -1    0    0  503  502  0.00000000000E+00  0.00000000000E+00  0.84529136774E+02  0.84529136774E+02  0.00000000000E+00 0. -1.
         21   -1    0    0  504  503 -0.00000000000E+00 -0.00000000000E+00 -0.71413067782E+03  0.71413067782E+03  0.00000000000E+00 0. -1.
         25    2    1    2    0    0 -0.14691950261E+03 -0.65324029124E+02 -0.60202085043E+03  0.63552409342E+03  0.12493678379E+03 0.  0.
          5    1    3    3  501    0  0.18632107047E+02  0.10288157869E+01 -0.12241323462E+03  0.12382739553E+03  0.10000000000E+00 0. -1.
         -5    1    3    3    0  501 -0.16555160966E+03 -0.66352844911E+02 -0.47960761581E+03  0.51169669789E+03  0.10000000000E+00 0. -1.
         21    1    1    2  504  502  0.14691950261E+03  0.65324029124E+02 -0.27580690621E+02  0.16313572117E+03  0.00000000000E+00 0. -1.
<mgrwt>
<rscale>  1 0.20362163E+03</rscale>
<asrwt>0</asrwt>
<pdfrwt beam="1">  1       21 0.13004482E-01 0.20362163E+03</pdfrwt>
<pdfrwt beam="2">  1       21 0.10986626E+00 0.20362163E+03</pdfrwt>
<totfact> 0.33067854E+04</totfact>
</mgrwt>
</event>
<event>
 6    1  0.4424270E-002  0.1265018E+03  0.7546771E-02  0.1232741E+00
         21   -1    0    0  504  502  0.00000000000E+00  0.00000000000E+00  0.61821674039E+01  0.61821674039E+01  0.00000000000E+00 0.  1.
         21   -1    0    0  502  503 -0.00000000000E+00 -0.00000000000E+00 -0.26587518291E+04  0.26587518291E+04  0.00000000000E+00 0.  1.
         25    2    1    2    0    0  0.16819853753E+02  0.96565008796E+01 -0.26370813528E+04  0.26401137789E+04  0.12500619487E+03 0.  0.
          5    1    3    3  501    0  0.61267353554E+02  0.15443690427E+02 -0.21618948394E+04  0.21628179542E+04  0.10000000000E+00 0. -1.
         -5    1    3    3    0  501 -0.44447499801E+02 -0.57871895477E+01 -0.47518651336E+03  0.47729582471E+03  0.10000000000E+00 0. -1.
         21    1    1    2  504  503 -0.16819853753E+02 -0.96565008796E+01 -0.15488308896E+02  0.24820217605E+02  0.00000000000E+00 0.  1.
<mgrwt>
<rscale>  1 0.12650180E+03</rscale>
<asrwt>0</asrwt>
<pdfrwt beam="1">  1       21 0.95110064E-03 0.12650180E+03</pdfrwt>
<pdfrwt beam="2">  1       21 0.40903962E+00 0.12650180E+03</pdfrwt>
<totfact> 0.34086560E+04</totfact>
</mgrwt>
</event>
<event>
 6    1  0.4424270E-002  0.1259149E+03  0.7546771E-02  0.1233646E+00
         21   -1    0    0  503  502  0.00000000000E+00  0.00000000000E+00  0.64584716278E+02  0.64584716278E+02  0.00000000000E+00 0.  1.
         21   -1    0    0  504  503 -0.00000000000E+00 -0.00000000000E+00 -0.23766069466E+03  0.23766069466E+03  0.00000000000E+00 0.  1.
         25    2    1    2    0    0  0.13015130488E+02 -0.76856992993E+01 -0.21970441885E+03  0.25322832152E+03  0.12500435017E+03 0.  0.
          5    1    3    3  501    0 -0.22017727806E+02  0.15368564601E+02 -0.20794673551E+03  0.20967314546E+03  0.10000000000E+00 0. -1.
         -5    1    3    3    0  501  0.35032858293E+02 -0.23054263900E+02 -0.11757683339E+02  0.43555176061E+02  0.10000000000E+00 0. -1.
         21    1    1    2  504  502 -0.13015130488E+02  0.76856992993E+01  0.46628440465E+02  0.49017089424E+02  0.00000000000E+00 0.  1.
<mgrwt>
<rscale>  1 0.12591486E+03</rscale>
<asrwt>0</asrwt>
<pdfrwt beam="1">  1       21 0.99361103E-02 0.12591486E+03</pdfrwt>
<pdfrwt beam="2">  1       21 0.36563184E-01 0.12591486E+03</pdfrwt>
<totfact> 0.59598935E+05</totfact>
</mgrwt>
</event>
<event>
 6    1  0.4424270E-002  0.1274351E+03  0.7546771E-02  0.1231312E+00
         21   -1    0    0  504  502  0.00000000000E+00  0.00000000000E+00  0.25086431713E+03  0.25086431713E+03  0.00000000000E+00 0.  1.
         21   -1    0    0  502  503 -0.00000000000E+00 -0.00000000000E+00 -0.60255871594E+02  0.60255871594E+02  0.00000000000E+00 0. -1.
         25    2    1    2    0    0 -0.19565893903E+02 -0.15747443763E+02  0.89665577309E+01  0.12775012139E+03  0.12493553605E+03 0.  0.
          5    1    3    3  501    0  0.67813333249E+01 -0.63122808593E+02 -0.19642066710E+02  0.66455219742E+02  0.10000000000E+00 0. -1.
         -5    1    3    3    0  501 -0.26347227228E+02  0.47375364831E+02  0.28608624441E+02  0.61294901646E+02  0.10000000000E+00 0. -1.
         21    1    1    2  504  503  0.19565893903E+02  0.15747443763E+02  0.18164188781E+03  0.18337006734E+03  0.00000000000E+00 0.  1.
<mgrwt>
<rscale>  1 0.12743506E+03</rscale>
<asrwt>0</asrwt>
<pdfrwt beam="1">  1       21 0.38594510E-01 0.12743506E+03</pdfrwt>
<pdfrwt beam="2">  1       21 0.92701342E-02 0.12743506E+03</pdfrwt>
<totfact> 0.60429109E+05</totfact>
</mgrwt>
</event>
<event>
 6    1  0.4424270E-002  0.1320601E+03  0.7546771E-02  0.1224431E+00
         21   -1    0    0  504  502  0.00000000000E+00  0.00000000000E+00  0.67895126647E+03  0.67895126647E+03  0.00000000000E+00 0. -1.
         21   -1    0    0  502  503 -0.00000000000E+00 -0.00000000000E+00 -0.66457511063E+02  0.66457511063E+02  0.00000000000E+00 0.  1.
         25    2    1    2    0    0  0.92402969931E+01 -0.41584157875E+02  0.62759069004E+00  0.13206154407E+03  0.12500092910E+03 0.  0.
          5    1    3    3  501    0  0.64828592014E+02 -0.56130939945E+01  0.74638851829E+01  0.65497883543E+02  0.10000000000E+00 0. -1.
         -5    1    3    3    0  501 -0.55588295020E+02 -0.35971063881E+02 -0.68362944928E+01  0.66563660524E+02  0.10000000000E+00 0. -1.
         21    1    1    2  504  503 -0.92402969931E+01  0.41584157875E+02  0.61186616472E+03  0.61334723347E+03  0.00000000000E+00 0. -1.
<mgrwt>
<rscale>  1 0.13206005E+03</rscale>
<asrwt>0</asrwt>
<pdfrwt beam="1">  1       21 0.10445404E+00 0.13206005E+03</pdfrwt>
<pdfrwt beam="2">  1       21 0.10224233E-01 0.13206005E+03</pdfrwt>
<totfact> 0.59526722E+04</totfact>
</mgrwt>
</event>
<event>
 6    1  0.4424270E-002  0.1260112E+03  0.7546771E-02  0.1233497E+00
         21   -1    0    0  503  502  0.00000000000E+00  0.00000000000E+00  0.12772509693E+03  0.12772509693E+03  0.00000000000E+00 0.  1.
         21   -1    0    0  504  503 -0.00000000000E+00 -0.00000000000E+00 -0.43615099300E+02  0.43615099300E+02  0.00000000000E+00 0.  1.
         25    2    1    2    0    0 -0.10596382109E+01  0.15858854386E+02  0.53597528269E+02  0.13693617202E+03  0.12500477621E+03 0.  0.
          5    1    3    3  501    0  0.89267678960E+01 -0.30339018068E+01  0.92270842840E+02  0.92751335212E+02  0.10000000000E+00 0.  1.
         -5    1    3    3    0  501 -0.99864061070E+01  0.18892756193E+02 -0.38673314571E+02  0.44184836804E+02  0.10000000000E+00 0.  1.
         21    1    1    2  504  502  0.10596382109E+01 -0.15858854386E+02  0.30512469359E+02  0.34404024212E+02  0.00000000000E+00 0. -1.
<mgrwt>
<rscale>  1 0.12601119E+03</rscale>
<asrwt>0</asrwt>
<pdfrwt beam="1">  1       21 0.19650015E-01 0.12601119E+03</pdfrwt>
<pdfrwt beam="2">  1       21 0.67100153E-02 0.12601119E+03</pdfrwt>
<totfact> 0.38304579E+06</totfact>
</mgrwt>
</event>
<event>
 6    1  0.4424270E-002  0.1305357E+03  0.7546771E-02  0.1226663E+00
         21   -1    0    0  504  502  0.00000000000E+00  0.00000000000E+00  0.27673655953E+03  0.27673655953E+03  0.00000000000E+00 0.  1.
         21   -1    0    0  502  503 -0.00000000000E+00 -0.00000000000E+00 -0.26685782640E+02  0.26685782640E+02  0.00000000000E+00 0.  1.
         25    2    1    2    0    0  0.32748762444E+02 -0.18486352339E+02  0.16471699874E+03  0.21016956549E+03  0.12500131968E+03 0.  0.
          5    1    3    3  501    0  0.24936549838E+02 -0.30953703720E+02  0.18267751501E+03  0.18695199325E+03  0.10000000000E+00 0.  1.
         -5    1    3    3    0  501  0.78122126057E+01  0.12467351382E+02 -0.17960516267E+02  0.23217572243E+02  0.10000000000E+00 0.  1.
         21    1    1    2  504  503 -0.32748762444E+02  0.18486352339E+02  0.85333778149E+02  0.93252776675E+02  0.00000000000E+00 0.  1.
<mgrwt>
<rscale>  1 0.13053565E+03</rscale>
<asrwt>0</asrwt>
<pdfrwt beam="1">  1       21 0.42574853E-01 0.13053565E+03</pdfrwt>
<pdfrwt beam="2">  1       21 0.41055052E-02 0.13053565E+03</pdfrwt>
<totfact> 0.19820891E+06</totfact>
</mgrwt>
</event>
<event>
 6    1  0.4424270E-002  0.1263525E+03  0.7546771E-02  0.1232971E+00
         21   -1    0    0  504  502  0.00000000000E+00  0.00000000000E+00  0.97520037667E+03  0.97520037667E+03  0.00000000000E+00 0. -1.
         21   -1    0    0  502  503 -0.00000000000E+00 -0.00000000000E+00 -0.14457910781E+02  0.14457910781E+02  0.00000000000E+00 0. -1.
         25    2    1    2    0    0  0.90892364207E+01 -0.16029317400E+02  0.26406890185E+03  0.29274106994E+03  0.12500158347E+03 0.  0.
          5    1    3    3  501    0 -0.42461023385E+01 -0.57121132877E+02  0.55541241917E+02  0.79785291627E+02  0.10000000000E+00 0.  1.
         -5    1    3    3    0  501  0.13335338759E+02  0.41091815477E+02  0.20852765993E+03  0.21295577831E+03  0.10000000000E+00 0.  1.
         21    1    1    2  504  503 -0.90892364207E+01  0.16029317400E+02  0.69667356404E+03  0.69691721752E+03  0.00000000000E+00 0. -1.
<mgrwt>
<rscale>  1 0.12635248E+03</rscale>
<asrwt>0</asrwt>
<pdfrwt beam="1">  1       21 0.15003078E+00 0.12635248E+03</pdfrwt>
<pdfrwt beam="2">  1       21 0.22242947E-02 0.12635248E+03</pdfrwt>
<totfact> 0.31613223E+05</totfact>
</mgrwt>
</event>
<event>
 6    1  0.4424270E-002  0.1428903E+03  0.7546771E-02  0.1209492E+00
         21   -1    0    0  503  502  0.00000000000E+00  0.00000000000E+00  0.37927390842E+02  0.37927390842E+02  0.00000000000E+00 0. -1.
         21   -1    0    0  504  503 -0.00000000000E+00 -0.00000000000E+00 -0.37554146563E+03  0.37554146563E+03  0.00000000000E+00 0.  1.
         25    2    1    2    0    0  0.25138864698E+02 -0.64499250029E+02 -0.30527704709E+03  0.33706336496E+03  0.12500208297E+03 0.  0.
          5    1    3    3  501    0 -0.35598760110E+02 -0.71491964533E+02 -0.19943825166E+03  0.21483481780E+03  0.10000000000E+00 0.  1.
         -5    1    3    3    0  501  0.60737624807E+02  0.69927145037E+01 -0.10583879543E+03  0.12222854716E+03  0.10000000000E+00 0.  1.
         21    1    1    2  504  502 -0.25138864698E+02  0.64499250029E+02 -0.32337027698E+02  0.76405491510E+02  0.00000000000E+00 0. -1.
<mgrwt>
<rscale>  1 0.14289030E+03</rscale>
<asrwt>0</asrwt>
<pdfrwt beam="1">  1       21 0.58349832E-02 0.14289030E+03</pdfrwt>
<pdfrwt beam="2">  1       21 0.57775610E-01 0.14289030E+03</pdfrwt>
<totfact> 0.58487117E+05</totfact>
</mgrwt>
</event>
<event>
 6    1  0.4424270E-002  0.1267170E+03  0.7546771E-02  0.1232410E+00
         21   -1    0    0  504  502  0.00000000000E+00  0.00000000000E+00  0.71354854781E+02  0.71354854781E+02  0.00000000000E+00 0.  1.
         21   -1    0    0  502  503 -0.00000000000E+00 -0.00000000000E+00 -0.85572802563E+02  0.85572802563E+02  0.00000000000E+00 0.  1.
         25    2    1    2    0    0  0.10746498935E+02 -0.17793789425E+02  0.74051742077E+01  0.12693323143E+03  0.12500040982E+03 0.  0.
          5    1    3    3  501    0  0.14219657852E+02 -0.55548187382E+02  0.45490972980E+02  0.73193158242E+02  0.10000000000E+00 0. -1.
         -5    1    3    3    0  501 -0.34731589166E+01  0.37754397956E+02 -0.38085798772E+02  0.53740073186E+02  0.10000000000E+00 0. -1.
         21    1    1    2  504  503 -0.10746498935E+02  0.17793789425E+02 -0.21623121989E+02  0.29994425916E+02  0.00000000000E+00 0.  1.
<mgrwt>
<rscale>  1 0.12671704E+03</rscale>
<asrwt>0</asrwt>
<pdfrwt beam="1">  1       21 0.10977670E-01 0.12671704E+03</pdfrwt>
<pdfrwt beam="2">  1       21 0.13165047E-01 0.12671704E+03</pdfrwt>
<totfact> 0.33767173E+06</totfact>
</mgrwt>
</event>
<event>
 6    1  0.4424270E-002  0.1265574E+03  0.7546771E-02  0.1232655E+00
         21   -1    0    0  504  502  0.00000000000E+00  0.00000000000E+00  0.54644459809E+03  0.54644459809E+03  0.00000000000E+00 0. -1.
         21   -1    0    0  502  503 -0.00000000000E+00 -0.00000000000E+00 -0.99509572306E+01  0.99509572306E+01  0.00000000000E+00 0. -1.
         25    2    1    2    0    0  0.80618132674E+01 -0.18211053266E+02  0.48331313992E+03  0.49960822421E+03  0.12498060325E+03 0.  0.
          5    1    3    3  501    0  0.47259276622E+01 -0.64781715902E+02  0.38883441450E+03  0.39422229390E+03  0.10000000000E+00 0.  1.
         -5    1    3    3    0  501  0.33358856052E+01  0.46570662636E+02  0.94478725419E+02  0.10538593031E+03  0.10000000000E+00 0.  1.
         21    1    1    2  504  503 -0.80618132674E+01  0.18211053266E+02  0.53180500945E+02  0.56787331113E+02  0.00000000000E+00 0. -1.
<mgrwt>
<rscale>  1 0.12655744E+03</rscale>
<asrwt>0</asrwt>
<pdfrwt beam="1">  1       21 0.84068376E-01 0.12655744E+03</pdfrwt>
<pdfrwt beam="2">  1       21 0.15309169E-02 0.12655744E+03</pdfrwt>
<totfact> 0.23235813E+06</totfact>
</mgrwt>
</event>
<event>
 6    1  0.4424270E-002  0.1586504E+03  0.7546771E-02  0.1190229E+00
         21   -1    0    0  503  502  0.00000000000E+00  0.00000000000E+00  0.63950656628E+02  0.63950656628E+02  0.00000000000E+00 0.  1.
         21   -1    0    0  504  503 -0.00000000000E+00 -0.00000000000E+00 -0.28990322050E+03  0.28990322050E+03  0.00000000000E+00 0.  1.
         25    2    1    2    0    0  0.62672147937E+02 -0.74955037879E+02 -0.19495402091E+03  0.25135038696E+03  0.12499556363E+03 0.  0.
          5    1    3    3  501    0 -0.32867251660E+02 -0.49143932771E+02 -0.83331498256E+02  0.10217402293E+03  0.10000000000E+00 0.  1.
         -5    1    3    3    0  501  0.95539399597E+02 -0.25811105108E+02 -0.11162252265E+03  0.14917636403E+03  0.10000000000E+00 0.  1.
         21    1    1    2  504  502 -0.62672147937E+02  0.74955037879E+02 -0.30998542962E+02  0.10250349017E+03  0.00000000000E+00 0.  1.
<mgrwt>
<rscale>  1 0.15865039E+03</rscale>
<asrwt>0</asrwt>
<pdfrwt beam="1">  1       21 0.98385626E-02 0.15865039E+03</pdfrwt>
<pdfrwt beam="2">  1       21 0.44600495E-01 0.15865039E+03</pdfrwt>
<totfact> 0.40577892E+05</totfact>
</mgrwt>
</event>
<event>
 6    1  0.4424270E-002  0.1683734E+03  0.7546771E-02  0.1179555E+00
         21   -1    0    0  503  502  0.00000000000E+00  0.00000000000E+00  0.16144918797E+03  0.16144918797E+03  0.00000000000E+00 0.  1.
         21   -1    0    0  504  503 -0.00000000000E+00 -0.00000000000E+00 -0.62924402892E+03  0.62924402892E+03  0.00000000000E+00 0.  1.
         25    2    1    2    0    0 -0.10684816717E+03  0.36178255055E+02 -0.59634884019E+03  0.61966243696E+03  0.12499679842E+03 0.  0.
          5    1    3    3  501    0 -0.14846599924E+02  0.69063594643E+02 -0.24452350027E+03  0.25452299271E+03  0.10000000000E+00 0.  1.
         -5    1    3    3    0  501 -0.92001567241E+02 -0.32885339588E+02 -0.35182533992E+03  0.36513944425E+03  0.10000000000E+00 0.  1.
         21    1    1    2  504  502  0.10684816717E+03 -0.36178255055E+02  0.12855399924E+03  0.17103077994E+03  0.00000000000E+00 0.  1.
<mgrwt>
<rscale>  1 0.16837338E+03</rscale>
<asrwt>0</asrwt>
<pdfrwt beam="1">  1       21 0.24838337E-01 0.16837338E+03</pdfrwt>
<pdfrwt beam="2">  1       21 0.96806774E-01 0.16837338E+03</pdfrwt>
<totfact> 0.13819702E+04</totfact>
</mgrwt>
</event>
<event>
 6    1  0.4424270E-002  0.1460331E+03  0.7546771E-02  0.1205434E+00
         21   -1    0    0  503  502  0.00000000000E+00  0.00000000000E+00  0.43501671282E+03  0.43501671282E+03  0.00000000000E+00 0. -1.
         21   -1    0    0  504  503 -0.00000000000E+00 -0.00000000000E+00 -0.40965621208E+02  0.40965621208E+02  0.00000000000E+00 0. -1.
         25    2    1    2    0    0 -0.62589362957E+02  0.42292719947E+02  0.11212913491E+03  0.18411576830E+03  0.12497828102E+03 0.  0.
          5    1    3    3  501    0  0.20769381459E+02 -0.23015099171E+02  0.56625552776E+02  0.64556372445E+02  0.10000000000E+00 0. -1.
         -5    1    3    3    0  501 -0.83358744416E+02  0.65307819118E+02  0.55503582129E+02  0.11955939586E+03  0.10000000000E+00 0. -1.
         21    1    1    2  504  502  0.62589362957E+02 -0.42292719947E+02  0.28192195671E+03  0.29186656573E+03  0.00000000000E+00 0. -1.
<mgrwt>
<rscale>  1 0.14603312E+03</rscale>
<asrwt>0</asrwt>
<pdfrwt beam="1">  1       21 0.66925645E-01 0.14603312E+03</pdfrwt>
<pdfrwt beam="2">  1       21 0.63024036E-02 0.14603312E+03</pdfrwt>
<totfact> 0.37419897E+05</totfact>
</mgrwt>
</event>
<event>
 6    1  0.4424270E-002  0.1268671E+03  0.7546771E-02  0.1232180E+00
         21   -1    0    0  503  502  0.00000000000E+00  0.00000000000E+00  0.84882448492E+01  0.84882448492E+01  0.00000000000E+00 0.  1.
         21   -1    0    0  504  503 -0.00000000000E+00 -0.00000000000E+00 -0.65400265797E+03  0.65400265797E+03  0.00000000000E+00 0.  1.
         25    2    1    2    0    0  0.10276634510E+02 -0.19288750542E+02 -0.56446367689E+03  0.57854516465E+03  0.12497039605E+03 0.  0.
          5    1    3    3  501    0 -0.53456561260E+02 -0.27321073992E+02 -0.33125779092E+03  0.33665379706E+03  0.10000000000E+00 0.  1.
         -5    1    3    3    0  501  0.63733195770E+02  0.80323234495E+01 -0.23320588597E+03  0.24189136759E+03  0.10000000000E+00 0.  1.
         21    1    1    2  504  502 -0.10276634510E+02  0.19288750542E+02 -0.81050736230E+02  0.83945738175E+02  0.00000000000E+00 0.  1.
<mgrwt>
<rscale>  1 0.12686712E+03</rscale>
<asrwt>0</asrwt>
<pdfrwt beam="1">  1       21 0.13058834E-02 0.12686712E+03</pdfrwt>
<pdfrwt beam="2">  1       21 0.10061583E+00 0.12686712E+03</pdfrwt>
<totfact> 0.19814566E+06</totfact>
</mgrwt>
</event>
<event>
 6    1  0.4424270E-002  0.1274580E+03  0.7546771E-02  0.1231277E+00
         21   -1    0    0  504  502  0.00000000000E+00  0.00000000000E+00  0.27374858212E+03  0.27374858212E+03  0.00000000000E+00 0.  1.
         21   -1    0    0  502  503 -0.00000000000E+00 -0.00000000000E+00 -0.67836546812E+02  0.67836546812E+02  0.00000000000E+00 0.  1.
         25    2    1    2    0    0 -0.22698764504E+02 -0.10262812628E+02 -0.65897079873E+01  0.12762824043E+03  0.12499993709E+03 0.  0.
          5    1    3    3  501    0  0.17231760316E+01 -0.55923707043E+00 -0.64242748916E+02  0.64268366013E+02  0.10000000000E+00 0.  1.
         -5    1    3    3    0  501 -0.24421940536E+02 -0.97035755571E+01  0.57653040928E+02  0.63359874419E+02  0.10000000000E+00 0.  1.
         21    1    1    2  504  503  0.22698764504E+02  0.10262812628E+02  0.21250174329E+03  0.21395688850E+03  0.00000000000E+00 0.  1.
<mgrwt>
<rscale>  1 0.12745801E+03</rscale>
<asrwt>0</asrwt>
<pdfrwt beam="1">  1       21 0.42115166E-01 0.12745801E+03</pdfrwt>
<pdfrwt beam="2">  1       21 0.10436392E-01 0.12745801E+03</pdfrwt>
<totfact> 0.41256223E+05</totfact>
</mgrwt>
</event>
<event>
 6    1  0.4424270E-002  0.1292939E+03  0.7546771E-02  0.1228507E+00
         21   -1    0    0  504  502  0.00000000000E+00  0.00000000000E+00  0.22297393557E+03  0.22297393557E+03  0.00000000000E+00 0. -1.
         21   -1    0    0  502  503 -0.00000000000E+00 -0.00000000000E+00 -0.27175221022E+03  0.27175221022E+03  0.00000000000E+00 0. -1.
         25    2    1    2    0    0  0.11309536370E+02  0.31025598253E+02 -0.25498497184E+03  0.28589201227E+03  0.12500565371E+03 0.  0.
          5    1    3    3  501    0 -0.50582350413E+01  0.58351023538E+02 -0.24588570478E+03  0.25276514298E+03  0.10000000000E+00 0. -1.
         -5    1    3    3    0  501  0.16367771411E+02 -0.27325425285E+02 -0.90992670519E+01  0.33126869289E+02  0.10000000000E+00 0. -1.
         21    1    1    2  504  503 -0.11309536370E+02 -0.31025598253E+02  0.20620669719E+03  0.20883413352E+03  0.00000000000E+00 0. -1.
<mgrwt>
<rscale>  1 0.12929388E+03</rscale>
<asrwt>0</asrwt>
<pdfrwt beam="1">  1       21 0.34303682E-01 0.12929388E+03</pdfrwt>
<pdfrwt beam="2">  1       21 0.41808032E-01 0.12929388E+03</pdfrwt>
<totfact> 0.46583325E+04</totfact>
</mgrwt>
</event>
<event>
 6    1  0.4424270E-002  0.1272284E+03  0.7546771E-02  0.1231627E+00
         21   -1    0    0  504  502  0.00000000000E+00  0.00000000000E+00  0.45783276962E+01  0.45783276962E+01  0.00000000000E+00 0. -1.
         21   -1    0    0  502  503 -0.00000000000E+00 -0.00000000000E+00 -0.16368532499E+04  0.16368532499E+04  0.00000000000E+00 0. -1.
         25    2    1    2    0    0  0.21909394981E+02 -0.89948458034E+01 -0.15639824483E+04  0.15691488630E+04  0.12500450702E+03 0.  0.
          5    1    3    3  501    0 -0.19370028588E+02  0.43426153977E+02 -0.10171373848E+04  0.10182482499E+04  0.10000000000E+00 0. -1.
         -5    1    3    3    0  501  0.41279423568E+02 -0.52420999780E+02 -0.54684506352E+03  0.55090061311E+03  0.10000000000E+00 0. -1.
         21    1    1    2  504  503 -0.21909394981E+02  0.89948458034E+01 -0.68292473868E+02  0.72282714576E+02  0.00000000000E+00 0. -1.
<mgrwt>
<rscale>  1 0.12722836E+03</rscale>
<asrwt>0</asrwt>
<pdfrwt beam="1">  1       21 0.70435807E-03 0.12722836E+03</pdfrwt>
<pdfrwt beam="2">  1       21 0.25182359E+00 0.12722836E+03</pdfrwt>
<totfact> 0.43985090E+05</totfact>
</mgrwt>
</event>
<event>
 6    1  0.4424270E-002  0.1261585E+03  0.7546771E-02  0.1233270E+00
         21   -1    0    0  504  502  0.00000000000E+00  0.00000000000E+00  0.44802438075E+01  0.44802438075E+01  0.00000000000E+00 0.  1.
         21   -1    0    0  502  503 -0.00000000000E+00 -0.00000000000E+00 -0.11478569088E+04  0.11478569088E+04  0.00000000000E+00 0.  1.
         25    2    1    2    0    0 -0.34246397281E+00 -0.17048222782E+02 -0.10263942775E+04  0.10341185493E+04  0.12500080786E+03 0.  0.
          5    1    3    3  501    0  0.24712375047E+02 -0.42520026315E+02 -0.93026607750E+03  0.93156515556E+03  0.10000000000E+00 0.  1.
         -5    1    3    3    0  501 -0.25054839020E+02  0.25471803533E+02 -0.96128199992E+02  0.10255339374E+03  0.10000000000E+00 0.  1.
         21    1    1    2  504  503  0.34246397281E+00  0.17048222782E+02 -0.11698238753E+03  0.11821860333E+03  0.00000000000E+00 0.  1.
<mgrwt>
<rscale>  1 0.12615848E+03</rscale>
<asrwt>0</asrwt>
<pdfrwt beam="1">  1       21 0.68926807E-03 0.12615848E+03</pdfrwt>
<pdfrwt beam="2">  1       21 0.17659342E+00 0.12615848E+03</pdfrwt>
<totfact> 0.13145006E+06</totfact>
</mgrwt>
</event>
<event>
 6    1  0.4424270E-002  0.1259213E+03  0.7546771E-02  0.1233636E+00
         21   -1    0    0  503  502  0.00000000000E+00  0.00000000000E+00  0.26507178102E+04  0.26507178102E+04  0.00000000000E+00 0.  1.
         21   -1    0    0  504  503 -0.00000000000E+00 -0.00000000000E+00 -0.18851618549E+01  0.18851618549E+01  0.00000000000E+00 0.  1.
         25    2    1    2    0    0 -0.14854377414E+02 -0.38954892999E+01  0.23907288998E+04  0.23940427810E+04  0.12498134957E+03 0.  0.
          5    1    3    3  501    0  0.43438962952E+01 -0.35233693916E+02  0.21688687135E+04  0.21691592355E+04  0.10000000000E+00 0.  1.
         -5    1    3    3    0  501 -0.19198273710E+02  0.31338204617E+02  0.22186018628E+03  0.22488354550E+03  0.10000000000E+00 0.  1.
         21    1    1    2  504  502  0.14854377414E+02  0.38954892999E+01  0.25810374853E+03  0.25856019100E+03  0.00000000000E+00 0.  1.
<mgrwt>
<rscale>  1 0.12592127E+03</rscale>
<asrwt>0</asrwt>
<pdfrwt beam="1">  1       21 0.40779976E+00 0.12592127E+03</pdfrwt>
<pdfrwt beam="2">  1       21 0.29002702E-03 0.12592127E+03</pdfrwt>
<totfact> 0.21790641E+05</totfact>
</mgrwt>
</event>
<event>
 6    1  0.4424270E-002  0.1447143E+03  0.7546771E-02  0.1207123E+00
         21   -1    0    0  504  502  0.00000000000E+00  0.00000000000E+00  0.66798710395E+03  0.66798710395E+03  0.00000000000E+00 0. -1.
         21   -1    0    0  502  503 -0.00000000000E+00 -0.00000000000E+00 -0.17727608821E+02  0.17727608821E+02  0.00000000000E+00 0. -1.
         25    2    1    2    0    0  0.42797691018E+02 -0.59046883847E+02  0.43209285415E+03  0.45568241050E+03  0.12499619110E+03 0.  0.
          5    1    3    3  501    0  0.76752511998E+02 -0.73417287183E+02  0.28845838695E+03  0.30739111431E+03  0.10000000000E+00 0.  1.
         -5    1    3    3    0  501 -0.33954820980E+02  0.14370403336E+02  0.14363446720E+03  0.14829129619E+03  0.10000000000E+00 0.  1.
         21    1    1    2  504  503 -0.42797691018E+02  0.59046883847E+02  0.21816664098E+03  0.23003230227E+03  0.00000000000E+00 0. -1.
<mgrwt>
<rscale>  1 0.14471429E+03</rscale>
<asrwt>0</asrwt>
<pdfrwt beam="1">  1       21 0.10276723E+00 0.14471429E+03</pdfrwt>
<pdfrwt beam="2">  1       21 0.27273249E-02 0.14471429E+03</pdfrwt>
<totfact> 0.57469261E+05</totfact>
</mgrwt>
</event>
<event>
 6    1  0.4424270E-002  0.1561540E+03  0.7546771E-02  0.1193109E+00
         21   -1    0    0  504  502  0.00000000000E+00  0.00000000000E+00  0.70767797475E+03  0.70767797475E+03  0.00000000000E+00 0. -1.
         21   -1    0    0  502  503 -0.00000000000E+00 -0.00000000000E+00 -0.22701326775E+02  0.22701326775E+02  0.00000000000E+00 0. -1.
         25    2    1    2    0    0  0.57137396834E+02  0.74121773369E+02  0.48645480810E+03  0.51090347071E+03  0.12500142662E+03 0.  0.
          5    1    3    3  501    0  0.62491565631E+02  0.10620518274E+03  0.36925841603E+03  0.38927692511E+03  0.10000000000E+00 0. -1.
         -5    1    3    3    0  501 -0.53541687969E+01 -0.32083409369E+02  0.11719639207E+03  0.12162654560E+03  0.10000000000E+00 0. -1.
         21    1    1    2  504  503 -0.57137396834E+02 -0.74121773369E+02  0.19852183988E+03  0.21947583082E+03  0.00000000000E+00 0. -1.
<mgrwt>
<rscale>  1 0.15615401E+03</rscale>
<asrwt>0</asrwt>
<pdfrwt beam="1">  1       21 0.10887352E+00 0.15615401E+03</pdfrwt>
<pdfrwt beam="2">  1       21 0.34925124E-02 0.15615401E+03</pdfrwt>
<totfact> 0.33248574E+05</totfact>
</mgrwt>
</event>
<event>
 6    1  0.4424270E-002  0.1602426E+03  0.7546771E-02  0.1188423E+00
         21   -1    0    0  503  502  0.00000000000E+00  0.00000000000E+00  0.24857682626E+03  0.24857682626E+03  0.00000000000E+00 0. -1.
         21   -1    0    0  504  503 -0.00000000000E+00 -0.00000000000E+00 -0.17759697100E+03  0.17759697100E+03  0.00000000000E+00 0. -1.
         25    2    1    2    0    0  0.46250797900E+02 -0.88958187150E+02 -0.12685881881E+03  0.20437921589E+03  0.12500003444E+03 0.  0.
          5    1    3    3  501    0  0.47064286209E+02 -0.98794864229E+02 -0.39314705742E+02  0.11628038666E+03  0.10000000000E+00 0. -1.
         -5    1    3    3    0  501 -0.81348830937E+00  0.98366770787E+01 -0.87544113064E+02  0.88098829228E+02  0.10000000000E+00 0. -1.
         21    1    1    2  504  502 -0.46250797900E+02  0.88958187150E+02  0.19783867407E+03  0.22179458137E+03  0.00000000000E+00 0. -1.
<mgrwt>
<rscale>  1 0.16024264E+03</rscale>
<asrwt>0</asrwt>
<pdfrwt beam="1">  1       21 0.38242589E-01 0.16024264E+03</pdfrwt>
<pdfrwt beam="2">  1       21 0.27322611E-01 0.16024264E+03</pdfrwt>
<totfact> 0.85373805E+04</totfact>
</mgrwt>
</event>
<event>
 6    1  0.4424270E-002  0.1935614E+03  0.7546771E-02  0.1155288E+00
         21   -1    0    0  504  502  0.00000000000E+00  0.00000000000E+00  0.70754290796E+02  0.70754290796E+02  0.00000000000E+00 0.  1.
         21   -1    0    0  502  503 -0.00000000000E+00 -0.00000000000E+00 -0.46135545695E+03  0.46135545695E+03  0.00000000000E+00 0.  1.
         25    2    1    2    0    0 -0.51017197579E+02  0.13869901738E+03 -0.13208728692E+03  0.23433534047E+03  0.12500331418E+03 0.  0.
          5    1    3    3  501    0  0.22664360435E+02  0.11125470482E+03 -0.91680249766E+02  0.14593341213E+03  0.10000000000E+00 0. -1.
         -5    1    3    3    0  501 -0.73681558014E+02  0.27444312565E+02 -0.40407037153E+02  0.88401928344E+02  0.10000000000E+00 0. -1.
         21    1    1    2  504  503  0.51017197579E+02 -0.13869901738E+03 -0.25851387924E+03  0.29777440728E+03  0.00000000000E+00 0.  1.
<mgrwt>
<rscale>  1 0.19356136E+03</rscale>
<asrwt>0</asrwt>
<pdfrwt beam="1">  1       21 0.10885275E-01 0.19356136E+03</pdfrwt>
<pdfrwt beam="2">  1       21 0.70977765E-01 0.19356136E+03</pdfrwt>
<totfact> 0.12543741E+05</totfact>
</mgrwt>
</event>
<event>
 6    1  0.4424270E-002  0.1671719E+03  0.7546771E-02  0.1180830E+00
         21   -1    0    0  504  502  0.00000000000E+00  0.00000000000E+00  0.49225738578E+02  0.49225738578E+02  0.00000000000E+00 0. -1.
         21   -1    0    0  502  503 -0.00000000000E+00 -0.00000000000E+00 -0.41885292850E+03  0.41885292850E+03  0.00000000000E+00 0. -1.
         25    2    1    2    0    0 -0.99771678247E+02  0.48660457317E+02 -0.27684879343E+03  0.32340642115E+03  0.12499692368E+03 0.  0.
          5    1    3    3  501    0 -0.10523907913E+03  0.29008496383E+02 -0.10879958901E+03  0.15412370747E+03  0.10000000000E+00 0.  1.
         -5    1    3    3    0  501  0.54674008800E+01  0.19651960934E+02 -0.16804920443E+03  0.16928271368E+03  0.10000000000E+00 0.  1.
         21    1    1    2  504  503  0.99771678247E+02 -0.48660457317E+02 -0.92778396489E+02  0.14467224593E+03  0.00000000000E+00 0. -1.
<mgrwt>
<rscale>  1 0.16717194E+03</rscale>
<asrwt>0</asrwt>
<pdfrwt beam="1">  1       21 0.75731909E-02 0.16717194E+03</pdfrwt>
<pdfrwt beam="2">  1       21 0.64438909E-01 0.16717194E+03</pdfrwt>
<totfact> 0.29505923E+05</totfact>
</mgrwt>
</event>
<event>
 6    1  0.4424270E-002  0.1338990E+03  0.7546771E-02  0.1221782E+00
         21   -1    0    0  504  502  0.00000000000E+00  0.00000000000E+00  0.17320533166E+03  0.17320533166E+03  0.00000000000E+00 0.  1.
         21   -1    0    0  502  503 -0.00000000000E+00 -0.00000000000E+00 -0.16446653058E+03  0.16446653058E+03  0.00000000000E+00 0.  1.
         25    2    1    2    0    0  0.28125288286E+02 -0.38890487167E+02 -0.13257636296E+03  0.18842884760E+03  0.12500174702E+03 0.  0.
          5    1    3    3  501    0  0.23809349050E+02  0.56399101160E+01 -0.14082562240E+03  0.14293550858E+03  0.10000000000E+00 0. -1.
         -5    1    3    3    0  501  0.43159392358E+01 -0.44530397283E+02  0.82492594374E+01  0.45493339017E+02  0.10000000000E+00 0. -1.
         21    1    1    2  504  503 -0.28125288286E+02  0.38890487167E+02  0.14131516404E+03  0.14924301465E+03  0.00000000000E+00 0.  1.
<mgrwt>
<rscale>  1 0.13389899E+03</rscale>
<asrwt>0</asrwt>
<pdfrwt beam="1">  1       21 0.26646974E-01 0.13389899E+03</pdfrwt>
<pdfrwt beam="2">  1       21 0.25302543E-01 0.13389899E+03</pdfrwt>
<totfact> 0.20162086E+05</totfact>
</mgrwt>
</event>
<event>
 6    1  0.4424270E-002  0.1318799E+03  0.7546771E-02  0.1224693E+00
         21   -1    0    0  503  502  0.00000000000E+00  0.00000000000E+00  0.33679411691E+03  0.33679411691E+03  0.00000000000E+00 0. -1.
         21   -1    0    0  504  503 -0.00000000000E+00 -0.00000000000E+00 -0.22515991868E+02  0.22515991868E+02  0.00000000000E+00 0. -1.
         25    2    1    2    0    0 -0.20589913968E+02 -0.36650240546E+02  0.24626141933E+03  0.27935101333E+03  0.12500046923E+03 0.  0.
          5    1    3    3  501    0  0.46815684913E+02 -0.22044886070E+02  0.52651398310E+02  0.73823201636E+02  0.10000000000E+00 0.  1.
         -5    1    3    3    0  501 -0.67405598881E+02 -0.14605354475E+02  0.19361002103E+03  0.20552781170E+03  0.10000000000E+00 0.  1.
         21    1    1    2  504  502  0.20589913968E+02  0.36650240546E+02  0.68016705708E+02  0.79959095447E+02  0.00000000000E+00 0. -1.
<mgrwt>
<rscale>  1 0.13187988E+03</rscale>
<asrwt>0</asrwt>
<pdfrwt beam="1">  1       21 0.51814476E-01 0.13187988E+03</pdfrwt>
<pdfrwt beam="2">  1       21 0.34639990E-02 0.13187988E+03</pdfrwt>
<totfact> 0.17580273E+06</totfact>
</mgrwt>
</event>
<event>
 6    1  0.4424270E-002  0.1280308E+03  0.7546771E-02  0.1230407E+00
         21   -1    0    0  503  502  0.00000000000E+00  0.00000000000E+00  0.24632858204E+03  0.24632858204E+03  0.00000000000E+00 0. -1.
         21   -1    0    0  504  503 -0.00000000000E+00 -0.00000000000E+00 -0.79079103081E+02  0.79079103081E+02  0.00000000000E+00 0. -1.
         25    2    1    2    0    0 -0.27070361176E+02  0.58491928802E+01 -0.25612335671E+02  0.13056750175E+03  0.12499945306E+03 0.  0.
          5    1    3    3  501    0  0.31915057968E+02 -0.35010170756E+01 -0.55245701904E+02  0.63897774801E+02  0.10000000000E+00 0.  1.
         -5    1    3    3    0  501 -0.58985419144E+02  0.93502099558E+01  0.29633366233E+02  0.66669726954E+02  0.10000000000E+00 0.  1.
         21    1    1    2  504  502  0.27070361176E+02 -0.58491928802E+01  0.19286181463E+03  0.19484018337E+03  0.00000000000E+00 0. -1.
<mgrwt>
<rscale>  1 0.12803078E+03</rscale>
<asrwt>0</asrwt>
<pdfrwt beam="1">  1       21 0.37896705E-01 0.12803078E+03</pdfrwt>
<pdfrwt beam="2">  1       21 0.12166016E-01 0.12803078E+03</pdfrwt>
<totfact> 0.38870796E+05</totfact>
</mgrwt>
</event>
<event>
 6    1  0.4424270E-002  0.1292463E+03  0.7546771E-02  0.1228578E+00
         21   -1    0    0  504  502  0.00000000000E+00  0.00000000000E+00  0.96347076774E+02  0.96347076774E+02  0.00000000000E+00 0. -1.
         21   -1    0    0  502  503 -0.00000000000E+00 -0.00000000000E+00 -0.68342944673E+02  0.68342944673E+02  0.00000000000E+00 0. -1.
         25    2    1    2    0    0  0.35318264813E+01 -0.32666451081E+02  0.25500757397E+02  0.13173796977E+03  0.12500013291E+03 0.  0.
          5    1    3    3  501    0  0.57837297780E+02  0.93671945612E+01  0.31280646486E+00  0.58591852645E+02  0.10000000000E+00 0.  1.
         -5    1    3    3    0  501 -0.54305471299E+02 -0.42033645643E+02  0.25187950932E+02  0.73146117130E+02  0.10000000000E+00 0.  1.
         21    1    1    2  504  503 -0.35318264813E+01  0.32666451081E+02  0.25033747037E+01  0.32952051673E+02  0.00000000000E+00 0. -1.
<mgrwt>
<rscale>  1 0.12924629E+03</rscale>
<asrwt>0</asrwt>
<pdfrwt beam="1">  1       21 0.14822627E-01 0.12924629E+03</pdfrwt>
<pdfrwt beam="2">  1       21 0.10514299E-01 0.12924629E+03</pdfrwt>
<totfact> 0.29474836E+06</totfact>
</mgrwt>
</event>
<event>
 6    1  0.4424270E-002  0.1273111E+03  0.7546771E-02  0.1231501E+00
         21   -1    0    0  504  502  0.00000000000E+00  0.00000000000E+00  0.23095781654E+02  0.23095781654E+02  0.00000000000E+00 0. -1.
         21   -1    0    0  502  503 -0.00000000000E+00 -0.00000000000E+00 -0.28155772882E+03  0.28155772882E+03  0.00000000000E+00 0. -1.
         25    2    1    2    0    0 -0.24122499720E+02  0.19587007935E+01 -0.24698902422E+03  0.27786994345E+03  0.12498958312E+03 0.  0.
          5    1    3    3  501    0 -0.64467383472E+02 -0.10987572502E+02 -0.69653019258E+02  0.95542259619E+02  0.10000000000E+00 0.  1.
         -5    1    3    3    0  501  0.40344883752E+02  0.12946273295E+02 -0.17733600496E+03  0.18232768383E+03  0.10000000000E+00 0.  1.
         21    1    1    2  504  503  0.24122499720E+02 -0.19587007935E+01 -0.11472922950E+02  0.26783567025E+02  0.00000000000E+00 0. -1.
<mgrwt>
<rscale>  1 0.12731114E+03</rscale>
<asrwt>0</asrwt>
<pdfrwt beam="1">  1       21 0.35531972E-02 0.12731114E+03</pdfrwt>
<pdfrwt beam="2">  1       21 0.43316573E-01 0.12731114E+03</pdfrwt>
<totfact> 0.24304592E+06</totfact>
</mgrwt>
</event>
<event>
 6    1  0.4424270E-002  0.1284353E+03  0.7546771E-02  0.1229796E+00
         21   -1    0    0  503  502  0.00000000000E+00  0.00000000000E+00  0.64344335528E+02  0.64344335528E+02  0.00000000000E+00 0.  1.
         21   -1    0    0  504  503 -0.00000000000E+00 -0.00000000000E+00 -0.69279327980E+03  0.69279327980E+03  0.00000000000E+00 0.  1.
         25    2    1    2    0    0  0.18079681533E+02 -0.23337349530E+02 -0.68307509304E+03  0.69504475827E+03  0.12499650593E+03 0.  0.
          5    1    3    3  501    0  0.48980227569E+02 -0.11650479553E+01 -0.10664016838E+03  0.11735653174E+03  0.10000000000E+00 0. -1.
         -5    1    3    3    0  501 -0.30900546036E+02 -0.22172301574E+02 -0.57643492466E+03  0.57768822653E+03  0.10000000000E+00 0. -1.
         21    1    1    2  504  502 -0.18079681533E+02  0.23337349530E+02  0.54626148773E+02  0.62092857055E+02  0.00000000000E+00 0.  1.
<mgrwt>
<rscale>  1 0.12843533E+03</rscale>
<asrwt>0</asrwt>
<pdfrwt beam="1">  1       21 0.98991281E-02 0.12843533E+03</pdfrwt>
<pdfrwt beam="2">  1       21 0.10658359E+00 0.12843533E+03</pdfrwt>
<totfact> 0.60167250E+04</totfact>
</mgrwt>
</event>
<event>
 6    1  0.4424270E-002  0.1285274E+03  0.7546771E-02  0.1229657E+00
         21   -1    0    0  504  502  0.00000000000E+00  0.00000000000E+00  0.59073850932E+03  0.59073850932E+03  0.00000000000E+00 0. -1.
         21   -1    0    0  502  503 -0.00000000000E+00 -0.00000000000E+00 -0.10932329000E+02  0.10932329000E+02  0.00000000000E+00 0. -1.
         25    2    1    2    0    0 -0.12209148509E+02 -0.27391919337E+02  0.42593551357E+03  0.44490488972E+03  0.12497967287E+03 0.  0.
          5    1    3    3  501    0 -0.30843193045E+01  0.25491035770E+02  0.13532395690E+02  0.29024845621E+02  0.10000000000E+00 0. -1.
         -5    1    3    3    0  501 -0.91248292043E+01 -0.52882955107E+02  0.41240311788E+03  0.41588004410E+03  0.10000000000E+00 0. -1.
         21    1    1    2  504  503  0.12209148509E+02  0.27391919337E+02  0.15387066675E+03  0.15676594859E+03  0.00000000000E+00 0. -1.
<mgrwt>
<rscale>  1 0.12852743E+03</rscale>
<asrwt>0</asrwt>
<pdfrwt beam="1">  1       21 0.90882823E-01 0.12852743E+03</pdfrwt>
<pdfrwt beam="2">  1       21 0.16818972E-02 0.12852743E+03</pdfrwt>
<totfact> 0.16748603E+06</totfact>
</mgrwt>
</event>
<event>
 6    1  0.4424270E-002  0.1398018E+03  0.7546771E-02  0.1213596E+00
         21   -1    0    0  504  502  0.00000000000E+00  0.00000000000E+00  0.10963395028E+03  0.10963395028E+03  0.00000000000E+00 0. -1.
         21   -1    0    0  502  503 -0.00000000000E+00 -0.00000000000E+00 -0.31772225276E+03  0.31772225276E+03  0.00000000000E+00 0. -1.
         25    2    1    2    0    0 -0.58855029830E+02 -0.21333028969E+02 -0.29136776505E+03  0.32317135987E+03  0.12500216267E+03 0.  0.
          5    1    3    3  501    0 -0.23145551413E+02 -0.13838729251E+02  0.24668742431E+01  0.27079926995E+02  0.10000000000E+00 0.  1.
         -5    1    3    3    0  501 -0.35709478417E+02 -0.74942997178E+01 -0.29383463929E+03  0.29609143288E+03  0.10000000000E+00 0.  1.
         21    1    1    2  504  503  0.58855029830E+02  0.21333028969E+02  0.83279462561E+02  0.10418484317E+03  0.00000000000E+00 0. -1.
<mgrwt>
<rscale>  1 0.13980184E+03</rscale>
<asrwt>0</asrwt>
<pdfrwt beam="1">  1       21 0.16866761E-01 0.13980184E+03</pdfrwt>
<pdfrwt beam="2">  1       21 0.48880347E-01 0.13980184E+03</pdfrwt>
<totfact> 0.12877134E+05</totfact>
</mgrwt>
</event>
<event>
 6    1  0.4424270E-002  0.1286680E+03  0.7546771E-02  0.1229446E+00
         21   -1    0    0  504  502  0.00000000000E+00  0.00000000000E+00  0.47846680634E+01  0.47846680634E+01  0.00000000000E+00 0. -1.
         21   -1    0    0  502  503 -0.00000000000E+00 -0.00000000000E+00 -0.13255510102E+04  0.13255510102E+04  0.00000000000E+00 0. -1.
         25    2    1    2    0    0 -0.30017078301E+02 -0.54159368905E+01 -0.10478619128E+04  0.10557319913E+04  0.12500036688E+03 0.  0.
          5    1    3    3  501    0  0.39453975580E+02 -0.13291844958E+02 -0.68073425354E+03  0.68200617539E+03  0.10000000000E+00 0. -1.
         -5    1    3    3    0  501 -0.69471053881E+02  0.78759080677E+01 -0.36712765929E+03  0.37372581590E+03  0.10000000000E+00 0. -1.
         21    1    1    2  504  503  0.30017078301E+02  0.54159368905E+01 -0.27290442933E+03  0.27460368699E+03  0.00000000000E+00 0. -1.
<mgrwt>
<rscale>  1 0.12866798E+03</rscale>
<asrwt>0</asrwt>
<pdfrwt beam="1">  1       21 0.73610304E-03 0.12866798E+03</pdfrwt>
<pdfrwt beam="2">  1       21 0.20393085E+00 0.12866798E+03</pdfrwt>
<totfact> 0.78921954E+05</totfact>
</mgrwt>
</event>
<event>
 6    1  0.4424270E-002  0.1316996E+03  0.7546771E-02  0.1224955E+00
         21   -1    0    0  504  502  0.00000000000E+00  0.00000000000E+00  0.28646346537E+03  0.28646346537E+03  0.00000000000E+00 0.  1.
         21   -1    0    0  502  503 -0.00000000000E+00 -0.00000000000E+00 -0.46807179586E+02  0.46807179586E+02  0.00000000000E+00 0. -1.
         25    2    1    2    0    0  0.32269335988E+02 -0.26066433742E+02  0.52840174262E+02  0.14190442919E+03  0.12499605591E+03 0.  0.
          5    1    3    3  501    0  0.40789985738E+01 -0.73206866694E+02  0.14031868470E+02  0.74651101086E+02  0.10000000000E+00 0. -1.
         -5    1    3    3    0  501  0.28190337415E+02  0.47140432953E+02  0.38808305792E+02  0.67253328103E+02  0.10000000000E+00 0. -1.
         21    1    1    2  504  503 -0.32269335988E+02  0.26066433742E+02  0.18681611152E+03  0.19136621577E+03  0.00000000000E+00 0.  1.
<mgrwt>
<rscale>  1 0.13169959E+03</rscale>
<asrwt>0</asrwt>
<pdfrwt beam="1">  1       21 0.44071301E-01 0.13169959E+03</pdfrwt>
<pdfrwt beam="2">  1       21 0.72011047E-02 0.13169959E+03</pdfrwt>
<totfact> 0.71597062E+05</totfact>
</mgrwt>
</event>
<event>
 6    1  0.4424270E-002  0.1277130E+03  0.7546771E-02  0.1230889E+00
         21   -1    0    0  504  502  0.00000000000E+00  0.00000000000E+00  0.32370518496E+03  0.32370518496E+03  0.00000000000E+00 0.  1.
         21   -1    0    0  502  503 -0.00000000000E+00 -0.00000000000E+00 -0.18313373602E+02  0.18313373602E+02  0.00000000000E+00 0.  1.
         25    2    1    2    0    0 -0.11413365875E+02  0.23548297679E+02  0.25811744883E+03  0.28798474881E+03  0.12500324360E+03 0.  0.
          5    1    3    3  501    0 -0.53803224229E+02 -0.14186929908E+02  0.19644562876E+03  0.20417382540E+03  0.10000000000E+00 0.  1.
         -5    1    3    3    0  501  0.42389858354E+02  0.37735227587E+02  0.61671820066E+02  0.83810923409E+02  0.10000000000E+00 0.  1.
         21    1    1    2  504  503  0.11413365875E+02 -0.23548297679E+02  0.47274362535E+02  0.54033809761E+02  0.00000000000E+00 0.  1.
<mgrwt>
<rscale>  1 0.12771295E+03</rscale>
<asrwt>0</asrwt>
<pdfrwt beam="1">  1       21 0.49800793E-01 0.12771295E+03</pdfrwt>
<pdfrwt beam="2">  1       21 0.28174423E-02 0.12771295E+03</pdfrwt>
<totfact> 0.26773519E+06</totfact>
</mgrwt>
</event>
<event>
 6    1  0.4424270E-002  0.1290742E+03  0.7546771E-02  0.1228836E+00
         21   -1    0    0  504  502  0.00000000000E+00  0.00000000000E+00  0.13182102487E+03  0.13182102487E+03  0.00000000000E+00 0. -1.
         21   -1    0    0  502  503 -0.00000000000E+00 -0.00000000000E+00 -0.49352172334E+02  0.49352172334E+02  0.00000000000E+00 0. -1.
         25    2    1    2    0    0 -0.24637642551E+02  0.20631227797E+02  0.68622301566E+02  0.14618194166E+03  0.12500991482E+03 0.  0.
          5    1    3    3  501    0 -0.39448730380E+02  0.45303474652E+02  0.91474084865E+02  0.10943548486E+03  0.10000000000E+00 0. -1.
         -5    1    3    3    0  501  0.14811087829E+02 -0.24672246855E+02 -0.22851783299E+02  0.36746456802E+02  0.10000000000E+00 0. -1.
         21    1    1    2  504  503  0.24637642551E+02 -0.20631227797E+02  0.13846550972E+02  0.34991255546E+02  0.00000000000E+00 0. -1.
<mgrwt>
<rscale>  1 0.12907416E+03</rscale>
<asrwt>0</asrwt>
<pdfrwt beam="1">  1       21 0.20280158E-01 0.12907416E+03</pdfrwt>
<pdfrwt beam="2">  1       21 0.75926419E-02 0.12907416E+03</pdfrwt>
<totfact> 0.29272665E+06</totfact>
</mgrwt>
</event>
<event>
 6    1  0.4424270E-002  0.1263418E+03  0.7546771E-02  0.1232987E+00
         21   -1    0    0  503  502  0.00000000000E+00  0.00000000000E+00  0.81246816038E+02  0.81246816038E+02  0.00000000000E+00 0. -1.
         21   -1    0    0  504  503 -0.00000000000E+00 -0.00000000000E+00 -0.68682438853E+02  0.68682438853E+02  0.00000000000E+00 0. -1.
         25    2    1    2    0    0 -0.16806791154E+02 -0.75027058043E+01 -0.21577067880E+01  0.12636023752E+03  0.12499398027E+03 0.  0.
          5    1    3    3  501    0 -0.97455923860E+01 -0.12796579593E+02 -0.62928551507E+02  0.64951840736E+02  0.10000000000E+00 0.  1.
         -5    1    3    3    0  501 -0.70611987684E+01  0.52938737883E+01  0.60770844719E+02  0.61408396785E+02  0.10000000000E+00 0.  1.
         21    1    1    2  504  502  0.16806791154E+02  0.75027058043E+01  0.14722083972E+02  0.23569017370E+02  0.00000000000E+00 0.  1.
<mgrwt>
<rscale>  1 0.12634181E+03</rscale>
<asrwt>0</asrwt>
<pdfrwt beam="1">  1       21 0.12499510E-01 0.12634181E+03</pdfrwt>
<pdfrwt beam="2">  1       21 0.10566529E-01 0.12634181E+03</pdfrwt>
<totfact> 0.39596949E+06</totfact>
</mgrwt>
</event>
<event>
 6    1  0.4424270E-002  0.1259152E+03  0.7546771E-02  0.1233646E+00
         21   -1    0    0  503  502  0.00000000000E+00  0.00000000000E+00  0.29807754694E+03  0.29807754694E+03  0.00000000000E+00 0.  1.
         21   -1    0    0  504  503 -0.00000000000E+00 -0.00000000000E+00 -0.17178833676E+02  0.17178833676E+02  0.00000000000E+00 0.  1.
         25    2    1    2    0    0 -0.16640992630E+01 -0.15128599268E+02  0.23100638343E+03  0.26309424570E+03  0.12499195652E+03 0.  0.
          5    1    3    3  501    0 -0.14385542349E+02 -0.62908892418E+02  0.72526930132E+02  0.97080575649E+02  0.10000000000E+00 0. -1.
         -5    1    3    3    0  501  0.12721443086E+02  0.47780293150E+02  0.15847945330E+03  0.16601367006E+03  0.10000000000E+00 0. -1.
         21    1    1    2  504  502  0.16640992630E+01  0.15128599268E+02  0.49892329837E+02  0.52162134914E+02  0.00000000000E+00 0.  1.
<mgrwt>
<rscale>  1 0.12591518E+03</rscale>
<asrwt>0</asrwt>
<pdfrwt beam="1">  1       21 0.45858080E-01 0.12591518E+03</pdfrwt>
<pdfrwt beam="2">  1       21 0.26428977E-02 0.12591518E+03</pdfrwt>
<totfact> 0.35173506E+06</totfact>
</mgrwt>
</event>
<event>
 6    1  0.4424270E-002  0.1259670E+03  0.7546771E-02  0.1233566E+00
         21   -1    0    0  504  502  0.00000000000E+00  0.00000000000E+00  0.38627047891E+02  0.38627047891E+02  0.00000000000E+00 0.  1.
         21   -1    0    0  502  503 -0.00000000000E+00 -0.00000000000E+00 -0.13237904905E+03  0.13237904905E+03  0.00000000000E+00 0.  1.
         25    2    1    2    0    0 -0.11396069102E+02 -0.10661520629E+02 -0.90390702226E+02  0.15504249009E+03  0.12499662504E+03 0.  0.
          5    1    3    3  501    0  0.53930230166E+02 -0.49677012154E+01 -0.65289107667E+02  0.84828210880E+02  0.10000000000E+00 0. -1.
         -5    1    3    3    0  501 -0.65326299268E+02 -0.56938194139E+01 -0.25101594559E+02  0.70214279210E+02  0.10000000000E+00 0. -1.
         21    1    1    2  504  503  0.11396069102E+02  0.10661520629E+02 -0.33612989302E+01  0.15963606848E+02  0.00000000000E+00 0.  1.
<mgrwt>
<rscale>  1 0.12596704E+03</rscale>
<asrwt>0</asrwt>
<pdfrwt beam="1">  1       21 0.59426228E-02 0.12596704E+03</pdfrwt>
<pdfrwt beam="2">  1       21 0.20366007E-01 0.12596704E+03</pdfrwt>
<totfact> 0.44072876E+06</totfact>
</mgrwt>
</event>
<event>
 6    1  0.4424270E-002  0.1269933E+03  0.7546771E-02  0.1231987E+00
         21   -1    0    0  504  502  0.00000000000E+00  0.00000000000E+00  0.31112399440E+03  0.31112399440E+03  0.00000000000E+00 0. -1.
         21   -1    0    0  502  503 -0.00000000000E+00 -0.00000000000E+00 -0.14933665874E+03  0.14933665874E+03  0.00000000000E+00 0. -1.
         25    2    1    2    0    0  0.12269551066E+02  0.18752838048E+02 -0.12181625755E+03  0.17597302793E+03  0.12500038056E+03 0.  0.
          5    1    3    3  501    0 -0.34903939081E+01  0.46396579199E+02  0.35197219170E+01  0.46660731385E+02  0.10000000000E+00 0.  1.
         -5    1    3    3    0  501  0.15759944975E+02 -0.27643741151E+02 -0.12533597947E+03  0.12931229655E+03  0.10000000000E+00 0.  1.
         21    1    1    2  504  503 -0.12269551066E+02 -0.18752838048E+02  0.28360359320E+03  0.28448762521E+03  0.00000000000E+00 0. -1.
<mgrwt>
<rscale>  1 0.12699333E+03</rscale>
<asrwt>0</asrwt>
<pdfrwt beam="1">  1       21 0.47865230E-01 0.12699333E+03</pdfrwt>
<pdfrwt beam="2">  1       21 0.22974871E-01 0.12699333E+03</pdfrwt>
<totfact> 0.76342343E+04</totfact>
</mgrwt>
</event>
<event>
 6    1  0.4424270E-002  0.1508898E+03  0.7546771E-02  0.1199384E+00
         21   -1    0    0  504  502  0.00000000000E+00  0.00000000000E+00  0.28563670465E+03  0.28563670465E+03  0.00000000000E+00 0.  1.
         21   -1    0    0  502  503 -0.00000000000E+00 -0.00000000000E+00 -0.48537190076E+02  0.48537190076E+02  0.00000000000E+00 0.  1.
         25    2    1    2    0    0 -0.19698578699E+02 -0.82186851453E+02  0.14760347984E+03  0.21107940749E+03  0.12500006581E+03 0.  0.
          5    1    3    3  501    0 -0.44888325486E+02 -0.10597681738E+03  0.12385094192E+03  0.16907132637E+03  0.10000000000E+00 0. -1.
         -5    1    3    3    0  501  0.25189746787E+02  0.23789965923E+02  0.23752537916E+02  0.42008081119E+02  0.10000000000E+00 0. -1.
         21    1    1    2  504  503  0.19698578699E+02  0.82186851453E+02  0.89496034736E+02  0.12309448724E+03  0.00000000000E+00 0.  1.
<mgrwt>
<rscale>  1 0.15088979E+03</rscale>
<asrwt>0</asrwt>
<pdfrwt beam="1">  1       21 0.43944107E-01 0.15088979E+03</pdfrwt>
<pdfrwt beam="2">  1       21 0.74672602E-02 0.15088979E+03</pdfrwt>
<totfact> 0.67614210E+05</totfact>
</mgrwt>
</event>
<event>
 6    1  0.4424270E-002  0.1395177E+03  0.7546771E-02  0.1213979E+00
         21   -1    0    0  504  502  0.00000000000E+00  0.00000000000E+00  0.22784303975E+02  0.22784303975E+02  0.00000000000E+00 0. -1.
         21   -1    0    0  502  503 -0.00000000000E+00 -0.00000000000E+00 -0.48201773718E+03  0.48201773718E+03  0.00000000000E+00 0. -1.
         25    2    1    2    0    0 -0.52825493929E+02 -0.32399296880E+02 -0.24670132490E+03  0.28341969248E+03  0.12499972451E+03 0.  0.
          5    1    3    3  501    0  0.13666382437E+02 -0.28193031962E+02 -0.38162072830E+01  0.31562485614E+02  0.10000000000E+00 0.  1.
         -5    1    3    3    0  501 -0.66491876366E+02 -0.42062649186E+01 -0.24288511762E+03  0.25185720686E+03  0.10000000000E+00 0.  1.
         21    1    1    2  504  503  0.52825493929E+02  0.32399296880E+02 -0.21253210831E+03  0.22138234868E+03  0.00000000000E+00 0. -1.
<mgrwt>
<rscale>  1 0.13951766E+03</rscale>
<asrwt>0</asrwt>
<pdfrwt beam="1">  1       21 0.35052776E-02 0.13951766E+03</pdfrwt>
<pdfrwt beam="2">  1       21 0.74156574E-01 0.13951766E+03</pdfrwt>
<totfact> 0.80090518E+05</totfact>
</mgrwt>
</event>
<event>
 6    1  0.4424270E-002  0.1581758E+03  0.7546771E-02  0.1190772E+00
         21   -1    0    0  503  502  0.00000000000E+00  0.00000000000E+00  0.23864539351E+02  0.23864539351E+02  0.00000000000E+00 0. -1.
         21   -1    0    0  504  503 -0.00000000000E+00 -0.00000000000E+00 -0.85530470592E+03  0.85530470592E+03  0.00000000000E+00 0. -1.
         25    2    1    2    0    0 -0.22683853386E+02 -0.94273038706E+02 -0.68855738467E+03  0.70649193815E+03  0.12497049114E+03 0.  0.
          5    1    3    3  501    0  0.39347356011E+02  0.24864893102E+01 -0.11613972591E+03  0.12264926819E+03  0.10000000000E+00 0. -1.
         -5    1    3    3    0  501 -0.62031209397E+02 -0.96759528017E+02 -0.57241765876E+03  0.58384266995E+03  0.10000000000E+00 0. -1.
         21    1    1    2  504  502  0.22683853386E+02  0.94273038706E+02 -0.14288278190E+03  0.17267730712E+03  0.00000000000E+00 0. -1.
<mgrwt>
<rscale>  1 0.15817581E+03</rscale>
<asrwt>0</asrwt>
<pdfrwt beam="1">  1       21 0.36714678E-02 0.15817581E+03</pdfrwt>
<pdfrwt beam="2">  1       21 0.13158533E+00 0.15817581E+03</pdfrwt>
<totfact> 0.19210712E+05</totfact>
</mgrwt>
</event>
<event>
 6    1  0.4424270E-002  0.1284564E+03  0.7546771E-02  0.1229764E+00
         21   -1    0    0  503  502  0.00000000000E+00  0.00000000000E+00  0.73660807786E+02  0.73660807786E+02  0.00000000000E+00 0. -1.
         21   -1    0    0  504  503 -0.00000000000E+00 -0.00000000000E+00 -0.15622616964E+03  0.15622616964E+03  0.00000000000E+00 0. -1.
         25    2    1    2    0    0 -0.28936858661E+02  0.61494102432E+01 -0.12428746117E+03  0.17874119943E+03  0.12500354529E+03 0.  0.
          5    1    3    3  501    0 -0.44901790724E+02  0.42994101225E+02 -0.17393515411E+02  0.64553914899E+02  0.10000000000E+00 0. -1.
         -5    1    3    3    0  501  0.15964932063E+02 -0.36844690982E+02 -0.10689394576E+03  0.11418728453E+03  0.10000000000E+00 0. -1.
         21    1    1    2  504  502  0.28936858661E+02 -0.61494102432E+01  0.41722099314E+02  0.51145777995E+02  0.00000000000E+00 0. -1.
<mgrwt>
<rscale>  1 0.12845639E+03</rscale>
<asrwt>0</asrwt>
<pdfrwt beam="1">  1       21 0.11332432E-01 0.12845639E+03</pdfrwt>
<pdfrwt beam="2">  1       21 0.24034795E-01 0.12845639E+03</pdfrwt>
<totfact> 0.10615784E+06</totfact>
</mgrwt>
</event>
<event>
 6    1  0.4424270E-002  0.1265653E+03  0.7546771E-02  0.1232643E+00
         21   -1    0    0  503  502  0.00000000000E+00  0.00000000000E+00  0.55441288209E+02  0.55441288209E+02  0.00000000000E+00 0.  1.
         21   -1    0    0  504  503 -0.00000000000E+00 -0.00000000000E+00 -0.16069178004E+03  0.16069178004E+03  0.00000000000E+00 0.  1.
         25    2    1    2    0    0  0.39540599758E+01 -0.19482659182E+02 -0.13195508267E+03  0.18284127090E+03  0.12499431148E+03 0.  0.
          5    1    3    3  501    0  0.57201483824E+02 -0.33452358690E+02 -0.45625370548E+02  0.80453430575E+02  0.10000000000E+00 0. -1.
         -5    1    3    3    0  501 -0.53247423848E+02  0.13969699508E+02 -0.86329712126E+02  0.10238784033E+03  0.10000000000E+00 0. -1.
         21    1    1    2  504  502 -0.39540599758E+01  0.19482659182E+02  0.26704590840E+02  0.33291797353E+02  0.00000000000E+00 0.  1.
<mgrwt>
<rscale>  1 0.12656534E+03</rscale>
<asrwt>0</asrwt>
<pdfrwt beam="1">  1       21 0.85294291E-02 0.12656534E+03</pdfrwt>
<pdfrwt beam="2">  1       21 0.24721812E-01 0.12656534E+03</pdfrwt>
<totfact> 0.16533139E+06</totfact>
</mgrwt>
</event>
<event>
 6    1  0.4424270E-002  0.1298407E+03  0.7546771E-02  0.1227692E+00
         21   -1    0    0  504  502  0.00000000000E+00  0.00000000000E+00  0.44570507078E+02  0.44570507078E+02  0.00000000000E+00 0.  1.
         21   -1    0    0  502  503 -0.00000000000E+00 -0.00000000000E+00 -0.75718977498E+03  0.75718977498E+03  0.00000000000E+00 0. -1.
         25    2    1    2    0    0  0.16963091421E+02 -0.30753823658E+02 -0.74364637647E+03  0.75489637690E+03  0.12500024995E+03 0.  0.
          5    1    3    3  501    0  0.22327025749E+02 -0.56827031549E+02 -0.70684386433E+03  0.70947590948E+03  0.10000000000E+00 0. -1.
         -5    1    3    3    0  501 -0.53639343288E+01  0.26073207891E+02 -0.36802512137E+02  0.45420467422E+02  0.10000000000E+00 0. -1.
         21    1    1    2  504  503 -0.16963091421E+02  0.30753823658E+02  0.31027108568E+02  0.46863905153E+02  0.00000000000E+00 0.  1.
<mgrwt>
<rscale>  1 0.12984070E+03</rscale>
<asrwt>0</asrwt>
<pdfrwt beam="1">  1       21 0.68570009E-02 0.12984070E+03</pdfrwt>
<pdfrwt beam="2">  1       21 0.11649074E+00 0.12984070E+03</pdfrwt>
<totfact> 0.91653320E+04</totfact>
</mgrwt>
</event>
<event>
 6    1  0.4424270E-002  0.1273317E+03  0.7546771E-02  0.1231470E+00
         21   -1    0    0  504  502  0.00000000000E+00  0.00000000000E+00  0.31832897575E+02  0.31832897575E+02  0.00000000000E+00 0. -1.
         21   -1    0    0  502  503 -0.00000000000E+00 -0.00000000000E+00 -0.29496272725E+03  0.29496272725E+03  0.00000000000E+00 0.  1.
         25    2    1    2    0    0  0.12666901908E+02 -0.20664594165E+02 -0.27252202575E+03  0.30080160237E+03  0.12500349441E+03 0.  0.
          5    1    3    3  501    0  0.13521642556E+02 -0.70674085037E+02 -0.20127768769E+03  0.21375307875E+03  0.10000000000E+00 0. -1.
         -5    1    3    3    0  501 -0.85474064861E+00  0.50009490872E+02 -0.71244338058E+02  0.87048523619E+02  0.10000000000E+00 0. -1.
         21    1    1    2  504  503 -0.12666901908E+02  0.20664594165E+02  0.93921960795E+01  0.25994022450E+02  0.00000000000E+00 0. -1.
<mgrwt>
<rscale>  1 0.12733165E+03</rscale>
<asrwt>0</asrwt>
<pdfrwt beam="1">  1       21 0.48973690E-02 0.12733165E+03</pdfrwt>
<pdfrwt beam="2">  1       21 0.45378880E-01 0.12733165E+03</pdfrwt>
<totfact> 0.12967466E+06</totfact>
</mgrwt>
</event>
<event>
 6    1  0.4424270E-002  0.1320209E+03  0.7546771E-02  0.1224488E+00
         21   -1    0    0  504  502  0.00000000000E+00  0.00000000000E+00  0.21963568174E+02  0.21963568174E+02  0.00000000000E+00 0.  1.
         21   -1    0    0  502  503 -0.00000000000E+00 -0.00000000000E+00 -0.35148966673E+03  0.35148966673E+03  0.00000000000E+00 0.  1.
         25    2    1    2    0    0  0.35366913022E+02 -0.23513525875E+02 -0.22911644499E+03  0.26443120518E+03  0.12500324985E+03 0.  0.
          5    1    3    3  501    0 -0.25242820015E+02  0.12713169777E+02 -0.17002064498E+03  0.17235386380E+03  0.10000000000E+00 0.  1.
         -5    1    3    3    0  501  0.60609733037E+02 -0.36226695652E+02 -0.59095800015E+02  0.92077341383E+02  0.10000000000E+00 0.  1.
         21    1    1    2  504  503 -0.35366913022E+02  0.23513525875E+02 -0.10040965357E+03  0.10902202972E+03  0.00000000000E+00 0.  1.
<mgrwt>
<rscale>  1 0.13202090E+03</rscale>
<asrwt>0</asrwt>
<pdfrwt beam="1">  1       21 0.33790107E-02 0.13202090E+03</pdfrwt>
<pdfrwt beam="2">  1       21 0.54075330E-01 0.13202090E+03</pdfrwt>
<totfact> 0.16757937E+06</totfact>
</mgrwt>
</event>
<event>
 6    1  0.4424270E-002  0.1338276E+03  0.7546771E-02  0.1221884E+00
         21   -1    0    0  503  502  0.00000000000E+00  0.00000000000E+00  0.27365956228E+03  0.27365956228E+03  0.00000000000E+00 0.  1.
         21   -1    0    0  504  503 -0.00000000000E+00 -0.00000000000E+00 -0.31964164999E+02  0.31964164999E+02  0.00000000000E+00 0.  1.
         25    2    1    2    0    0 -0.34150777670E+02 -0.33411164846E+02  0.14230819032E+03  0.19534953058E+03  0.12500894572E+03 0.  0.
          5    1    3    3  501    0  0.40374033867E+01 -0.69851730945E+02  0.11811703016E+03  0.13728513305E+03  0.10000000000E+00 0. -1.
         -5    1    3    3    0  501 -0.38188181057E+02  0.36440566100E+02  0.24191160164E+02  0.58064397527E+02  0.10000000000E+00 0. -1.
         21    1    1    2  504  502  0.34150777670E+02  0.33411164846E+02  0.99387206956E+02  0.11027419670E+03  0.00000000000E+00 0.  1.
<mgrwt>
<rscale>  1 0.13382757E+03</rscale>
<asrwt>0</asrwt>
<pdfrwt beam="1">  1       21 0.42101470E-01 0.13382757E+03</pdfrwt>
<pdfrwt beam="2">  1       21 0.49175640E-02 0.13382757E+03</pdfrwt>
<totfact> 0.15000087E+06</totfact>
</mgrwt>
</event>
<event>
 6    1  0.4424270E-002  0.1303300E+03  0.7546771E-02  0.1226967E+00
         21   -1    0    0  503  502  0.00000000000E+00  0.00000000000E+00  0.27727201886E+03  0.27727201886E+03  0.00000000000E+00 0. -1.
         21   -1    0    0  504  503 -0.00000000000E+00 -0.00000000000E+00 -0.82886463546E+02  0.82886463546E+02  0.00000000000E+00 0. -1.
         25    2    1    2    0    0 -0.23465010374E+02  0.28481285601E+02 -0.29189262173E+02  0.13355863828E+03  0.12499642592E+03 0.  0.
          5    1    3    3  501    0  0.19237289726E+02 -0.24121809283E+02 -0.53347165617E+02  0.61626821097E+02  0.10000000000E+00 0. -1.
         -5    1    3    3    0  501 -0.42702300100E+02  0.52603094884E+02  0.24157903445E+02  0.71931817188E+02  0.10000000000E+00 0. -1.
         21    1    1    2  504  502  0.23465010374E+02 -0.28481285601E+02  0.22357481748E+03  0.22659984412E+03  0.00000000000E+00 0. -1.
<mgrwt>
<rscale>  1 0.13032995E+03</rscale>
<asrwt>0</asrwt>
<pdfrwt beam="1">  1       21 0.42657233E-01 0.13032995E+03</pdfrwt>
<pdfrwt beam="2">  1       21 0.12751764E-01 0.13032995E+03</pdfrwt>
<totfact> 0.28208522E+05</totfact>
</mgrwt>
</event>
<event>
 6    1  0.4424270E-002  0.1269907E+03  0.7546771E-02  0.1231991E+00
         21   -1    0    0  503  502  0.00000000000E+00  0.00000000000E+00  0.42925514893E+03  0.42925514893E+03  0.00000000000E+00 0.  1.
         21   -1    0    0  504  503 -0.00000000000E+00 -0.00000000000E+00 -0.14753404190E+02  0.14753404190E+02  0.00000000000E+00 0.  1.
         25    2    1    2    0    0  0.17081971927E+02 -0.14468462591E+02  0.27733099858E+03  0.30502314462E+03  0.12500202320E+03 0.  0.
          5    1    3    3  501    0  0.63311045553E+02 -0.38776185864E+02  0.17615954661E+03  0.19116505157E+03  0.10000000000E+00 0.  1.
         -5    1    3    3    0  501 -0.46229073627E+02  0.24307723274E+02  0.10117145197E+03  0.11385809305E+03  0.10000000000E+00 0.  1.
         21    1    1    2  504  502 -0.17081971927E+02  0.14468462591E+02  0.13717074616E+03  0.13898540850E+03  0.00000000000E+00 0.  1.
<mgrwt>
<rscale>  1 0.12699069E+03</rscale>
<asrwt>0</asrwt>
<pdfrwt beam="1">  1       21 0.66039244E-01 0.12699069E+03</pdfrwt>
<pdfrwt beam="2">  1       21 0.22697548E-02 0.12699069E+03</pdfrwt>
<totfact> 0.20995433E+06</totfact>
</mgrwt>
</event>
<event>
 6    1  0.4424270E-002  0.1289712E+03  0.7546771E-02  0.1228990E+00
         21   -1    0    0  504  502  0.00000000000E+00  0.00000000000E+00  0.16196157076E+02  0.16196157076E+02  0.00000000000E+00 0. -1.
         21   -1    0    0  502  503 -0.00000000000E+00 -0.00000000000E+00 -0.40103776071E+03  0.40103776071E+03  0.00000000000E+00 0. -1.
         25    2    1    2    0    0  0.26295925879E+02 -0.18154617630E+02 -0.31752906546E+03  0.34272188081E+03  0.12495004727E+03 0.  0.
          5    1    3    3  501    0  0.53997080477E+02  0.15661215063E+02 -0.27850638504E+03  0.28412457632E+03  0.10000000000E+00 0. -1.
         -5    1    3    3    0  501 -0.27701154598E+02 -0.33815832693E+02 -0.39022680419E+02  0.58597304493E+02  0.10000000000E+00 0. -1.
         21    1    1    2  504  503 -0.26295925879E+02  0.18154617630E+02 -0.67312538170E+02  0.74512036974E+02  0.00000000000E+00 0. -1.
<mgrwt>
<rscale>  1 0.12897124E+03</rscale>
<asrwt>0</asrwt>
<pdfrwt beam="1">  1       21 0.24917165E-02 0.12897124E+03</pdfrwt>
<pdfrwt beam="2">  1       21 0.61698118E-01 0.12897124E+03</pdfrwt>
<totfact> 0.20884425E+06</totfact>
</mgrwt>
</event>
<event>
 6    1  0.4424270E-002  0.1274851E+03  0.7546771E-02  0.1231236E+00
         21   -1    0    0  504  502  0.00000000000E+00  0.00000000000E+00  0.29072468884E+03  0.29072468884E+03  0.00000000000E+00 0.  1.
         21   -1    0    0  502  503 -0.00000000000E+00 -0.00000000000E+00 -0.26832226636E+03  0.26832226636E+03  0.00000000000E+00 0. -1.
         25    2    1    2    0    0  0.25031830081E+02  0.14588705582E+01 -0.25257692142E+03  0.28292676328E+03  0.12499492520E+03 0.  0.
          5    1    3    3  501    0 -0.46532333074E+02  0.21231227645E+02 -0.12888547051E+03  0.13866325237E+03  0.10000000000E+00 0. -1.
         -5    1    3    3    0  501  0.71564163156E+02 -0.19772357087E+02 -0.12369145091E+03  0.14426351091E+03  0.10000000000E+00 0. -1.
         21    1    1    2  504  503 -0.25031830081E+02 -0.14588705582E+01  0.27497934389E+03  0.27612019192E+03  0.00000000000E+00 0.  1.
<mgrwt>
<rscale>  1 0.12748511E+03</rscale>
<asrwt>0</asrwt>
<pdfrwt beam="1">  1       21 0.44726875E-01 0.12748511E+03</pdfrwt>
<pdfrwt beam="2">  1       21 0.41280349E-01 0.12748511E+03</pdfrwt>
<totfact> 0.28189822E+04</totfact>
</mgrwt>
</event>
<event>
 6    1  0.4424270E-002  0.1290646E+03  0.7546771E-02  0.1228850E+00
         21   -1    0    0  503  502  0.00000000000E+00  0.00000000000E+00  0.15427485097E+03  0.15427485097E+03  0.00000000000E+00 0. -1.
         21   -1    0    0  504  503 -0.00000000000E+00 -0.00000000000E+00 -0.15583679876E+03  0.15583679876E+03  0.00000000000E+00 0.  1.
         25    2    1    2    0    0  0.97442286290E+01 -0.30610977976E+02 -0.12673317845E+03  0.18088387040E+03  0.12500277632E+03 0.  0.
          5    1    3    3  501    0  0.50513571429E+02  0.25110872626E+02 -0.78475944568E+02  0.96647093585E+02  0.10000000000E+00 0. -1.
         -5    1    3    3    0  501 -0.40769342800E+02 -0.55721850601E+02 -0.48257233880E+02  0.84236776817E+02  0.10000000000E+00 0. -1.
         21    1    1    2  504  502 -0.97442286290E+01  0.30610977976E+02  0.12517123067E+03  0.12922777933E+03  0.00000000000E+00 0. -1.
<mgrwt>
<rscale>  1 0.12906462E+03</rscale>
<asrwt>0</asrwt>
<pdfrwt beam="1">  1       21 0.23734593E-01 0.12906462E+03</pdfrwt>
<pdfrwt beam="2">  1       21 0.23974892E-01 0.12906462E+03</pdfrwt>
<totfact> 0.27815442E+05</totfact>
</mgrwt>
</event>
<event>
 6    1  0.4424270E-002  0.1365348E+03  0.7546771E-02  0.1218069E+00
         21   -1    0    0  504  502  0.00000000000E+00  0.00000000000E+00  0.21980518720E+02  0.21980518720E+02  0.00000000000E+00 0.  1.
         21   -1    0    0  502  503 -0.00000000000E+00 -0.00000000000E+00 -0.14944786974E+04  0.14944786974E+04  0.00000000000E+00 0.  1.
         25    2    1    2    0    0 -0.43600095094E+02 -0.33405584303E+02 -0.14511043616E+04  0.14575135058E+04  0.12499939936E+03 0.  0.
          5    1    3    3  501    0 -0.14857203729E+02 -0.78718714018E+02 -0.10064274569E+04  0.10096106222E+04  0.10000000000E+00 0.  1.
         -5    1    3    3    0  501 -0.28742891364E+02  0.45313129715E+02 -0.44467690478E+03  0.44790288364E+03  0.10000000000E+00 0.  1.
         21    1    1    2  504  503  0.43600095094E+02  0.33405584303E+02 -0.21393816989E+02  0.58945710277E+02  0.00000000000E+00 0.  1.
<mgrwt>
<rscale>  1 0.13653480E+03</rscale>
<asrwt>0</asrwt>
<pdfrwt beam="1">  1       21 0.33816188E-02 0.13653480E+03</pdfrwt>
<pdfrwt beam="2">  1       21 0.22991976E+00 0.13653480E+03</pdfrwt>
<totfact> 0.47490551E+04</totfact>
</mgrwt>
</event>
<event>
 6    1  0.4424270E-002  0.1268726E+03  0.7546771E-02  0.1232171E+00
         21   -1    0    0  503  502  0.00000000000E+00  0.00000000000E+00  0.20569042351E+03  0.20569042351E+03  0.00000000000E+00 0. -1.
         21   -1    0    0  504  503 -0.00000000000E+00 -0.00000000000E+00 -0.10713425037E+03  0.10713425037E+03  0.00000000000E+00 0. -1.
         25    2    1    2    0    0 -0.32971337412E+01 -0.21457887721E+02 -0.68622789987E+02  0.14424200055E+03  0.12500142151E+03 0.  0.
          5    1    3    3  501    0  0.45602692029E+02 -0.30529476592E+01  0.12830114974E+02  0.47471547899E+02  0.10000000000E+00 0. -1.
         -5    1    3    3    0  501 -0.48899825770E+02 -0.18404940061E+02 -0.81452904962E+02  0.96770452648E+02  0.10000000000E+00 0. -1.
         21    1    1    2  504  502  0.32971337412E+01  0.21457887721E+02  0.16717896313E+03  0.16858267333E+03  0.00000000000E+00 0. -1.
<mgrwt>
<rscale>  1 0.12687264E+03</rscale>
<asrwt>0</asrwt>
<pdfrwt beam="1">  1       21 0.31644681E-01 0.12687264E+03</pdfrwt>
<pdfrwt beam="2">  1       21 0.16482192E-01 0.12687264E+03</pdfrwt>
<totfact> 0.32113648E+05</totfact>
</mgrwt>
</event>
<event>
 6    1  0.4424270E-002  0.1259254E+03  0.7546771E-02  0.1233630E+00
         21   -1    0    0  504  502  0.00000000000E+00  0.00000000000E+00  0.55327701168E+03  0.55327701168E+03  0.00000000000E+00 0.  1.
         21   -1    0    0  502  503 -0.00000000000E+00 -0.00000000000E+00 -0.24041199759E+02  0.24041199759E+02  0.00000000000E+00 0. -1.
         25    2    1    2    0    0 -0.21779142328E+01 -0.15099876982E+02  0.14204205805E+03  0.18982401454E+03  0.12499784256E+03 0.  0.
          5    1    3    3  501    0 -0.40806504121E+02  0.11125291035E+02  0.13638478519E+03  0.14279272569E+03  0.10000000000E+00 0. -1.
         -5    1    3    3    0  501  0.38628589888E+02 -0.26225168016E+02  0.56572728590E+01  0.47031288845E+02  0.10000000000E+00 0. -1.
         21    1    1    2  504  503  0.21779142328E+01  0.15099876982E+02  0.38719375387E+03  0.38749419690E+03  0.00000000000E+00 0.  1.
<mgrwt>
<rscale>  1 0.12592542E+03</rscale>
<asrwt>0</asrwt>
<pdfrwt beam="1">  1       21 0.85119531E-01 0.12592542E+03</pdfrwt>
<pdfrwt beam="2">  1       21 0.36986465E-02 0.12592542E+03</pdfrwt>
<totfact> 0.53914258E+05</totfact>
</mgrwt>
</event>
<event>
 6    1  0.4424270E-002  0.1267156E+03  0.7546771E-02  0.1232412E+00
         21   -1    0    0  503  502  0.00000000000E+00  0.00000000000E+00  0.78772413005E+02  0.78772413005E+02  0.00000000000E+00 0.  1.
         21   -1    0    0  504  503 -0.00000000000E+00 -0.00000000000E+00 -0.10912443851E+03  0.10912443851E+03  0.00000000000E+00 0.  1.
         25    2    1    2    0    0  0.19257312235E+02  0.79703555912E+01 -0.68781570883E+02  0.14417957117E+03  0.12498989402E+03 0.  0.
          5    1    3    3  501    0  0.63098640913E+02 -0.24068963913E+01 -0.75721797547E+02  0.98595295319E+02  0.10000000000E+00 0. -1.
         -5    1    3    3    0  501 -0.43841328678E+02  0.10377251983E+02  0.69402266645E+01  0.45584275854E+02  0.10000000000E+00 0. -1.
         21    1    1    2  504  502 -0.19257312235E+02 -0.79703555912E+01  0.38429545376E+02  0.43717280343E+02  0.00000000000E+00 0.  1.
<mgrwt>
<rscale>  1 0.12671560E+03</rscale>
<asrwt>0</asrwt>
<pdfrwt beam="1">  1       21 0.12118833E-01 0.12671560E+03</pdfrwt>
<pdfrwt beam="2">  1       21 0.16788375E-01 0.12671560E+03</pdfrwt>
<totfact> 0.18302781E+06</totfact>
</mgrwt>
</event>
<event>
 6    1  0.4424270E-002  0.1941680E+03  0.7546771E-02  0.1154755E+00
         21   -1    0    0  503  502  0.00000000000E+00  0.00000000000E+00  0.35522947424E+03  0.35522947424E+03  0.00000000000E+00 0. -1.
         21   -1    0    0  504  503 -0.00000000000E+00 -0.00000000000E+00 -0.11202009773E+03  0.11202009773E+03  0.00000000000E+00 0.  1.
         25    2    1    2    0    0 -0.14531809920E+03  0.30967837886E+02  0.14754196451E+02  0.19472778159E+03  0.12499946269E+03 0.  0.
          5    1    3    3  501    0 -0.15984262415E+03  0.48577839889E+02  0.26345967961E+02  0.16912596208E+03  0.10000000000E+00 0.  1.
         -5    1    3    3    0  501  0.14524524946E+02 -0.17610002003E+02 -0.11591771510E+02  0.25601819509E+02  0.10000000000E+00 0.  1.
         21    1    1    2  504  502  0.14531809920E+03 -0.30967837886E+02  0.22845518005E+03  0.27252179038E+03  0.00000000000E+00 0. -1.
<mgrwt>
<rscale>  1 0.19416803E+03</rscale>
<asrwt>0</asrwt>
<pdfrwt beam="1">  1       21 0.54650688E-01 0.19416803E+03</pdfrwt>
<pdfrwt beam="2">  1       21 0.17233861E-01 0.19416803E+03</pdfrwt>
<totfact> 0.96125217E+04</totfact>
</mgrwt>
</event>
<event>
 6    1  0.4424270E-002  0.1264096E+03  0.7546771E-02  0.1232883E+00
         21   -1    0    0  504  502  0.00000000000E+00  0.00000000000E+00  0.51042714092E+03  0.51042714092E+03  0.00000000000E+00 0. -1.
         21   -1    0    0  502  503 -0.00000000000E+00 -0.00000000000E+00 -0.10353354926E+02  0.10353354926E+02  0.00000000000E+00 0. -1.
         25    2    1    2    0    0  0.15161589562E+02 -0.11112759710E+02  0.42607894038E+03  0.44443519865E+03  0.12500406048E+03 0.  0.
          5    1    3    3  501    0  0.31252614515E+01 -0.64493567792E+02  0.30200055671E+03  0.30882605751E+03  0.10000000000E+00 0.  1.
         -5    1    3    3    0  501  0.12036328110E+02  0.53380808082E+02  0.12407838367E+03  0.13560914113E+03  0.10000000000E+00 0.  1.
         21    1    1    2  504  503 -0.15161589562E+02  0.11112759710E+02  0.73994845616E+02  0.76345297198E+02  0.00000000000E+00 0. -1.
<mgrwt>
<rscale>  1 0.12640958E+03</rscale>
<asrwt>0</asrwt>
<pdfrwt beam="1">  1       21 0.78527233E-01 0.12640958E+03</pdfrwt>
<pdfrwt beam="2">  1       21 0.15928242E-02 0.12640958E+03</pdfrwt>
<totfact> 0.25406374E+06</totfact>
</mgrwt>
</event>
<event>
 6    1  0.4424270E-002  0.1279576E+03  0.7546771E-02  0.1230518E+00
         21   -1    0    0  503  502  0.00000000000E+00  0.00000000000E+00  0.25309737588E+02  0.25309737588E+02  0.00000000000E+00 0.  1.
         21   -1    0    0  504  503 -0.00000000000E+00 -0.00000000000E+00 -0.24786238620E+03  0.24786238620E+03  0.00000000000E+00 0.  1.
         25    2    1    2    0    0 -0.94535834688E+01 -0.25687144088E+02 -0.20126573558E+03  0.23849746044E+03  0.12499577076E+03 0.  0.
          5    1    3    3  501    0 -0.47254801595E+02  0.17198130963E+02 -0.31436748271E+02  0.59304899665E+02  0.10000000000E+00 0. -1.
         -5    1    3    3    0  501  0.37801218126E+02 -0.42885275051E+02 -0.16982898731E+03  0.17919256078E+03  0.10000000000E+00 0. -1.
         21    1    1    2  504  502  0.94535834688E+01  0.25687144088E+02 -0.21286913037E+02  0.34674663350E+02  0.00000000000E+00 0. -1.
<mgrwt>
<rscale>  1 0.12795758E+03</rscale>
<asrwt>0</asrwt>
<pdfrwt beam="1">  1       21 0.38938058E-02 0.12795758E+03</pdfrwt>
<pdfrwt beam="2">  1       21 0.38132675E-01 0.12795758E+03</pdfrwt>
<totfact> 0.26967040E+06</totfact>
</mgrwt>
</event>
<event>
 6    1  0.4424270E-002  0.1393535E+03  0.7546771E-02  0.1214201E+00
         21   -1    0    0  503  502  0.00000000000E+00  0.00000000000E+00  0.44668971938E+02  0.44668971938E+02  0.00000000000E+00 0. -1.
         21   -1    0    0  504  503 -0.00000000000E+00 -0.00000000000E+00 -0.22783831324E+03  0.22783831324E+03  0.00000000000E+00 0. -1.
         25    2    1    2    0    0 -0.42728244000E+02 -0.44407363316E+02 -0.11564089159E+03  0.18108623578E+03  0.12498676822E+03 0.  0.
          5    1    3    3  501    0 -0.66340806661E+02  0.20952814608E+02 -0.52036398193E+02  0.86878764985E+02  0.10000000000E+00 0. -1.
         -5    1    3    3    0  501  0.23612562661E+02 -0.65360177924E+02 -0.63604493395E+02  0.94207470795E+02  0.10000000000E+00 0. -1.
         21    1    1    2  504  502  0.42728244000E+02  0.44407363316E+02 -0.67528449710E+02  0.91421049394E+02  0.00000000000E+00 0. -1.
<mgrwt>
<rscale>  1 0.13935354E+03</rscale>
<asrwt>0</asrwt>
<pdfrwt beam="1">  1       21 0.68721494E-02 0.13935354E+03</pdfrwt>
<pdfrwt beam="2">  1       21 0.35052049E-01 0.13935354E+03</pdfrwt>
<totfact> 0.12256429E+06</totfact>
</mgrwt>
</event>
<event>
 6    1  0.4424270E-002  0.1995592E+03  0.7546771E-02  0.1150111E+00
         21   -1    0    0  504  502  0.00000000000E+00  0.00000000000E+00  0.83021559817E+02  0.83021559817E+02  0.00000000000E+00 0. -1.
         21   -1    0    0  502  503 -0.00000000000E+00 -0.00000000000E+00 -0.41492983964E+03  0.41492983964E+03  0.00000000000E+00 0. -1.
         25    2    1    2    0    0  0.15536396844E+03 -0.77000511972E+01 -0.25677166682E+03  0.32520081598E+03  0.12500651324E+03 0.  0.
          5    1    3    3  501    0  0.16277475236E+03  0.18531503480E+02 -0.24669881901E+03  0.29614076708E+03  0.10000000000E+00 0.  1.
         -5    1    3    3    0  501 -0.74107839176E+01 -0.26231554677E+02 -0.10072847817E+02  0.29060048902E+02  0.10000000000E+00 0.  1.
         21    1    1    2  504  503 -0.15536396844E+03  0.77000511972E+01 -0.75136612996E+02  0.17275058347E+03  0.00000000000E+00 0. -1.
<mgrwt>
<rscale>  1 0.19955922E+03</rscale>
<asrwt>0</asrwt>
<pdfrwt beam="1">  1       21 0.12772548E-01 0.19955922E+03</pdfrwt>
<pdfrwt beam="2">  1       21 0.63835360E-01 0.19955922E+03</pdfrwt>
<totfact> 0.11862272E+05</totfact>
</mgrwt>
</event>
<event>
 6    1  0.4424270E-002  0.1275474E+03  0.7546771E-02  0.1231141E+00
         21   -1    0    0  503  502  0.00000000000E+00  0.00000000000E+00  0.72232690400E+02  0.72232690400E+02  0.00000000000E+00 0.  1.
         21   -1    0    0  504  503 -0.00000000000E+00 -0.00000000000E+00 -0.92813466958E+02  0.92813466958E+02  0.00000000000E+00 0.  1.
         25    2    1    2    0    0 -0.10347462998E+02  0.23155455369E+02 -0.39366489202E+02  0.13348434335E+03  0.12500041738E+03 0.  0.
          5    1    3    3  501    0 -0.33995483813E+02 -0.36974909553E+02  0.11169844743E+02  0.51454953967E+02  0.10000000000E+00 0. -1.
         -5    1    3    3    0  501  0.23648020816E+02  0.60130364922E+02 -0.50536333944E+02  0.82029389384E+02  0.10000000000E+00 0. -1.
         21    1    1    2  504  502  0.10347462998E+02 -0.23155455369E+02  0.18785712643E+02  0.31561814006E+02  0.00000000000E+00 0.  1.
<mgrwt>
<rscale>  1 0.12754744E+03</rscale>
<asrwt>0</asrwt>
<pdfrwt beam="1">  1       21 0.11112722E-01 0.12754744E+03</pdfrwt>
<pdfrwt beam="2">  1       21 0.14278995E-01 0.12754744E+03</pdfrwt>
<totfact> 0.28585015E+06</totfact>
</mgrwt>
</event>
<event>
 6    1  0.4424270E-002  0.1274380E+03  0.7546771E-02  0.1231307E+00
         21   -1    0    0  503  502  0.00000000000E+00  0.00000000000E+00  0.76327209701E+02  0.76327209701E+02  0.00000000000E+00 0. -1.
         21   -1    0    0  504  503 -0.00000000000E+00 -0.00000000000E+00 -0.19434451009E+03  0.19434451009E+03  0.00000000000E+00 0.  1.
         25    2    1    2    0    0  0.23798993546E+02 -0.60904088936E+01 -0.17041857527E+03  0.21279790201E+03  0.12504787533E+03 0.  0.
          5    1    3    3  501    0  0.20465829786E+02 -0.50658199695E+01 -0.19088017722E+03  0.19204104971E+03  0.10000000000E+00 0.  1.
         -5    1    3    3    0  501  0.33331637600E+01 -0.10245889241E+01  0.20461601941E+02  0.20756852293E+02  0.10000000000E+00 0.  1.
         21    1    1    2  504  502 -0.23798993546E+02  0.60904088936E+01  0.52401274890E+02  0.57873817780E+02  0.00000000000E+00 0. -1.
<mgrwt>
<rscale>  1 0.12743805E+03</rscale>
<asrwt>0</asrwt>
<pdfrwt beam="1">  1       21 0.11742648E-01 0.12743805E+03</pdfrwt>
<pdfrwt beam="2">  1       21 0.29899155E-01 0.12743805E+03</pdfrwt>
<totfact> 0.65783458E+05</totfact>
</mgrwt>
</event>
<event>
 6    1  0.4424270E-002  0.1265757E+03  0.7546771E-02  0.1232627E+00
         21   -1    0    0  504  502  0.00000000000E+00  0.00000000000E+00  0.20072020938E+02  0.20072020938E+02  0.00000000000E+00 0. -1.
         21   -1    0    0  502  503 -0.00000000000E+00 -0.00000000000E+00 -0.41848131964E+03  0.41848131964E+03  0.00000000000E+00 0. -1.
         25    2    1    2    0    0 -0.19265426681E+02 -0.52937238833E+01 -0.39896879183E+03  0.41856601434E+03  0.12498892482E+03 0.  0.
          5    1    3    3  501    0 -0.13672003008E+02  0.10345402067E+02  0.19926513029E+01  0.17260697245E+02  0.10000000000E+00 0.  1.
         -5    1    3    3    0  501 -0.55934236735E+01 -0.15639125951E+02 -0.40096144313E+03  0.40130531709E+03  0.10000000000E+00 0.  1.
         21    1    1    2  504  503  0.19265426681E+02  0.52937238833E+01  0.55949312453E+00  0.19987326242E+02  0.00000000000E+00 0. -1.
<mgrwt>
<rscale>  1 0.12657571E+03</rscale>
<asrwt>0</asrwt>
<pdfrwt beam="1">  1       21 0.30880034E-02 0.12657571E+03</pdfrwt>
<pdfrwt beam="2">  1       21 0.64381738E-01 0.12657571E+03</pdfrwt>
<totfact> 0.13422297E+06</totfact>
</mgrwt>
</event>
<event>
 6    1  0.4424270E-002  0.1419493E+03  0.7546771E-02  0.1210730E+00
         21   -1    0    0  503  502  0.00000000000E+00  0.00000000000E+00  0.77441836362E+03  0.77441836362E+03  0.00000000000E+00 0. -1.
         21   -1    0    0  504  503 -0.00000000000E+00 -0.00000000000E+00 -0.24055453113E+02  0.24055453113E+02  0.00000000000E+00 0. -1.
         25    2    1    2    0    0 -0.25793616852E+02  0.62127892371E+02  0.20719417103E+03  0.25115538544E+03  0.12499766977E+03 0.  0.
          5    1    3    3  501    0 -0.17612513766E+01  0.29771982759E+02  0.20870225750E+03  0.21082247330E+03  0.10000000000E+00 0. -1.
         -5    1    3    3    0  501 -0.24032365475E+02  0.32355909612E+02 -0.15080864707E+01  0.40332912143E+02  0.10000000000E+00 0. -1.
         21    1    1    2  504  502  0.25793616852E+02 -0.62127892371E+02  0.54316873948E+03  0.54731843129E+03  0.00000000000E+00 0. -1.
<mgrwt>
<rscale>  1 0.14194930E+03</rscale>
<asrwt>0</asrwt>
<pdfrwt beam="1">  1       21 0.11914127E+00 0.14194930E+03</pdfrwt>
<pdfrwt beam="2">  1       21 0.37008395E-02 0.14194930E+03</pdfrwt>
<totfact> 0.24383132E+05</totfact>
</mgrwt>
</event>
<event>
 6    1  0.4424270E-002  0.1262914E+03  0.7546771E-02  0.1233065E+00
         21   -1    0    0  504  502  0.00000000000E+00  0.00000000000E+00  0.94403204907E+01  0.94403204907E+01  0.00000000000E+00 0.  1.
         21   -1    0    0  502  503 -0.00000000000E+00 -0.00000000000E+00 -0.62823039856E+03  0.62823039856E+03  0.00000000000E+00 0.  1.
         25    2    1    2    0    0 -0.13195477728E+02 -0.12196025631E+02 -0.59261015264E+03  0.60591773227E+03  0.12500656623E+03 0.  0.
          5    1    3    3  501    0  0.46473396058E+01  0.55761797939E+02 -0.27312529728E+03  0.27879815977E+03  0.10000000000E+00 0.  1.
         -5    1    3    3    0  501 -0.17842817334E+02 -0.67957823571E+02 -0.31948485536E+03  0.32711957251E+03  0.10000000000E+00 0.  1.
         21    1    1    2  504  503  0.13195477728E+02  0.12196025631E+02 -0.26179925437E+02  0.31752986782E+02  0.00000000000E+00 0.  1.
<mgrwt>
<rscale>  1 0.12629135E+03</rscale>
<asrwt>0</asrwt>
<pdfrwt beam="1">  1       21 0.14523567E-02 0.12629135E+03</pdfrwt>
<pdfrwt beam="2">  1       21 0.96650848E-01 0.12629135E+03</pdfrwt>
<totfact> 0.18372962E+06</totfact>
</mgrwt>
</event>
<event>
 6    1  0.4424270E-002  0.1286313E+03  0.7546771E-02  0.1229501E+00
         21   -1    0    0  503  502  0.00000000000E+00  0.00000000000E+00  0.44545308432E+01  0.44545308432E+01  0.00000000000E+00 0.  1.
         21   -1    0    0  504  503 -0.00000000000E+00 -0.00000000000E+00 -0.14836487210E+04  0.14836487210E+04  0.00000000000E+00 0.  1.
         25    2    1    2    0    0  0.30228245843E+02 -0.28255572367E+01 -0.13007603629E+04  0.13071050161E+04  0.12499708352E+03 0.  0.
          5    1    3    3  501    0  0.12918273991E+02 -0.28688560214E+02 -0.12221997729E+04  0.12226046827E+04  0.10000000000E+00 0.  1.
         -5    1    3    3    0  501  0.17309971852E+02  0.25863002977E+02 -0.78560589974E+02  0.84500333405E+02  0.10000000000E+00 0.  1.
         21    1    1    2  504  502 -0.30228245843E+02  0.28255572367E+01 -0.17843382727E+03  0.18099823573E+03  0.00000000000E+00 0.  1.
<mgrwt>
<rscale>  1 0.12863126E+03</rscale>
<asrwt>0</asrwt>
<pdfrwt beam="1">  1       21 0.68531330E-03 0.12863126E+03</pdfrwt>
<pdfrwt beam="2">  1       21 0.22825336E+00 0.12863126E+03</pdfrwt>
<totfact> 0.62865995E+05</totfact>
</mgrwt>
</event>
<event>
 6    1  0.4424270E-002  0.1278002E+03  0.7546771E-02  0.1230757E+00
         21   -1    0    0  503  502  0.00000000000E+00  0.00000000000E+00  0.93705774286E+01  0.93705774286E+01  0.00000000000E+00 0.  1.
         21   -1    0    0  504  503 -0.00000000000E+00 -0.00000000000E+00 -0.71292088751E+03  0.71292088751E+03  0.00000000000E+00 0.  1.
         25    2    1    2    0    0  0.23573224909E+02  0.12414859559E+02 -0.65040369812E+03  0.66284074557E+03  0.12499223091E+03 0.  0.
          5    1    3    3  501    0  0.74490472102E+02  0.61567884861E+00 -0.33973749905E+03  0.34780855043E+03  0.10000000000E+00 0. -1.
         -5    1    3    3    0  501 -0.50917247194E+02  0.11799180710E+02 -0.31066619907E+03  0.31503219514E+03  0.10000000000E+00 0. -1.
         21    1    1    2  504  502 -0.23573224909E+02 -0.12414859559E+02 -0.53146611958E+02  0.59450719366E+02  0.00000000000E+00 0.  1.
<mgrwt>
<rscale>  1 0.12780017E+03</rscale>
<asrwt>0</asrwt>
<pdfrwt beam="1">  1       21 0.14416272E-02 0.12780017E+03</pdfrwt>
<pdfrwt beam="2">  1       21 0.10968015E+00 0.12780017E+03</pdfrwt>
<totfact> 0.13801125E+06</totfact>
</mgrwt>
</event>
<event>
 6    1  0.4424270E-002  0.1279525E+03  0.7546771E-02  0.1230526E+00
         21   -1    0    0  504  502  0.00000000000E+00  0.00000000000E+00  0.33831617347E+03  0.33831617347E+03  0.00000000000E+00 0.  1.
         21   -1    0    0  502  503 -0.00000000000E+00 -0.00000000000E+00 -0.48191487543E+02  0.48191487543E+02  0.00000000000E+00 0. -1.
         25    2    1    2    0    0 -0.65870752729E+01 -0.26601241204E+02  0.38817998767E+02  0.13371116854E+03  0.12498329477E+03 0.  0.
          5    1    3    3  501    0 -0.46148832166E+02 -0.58138166078E+02  0.84599950217E+01  0.74708383606E+02  0.10000000000E+00 0.  1.
         -5    1    3    3    0  501  0.39561756893E+02  0.31536924874E+02  0.30358003745E+02  0.59002784937E+02  0.10000000000E+00 0.  1.
         21    1    1    2  504  503  0.65870752729E+01  0.26601241204E+02  0.25130668716E+03  0.25279649247E+03  0.00000000000E+00 0.  1.
<mgrwt>
<rscale>  1 0.12795249E+03</rscale>
<asrwt>0</asrwt>
<pdfrwt beam="1">  1       21 0.52048640E-01 0.12795249E+03</pdfrwt>
<pdfrwt beam="2">  1       21 0.74140752E-02 0.12795249E+03</pdfrwt>
<totfact> 0.48427515E+05</totfact>
</mgrwt>
</event>
<event>
 6    1  0.4424270E-002  0.1300431E+03  0.7546771E-02  0.1227392E+00
         21   -1    0    0  503  502  0.00000000000E+00  0.00000000000E+00  0.21090072745E+02  0.21090072745E+02  0.00000000000E+00 0.  1.
         21   -1    0    0  504  503 -0.00000000000E+00 -0.00000000000E+00 -0.56641486716E+03  0.56641486716E+03  0.00000000000E+00 0.  1.
         25    2    1    2    0    0  0.24884238085E+01  0.35706849558E+02 -0.53452672407E+03  0.55011818180E+03  0.12502009376E+03 0.  0.
          5    1    3    3  501    0  0.37791979996E+02  0.54182095674E+00 -0.45296895810E+03  0.45454308303E+03  0.10000000000E+00 0. -1.
         -5    1    3    3    0  501 -0.35303556187E+02  0.35165028601E+02 -0.81557765968E+02  0.95575098774E+02  0.10000000000E+00 0. -1.
         21    1    1    2  504  502 -0.24884238085E+01 -0.35706849558E+02 -0.10798070344E+02  0.37386758104E+02  0.00000000000E+00 0.  1.
<mgrwt>
<rscale>  1 0.13004305E+03</rscale>
<asrwt>0</asrwt>
<pdfrwt beam="1">  1       21 0.32446270E-02 0.13004305E+03</pdfrwt>
<pdfrwt beam="2">  1       21 0.87140738E-01 0.13004305E+03</pdfrwt>
<totfact> 0.63429716E+05</totfact>
</mgrwt>
</event>
<event>
 6    1  0.4424270E-002  0.1486617E+03  0.7546771E-02  0.1202127E+00
         21   -1    0    0  503  502  0.00000000000E+00  0.00000000000E+00  0.24242156013E+03  0.24242156013E+03  0.00000000000E+00 0. -1.
         21   -1    0    0  504  503 -0.00000000000E+00 -0.00000000000E+00 -0.63679447191E+02  0.63679447191E+02  0.00000000000E+00 0. -1.
         25    2    1    2    0    0  0.57746193644E+02  0.56045396448E+02  0.55031692236E+02  0.15852059692E+03  0.12499833261E+03 0.  0.
          5    1    3    3  501    0  0.87876206147E+02  0.36206470366E+02  0.71431029375E+02  0.11889296893E+03  0.10000000000E+00 0.  1.
         -5    1    3    3    0  501 -0.30130012504E+02  0.19838926083E+02 -0.16399337140E+02  0.39627627991E+02  0.10000000000E+00 0.  1.
         21    1    1    2  504  502 -0.57746193644E+02 -0.56045396448E+02  0.12371042071E+03  0.14758041040E+03  0.00000000000E+00 0. -1.
<mgrwt>
<rscale>  1 0.14866167E+03</rscale>
<asrwt>0</asrwt>
<pdfrwt beam="1">  1       21 0.37295624E-01 0.14866167E+03</pdfrwt>
<pdfrwt beam="2">  1       21 0.97968381E-02 0.14866167E+03</pdfrwt>
<totfact> 0.58663591E+05</totfact>
</mgrwt>
</event>
<event>
 6    1  0.4424270E-002  0.1316062E+03  0.7546771E-02  0.1225092E+00
         21   -1    0    0  504  502  0.00000000000E+00  0.00000000000E+00  0.63215567522E+01  0.63215567522E+01  0.00000000000E+00 0. -1.
         21   -1    0    0  502  503 -0.00000000000E+00 -0.00000000000E+00 -0.16452136018E+04  0.16452136018E+04  0.00000000000E+00 0.  1.
         25    2    1    2    0    0 -0.22731550029E+02  0.34332061250E+02 -0.15205453420E+04  0.15262301071E+04  0.12499915581E+03 0.  0.
          5    1    3    3  501    0  0.46817967602E+02  0.66885608860E+01 -0.33462546213E+03  0.33795098586E+03  0.10000000000E+00 0. -1.
         -5    1    3    3    0  501 -0.69549517632E+02  0.27643500364E+02 -0.11859198798E+04  0.11882791212E+04  0.10000000000E+00 0. -1.
         21    1    1    2  504  503  0.22731550029E+02 -0.34332061250E+02 -0.11834670306E+03  0.12530505146E+03  0.00000000000E+00 0. -1.
<mgrwt>
<rscale>  1 0.13160624E+03</rscale>
<asrwt>0</asrwt>
<pdfrwt beam="1">  1       21 0.97254643E-03 0.13160624E+03</pdfrwt>
<pdfrwt beam="2">  1       21 0.25310998E+00 0.13160624E+03</pdfrwt>
<totfact> 0.26003802E+05</totfact>
</mgrwt>
</event>
<event>
 6    1  0.4424270E-002  0.1453640E+03  0.7546771E-02  0.1206288E+00
         21   -1    0    0  503  502  0.00000000000E+00  0.00000000000E+00  0.15617464890E+03  0.15617464890E+03  0.00000000000E+00 0.  1.
         21   -1    0    0  504  503 -0.00000000000E+00 -0.00000000000E+00 -0.78461932899E+02  0.78461932899E+02  0.00000000000E+00 0.  1.
         25    2    1    2    0    0 -0.17859418189E+02 -0.72128873580E+02  0.65063297292E+02  0.15926058419E+03  0.12493665515E+03 0.  0.
          5    1    3    3  501    0 -0.10858106363E+02 -0.10532698619E+03  0.66956832291E+02  0.12527928753E+03  0.10000000000E+00 0. -1.
         -5    1    3    3    0  501 -0.70013118258E+01  0.33198112609E+02 -0.18935349988E+01  0.33981296663E+02  0.10000000000E+00 0. -1.
         21    1    1    2  504  502  0.17859418189E+02  0.72128873580E+02  0.12649418712E+02  0.75375997610E+02  0.00000000000E+00 0.  1.
<mgrwt>
<rscale>  1 0.14536403E+03</rscale>
<asrwt>0</asrwt>
<pdfrwt beam="1">  1       21 0.24026869E-01 0.14536403E+03</pdfrwt>
<pdfrwt beam="2">  1       21 0.12071067E-01 0.14536403E+03</pdfrwt>
<totfact> 0.95064681E+05</totfact>
</mgrwt>
</event>
<event>
 6    1  0.4424270E-002  0.1280166E+03  0.7546771E-02  0.1230429E+00
         21   -1    0    0  504  502  0.00000000000E+00  0.00000000000E+00  0.12286682537E+03  0.12286682537E+03  0.00000000000E+00 0. -1.
         21   -1    0    0  502  503 -0.00000000000E+00 -0.00000000000E+00 -0.60527254597E+02  0.60527254597E+02  0.00000000000E+00 0. -1.
         25    2    1    2    0    0 -0.27201957918E+02 -0.48291101705E+01  0.15415967687E+02  0.12894142763E+03  0.12499989152E+03 0.  0.
          5    1    3    3  501    0 -0.17071529630E+02  0.68741571531E+01 -0.54400697461E+02  0.57429409232E+02  0.10000000000E+00 0.  1.
         -5    1    3    3    0  501 -0.10130428288E+02 -0.11703267324E+02  0.69816665148E+02  0.71512018401E+02  0.10000000000E+00 0.  1.
         21    1    1    2  504  503  0.27201957918E+02  0.48291101705E+01  0.46923603081E+02  0.54452652329E+02  0.00000000000E+00 0. -1.
<mgrwt>
<rscale>  1 0.12801656E+03</rscale>
<asrwt>0</asrwt>
<pdfrwt beam="1">  1       21 0.18902588E-01 0.12801656E+03</pdfrwt>
<pdfrwt beam="2">  1       21 0.93118853E-02 0.12801656E+03</pdfrwt>
<totfact> 0.23410254E+06</totfact>
</mgrwt>
</event>
<event>
 6    1  0.4424270E-002  0.1262706E+03  0.7546771E-02  0.1233097E+00
         21   -1    0    0  504  502  0.00000000000E+00  0.00000000000E+00  0.27449593728E+03  0.27449593728E+03  0.00000000000E+00 0. -1.
         21   -1    0    0  502  503 -0.00000000000E+00 -0.00000000000E+00 -0.50186337609E+02  0.50186337609E+02  0.00000000000E+00 0. -1.
         25    2    1    2    0    0 -0.14505298419E+02  0.10270592017E+02  0.30293285719E+02  0.12985358393E+03  0.12501352469E+03 0.  0.
          5    1    3    3  501    0  0.47466192895E+02  0.28357237009E+02  0.34478740610E+02  0.65161076669E+02  0.10000000000E+00 0. -1.
         -5    1    3    3    0  501 -0.61971491314E+02 -0.18086644991E+02 -0.41854548901E+01  0.64692507258E+02  0.10000000000E+00 0. -1.
         21    1    1    2  504  503  0.14505298419E+02 -0.10270592017E+02  0.19401631395E+03  0.19482869096E+03  0.00000000000E+00 0. -1.
<mgrwt>
<rscale>  1 0.12627062E+03</rscale>
<asrwt>0</asrwt>
<pdfrwt beam="1">  1       21 0.42230143E-01 0.12627062E+03</pdfrwt>
<pdfrwt beam="2">  1       21 0.77209752E-02 0.12627062E+03</pdfrwt>
<totfact> 0.69242756E+05</totfact>
</mgrwt>
</event>
<event>
 6    1  0.4424270E-002  0.1259745E+03  0.7546771E-02  0.1233554E+00
         21   -1    0    0  503  502  0.00000000000E+00  0.00000000000E+00  0.63990758850E+03  0.63990758850E+03  0.00000000000E+00 0.  1.
         21   -1    0    0  504  503 -0.00000000000E+00 -0.00000000000E+00 -0.82729429994E+01  0.82729429994E+01  0.00000000000E+00 0.  1.
         25    2    1    2    0    0 -0.15628768824E+02 -0.59807274406E-01  0.50017548654E+03  0.51579559102E+03  0.12500124954E+03 0.  0.
          5    1    3    3  501    0  0.31951515276E+02  0.11134569012E+02  0.37355419639E+02  0.50401540968E+02  0.10000000000E+00 0. -1.
         -5    1    3    3    0  501 -0.47580284100E+02 -0.11194376286E+02  0.46282006690E+03  0.46539405005E+03  0.10000000000E+00 0. -1.
         21    1    1    2  504  502  0.15628768824E+02  0.59807274406E-01  0.13145915896E+03  0.13238494048E+03  0.00000000000E+00 0. -1.
<mgrwt>
<rscale>  1 0.12597450E+03</rscale>
<asrwt>0</asrwt>
<pdfrwt beam="1">  1       21 0.98447282E-01 0.12597450E+03</pdfrwt>
<pdfrwt beam="2">  1       21 0.12727610E-02 0.12597450E+03</pdfrwt>
<totfact> 0.21715426E+06</totfact>
</mgrwt>
</event>
<event>
 6    1  0.4424270E-002  0.1273010E+03  0.7546771E-02  0.1231516E+00
         21   -1    0    0  504  502  0.00000000000E+00  0.00000000000E+00  0.14990071876E+03  0.14990071876E+03  0.00000000000E+00 0.  1.
         21   -1    0    0  502  503 -0.00000000000E+00 -0.00000000000E+00 -0.41285580814E+02  0.41285580814E+02  0.00000000000E+00 0.  1.
         25    2    1    2    0    0  0.17323260453E+02  0.16735364876E+02  0.68933848310E+02  0.14476677203E+03  0.12500150020E+03 0.  0.
          5    1    3    3  501    0  0.44312197892E+01  0.24317156868E+02 -0.33285199029E+02  0.41459308983E+02  0.10000000000E+00 0. -1.
         -5    1    3    3    0  501  0.12892040664E+02 -0.75817919913E+01  0.10221904734E+03  0.10330746305E+03  0.10000000000E+00 0. -1.
         21    1    1    2  504  503 -0.17323260453E+02 -0.16735364876E+02  0.39681289640E+02  0.46419527548E+02  0.00000000000E+00 0.  1.
<mgrwt>
<rscale>  1 0.12730099E+03</rscale>
<asrwt>0</asrwt>
<pdfrwt beam="1">  1       21 0.23061649E-01 0.12730099E+03</pdfrwt>
<pdfrwt beam="2">  1       21 0.63516279E-02 0.12730099E+03</pdfrwt>
<totfact> 0.31245138E+06</totfact>
</mgrwt>
</event>
<event>
 6    1  0.4424270E-002  0.1299137E+03  0.7546771E-02  0.1227584E+00
         21   -1    0    0  504  502  0.00000000000E+00  0.00000000000E+00  0.52328039550E+02  0.52328039550E+02  0.00000000000E+00 0. -1.
         21   -1    0    0  502  503 -0.00000000000E+00 -0.00000000000E+00 -0.66029015830E+03  0.66029015830E+03  0.00000000000E+00 0. -1.
         25    2    1    2    0    0  0.30830208696E+02  0.17389021538E+02 -0.64700490666E+03  0.65991887027E+03  0.12499874502E+03 0.  0.
          5    1    3    3  501    0 -0.37927800641E+02 -0.23760458249E+02 -0.32628674963E+03  0.32934196578E+03  0.10000000000E+00 0. -1.
         -5    1    3    3    0  501  0.68758009337E+02  0.41149479787E+02 -0.32071815703E+03  0.33057690449E+03  0.10000000000E+00 0. -1.
         21    1    1    2  504  503 -0.30830208696E+02 -0.17389021538E+02  0.39042787917E+02  0.52699327573E+02  0.00000000000E+00 0. -1.
<mgrwt>
<rscale>  1 0.12991369E+03</rscale>
<asrwt>0</asrwt>
<pdfrwt beam="1">  1       21 0.80504680E-02 0.12991369E+03</pdfrwt>
<pdfrwt beam="2">  1       21 0.10158310E+00 0.12991369E+03</pdfrwt>
<totfact> 0.96447270E+04</totfact>
</mgrwt>
</event>
<event>
 6    1  0.4424270E-002  0.1303203E+03  0.7546771E-02  0.1226981E+00
         21   -1    0    0  504  502  0.00000000000E+00  0.00000000000E+00  0.13760114422E+04  0.13760114422E+04  0.00000000000E+00 0.  1.
         21   -1    0    0  502  503 -0.00000000000E+00 -0.00000000000E+00 -0.59750001542E+01  0.59750001542E+01  0.00000000000E+00 0.  1.
         25    2    1    2    0    0  0.34419981559E+02  0.13180029273E+02  0.78101544811E+03  0.79181343416E+03  0.12499974412E+03 0.  0.
          5    1    3    3  501    0  0.11099304296E+02  0.60812014083E+02  0.22703667893E+03  0.23530184698E+03  0.10000000000E+00 0.  1.
         -5    1    3    3    0  501  0.23320677263E+02 -0.47631984810E+02  0.55397876918E+03  0.55651158718E+03  0.10000000000E+00 0.  1.
         21    1    1    2  504  503 -0.34419981559E+02 -0.13180029273E+02  0.58902099392E+03  0.59017300818E+03  0.00000000000E+00 0.  1.
<mgrwt>
<rscale>  1 0.13032031E+03</rscale>
<asrwt>0</asrwt>
<pdfrwt beam="1">  1       21 0.21169381E+00 0.13032031E+03</pdfrwt>
<pdfrwt beam="2">  1       21 0.91923189E-03 0.13032031E+03</pdfrwt>
<totfact> 0.49878306E+05</totfact>
</mgrwt>
</event>
<event>
 6    1  0.4424270E-002  0.1276031E+03  0.7546771E-02  0.1231056E+00
         21   -1    0    0  503  502  0.00000000000E+00  0.00000000000E+00  0.75703261238E+02  0.75703261238E+02  0.00000000000E+00 0. -1.
         21   -1    0    0  504  503 -0.00000000000E+00 -0.00000000000E+00 -0.89416723812E+02  0.89416723812E+02  0.00000000000E+00 0. -1.
         25    2    1    2    0    0  0.16310652914E+02 -0.19690564462E+02 -0.34481188905E+02  0.13217982439E+03  0.12501519052E+03 0.  0.
          5    1    3    3  501    0 -0.47207321432E+02 -0.29213514322E+02  0.66472137226E+01  0.55912038651E+02  0.10000000000E+00 0. -1.
         -5    1    3    3    0  501  0.63517974345E+02  0.95229498599E+01 -0.41128402628E+02  0.76267785740E+02  0.10000000000E+00 0. -1.
         21    1    1    2  504  502 -0.16310652914E+02  0.19690564462E+02  0.20767726331E+02  0.32940160659E+02  0.00000000000E+00 0. -1.
<mgrwt>
<rscale>  1 0.12760311E+03</rscale>
<asrwt>0</asrwt>
<pdfrwt beam="1">  1       21 0.11646656E-01 0.12760311E+03</pdfrwt>
<pdfrwt beam="2">  1       21 0.13756419E-01 0.12760311E+03</pdfrwt>
<totfact> 0.28132886E+06</totfact>
</mgrwt>
</event>
<event>
 6    1  0.4424270E-002  0.1318547E+03  0.7546771E-02  0.1224729E+00
         21   -1    0    0  503  502  0.00000000000E+00  0.00000000000E+00  0.19630081805E+03  0.19630081805E+03  0.00000000000E+00 0. -1.
         21   -1    0    0  504  503 -0.00000000000E+00 -0.00000000000E+00 -0.55217563703E+02  0.55217563703E+02  0.00000000000E+00 0. -1.
         25    2    1    2    0    0 -0.19256743197E+02 -0.37263431065E+02  0.33494694630E+02  0.13604248109E+03  0.12500510645E+03 0.  0.
          5    1    3    3  501    0 -0.51818157722E+02 -0.65459058902E+02  0.35093145736E+01  0.83560368302E+02  0.10000000000E+00 0. -1.
         -5    1    3    3    0  501  0.32561414525E+02  0.28195627837E+02  0.29985380057E+02  0.52482112783E+02  0.10000000000E+00 0. -1.
         21    1    1    2  504  502  0.19256743197E+02  0.37263431065E+02  0.10758855972E+03  0.11547590067E+03  0.00000000000E+00 0. -1.
<mgrwt>
<rscale>  1 0.13185470E+03</rscale>
<asrwt>0</asrwt>
<pdfrwt beam="1">  1       21 0.30200125E-01 0.13185470E+03</pdfrwt>
<pdfrwt beam="2">  1       21 0.84950099E-02 0.13185470E+03</pdfrwt>
<totfact> 0.11371107E+06</totfact>
</mgrwt>
</event>
<event>
 6    1  0.4424270E-002  0.1289136E+03  0.7546771E-02  0.1229077E+00
         21   -1    0    0  504  502  0.00000000000E+00  0.00000000000E+00  0.11912063476E+03  0.11912063476E+03  0.00000000000E+00 0.  1.
         21   -1    0    0  502  503 -0.00000000000E+00 -0.00000000000E+00 -0.15006784108E+03  0.15006784108E+03  0.00000000000E+00 0.  1.
         25    2    1    2    0    0  0.31269346444E+02  0.41096101432E+01 -0.11913362691E+03  0.17553215893E+03  0.12499622728E+03 0.  0.
          5    1    3    3  501    0  0.37078990850E+02  0.44699369530E+02 -0.12128433904E+03  0.13447225028E+03  0.10000000000E+00 0.  1.
         -5    1    3    3    0  501 -0.58096444065E+01 -0.40589759387E+02  0.21507121371E+01  0.41059908645E+02  0.10000000000E+00 0.  1.
         21    1    1    2  504  503 -0.31269346444E+02 -0.41096101432E+01  0.88186420584E+02  0.93656316914E+02  0.00000000000E+00 0.  1.
<mgrwt>
<rscale>  1 0.12891361E+03</rscale>
<asrwt>0</asrwt>
<pdfrwt beam="1">  1       21 0.18326252E-01 0.12891361E+03</pdfrwt>
<pdfrwt beam="2">  1       21 0.23087360E-01 0.12891361E+03</pdfrwt>
<totfact> 0.48256405E+05</totfact>
</mgrwt>
</event>
<event>
 6    1  0.4424270E-002  0.1271061E+03  0.7546771E-02  0.1231814E+00
         21   -1    0    0  503  502  0.00000000000E+00  0.00000000000E+00  0.23381533526E+03  0.23381533526E+03  0.00000000000E+00 0. -1.
         21   -1    0    0  504  503 -0.00000000000E+00 -0.00000000000E+00 -0.18772904786E+03  0.18772904786E+03  0.00000000000E+00 0. -1.
         25    2    1    2    0    0  0.20588737893E+01 -0.22951619626E+02 -0.16551660906E+03  0.20869043884E+03  0.12499974234E+03 0.  0.
          5    1    3    3  501    0 -0.16986580231E+02  0.48836127878E+02 -0.81851096655E+02  0.96814892025E+02  0.10000000000E+00 0. -1.
         -5    1    3    3    0  501  0.19045454020E+02 -0.71787747504E+02 -0.83665512403E+02  0.11187554682E+03  0.10000000000E+00 0. -1.
         21    1    1    2  504  502 -0.20588737893E+01  0.22951619626E+02  0.21160289646E+03  0.21285394428E+03  0.00000000000E+00 0. -1.
<mgrwt>
<rscale>  1 0.12710606E+03</rscale>
<asrwt>0</asrwt>
<pdfrwt beam="1">  1       21 0.35971590E-01 0.12710606E+03</pdfrwt>
<pdfrwt beam="2">  1       21 0.28881392E-01 0.12710606E+03</pdfrwt>
<totfact> 0.87820358E+04</totfact>
</mgrwt>
</event>
<event>
 6    1  0.4424270E-002  0.1264791E+03  0.7546771E-02  0.1232776E+00
         21   -1    0    0  503  502  0.00000000000E+00  0.00000000000E+00  0.31912142937E+02  0.31912142937E+02  0.00000000000E+00 0. -1.
         21   -1    0    0  504  503 -0.00000000000E+00 -0.00000000000E+00 -0.16903052055E+03  0.16903052055E+03  0.00000000000E+00 0. -1.
         25    2    1    2    0    0 -0.16686620916E+02 -0.97571540164E+01 -0.10988205403E+03  0.16754412019E+03  0.12499328398E+03 0.  0.
          5    1    3    3  501    0  0.34589810646E+02 -0.80709274101E+01 -0.11067376893E+03  0.11623376445E+03  0.10000000000E+00 0. -1.
         -5    1    3    3    0  501 -0.51276431562E+02 -0.16862266062E+01  0.79171489274E+00  0.51310355742E+02  0.10000000000E+00 0. -1.
         21    1    1    2  504  502  0.16686620916E+02  0.97571540164E+01 -0.27236323576E+02  0.33398543292E+02  0.00000000000E+00 0. -1.
<mgrwt>
<rscale>  1 0.12647911E+03</rscale>
<asrwt>0</asrwt>
<pdfrwt beam="1">  1       21 0.49095604E-02 0.12647911E+03</pdfrwt>
<pdfrwt beam="2">  1       21 0.26004696E-01 0.12647911E+03</pdfrwt>
<totfact> 0.38476224E+06</totfact>
</mgrwt>
</event>
<event>
 6    1  0.4424270E-002  0.1381599E+03  0.7546771E-02  0.1215827E+00
         21   -1    0    0  503  502  0.00000000000E+00  0.00000000000E+00  0.14682825658E+03  0.14682825658E+03  0.00000000000E+00 0.  1.
         21   -1    0    0  504  503 -0.00000000000E+00 -0.00000000000E+00 -0.66751517358E+02  0.66751517358E+02  0.00000000000E+00 0.  1.
         25    2    1    2    0    0  0.94549555068E+01 -0.58085938399E+02  0.65767035361E+02  0.15301460204E+03  0.12499917229E+03 0.  0.
          5    1    3    3  501    0  0.37883067982E+02  0.16516847864E+02  0.60153057468E+02  0.72981733508E+02  0.10000000000E+00 0. -1.
         -5    1    3    3    0  501 -0.28428112475E+02 -0.74602786263E+02  0.56139778937E+01  0.80032868529E+02  0.10000000000E+00 0. -1.
         21    1    1    2  504  502 -0.94549555068E+01  0.58085938399E+02  0.14309703865E+02  0.60565171906E+02  0.00000000000E+00 0.  1.
<mgrwt>
<rscale>  1 0.13815993E+03</rscale>
<asrwt>0</asrwt>
<pdfrwt beam="1">  1       21 0.22588963E-01 0.13815993E+03</pdfrwt>
<pdfrwt beam="2">  1       21 0.10269464E-01 0.13815993E+03</pdfrwt>
<totfact> 0.14198010E+06</totfact>
</mgrwt>
</event>
<event>
 6    1  0.4424270E-002  0.1270506E+03  0.7546771E-02  0.1231899E+00
         21   -1    0    0  504  502  0.00000000000E+00  0.00000000000E+00  0.22312296907E+03  0.22312296907E+03  0.00000000000E+00 0. -1.
         21   -1    0    0  502  503 -0.00000000000E+00 -0.00000000000E+00 -0.97875275413E+03  0.97875275413E+03  0.00000000000E+00 0. -1.
         25    2    1    2    0    0 -0.17014546627E+02  0.15092254673E+02 -0.97403669633E+03  0.98228781406E+03  0.12499837165E+03 0.  0.
          5    1    3    3  501    0 -0.43516143499E+02  0.19704424045E+02 -0.92600547811E+03  0.92723679531E+03  0.10000000000E+00 0.  1.
         -5    1    3    3    0  501  0.26501596872E+02 -0.46121693722E+01 -0.48031218213E+02  0.55051018757E+02  0.10000000000E+00 0.  1.
         21    1    1    2  504  503  0.17014546627E+02 -0.15092254673E+02  0.21840691127E+03  0.21958790914E+03  0.00000000000E+00 0. -1.
<mgrwt>
<rscale>  1 0.12705064E+03</rscale>
<asrwt>0</asrwt>
<pdfrwt beam="1">  1       21 0.34326611E-01 0.12705064E+03</pdfrwt>
<pdfrwt beam="2">  1       21 0.15057735E+00 0.12705064E+03</pdfrwt>
<totfact> 0.25976094E+03</totfact>
</mgrwt>
</event>
<event>
 6    1  0.4424270E-002  0.1291116E+03  0.7546771E-02  0.1228780E+00
         21   -1    0    0  503  502  0.00000000000E+00  0.00000000000E+00  0.15370532061E+03  0.15370532061E+03  0.00000000000E+00 0. -1.
         21   -1    0    0  504  503 -0.00000000000E+00 -0.00000000000E+00 -0.56392650004E+02  0.56392650004E+02  0.00000000000E+00 0. -1.
         25    2    1    2    0    0  0.43183589174E+01 -0.32047507878E+02  0.25870298397E+02  0.13167792514E+03  0.12499645053E+03 0.  0.
          5    1    3    3  501    0  0.31207734567E+02 -0.25766864450E+01 -0.42337539625E+02  0.52659655062E+02  0.10000000000E+00 0. -1.
         -5    1    3    3    0  501 -0.26889375649E+02 -0.29470821433E+02  0.68207838022E+02  0.79018270080E+02  0.10000000000E+00 0. -1.
         21    1    1    2  504  502 -0.43183589174E+01  0.32047507878E+02  0.71442372207E+02  0.78420045470E+02  0.00000000000E+00 0. -1.
<mgrwt>
<rscale>  1 0.12911159E+03</rscale>
<asrwt>0</asrwt>
<pdfrwt beam="1">  1       21 0.23646972E-01 0.12911159E+03</pdfrwt>
<pdfrwt beam="2">  1       21 0.86757924E-02 0.12911159E+03</pdfrwt>
<totfact> 0.17462891E+06</totfact>
</mgrwt>
</event>
<event>
 6    1  0.4424270E-002  0.1590135E+03  0.7546771E-02  0.1189815E+00
         21   -1    0    0  504  502  0.00000000000E+00  0.00000000000E+00  0.37127789688E+03  0.37127789688E+03  0.00000000000E+00 0. -1.
         21   -1    0    0  502  503 -0.00000000000E+00 -0.00000000000E+00 -0.46418814801E+02  0.46418814801E+02  0.00000000000E+00 0. -1.
         25    2    1    2    0    0 -0.89472121223E+02  0.40672484068E+02  0.23972315184E+03  0.28766733787E+03  0.12500318520E+03 0.  0.
          5    1    3    3  501    0 -0.10410491170E+03  0.59222567524E+02  0.23472633484E+03  0.26351775540E+03  0.10000000000E+00 0. -1.
         -5    1    3    3    0  501  0.14632790472E+02 -0.18550083456E+02  0.49968169992E+01  0.24149582467E+02  0.10000000000E+00 0. -1.
         21    1    1    2  504  503  0.89472121223E+02 -0.40672484068E+02  0.85135930233E+02  0.13002937381E+03  0.00000000000E+00 0. -1.
<mgrwt>
<rscale>  1 0.15901355E+03</rscale>
<asrwt>0</asrwt>
<pdfrwt beam="1">  1       21 0.57119674E-01 0.15901355E+03</pdfrwt>
<pdfrwt beam="2">  1       21 0.71413564E-02 0.15901355E+03</pdfrwt>
<totfact> 0.42351977E+05</totfact>
</mgrwt>
</event>
<event>
 6    1  0.4424270E-002  0.1271944E+03  0.7546771E-02  0.1231679E+00
         21   -1    0    0  503  502  0.00000000000E+00  0.00000000000E+00  0.15484449353E+03  0.15484449353E+03  0.00000000000E+00 0. -1.
         21   -1    0    0  504  503 -0.00000000000E+00 -0.00000000000E+00 -0.39952736170E+02  0.39952736170E+02  0.00000000000E+00 0. -1.
         25    2    1    2    0    0 -0.28906040141E+01  0.23338658859E+02  0.72728804908E+02  0.14651925182E+03  0.12500145399E+03 0.  0.
          5    1    3    3  501    0  0.34352973397E+01  0.20690706881E+02 -0.33795155750E+02  0.39774730309E+02  0.10000000000E+00 0. -1.
         -5    1    3    3    0  501 -0.63259013538E+01  0.26479519787E+01  0.10652396066E+03  0.10674452151E+03  0.10000000000E+00 0. -1.
         21    1    1    2  504  502  0.28906040141E+01 -0.23338658859E+02  0.42162952450E+02  0.48277977881E+02  0.00000000000E+00 0. -1.
<mgrwt>
<rscale>  1 0.12719439E+03</rscale>
<asrwt>0</asrwt>
<pdfrwt beam="1">  1       21 0.23822230E-01 0.12719439E+03</pdfrwt>
<pdfrwt beam="2">  1       21 0.61465749E-02 0.12719439E+03</pdfrwt>
<totfact> 0.31084139E+06</totfact>
</mgrwt>
</event>
<event>
 6    1  0.4424270E-002  0.1279098E+03  0.7546771E-02  0.1230591E+00
         21   -1    0    0  504  502  0.00000000000E+00  0.00000000000E+00  0.58343055633E+02  0.58343055633E+02  0.00000000000E+00 0. -1.
         21   -1    0    0  502  503 -0.00000000000E+00 -0.00000000000E+00 -0.17393038298E+03  0.17393038298E+03  0.00000000000E+00 0. -1.
         25    2    1    2    0    0  0.21586173988E+02 -0.16436581740E+02 -0.14425914181E+03  0.19279943360E+03  0.12499918989E+03 0.  0.
          5    1    3    3  501    0  0.45565985929E+02  0.24182399648E+02 -0.13528189887E+03  0.14478345792E+03  0.10000000000E+00 0.  1.
         -5    1    3    3    0  501 -0.23979811941E+02 -0.40618981387E+02 -0.89772429451E+01  0.48015975681E+02  0.10000000000E+00 0.  1.
         21    1    1    2  504  503 -0.21586173988E+02  0.16436581740E+02  0.28671814466E+02  0.39474005010E+02  0.00000000000E+00 0. -1.
<mgrwt>
<rscale>  1 0.12790982E+03</rscale>
<asrwt>0</asrwt>
<pdfrwt beam="1">  1       21 0.89758549E-02 0.12790982E+03</pdfrwt>
<pdfrwt beam="2">  1       21 0.26758520E-01 0.12790982E+03</pdfrwt>
<totfact> 0.13028930E+06</totfact>
</mgrwt>
</event>
<event>
 6    1  0.4424270E-002  0.1409812E+03  0.7546771E-02  0.1212015E+00
         21   -1    0    0  504  502  0.00000000000E+00  0.00000000000E+00  0.72016524327E+02  0.72016524327E+02  0.00000000000E+00 0.  1.
         21   -1    0    0  502  503 -0.00000000000E+00 -0.00000000000E+00 -0.38741948551E+03  0.38741948551E+03  0.00000000000E+00 0. -1.
         25    2    1    2    0    0  0.57623744944E+02  0.30512605811E+02 -0.35581326258E+03  0.38272546588E+03  0.12499675718E+03 0.  0.
          5    1    3    3  501    0  0.88422646261E+02  0.42383853954E+02 -0.19166612746E+03  0.21529252161E+03  0.10000000000E+00 0. -1.
         -5    1    3    3    0  501 -0.30798901317E+02 -0.11871248143E+02 -0.16414713512E+03  0.16743294426E+03  0.10000000000E+00 0. -1.
         21    1    1    2  504  503 -0.57623744944E+02 -0.30512605811E+02  0.40410301404E+02  0.76710543958E+02  0.00000000000E+00 0.  1.
<mgrwt>
<rscale>  1 0.14098122E+03</rscale>
<asrwt>0</asrwt>
<pdfrwt beam="1">  1       21 0.11079466E-01 0.14098122E+03</pdfrwt>
<pdfrwt beam="2">  1       21 0.59602997E-01 0.14098122E+03</pdfrwt>
<totfact> 0.18063744E+05</totfact>
</mgrwt>
</event>
<event>
 6    1  0.4424270E-002  0.1262896E+03  0.7546771E-02  0.1233067E+00
         21   -1    0    0  503  502  0.00000000000E+00  0.00000000000E+00  0.29515419237E+03  0.29515419237E+03  0.00000000000E+00 0. -1.
         21   -1    0    0  504  503 -0.00000000000E+00 -0.00000000000E+00 -0.21928110646E+02  0.21928110646E+02  0.00000000000E+00 0.  1.
         25    2    1    2    0    0 -0.17530527137E+02  0.41061976813E+01  0.16718236322E+03  0.20952092298E+03  0.12499957742E+03 0.  0.
          5    1    3    3  501    0 -0.27341842881E+02  0.50262023158E+02  0.14783491886E+03  0.15852135685E+03  0.10000000000E+00 0.  1.
         -5    1    3    3    0  501  0.98113157442E+01 -0.46155825477E+02  0.19347444361E+02  0.50999566129E+02  0.10000000000E+00 0.  1.
         21    1    1    2  504  502  0.17530527137E+02 -0.41061976813E+01  0.10604371850E+03  0.10756138003E+03  0.00000000000E+00 0. -1.
<mgrwt>
<rscale>  1 0.12628965E+03</rscale>
<asrwt>0</asrwt>
<pdfrwt beam="1">  1       21 0.45408334E-01 0.12628965E+03</pdfrwt>
<pdfrwt beam="2">  1       21 0.33735557E-02 0.12628965E+03</pdfrwt>
<totfact> 0.24056903E+06</totfact>
</mgrwt>
</event>
<event>
 6    1  0.4424270E-002  0.1261997E+03  0.7546771E-02  0.1233206E+00
         21   -1    0    0  504  502  0.00000000000E+00  0.00000000000E+00  0.14899376857E+03  0.14899376857E+03  0.00000000000E+00 0. -1.
         21   -1    0    0  502  503 -0.00000000000E+00 -0.00000000000E+00 -0.15622476447E+03  0.15622476447E+03  0.00000000000E+00 0.  1.
         25    2    1    2    0    0 -0.15435311285E+02  0.79415416417E+01 -0.13002810040E+03  0.18120060776E+03  0.12500014576E+03 0.  0.
          5    1    3    3  501    0 -0.52489625288E+02  0.32539829106E+02 -0.24062733454E+02  0.66279909342E+02  0.10000000000E+00 0.  1.
         -5    1    3    3    0  501  0.37054314003E+02 -0.24598287465E+02 -0.10596536694E+03  0.11492069841E+03  0.10000000000E+00 0.  1.
         21    1    1    2  504  503  0.15435311285E+02 -0.79415416417E+01  0.12279710449E+03  0.12401792528E+03  0.00000000000E+00 0. -1.
<mgrwt>
<rscale>  1 0.12619966E+03</rscale>
<asrwt>0</asrwt>
<pdfrwt beam="1">  1       21 0.22922118E-01 0.12619966E+03</pdfrwt>
<pdfrwt beam="2">  1       21 0.24034579E-01 0.12619966E+03</pdfrwt>
<totfact> 0.29570308E+05</totfact>
</mgrwt>
</event>
<event>
 6    1  0.4424270E-002  0.1316092E+03  0.7546771E-02  0.1225087E+00
         21   -1    0    0  503  502  0.00000000000E+00  0.00000000000E+00  0.15553251114E+04  0.15553251114E+04  0.00000000000E+00 0. -1.
         21   -1    0    0  504  503 -0.00000000000E+00 -0.00000000000E+00 -0.10884166322E+02  0.10884166322E+02  0.00000000000E+00 0. -1.
         25    2    1    2    0    0 -0.27062224151E+02  0.31047149137E+02  0.40136986029E+03  0.42239644587E+03  0.12499881313E+03 0.  0.
          5    1    3    3  501    0 -0.42816811026E+02  0.67316904978E+02  0.17147821808E+03  0.18912861835E+03  0.10000000000E+00 0.  1.
         -5    1    3    3    0  501  0.15754586875E+02 -0.36269755841E+02  0.22989164222E+03  0.23326782752E+03  0.10000000000E+00 0.  1.
         21    1    1    2  504  502  0.27062224151E+02 -0.31047149137E+02  0.11430710848E+04  0.11438128318E+04  0.00000000000E+00 0. -1.
<mgrwt>
<rscale>  1 0.13160924E+03</rscale>
<asrwt>0</asrwt>
<pdfrwt beam="1">  1       21 0.23928061E+00 0.13160924E+03</pdfrwt>
<pdfrwt beam="2">  1       21 0.16744884E-02 0.13160924E+03</pdfrwt>
<totfact> 0.13178585E+05</totfact>
</mgrwt>
</event>
<event>
 6    1  0.4424270E-002  0.1337567E+03  0.7546771E-02  0.1221986E+00
         21   -1    0    0  504  502  0.00000000000E+00  0.00000000000E+00  0.13808544416E+03  0.13808544416E+03  0.00000000000E+00 0. -1.
         21   -1    0    0  502  503 -0.00000000000E+00 -0.00000000000E+00 -0.37251054549E+03  0.37251054549E+03  0.00000000000E+00 0. -1.
         25    2    1    2    0    0 -0.47522947888E+02 -0.27846687454E+01 -0.35585797355E+03  0.38016544333E+03  0.12499872800E+03 0.  0.
          5    1    3    3  501    0  0.30382714948E+02 -0.31863479528E+02 -0.72153822509E+02  0.84525586646E+02  0.10000000000E+00 0. -1.
         -5    1    3    3    0  501 -0.77905662836E+02  0.29078810783E+02 -0.28370415104E+03  0.29563985668E+03  0.10000000000E+00 0. -1.
         21    1    1    2  504  503  0.47522947888E+02  0.27846687454E+01  0.12143287223E+03  0.13043054632E+03  0.00000000000E+00 0. -1.
<mgrwt>
<rscale>  1 0.13375675E+03</rscale>
<asrwt>0</asrwt>
<pdfrwt beam="1">  1       21 0.21243914E-01 0.13375675E+03</pdfrwt>
<pdfrwt beam="2">  1       21 0.57309315E-01 0.13375675E+03</pdfrwt>
<totfact> 0.60579646E+04</totfact>
</mgrwt>
</event>
<event>
 6    1  0.4424270E-002  0.1312699E+03  0.7546771E-02  0.1225584E+00
         21   -1    0    0  503  502  0.00000000000E+00  0.00000000000E+00  0.28485114174E+02  0.28485114174E+02  0.00000000000E+00 0.  1.
         21   -1    0    0  504  503 -0.00000000000E+00 -0.00000000000E+00 -0.29000386185E+03  0.29000386185E+03  0.00000000000E+00 0.  1.
         25    2    1    2    0    0 -0.26508112925E+02  0.30052868727E+02 -0.23859560743E+03  0.27232269690E+03  0.12500372950E+03 0.  0.
          5    1    3    3  501    0  0.22075689110E+02  0.67139139669E+01  0.43407407941E+01  0.23479027260E+02  0.10000000000E+00 0. -1.
         -5    1    3    3    0  501 -0.48583802035E+02  0.23338954760E+02 -0.24293634822E+03  0.24884366964E+03  0.10000000000E+00 0. -1.
         21    1    1    2  504  502  0.26508112925E+02 -0.30052868727E+02 -0.22923140241E+02  0.46166279124E+02  0.00000000000E+00 0.  1.
<mgrwt>
<rscale>  1 0.13126990E+03</rscale>
<asrwt>0</asrwt>
<pdfrwt beam="1">  1       21 0.43823253E-02 0.13126990E+03</pdfrwt>
<pdfrwt beam="2">  1       21 0.44615979E-01 0.13126990E+03</pdfrwt>
<totfact> 0.16173116E+06</totfact>
</mgrwt>
</event>
<event>
 6    1  0.4424270E-002  0.1292705E+03  0.7546771E-02  0.1228542E+00
         21   -1    0    0  504  502  0.00000000000E+00  0.00000000000E+00  0.13075744222E+03  0.13075744222E+03  0.00000000000E+00 0. -1.
         21   -1    0    0  502  503 -0.00000000000E+00 -0.00000000000E+00 -0.63196667747E+02  0.63196667747E+02  0.00000000000E+00 0. -1.
         25    2    1    2    0    0 -0.28292849089E+02 -0.16813039383E+02  0.12587226098E+02  0.12988184901E+03  0.12501077089E+03 0.  0.
          5    1    3    3  501    0 -0.57393510395E+02 -0.97902665940E+01 -0.39112575839E+02  0.70140344625E+02  0.10000000000E+00 0.  1.
         -5    1    3    3    0  501  0.29100661305E+02 -0.70227727886E+01  0.51699801937E+02  0.59741504387E+02  0.10000000000E+00 0.  1.
         21    1    1    2  504  503  0.28292849089E+02  0.16813039383E+02  0.54973548371E+02  0.64072260951E+02  0.00000000000E+00 0. -1.
<mgrwt>
<rscale>  1 0.12927048E+03</rscale>
<asrwt>0</asrwt>
<pdfrwt beam="1">  1       21 0.20116530E-01 0.12927048E+03</pdfrwt>
<pdfrwt beam="2">  1       21 0.97225643E-02 0.12927048E+03</pdfrwt>
<totfact> 0.19363867E+06</totfact>
</mgrwt>
</event>
<event>
 6    1  0.4424270E-002  0.1263293E+03  0.7546771E-02  0.1233006E+00
         21   -1    0    0  504  502  0.00000000000E+00  0.00000000000E+00  0.78808698041E+03  0.78808698041E+03  0.00000000000E+00 0. -1.
         21   -1    0    0  502  503 -0.00000000000E+00 -0.00000000000E+00 -0.71916853740E+01  0.71916853740E+01  0.00000000000E+00 0. -1.
         25    2    1    2    0    0  0.70069091976E+01  0.16893605114E+02  0.58245830536E+03  0.59600064507E+03  0.12499840305E+03 0.  0.
          5    1    3    3  501    0  0.24782727424E+02  0.22429987787E+02  0.57495730385E+03  0.57592811980E+03  0.10000000000E+00 0.  1.
         -5    1    3    3    0  501 -0.17775818227E+02 -0.55363826725E+01  0.75010015125E+01  0.20072525263E+02  0.10000000000E+00 0.  1.
         21    1    1    2  504  503 -0.70069091976E+01 -0.16893605114E+02  0.19843698967E+03  0.19927802071E+03  0.00000000000E+00 0. -1.
<mgrwt>
<rscale>  1 0.12632930E+03</rscale>
<asrwt>0</asrwt>
<pdfrwt beam="1">  1       21 0.12124408E+00 0.12632930E+03</pdfrwt>
<pdfrwt beam="2">  1       21 0.11064138E-02 0.12632930E+03</pdfrwt>
<totfact> 0.16494712E+06</totfact>
</mgrwt>
</event>
<event>
 6    1  0.4424270E-002  0.1269794E+03  0.7546771E-02  0.1232008E+00
         21   -1    0    0  503  502  0.00000000000E+00  0.00000000000E+00  0.16134460309E+04  0.16134460309E+04  0.00000000000E+00 0. -1.
         21   -1    0    0  504  503 -0.00000000000E+00 -0.00000000000E+00 -0.68935259399E+01  0.68935259399E+01  0.00000000000E+00 0. -1.
         25    2    1    2    0    0 -0.15180591549E+02  0.16385788631E+02  0.58855295817E+03  0.60209497832E+03  0.12499933565E+03 0.  0.
          5    1    3    3  501    0  0.28566179946E+02 -0.39857263353E+02  0.34043294818E+03  0.34394655149E+03  0.10000000000E+00 0. -1.
         -5    1    3    3    0  501 -0.43746771495E+02  0.56243051984E+02  0.24812000999E+03  0.25814842682E+03  0.10000000000E+00 0. -1.
         21    1    1    2  504  502  0.15180591549E+02 -0.16385788631E+02  0.10179995468E+04  0.10182445785E+04  0.00000000000E+00 0. -1.
<mgrwt>
<rscale>  1 0.12697944E+03</rscale>
<asrwt>0</asrwt>
<pdfrwt beam="1">  1       21 0.24822217E+00 0.12697944E+03</pdfrwt>
<pdfrwt beam="2">  1       21 0.10605437E-02 0.12697944E+03</pdfrwt>
<totfact> 0.24282532E+05</totfact>
</mgrwt>
</event>
<event>
 6    1  0.4424270E-002  0.1281566E+03  0.7546771E-02  0.1230217E+00
         21   -1    0    0  504  502  0.00000000000E+00  0.00000000000E+00  0.19354738367E+02  0.19354738367E+02  0.00000000000E+00 0.  1.
         21   -1    0    0  502  503 -0.00000000000E+00 -0.00000000000E+00 -0.46520267245E+03  0.46520267245E+03  0.00000000000E+00 0.  1.
         25    2    1    2    0    0  0.26634495615E+02  0.95933947960E+01 -0.43621928991E+03  0.45465523081E+03  0.12499072140E+03 0.  0.
          5    1    3    3  501    0 -0.27039625951E+01  0.60895070617E+02 -0.14152727703E+03  0.15409575329E+03  0.10000000000E+00 0.  1.
         -5    1    3    3    0  501  0.29338458210E+02 -0.51301675821E+02 -0.29469201288E+03  0.30055947752E+03  0.10000000000E+00 0.  1.
         21    1    1    2  504  503 -0.26634495615E+02 -0.95933947960E+01 -0.96286441722E+01  0.29902180003E+02  0.00000000000E+00 0.  1.
<mgrwt>
<rscale>  1 0.12815658E+03</rscale>
<asrwt>0</asrwt>
<pdfrwt beam="1">  1       21 0.29776520E-02 0.12815658E+03</pdfrwt>
<pdfrwt beam="2">  1       21 0.71569643E-01 0.12815658E+03</pdfrwt>
<totfact> 0.11327952E+06</totfact>
</mgrwt>
</event>
<event>
 6    1  0.4424270E-002  0.1268379E+03  0.7546771E-02  0.1232225E+00
         21   -1    0    0  503  502  0.00000000000E+00  0.00000000000E+00  0.39828388443E+03  0.39828388443E+03  0.00000000000E+00 0. -1.
         21   -1    0    0  504  503 -0.00000000000E+00 -0.00000000000E+00 -0.19076258448E+02  0.19076258448E+02  0.00000000000E+00 0. -1.
         25    2    1    2    0    0 -0.46512794140E+01 -0.21470713194E+02  0.20012008744E+03  0.23693017755E+03  0.12492090984E+03 0.  0.
          5    1    3    3  501    0  0.40880207890E+02  0.25829067271E+02  0.13922440631E+03  0.14738309749E+03  0.10000000000E+00 0.  1.
         -5    1    3    3    0  501 -0.45531487304E+02 -0.47299780465E+02  0.60895681127E+02  0.89547080064E+02  0.10000000000E+00 0.  1.
         21    1    1    2  504  502  0.46512794140E+01  0.21470713194E+02  0.17908753855E+03  0.18042996533E+03  0.00000000000E+00 0. -1.
<mgrwt>
<rscale>  1 0.12683793E+03</rscale>
<asrwt>0</asrwt>
<pdfrwt beam="1">  1       21 0.61274438E-01 0.12683793E+03</pdfrwt>
<pdfrwt beam="2">  1       21 0.29348093E-02 0.12683793E+03</pdfrwt>
<totfact> 0.16219111E+06</totfact>
</mgrwt>
</event>
<event>
 6    1  0.4424270E-002  0.1273138E+03  0.7546771E-02  0.1231497E+00
         21   -1    0    0  504  502  0.00000000000E+00  0.00000000000E+00  0.49147598402E+02  0.49147598402E+02  0.00000000000E+00 0.  1.
         21   -1    0    0  502  503 -0.00000000000E+00 -0.00000000000E+00 -0.12584048132E+03  0.12584048132E+03  0.00000000000E+00 0.  1.
         25    2    1    2    0    0 -0.16192558675E+02  0.17926912692E+02 -0.80360030963E+02  0.15055406389E+03  0.12500087368E+03 0.  0.
          5    1    3    3  501    0  0.18587924858E+02 -0.42139401988E+02 -0.64668544977E+02  0.79393141138E+02  0.10000000000E+00 0.  1.
         -5    1    3    3    0  501 -0.34780483533E+02  0.60066314680E+02 -0.15691485986E+02  0.71160922749E+02  0.10000000000E+00 0.  1.
         21    1    1    2  504  503  0.16192558675E+02 -0.17926912692E+02  0.36671480447E+01  0.24434015836E+02  0.00000000000E+00 0.  1.
<mgrwt>
<rscale>  1 0.12731375E+03</rscale>
<asrwt>0</asrwt>
<pdfrwt beam="1">  1       21 0.75611691E-02 0.12731375E+03</pdfrwt>
<pdfrwt beam="2">  1       21 0.19360074E-01 0.12731375E+03</pdfrwt>
<totfact> 0.32104995E+06</totfact>
</mgrwt>
</event>
<event>
 6    1  0.4424270E-002  0.1321335E+03  0.7546771E-02  0.1224324E+00
         21   -1    0    0  504  502  0.00000000000E+00  0.00000000000E+00  0.17154827340E+03  0.17154827340E+03  0.00000000000E+00 0. -1.
         21   -1    0    0  502  503 -0.00000000000E+00 -0.00000000000E+00 -0.44825672187E+02  0.44825672187E+02  0.00000000000E+00 0. -1.
         25    2    1    2    0    0 -0.21382737520E+02 -0.37117700247E+02  0.10193163263E+03  0.16688114552E+03  0.12499725542E+03 0.  0.
          5    1    3    3  501    0  0.44429323457E+02  0.10077145875E+02  0.14744320196E+02  0.47884429931E+02  0.10000000000E+00 0.  1.
         -5    1    3    3    0  501 -0.65812060977E+02 -0.47194846122E+02  0.87187312433E+02  0.11899671558E+03  0.10000000000E+00 0.  1.
         21    1    1    2  504  503  0.21382737520E+02  0.37117700247E+02  0.24790968585E+02  0.49492800071E+02  0.00000000000E+00 0. -1.
<mgrwt>
<rscale>  1 0.13213349E+03</rscale>
<asrwt>0</asrwt>
<pdfrwt beam="1">  1       21 0.26392042E-01 0.13213349E+03</pdfrwt>
<pdfrwt beam="2">  1       21 0.68962573E-02 0.13213349E+03</pdfrwt>
<totfact> 0.21077801E+06</totfact>
</mgrwt>
</event>
<event>
 6    1  0.4424270E-002  0.1338419E+03  0.7546771E-02  0.1221864E+00
         21   -1    0    0  504  502  0.00000000000E+00  0.00000000000E+00  0.55079557767E+02  0.55079557767E+02  0.00000000000E+00 0.  1.
         21   -1    0    0  502  503 -0.00000000000E+00 -0.00000000000E+00 -0.38271484111E+03  0.38271484111E+03  0.00000000000E+00 0.  1.
         25    2    1    2    0    0 -0.39794765711E+02  0.26561772588E+02 -0.35726839237E+03  0.38151587463E+03  0.12499802904E+03 0.  0.
          5    1    3    3  501    0 -0.38950688307E+02 -0.29038234751E+02 -0.51764530591E+02  0.70992618097E+02  0.10000000000E+00 0. -1.
         -5    1    3    3    0  501 -0.84407740459E+00  0.55600007339E+02 -0.30550386178E+03  0.31052325653E+03  0.10000000000E+00 0. -1.
         21    1    1    2  504  503  0.39794765711E+02 -0.26561772588E+02  0.29633109029E+02  0.56278524250E+02  0.00000000000E+00 0.  1.
<mgrwt>
<rscale>  1 0.13384192E+03</rscale>
<asrwt>0</asrwt>
<pdfrwt beam="1">  1       21 0.84737779E-02 0.13384192E+03</pdfrwt>
<pdfrwt beam="2">  1       21 0.58879208E-01 0.13384192E+03</pdfrwt>
<totfact> 0.29678398E+05</totfact>
</mgrwt>
</event>
<event>
 6    1  0.4424270E-002  0.1302748E+03  0.7546771E-02  0.1227049E+00
         21   -1    0    0  504  502  0.00000000000E+00  0.00000000000E+00  0.57323834372E+03  0.57323834372E+03  0.00000000000E+00 0. -1.
         21   -1    0    0  502  503 -0.00000000000E+00 -0.00000000000E+00 -0.12223351510E+02  0.12223351510E+02  0.00000000000E+00 0. -1.
         25    2    1    2    0    0  0.36694371142E+02 -0.23707009372E+01  0.45293711774E+03  0.47129986252E+03  0.12497772079E+03 0.  0.
          5    1    3    3  501    0  0.42464816432E+02 -0.59351992318E+02  0.24936850616E+03  0.25982798442E+03  0.10000000000E+00 0.  1.
         -5    1    3    3    0  501 -0.57704452904E+01  0.56981291381E+02  0.20356861158E+03  0.21147187810E+03  0.10000000000E+00 0.  1.
         21    1    1    2  504  503 -0.36694371142E+02  0.23707009372E+01  0.10807787447E+03  0.11416183270E+03  0.00000000000E+00 0. -1.
<mgrwt>
<rscale>  1 0.13027482E+03</rscale>
<asrwt>0</asrwt>
<pdfrwt beam="1">  1       21 0.88190494E-01 0.13027482E+03</pdfrwt>
<pdfrwt beam="2">  1       21 0.18805161E-02 0.13027482E+03</pdfrwt>
<totfact> 0.14996465E+06</totfact>
</mgrwt>
</event>
<event>
 6    1  0.4424270E-002  0.1267352E+03  0.7546771E-02  0.1232382E+00
         21   -1    0    0  504  502  0.00000000000E+00  0.00000000000E+00  0.24973376865E+02  0.24973376865E+02  0.00000000000E+00 0. -1.
         21   -1    0    0  502  503 -0.00000000000E+00 -0.00000000000E+00 -0.11140337454E+04  0.11140337454E+04  0.00000000000E+00 0. -1.
         25    2    1    2    0    0  0.12790930803E+02  0.16212125158E+02 -0.11054202747E+04  0.11126615830E+04  0.12504148724E+03 0.  0.
          5    1    3    3  501    0  0.57155521736E+02  0.14146145112E+02 -0.92437543500E+03  0.92624879051E+03  0.10000000000E+00 0. -1.
         -5    1    3    3    0  501 -0.44364590934E+02  0.20659800463E+01 -0.18104483973E+03  0.18641279247E+03  0.10000000000E+00 0. -1.
         21    1    1    2  504  503 -0.12790930803E+02 -0.16212125158E+02  0.16359906159E+02  0.26345539327E+02  0.00000000000E+00 0. -1.
<mgrwt>
<rscale>  1 0.12673521E+03</rscale>
<asrwt>0</asrwt>
<pdfrwt beam="1">  1       21 0.38420577E-02 0.12673521E+03</pdfrwt>
<pdfrwt beam="2">  1       21 0.17138982E+00 0.12673521E+03</pdfrwt>
<totfact> 0.90777193E+04</totfact>
</mgrwt>
</event>
<event>
 6    1  0.4424270E-002  0.1259904E+03  0.7546771E-02  0.1233529E+00
         21   -1    0    0  504  502  0.00000000000E+00  0.00000000000E+00  0.49191217897E+03  0.49191217897E+03  0.00000000000E+00 0.  1.
         21   -1    0    0  502  503 -0.00000000000E+00 -0.00000000000E+00 -0.33060964138E+02  0.33060964138E+02  0.00000000000E+00 0.  1.
         25    2    1    2    0    0  0.14710753358E+02  0.56420234609E+01  0.87748890454E+02  0.15353650807E+03  0.12500141135E+03 0.  0.
          5    1    3    3  501    0  0.17286342435E+02  0.63839617628E+02  0.34424289861E+02  0.74561090027E+02  0.10000000000E+00 0.  1.
         -5    1    3    3    0  501 -0.25755890770E+01 -0.58197594167E+02  0.53324600593E+02  0.78975418038E+02  0.10000000000E+00 0.  1.
         21    1    1    2  504  503 -0.14710753358E+02 -0.56420234609E+01  0.37110232437E+03  0.37143663504E+03  0.00000000000E+00 0.  1.
<mgrwt>
<rscale>  1 0.12599044E+03</rscale>
<asrwt>0</asrwt>
<pdfrwt beam="1">  1       21 0.75678791E-01 0.12599044E+03</pdfrwt>
<pdfrwt beam="2">  1       21 0.50863025E-02 0.12599044E+03</pdfrwt>
<totfact> 0.41222857E+05</totfact>
</mgrwt>
</event>
<event>
 6    1  0.4424270E-002  0.1276936E+03  0.7546771E-02  0.1230919E+00
         21   -1    0    0  504  502  0.00000000000E+00  0.00000000000E+00  0.11329241447E+03  0.11329241447E+03  0.00000000000E+00 0.  1.
         21   -1    0    0  502  503 -0.00000000000E+00 -0.00000000000E+00 -0.20164883086E+03  0.20164883086E+03  0.00000000000E+00 0.  1.
         25    2    1    2    0    0 -0.26044747680E+02 -0.14180615919E+01 -0.17941717287E+03  0.22021848591E+03  0.12500127934E+03 0.  0.
          5    1    3    3  501    0 -0.31888375492E+02 -0.34060516620E+02 -0.18110034362E+03  0.18701425546E+03  0.10000000000E+00 0. -1.
         -5    1    3    3    0  501  0.58436278115E+01  0.32642455028E+02  0.16831707540E+01  0.33204230454E+02  0.10000000000E+00 0. -1.
         21    1    1    2  504  503  0.26044747680E+02  0.14180615919E+01  0.91060756485E+02  0.94722759419E+02  0.00000000000E+00 0.  1.
<mgrwt>
<rscale>  1 0.12769362E+03</rscale>
<asrwt>0</asrwt>
<pdfrwt beam="1">  1       21 0.17429603E-01 0.12769362E+03</pdfrwt>
<pdfrwt beam="2">  1       21 0.31022897E-01 0.12769362E+03</pdfrwt>
<totfact> 0.30140410E+05</totfact>
</mgrwt>
</event>
<event>
 6    1  0.4424270E-002  0.1260397E+03  0.7546771E-02  0.1233453E+00
         21   -1    0    0  504  502  0.00000000000E+00  0.00000000000E+00  0.50451880187E+01  0.50451880187E+01  0.00000000000E+00 0. -1.
         21   -1    0    0  502  503 -0.00000000000E+00 -0.00000000000E+00 -0.12068380245E+04  0.12068380245E+04  0.00000000000E+00 0. -1.
         25    2    1    2    0    0  0.12539397608E+02 -0.10145956543E+02 -0.11638402064E+04  0.11706451347E+04  0.12500331435E+03 0.  0.
          5    1    3    3  501    0 -0.24068994031E+01 -0.85803331468E+00 -0.11444785208E+04  0.11444813778E+04  0.10000000000E+00 0.  1.
         -5    1    3    3    0  501  0.14946297011E+02 -0.92879232279E+01 -0.19361685515E+02  0.26163756959E+02  0.10000000000E+00 0.  1.
         21    1    1    2  504  503 -0.12539397608E+02  0.10145956543E+02 -0.37952630098E+02  0.41238077767E+02  0.00000000000E+00 0.  1.
<mgrwt>
<rscale>  1 0.12603970E+03</rscale>
<asrwt>0</asrwt>
<pdfrwt beam="1">  1       21 0.77618156E-03 0.12603970E+03</pdfrwt>
<pdfrwt beam="2">  1       21 0.18566768E+00 0.12603970E+03</pdfrwt>
<totfact> 0.95062630E+05</totfact>
</mgrwt>
</event>
<event>
 6    1  0.4424270E-002  0.1351045E+03  0.7546771E-02  0.1220072E+00
         21   -1    0    0  504  502  0.00000000000E+00  0.00000000000E+00  0.16704591863E+04  0.16704591863E+04  0.00000000000E+00 0.  1.
         21   -1    0    0  502  503 -0.00000000000E+00 -0.00000000000E+00 -0.69415065767E+02  0.69415065767E+02  0.00000000000E+00 0.  1.
         25    2    1    2    0    0  0.36159803587E+02 -0.36331785746E+02 -0.28761581610E+01  0.13513508620E+03  0.12500275672E+03 0.  0.
          5    1    3    3  501    0  0.26152306596E+01  0.16890790038E+02 -0.52369571034E+02  0.55088294489E+02  0.10000000000E+00 0.  1.
         -5    1    3    3    0  501  0.33544572927E+02 -0.53222575784E+02  0.49493412873E+02  0.80046791714E+02  0.10000000000E+00 0.  1.
         21    1    1    2  504  503 -0.36159803587E+02  0.36331785746E+02  0.16039202787E+04  0.16047391659E+04  0.00000000000E+00 0.  1.
<mgrwt>
<rscale>  1 0.13510448E+03</rscale>
<asrwt>0</asrwt>
<pdfrwt beam="1">  1       21 0.25699369E+00 0.13510448E+03</pdfrwt>
<pdfrwt beam="2">  1       21 0.10679242E-01 0.13510448E+03</pdfrwt>
<totfact> 0.46873404E+03</totfact>
</mgrwt>
</event>
<event>
 6    1  0.4424270E-002  0.1260069E+03  0.7546771E-02  0.1233504E+00
         21   -1    0    0  503  502  0.00000000000E+00  0.00000000000E+00  0.71977714834E+01  0.71977714834E+01  0.00000000000E+00 0.  1.
         21   -1    0    0  504  503 -0.00000000000E+00 -0.00000000000E+00 -0.10177463567E+04  0.10177463567E+04  0.00000000000E+00 0.  1.
         25    2    1    2    0    0  0.14165744499E+02  0.72127458398E+01 -0.99415609573E+03  0.10021098178E+04  0.12500020884E+03 0.  0.
          5    1    3    3  501    0  0.60772244600E+02  0.63276826693E+01 -0.28765875147E+03  0.29407630401E+03  0.10000000000E+00 0. -1.
         -5    1    3    3    0  501 -0.46606500101E+02  0.88506317047E+00 -0.70649734425E+03  0.70803351377E+03  0.10000000000E+00 0. -1.
         21    1    1    2  504  502 -0.14165744499E+02 -0.72127458398E+01 -0.16392489493E+02  0.22834310402E+02  0.00000000000E+00 0.  1.
<mgrwt>
<rscale>  1 0.12600692E+03</rscale>
<asrwt>0</asrwt>
<pdfrwt beam="1">  1       21 0.11073497E-02 0.12600692E+03</pdfrwt>
<pdfrwt beam="2">  1       21 0.15657633E+00 0.12600692E+03</pdfrwt>
<totfact> 0.86286279E+05</totfact>
</mgrwt>
</event>
<event>
 6    1  0.4424270E-002  0.1310927E+03  0.7546771E-02  0.1225843E+00
         21   -1    0    0  503  502  0.00000000000E+00  0.00000000000E+00  0.17955297859E+02  0.17955297859E+02  0.00000000000E+00 0. -1.
         21   -1    0    0  504  503 -0.00000000000E+00 -0.00000000000E+00 -0.41645318476E+03  0.41645318476E+03  0.00000000000E+00 0. -1.
         25    2    1    2    0    0 -0.25666783098E+02 -0.30005172143E+02 -0.33372337263E+03  0.35854787486E+03  0.12500477999E+03 0.  0.
          5    1    3    3  501    0 -0.25968513191E+02 -0.58551775410E+02 -0.76629175522E+02  0.99873493091E+02  0.10000000000E+00 0.  1.
         -5    1    3    3    0  501  0.30173009347E+00  0.28546603267E+02 -0.25709419711E+03  0.25867438177E+03  0.10000000000E+00 0.  1.
         21    1    1    2  504  502  0.25666783098E+02  0.30005172143E+02 -0.64774514270E+02  0.75860607754E+02  0.00000000000E+00 0. -1.
<mgrwt>
<rscale>  1 0.13109267E+03</rscale>
<asrwt>0</asrwt>
<pdfrwt beam="1">  1       21 0.27623537E-02 0.13109267E+03</pdfrwt>
<pdfrwt beam="2">  1       21 0.64069717E-01 0.13109267E+03</pdfrwt>
<totfact> 0.16287434E+06</totfact>
</mgrwt>
</event>
<event>
 6    1  0.4424270E-002  0.1260150E+03  0.7546771E-02  0.1233492E+00
         21   -1    0    0  504  502  0.00000000000E+00  0.00000000000E+00  0.33923991522E+01  0.33923991522E+01  0.00000000000E+00 0.  1.
         21   -1    0    0  502  503 -0.00000000000E+00 -0.00000000000E+00 -0.14890459439E+04  0.14890459439E+04  0.00000000000E+00 0.  1.
         25    2    1    2    0    0  0.13590117014E+02 -0.84463915500E+01 -0.13374822001E+04  0.13434055273E+04  0.12499496892E+03 0.  0.
          5    1    3    3  501    0 -0.17700826930E+02  0.55305298004E+00 -0.25652783770E+02  0.31172110240E+02  0.10000000000E+00 0.  1.
         -5    1    3    3    0  501  0.31290943945E+02 -0.89994445301E+01 -0.13118294164E+04  0.13122334171E+04  0.10000000000E+00 0.  1.
         21    1    1    2  504  503 -0.13590117014E+02  0.84463915500E+01 -0.14817134458E+03  0.14903281573E+03  0.00000000000E+00 0.  1.
<mgrwt>
<rscale>  1 0.12601498E+03</rscale>
<asrwt>0</asrwt>
<pdfrwt beam="1">  1       21 0.52190711E-03 0.12601498E+03</pdfrwt>
<pdfrwt beam="2">  1       21 0.22908419E+00 0.12601498E+03</pdfrwt>
<totfact> 0.94973804E+05</totfact>
</mgrwt>
</event>
<event>
 6    1  0.4424270E-002  0.1267312E+03  0.7546771E-02  0.1232388E+00
         21   -1    0    0  504  502  0.00000000000E+00  0.00000000000E+00  0.12693782000E+03  0.12693782000E+03  0.00000000000E+00 0. -1.
         21   -1    0    0  502  503 -0.00000000000E+00 -0.00000000000E+00 -0.17714601199E+03  0.17714601199E+03  0.00000000000E+00 0. -1.
         25    2    1    2    0    0 -0.18568929246E+02 -0.95900283137E+01 -0.15329645494E+03  0.19889845403E+03  0.12499607252E+03 0.  0.
          5    1    3    3  501    0  0.10887212923E+02  0.21948626039E+02 -0.15380115530E+03  0.15574042173E+03  0.10000000000E+00 0.  1.
         -5    1    3    3    0  501 -0.29456142168E+02 -0.31538654353E+02  0.50470036010E+00  0.43158032303E+02  0.10000000000E+00 0.  1.
         21    1    1    2  504  503  0.18568929246E+02  0.95900283137E+01  0.10308826295E+03  0.10518537795E+03  0.00000000000E+00 0. -1.
<mgrwt>
<rscale>  1 0.12673118E+03</rscale>
<asrwt>0</asrwt>
<pdfrwt beam="1">  1       21 0.19528896E-01 0.12673118E+03</pdfrwt>
<pdfrwt beam="2">  1       21 0.27253232E-01 0.12673118E+03</pdfrwt>
<totfact> 0.31386269E+05</totfact>
</mgrwt>
</event>
<event>
 6    1  0.4424270E-002  0.1270714E+03  0.7546771E-02  0.1231867E+00
         21   -1    0    0  504  502  0.00000000000E+00  0.00000000000E+00  0.15541936191E+03  0.15541936191E+03  0.00000000000E+00 0.  1.
         21   -1    0    0  502  503 -0.00000000000E+00 -0.00000000000E+00 -0.57367630964E+02  0.57367630964E+02  0.00000000000E+00 0.  1.
         25    2    1    2    0    0 -0.11118786092E+02  0.19957013735E+02  0.16550734514E+02  0.12814467355E+03  0.12500088297E+03 0.  0.
          5    1    3    3  501    0  0.31947640403E+02 -0.23777797111E+02  0.45341513513E+02  0.60348141732E+02  0.10000000000E+00 0. -1.
         -5    1    3    3    0  501 -0.43066426495E+02  0.43734810846E+02 -0.28790778999E+02  0.67796531816E+02  0.10000000000E+00 0. -1.
         21    1    1    2  504  503  0.11118786092E+02 -0.19957013735E+02  0.81500996428E+02  0.84642319321E+02  0.00000000000E+00 0.  1.
<mgrwt>
<rscale>  1 0.12707136E+03</rscale>
<asrwt>0</asrwt>
<pdfrwt beam="1">  1       21 0.23910671E-01 0.12707136E+03</pdfrwt>
<pdfrwt beam="2">  1       21 0.88257895E-02 0.12707136E+03</pdfrwt>
<totfact> 0.16595648E+06</totfact>
</mgrwt>
</event>
<event>
 6    1  0.4424270E-002  0.1265556E+03  0.7546771E-02  0.1232658E+00
         21   -1    0    0  503  502  0.00000000000E+00  0.00000000000E+00  0.62202146210E+02  0.62202146210E+02  0.00000000000E+00 0.  1.
         21   -1    0    0  504  503 -0.00000000000E+00 -0.00000000000E+00 -0.93091411989E+02  0.93091411989E+02  0.00000000000E+00 0.  1.
         25    2    1    2    0    0  0.18934144292E+02 -0.60886187225E+01 -0.40935320537E+02  0.13301136095E+03  0.12498299315E+03 0.  0.
          5    1    3    3  501    0  0.32784782894E+01 -0.15545771586E+02 -0.84385583845E+02  0.85868249050E+02  0.10000000000E+00 0.  1.
         -5    1    3    3    0  501  0.15655666003E+02  0.94571528633E+01  0.43450263307E+02  0.47143111901E+02  0.10000000000E+00 0.  1.
         21    1    1    2  504  502 -0.18934144292E+02  0.60886187225E+01  0.10046054758E+02  0.22282197249E+02  0.00000000000E+00 0.  1.
<mgrwt>
<rscale>  1 0.12655561E+03</rscale>
<asrwt>0</asrwt>
<pdfrwt beam="1">  1       21 0.95695610E-02 0.12655561E+03</pdfrwt>
<pdfrwt beam="2">  1       21 0.14321756E-01 0.12655561E+03</pdfrwt>
<totfact> 0.36935382E+06</totfact>
</mgrwt>
</event>
<event>
 6    1  0.4424270E-002  0.1414288E+03  0.7546771E-02  0.1211419E+00
         21   -1    0    0  503  502  0.00000000000E+00  0.00000000000E+00  0.35712545897E+03  0.35712545897E+03  0.00000000000E+00 0. -1.
         21   -1    0    0  504  503 -0.00000000000E+00 -0.00000000000E+00 -0.33594788206E+02  0.33594788206E+02  0.00000000000E+00 0. -1.
         25    2    1    2    0    0 -0.55855200434E+02 -0.35516099240E+02  0.15588598723E+03  0.21048169237E+03  0.12498361928E+03 0.  0.
          5    1    3    3  501    0 -0.10744363439E+02 -0.20273906757E+02 -0.18648952921E+02  0.29567990901E+02  0.10000000000E+00 0.  1.
         -5    1    3    3    0  501 -0.45110836995E+02 -0.15242192482E+02  0.17453494015E+03  0.18091370147E+03  0.10000000000E+00 0.  1.
         21    1    1    2  504  502  0.55855200434E+02  0.35516099240E+02  0.16764468353E+03  0.18023855480E+03  0.00000000000E+00 0. -1.
<mgrwt>
<rscale>  1 0.14142879E+03</rscale>
<asrwt>0</asrwt>
<pdfrwt beam="1">  1       21 0.54942376E-01 0.14142879E+03</pdfrwt>
<pdfrwt beam="2">  1       21 0.51684292E-02 0.14142879E+03</pdfrwt>
<totfact> 0.79838795E+05</totfact>
</mgrwt>
</event>
<event>
 6    1  0.4424270E-002  0.1268581E+03  0.7546771E-02  0.1232194E+00
         21   -1    0    0  503  502  0.00000000000E+00  0.00000000000E+00  0.70194903082E+01  0.70194903082E+01  0.00000000000E+00 0. -1.
         21   -1    0    0  504  503 -0.00000000000E+00 -0.00000000000E+00 -0.78737874934E+03  0.78737874934E+03  0.00000000000E+00 0. -1.
         25    2    1    2    0    0 -0.53948161095E+01  0.20953018313E+02 -0.65164243622E+03  0.66387562286E+03  0.12499937973E+03 0.  0.
          5    1    3    3  501    0 -0.19653718434E+02 -0.49340942208E+02 -0.22039544767E+03  0.22670456674E+03  0.10000000000E+00 0.  1.
         -5    1    3    3    0  501  0.14258902325E+02  0.70293960521E+02 -0.43124698855E+03  0.43717105612E+03  0.10000000000E+00 0.  1.
         21    1    1    2  504  502  0.53948161095E+01 -0.20953018313E+02 -0.12871682281E+03  0.13052261678E+03  0.00000000000E+00 0. -1.
<mgrwt>
<rscale>  1 0.12685810E+03</rscale>
<asrwt>0</asrwt>
<pdfrwt beam="1">  1       21 0.10799218E-02 0.12685810E+03</pdfrwt>
<pdfrwt beam="2">  1       21 0.12113517E+00 0.12685810E+03</pdfrwt>
<totfact> 0.17176475E+06</totfact>
</mgrwt>
</event>
<event>
 6    1  0.4424270E-002  0.1396261E+03  0.7546771E-02  0.1213833E+00
         21   -1    0    0  504  502  0.00000000000E+00  0.00000000000E+00  0.87621577784E+02  0.87621577784E+02  0.00000000000E+00 0. -1.
         21   -1    0    0  502  503 -0.00000000000E+00 -0.00000000000E+00 -0.14411478288E+03  0.14411478288E+03  0.00000000000E+00 0. -1.
         25    2    1    2    0    0 -0.17551350054E+02 -0.59702247736E+02 -0.84812918239E+02  0.16336667128E+03  0.12499211940E+03 0.  0.
          5    1    3    3  501    0  0.18729142427E+02 -0.10348155370E+02  0.27854341233E+02  0.35124626989E+02  0.10000000000E+00 0. -1.
         -5    1    3    3    0  501 -0.36280492480E+02 -0.49354092367E+02 -0.11266725947E+03  0.12824204429E+03  0.10000000000E+00 0. -1.
         21    1    1    2  504  503  0.17551350054E+02  0.59702247736E+02  0.28319713143E+02  0.68369689380E+02  0.00000000000E+00 0. -1.
<mgrwt>
<rscale>  1 0.13962607E+03</rscale>
<asrwt>0</asrwt>
<pdfrwt beam="1">  1       21 0.13480243E-01 0.13962607E+03</pdfrwt>
<pdfrwt beam="2">  1       21 0.22171505E-01 0.13962607E+03</pdfrwt>
<totfact> 0.90780719E+05</totfact>
</mgrwt>
</event>
<event>
 6    1  0.4424270E-002  0.1267259E+03  0.7546771E-02  0.1232396E+00
         21   -1    0    0  504  502  0.00000000000E+00  0.00000000000E+00  0.69829077478E+03  0.69829077478E+03  0.00000000000E+00 0. -1.
         21   -1    0    0  502  503 -0.00000000000E+00 -0.00000000000E+00 -0.18904995507E+02  0.18904995507E+02  0.00000000000E+00 0.  1.
         25    2    1    2    0    0 -0.19834318188E+02 -0.62159413201E+01  0.19622913797E+03  0.23359223624E+03  0.12500968019E+03 0.  0.
          5    1    3    3  501    0  0.50093657491E+02 -0.19800325374E+02  0.10331018724E+03  0.11650936526E+03  0.10000000000E+00 0.  1.
         -5    1    3    3    0  501 -0.69927975680E+02  0.13584384054E+02  0.92918950726E+02  0.11708287098E+03  0.10000000000E+00 0.  1.
         21    1    1    2  504  503  0.19834318188E+02  0.62159413201E+01  0.48315664130E+03  0.48360353404E+03  0.00000000000E+00 0. -1.
<mgrwt>
<rscale>  1 0.12672592E+03</rscale>
<asrwt>0</asrwt>
<pdfrwt beam="1">  1       21 0.10742933E+00 0.12672592E+03</pdfrwt>
<pdfrwt beam="2">  1       21 0.29084614E-02 0.12672592E+03</pdfrwt>
<totfact> 0.46683815E+05</totfact>
</mgrwt>
</event>
<event>
 6    1  0.4424270E-002  0.1262946E+03  0.7546771E-02  0.1233060E+00
         21   -1    0    0  503  502  0.00000000000E+00  0.00000000000E+00  0.80468525208E+03  0.80468525208E+03  0.00000000000E+00 0.  1.
         21   -1    0    0  504  503 -0.00000000000E+00 -0.00000000000E+00 -0.35897988963E+02  0.35897988963E+02  0.00000000000E+00 0.  1.
         25    2    1    2    0    0 -0.17238338038E+02 -0.52719756687E+01  0.75663863397E+02  0.14722546813E+03  0.12500145685E+03 0.  0.
          5    1    3    3  501    0  0.19646431638E+02  0.47921990617E+02  0.60151104504E+01  0.52141068406E+02  0.10000000000E+00 0.  1.
         -5    1    3    3    0  501 -0.36884769676E+02 -0.53193966285E+02  0.69648752947E+02  0.95084399721E+02  0.10000000000E+00 0.  1.
         21    1    1    2  504  502  0.17238338038E+02  0.52719756687E+01  0.69312339972E+03  0.69335777292E+03  0.00000000000E+00 0.  1.
<mgrwt>
<rscale>  1 0.12629457E+03</rscale>
<asrwt>0</asrwt>
<pdfrwt beam="1">  1       21 0.12379772E+00 0.12629457E+03</pdfrwt>
<pdfrwt beam="2">  1       21 0.55227681E-02 0.12629457E+03</pdfrwt>
<totfact> 0.11428187E+05</totfact>
</mgrwt>
</event>
<event>
 6    1  0.4424270E-002  0.1515774E+03  0.7546771E-02  0.1198548E+00
         21   -1    0    0  503  502  0.00000000000E+00  0.00000000000E+00  0.59325479545E+02  0.59325479545E+02  0.00000000000E+00 0. -1.
         21   -1    0    0  504  503 -0.00000000000E+00 -0.00000000000E+00 -0.38639840468E+03  0.38639840468E+03  0.00000000000E+00 0. -1.
         25    2    1    2    0    0 -0.19221603367E+01 -0.85697437858E+02 -0.32653732076E+03  0.36000321911E+03  0.12501180092E+03 0.  0.
          5    1    3    3  501    0  0.29666014415E+02  0.14847950163E+02 -0.15631288744E+03  0.15979443925E+03  0.10000000000E+00 0.  1.
         -5    1    3    3    0  501 -0.31588174751E+02 -0.10054538802E+03 -0.17022443331E+03  0.20020877986E+03  0.10000000000E+00 0.  1.
         21    1    1    2  504  502  0.19221603367E+01  0.85697437858E+02 -0.53560438087E+00  0.85720665115E+02  0.00000000000E+00 0. -1.
<mgrwt>
<rscale>  1 0.15157736E+03</rscale>
<asrwt>0</asrwt>
<pdfrwt beam="1">  1       21 0.91269967E-02 0.15157736E+03</pdfrwt>
<pdfrwt beam="2">  1       21 0.59445909E-01 0.15157736E+03</pdfrwt>
<totfact> 0.25463498E+05</totfact>
</mgrwt>
</event>
<event>
 6    1  0.4424270E-002  0.1259932E+03  0.7546771E-02  0.1233525E+00
         21   -1    0    0  503  502  0.00000000000E+00  0.00000000000E+00  0.10208400888E+03  0.10208400888E+03  0.00000000000E+00 0.  1.
         21   -1    0    0  504  503 -0.00000000000E+00 -0.00000000000E+00 -0.49371202429E+02  0.49371202429E+02  0.00000000000E+00 0.  1.
         25    2    1    2    0    0  0.15640119831E+02  0.22060954029E+01  0.44263126091E+02  0.13354216290E+03  0.12499921894E+03 0.  0.
          5    1    3    3  501    0  0.29236779424E+02  0.40450984441E+02 -0.23020071782E+02  0.54963670895E+02  0.10000000000E+00 0. -1.
         -5    1    3    3    0  501 -0.13596659593E+02 -0.38244889038E+02  0.67283197873E+02  0.78578492004E+02  0.10000000000E+00 0. -1.
         21    1    1    2  504  502 -0.15640119831E+02 -0.22060954029E+01  0.84496803630E+01  0.17913048414E+02  0.00000000000E+00 0. -1.
<mgrwt>
<rscale>  1 0.12599319E+03</rscale>
<asrwt>0</asrwt>
<pdfrwt beam="1">  1       21 0.15705232E-01 0.12599319E+03</pdfrwt>
<pdfrwt beam="2">  1       21 0.75955696E-02 0.12599319E+03</pdfrwt>
<totfact> 0.46642981E+06</totfact>
</mgrwt>
</event>
<event>
 6    1  0.4424270E-002  0.1747024E+03  0.7546771E-02  0.1173031E+00
         21   -1    0    0  504  502  0.00000000000E+00  0.00000000000E+00  0.43405548820E+03  0.43405548820E+03  0.00000000000E+00 0.  1.
         21   -1    0    0  502  503 -0.00000000000E+00 -0.00000000000E+00 -0.12772476631E+03  0.12772476631E+03  0.00000000000E+00 0.  1.
         25    2    1    2    0    0 -0.95025331246E+02  0.76595877277E+02 -0.52775143905E+02  0.18249966597E+03  0.12499668104E+03 0.  0.
          5    1    3    3  501    0 -0.45650442368E+00 -0.31227258654E+02 -0.11158412772E+02  0.33164291865E+02  0.10000000000E+00 0.  1.
         -5    1    3    3    0  501 -0.94568826822E+02  0.10782313593E+03 -0.41616731133E+02  0.14933537410E+03  0.10000000000E+00 0.  1.
         21    1    1    2  504  503  0.95025331246E+02 -0.76595877277E+02  0.35910586580E+03  0.37928058854E+03  0.00000000000E+00 0.  1.
<mgrwt>
<rscale>  1 0.17470235E+03</rscale>
<asrwt>0</asrwt>
<pdfrwt beam="1">  1       21 0.66777767E-01 0.17470235E+03</pdfrwt>
<pdfrwt beam="2">  1       21 0.19649964E-01 0.17470235E+03</pdfrwt>
<totfact> 0.49450388E+04</totfact>
</mgrwt>
</event>
<event>
 6    1  0.4424270E-002  0.1408193E+03  0.7546771E-02  0.1212231E+00
         21   -1    0    0  503  502  0.00000000000E+00  0.00000000000E+00  0.12102525208E+02  0.12102525208E+02  0.00000000000E+00 0.  1.
         21   -1    0    0  504  503 -0.00000000000E+00 -0.00000000000E+00 -0.13737523640E+04  0.13737523640E+04  0.00000000000E+00 0.  1.
         25    2    1    2    0    0 -0.64837689655E+02 -0.30207393346E+01 -0.12400131056E+04  0.12479834066E+04  0.12496811636E+03 0.  0.
          5    1    3    3  501    0 -0.41249789239E+01 -0.48379030823E+02 -0.22675939437E+03  0.23189950196E+03  0.10000000000E+00 0. -1.
         -5    1    3    3    0  501 -0.60712710731E+02  0.45358291488E+02 -0.10132537112E+04  0.10160839046E+04  0.10000000000E+00 0. -1.
         21    1    1    2  504  502  0.64837689655E+02  0.30207393346E+01 -0.12163673314E+03  0.13787148260E+03  0.00000000000E+00 0.  1.
<mgrwt>
<rscale>  1 0.14081932E+03</rscale>
<asrwt>0</asrwt>
<pdfrwt beam="1">  1       21 0.18619269E-02 0.14081932E+03</pdfrwt>
<pdfrwt beam="2">  1       21 0.21134652E+00 0.14081932E+03</pdfrwt>
<totfact> 0.16209604E+05</totfact>
</mgrwt>
</event>
<event>
 6    1  0.4424270E-002  0.1332172E+03  0.7546771E-02  0.1222759E+00
         21   -1    0    0  504  502  0.00000000000E+00  0.00000000000E+00  0.15404717636E+04  0.15404717636E+04  0.00000000000E+00 0.  1.
         21   -1    0    0  502  503 -0.00000000000E+00 -0.00000000000E+00 -0.16273413740E+04  0.16273413740E+04  0.00000000000E+00 0. -1.
         25    2    1    2    0    0 -0.41245011080E+02  0.20410936394E+02 -0.16242701497E+04  0.16297240063E+04  0.12501623981E+03 0.  0.
          5    1    3    3  501    0 -0.80130254920E+02 -0.12687151940E+02 -0.89574644524E+03  0.89941287835E+03  0.10000000000E+00 0.  1.
         -5    1    3    3    0  501  0.38885243840E+02  0.33098088335E+02 -0.72852370450E+03  0.73031112798E+03  0.10000000000E+00 0.  1.
         21    1    1    2  504  503  0.41245011080E+02 -0.20410936394E+02  0.15374005394E+04  0.15380891313E+04  0.00000000000E+00 0.  1.
<mgrwt>
<rscale>  1 0.13321718E+03</rscale>
<asrwt>0</asrwt>
<pdfrwt beam="1">  1       21 0.23699566E+00 0.13321718E+03</pdfrwt>
<pdfrwt beam="2">  1       21 0.25036021E+00 0.13321718E+03</pdfrwt>
<totfact> 0.61112482E+00</totfact>
</mgrwt>
</event>
<event>
 6    1  0.4424270E-002  0.1398104E+03  0.7546771E-02  0.1213584E+00
         21   -1    0    0  504  502  0.00000000000E+00  0.00000000000E+00  0.49742264028E+02  0.49742264028E+02  0.00000000000E+00 0. -1.
         21   -1    0    0  502  503 -0.00000000000E+00 -0.00000000000E+00 -0.85211140163E+03  0.85211140163E+03  0.00000000000E+00 0.  1.
         25    2    1    2    0    0  0.41456162601E+02 -0.46953191832E+02 -0.82385614699E+03  0.83563503374E+03  0.12499497208E+03 0.  0.
          5    1    3    3  501    0 -0.34810458686E+02 -0.34596258992E+02 -0.51215947268E+03  0.51450559242E+03  0.10000000000E+00 0.  1.
         -5    1    3    3    0  501  0.76266621287E+02 -0.12356932840E+02 -0.31169667431E+03  0.32112944132E+03  0.10000000000E+00 0.  1.
         21    1    1    2  504  503 -0.41456162601E+02  0.46953191832E+02  0.21487009386E+02  0.66218631918E+02  0.00000000000E+00 0. -1.
<mgrwt>
<rscale>  1 0.13981044E+03</rscale>
<asrwt>0</asrwt>
<pdfrwt beam="1">  1       21 0.76526561E-02 0.13981044E+03</pdfrwt>
<pdfrwt beam="2">  1       21 0.13109406E+00 0.13981044E+03</pdfrwt>
<totfact> 0.56458478E+04</totfact>
</mgrwt>
</event>
<event>
 6    1  0.4424270E-002  0.1273930E+03  0.7546771E-02  0.1231376E+00
         21   -1    0    0  503  502  0.00000000000E+00  0.00000000000E+00  0.40006533450E+02  0.40006533450E+02  0.00000000000E+00 0.  1.
         21   -1    0    0  504  503 -0.00000000000E+00 -0.00000000000E+00 -0.21298579586E+03  0.21298579586E+03  0.00000000000E+00 0.  1.
         25    2    1    2    0    0  0.13495715721E+01  0.24535524319E+02 -0.18579785061E+03  0.22527718001E+03  0.12500061297E+03 0.  0.
          5    1    3    3  501    0 -0.59805266476E+02  0.14008752980E+02 -0.64745782095E+02  0.89246520142E+02  0.10000000000E+00 0.  1.
         -5    1    3    3    0  501  0.61154838048E+02  0.10526771339E+02 -0.12105206852E+03  0.13603065987E+03  0.10000000000E+00 0.  1.
         21    1    1    2  504  502 -0.13495715721E+01 -0.24535524319E+02  0.12818588206E+02  0.27715149298E+02  0.00000000000E+00 0.  1.
<mgrwt>
<rscale>  1 0.12739296E+03</rscale>
<asrwt>0</asrwt>
<pdfrwt beam="1">  1       21 0.61548514E-02 0.12739296E+03</pdfrwt>
<pdfrwt beam="2">  1       21 0.32767045E-01 0.12739296E+03</pdfrwt>
<totfact> 0.16854504E+06</totfact>
</mgrwt>
</event>
<event>
 6    1  0.4424270E-002  0.1267075E+03  0.7546771E-02  0.1232425E+00
         21   -1    0    0  503  502  0.00000000000E+00  0.00000000000E+00  0.85147457435E+02  0.85147457435E+02  0.00000000000E+00 0.  1.
         21   -1    0    0  504  503 -0.00000000000E+00 -0.00000000000E+00 -0.63860591983E+02  0.63860591983E+02  0.00000000000E+00 0.  1.
         25    2    1    2    0    0  0.18959181730E+02 -0.83974402871E+01  0.17134968778E+02  0.12786080796E+03  0.12499924593E+03 0.  0.
          5    1    3    3  501    0  0.23988368790E+02 -0.34401849140E+02 -0.44273220571E+02  0.60984072684E+02  0.10000000000E+00 0.  1.
         -5    1    3    3    0  501 -0.50291870601E+01  0.26004408853E+02  0.61408189348E+02  0.66876735277E+02  0.10000000000E+00 0.  1.
         21    1    1    2  504  502 -0.18959181730E+02  0.83974402871E+01  0.41518966737E+01  0.21147241457E+02  0.00000000000E+00 0.  1.
<mgrwt>
<rscale>  1 0.12670745E+03</rscale>
<asrwt>0</asrwt>
<pdfrwt beam="1">  1       21 0.13099609E-01 0.12670745E+03</pdfrwt>
<pdfrwt beam="2">  1       21 0.98247065E-02 0.12670745E+03</pdfrwt>
<totfact> 0.41383911E+06</totfact>
</mgrwt>
</event>
<event>
 6    1  0.4424270E-002  0.1579045E+03  0.7546771E-02  0.1191083E+00
         21   -1    0    0  504  502  0.00000000000E+00  0.00000000000E+00  0.10495406937E+04  0.10495406937E+04  0.00000000000E+00 0.  1.
         21   -1    0    0  502  503 -0.00000000000E+00 -0.00000000000E+00 -0.31448262417E+03  0.31448262417E+03  0.00000000000E+00 0.  1.
         25    2    1    2    0    0  0.65582853447E+01  0.96255532641E+02 -0.29225764685E+03  0.33218722634E+03  0.12500273011E+03 0.  0.
          5    1    3    3  501    0  0.31928865423E+02  0.31626857716E+02 -0.16581997582E+02  0.47902851899E+02  0.10000000000E+00 0.  1.
         -5    1    3    3    0  501 -0.25370580079E+02  0.64628674925E+02 -0.27567564927E+03  0.28428437445E+03  0.10000000000E+00 0.  1.
         21    1    1    2  504  503 -0.65582853447E+01 -0.96255532641E+02  0.10273157164E+04  0.10318360916E+04  0.00000000000E+00 0.  1.
<mgrwt>
<rscale>  1 0.15790447E+03</rscale>
<asrwt>0</asrwt>
<pdfrwt beam="1">  1       21 0.16146780E+00 0.15790447E+03</pdfrwt>
<pdfrwt beam="2">  1       21 0.48381943E-01 0.15790447E+03</pdfrwt>
<totfact> 0.10429134E+03</totfact>
</mgrwt>
</event>
<event>
 6    1  0.4424270E-002  0.1285158E+03  0.7546771E-02  0.1229675E+00
         21   -1    0    0  504  502  0.00000000000E+00  0.00000000000E+00  0.23729512687E+02  0.23729512687E+02  0.00000000000E+00 0. -1.
         21   -1    0    0  502  503 -0.00000000000E+00 -0.00000000000E+00 -0.28486775968E+03  0.28486775968E+03  0.00000000000E+00 0. -1.
         25    2    1    2    0    0  0.14753906553E+01 -0.29803866434E+02 -0.23927684758E+03  0.27160581367E+03  0.12500344396E+03 0.  0.
          5    1    3    3  501    0  0.16470028286E+02 -0.76387539269E+02 -0.16623216764E+03  0.18368304643E+03  0.10000000000E+00 0.  1.
         -5    1    3    3    0  501 -0.14994637631E+02  0.46583672835E+02 -0.73044679944E+02  0.87922767248E+02  0.10000000000E+00 0.  1.
         21    1    1    2  504  503 -0.14753906553E+01  0.29803866434E+02 -0.21861399416E+02  0.36991458695E+02  0.00000000000E+00 0. -1.
<mgrwt>
<rscale>  1 0.12851579E+03</rscale>
<asrwt>0</asrwt>
<pdfrwt beam="1">  1       21 0.36506943E-02 0.12851579E+03</pdfrwt>
<pdfrwt beam="2">  1       21 0.43825809E-01 0.12851579E+03</pdfrwt>
<totfact> 0.22704410E+06</totfact>
</mgrwt>
</event>
<event>
 6    1  0.4424270E-002  0.1345844E+03  0.7546771E-02  0.1220808E+00
         21   -1    0    0  503  502  0.00000000000E+00  0.00000000000E+00  0.20307995707E+02  0.20307995707E+02  0.00000000000E+00 0.  1.
         21   -1    0    0  504  503 -0.00000000000E+00 -0.00000000000E+00 -0.11958473840E+04  0.11958473840E+04  0.00000000000E+00 0. -1.
         25    2    1    2    0    0 -0.49365270373E+02  0.71746631237E+01 -0.11539973811E+04  0.11618188011E+04  0.12499826034E+03 0.  0.
          5    1    3    3  501    0 -0.66047695236E+02 -0.32339210932E+02 -0.97438556744E+03  0.97715677691E+03  0.10000000000E+00 0. -1.
         -5    1    3    3    0  501  0.16682424864E+02  0.39513874056E+02 -0.17961181370E+03  0.18466202415E+03  0.10000000000E+00 0. -1.
         21    1    1    2  504  502  0.49365270373E+02 -0.71746631237E+01 -0.21542007185E+02  0.54336578687E+02  0.00000000000E+00 0.  1.
<mgrwt>
<rscale>  1 0.13458444E+03</rscale>
<asrwt>0</asrwt>
<pdfrwt beam="1">  1       21 0.31243064E-02 0.13458444E+03</pdfrwt>
<pdfrwt beam="2">  1       21 0.18397656E+00 0.13458444E+03</pdfrwt>
<totfact> 0.10455582E+05</totfact>
</mgrwt>
</event>
<event>
 6    1  0.4424270E-002  0.1291591E+03  0.7546771E-02  0.1228709E+00
         21   -1    0    0  504  502  0.00000000000E+00  0.00000000000E+00  0.20628912530E+03  0.20628912530E+03  0.00000000000E+00 0.  1.
         21   -1    0    0  502  503 -0.00000000000E+00 -0.00000000000E+00 -0.33516987769E+02  0.33516987769E+02  0.00000000000E+00 0.  1.
         25    2    1    2    0    0 -0.26889265709E+02 -0.18316025169E+02  0.11236950570E+03  0.17119862572E+03  0.12499421686E+03 0.  0.
          5    1    3    3  501    0 -0.36070360591E+02 -0.48004283939E+02  0.59559336866E+01  0.60340412128E+02  0.10000000000E+00 0. -1.
         -5    1    3    3    0  501  0.91810948826E+01  0.29688258770E+02  0.10641357202E+03  0.11085821359E+03  0.10000000000E+00 0. -1.
         21    1    1    2  504  503  0.26889265709E+02  0.18316025169E+02  0.60402631834E+02  0.68607487352E+02  0.00000000000E+00 0.  1.
<mgrwt>
<rscale>  1 0.12915906E+03</rscale>
<asrwt>0</asrwt>
<pdfrwt beam="1">  1       21 0.31736788E-01 0.12915906E+03</pdfrwt>
<pdfrwt beam="2">  1       21 0.51564598E-02 0.12915906E+03</pdfrwt>
<totfact> 0.24195527E+06</totfact>
</mgrwt>
</event>
<event>
 6    1  0.4424270E-002  0.1321153E+03  0.7546771E-02  0.1224350E+00
         21   -1    0    0  503  502  0.00000000000E+00  0.00000000000E+00  0.36791611419E+02  0.36791611419E+02  0.00000000000E+00 0.  1.
         21   -1    0    0  504  503 -0.00000000000E+00 -0.00000000000E+00 -0.24364216095E+03  0.24364216095E+03  0.00000000000E+00 0.  1.
         25    2    1    2    0    0  0.27864891202E+02 -0.32470932880E+02 -0.19586610764E+03  0.23625830851E+03  0.12499457017E+03 0.  0.
          5    1    3    3  501    0  0.28250063568E+02 -0.51708662565E+02 -0.20617463012E+03  0.21442910246E+03  0.10000000000E+00 0. -1.
         -5    1    3    3    0  501 -0.38517236628E+00  0.19237729685E+02  0.10308522476E+02  0.21829206051E+02  0.10000000000E+00 0. -1.
         21    1    1    2  504  502 -0.27864891202E+02  0.32470932880E+02 -0.10984441890E+02  0.44175463862E+02  0.00000000000E+00 0.  1.
<mgrwt>
<rscale>  1 0.13211531E+03</rscale>
<asrwt>0</asrwt>
<pdfrwt beam="1">  1       21 0.56602480E-02 0.13211531E+03</pdfrwt>
<pdfrwt beam="2">  1       21 0.37483409E-01 0.13211531E+03</pdfrwt>
<totfact> 0.14925031E+06</totfact>
</mgrwt>
</event>
<event>
 6    1  0.4424270E-002  0.1260887E+03  0.7546771E-02  0.1233378E+00
         21   -1    0    0  503  502  0.00000000000E+00  0.00000000000E+00  0.13724350490E+03  0.13724350490E+03  0.00000000000E+00 0.  1.
         21   -1    0    0  504  503 -0.00000000000E+00 -0.00000000000E+00 -0.37092841252E+02  0.37092841252E+02  0.00000000000E+00 0.  1.
         25    2    1    2    0    0 -0.11998339983E+02 -0.11398132834E+02  0.86864522167E+02  0.15311373675E+03  0.12499797428E+03 0.  0.
          5    1    3    3  501    0  0.18686584135E+02  0.21884060545E+02 -0.21336919590E+02  0.35824219045E+02  0.10000000000E+00 0.  1.
         -5    1    3    3    0  501 -0.30684924119E+02 -0.33282193380E+02  0.10820144176E+03  0.11728951770E+03  0.10000000000E+00 0.  1.
         21    1    1    2  504  502  0.11998339983E+02  0.11398132834E+02  0.13286141479E+02  0.21222609403E+02  0.00000000000E+00 0.  1.
<mgrwt>
<rscale>  1 0.12608874E+03</rscale>
<asrwt>0</asrwt>
<pdfrwt beam="1">  1       21 0.21114385E-01 0.12608874E+03</pdfrwt>
<pdfrwt beam="2">  1       21 0.57065910E-02 0.12608874E+03</pdfrwt>
<totfact> 0.44147914E+06</totfact>
</mgrwt>
</event>
<event>
 6    1  0.4424270E-002  0.1824620E+03  0.7546771E-02  0.1165441E+00
         21   -1    0    0  504  502  0.00000000000E+00  0.00000000000E+00  0.35300123528E+03  0.35300123528E+03  0.00000000000E+00 0.  1.
         21   -1    0    0  502  503 -0.00000000000E+00 -0.00000000000E+00 -0.21988637705E+03  0.21988637705E+03  0.00000000000E+00 0.  1.
         25    2    1    2    0    0 -0.20186361709E+02  0.13137745787E+03 -0.16530303710E+03  0.24620616827E+03  0.12499943035E+03 0.  0.
          5    1    3    3  501    0 -0.73292297919E+01  0.15180822980E+03 -0.11560453344E+03  0.19095516331E+03  0.10000000000E+00 0.  1.
         -5    1    3    3    0  501 -0.12857131917E+02 -0.20430771933E+02 -0.49698503663E+02  0.55251004962E+02  0.10000000000E+00 0.  1.
         21    1    1    2  504  503  0.20186361709E+02 -0.13137745787E+03  0.29841789533E+03  0.32668144405E+03  0.00000000000E+00 0.  1.
<mgrwt>
<rscale>  1 0.18246200E+03</rscale>
<asrwt>0</asrwt>
<pdfrwt beam="1">  1       21 0.54307882E-01 0.18246200E+03</pdfrwt>
<pdfrwt beam="2">  1       21 0.33828673E-01 0.18246200E+03</pdfrwt>
<totfact> 0.27122690E+04</totfact>
</mgrwt>
</event>
<event>
 6    1  0.4424270E-002  0.1266445E+03  0.7546771E-02  0.1232521E+00
         21   -1    0    0  503  502  0.00000000000E+00  0.00000000000E+00  0.15058662161E+03  0.15058662161E+03  0.00000000000E+00 0. -1.
         21   -1    0    0  504  503 -0.00000000000E+00 -0.00000000000E+00 -0.55196574203E+02  0.55196574203E+02  0.00000000000E+00 0. -1.
         25    2    1    2    0    0  0.11868263739E+01 -0.20338290149E+02  0.20650908918E+02  0.12831711662E+03  0.12499507101E+03 0.  0.
          5    1    3    3  501    0 -0.28111450707E+02 -0.46697555021E+01 -0.45846571325E+02  0.53981278047E+02  0.10000000000E+00 0.  1.
         -5    1    3    3    0  501  0.29298277081E+02 -0.15668534647E+02  0.66497480243E+02  0.74335838575E+02  0.10000000000E+00 0.  1.
         21    1    1    2  504  502 -0.11868263739E+01  0.20338290149E+02  0.74739138489E+02  0.77466079190E+02  0.00000000000E+00 0. -1.
<mgrwt>
<rscale>  1 0.12664447E+03</rscale>
<asrwt>0</asrwt>
<pdfrwt beam="1">  1       21 0.23167172E-01 0.12664447E+03</pdfrwt>
<pdfrwt beam="2">  1       21 0.84917807E-02 0.12664447E+03</pdfrwt>
<totfact> 0.18824608E+06</totfact>
</mgrwt>
</event>
<event>
 6    1  0.4424270E-002  0.1335704E+03  0.7546771E-02  0.1222252E+00
         21   -1    0    0  504  502  0.00000000000E+00  0.00000000000E+00  0.12526658214E+02  0.12526658214E+02  0.00000000000E+00 0. -1.
         21   -1    0    0  502  503 -0.00000000000E+00 -0.00000000000E+00 -0.68849108183E+03  0.68849108183E+03  0.00000000000E+00 0. -1.
         25    2    1    2    0    0 -0.46471376006E+02 -0.76040281906E+01 -0.56307683879E+03  0.57870250452E+03  0.12499460920E+03 0.  0.
          5    1    3    3  501    0  0.28612703273E+02  0.24852104433E+02 -0.77343818866E+02  0.86130077209E+02  0.10000000000E+00 0.  1.
         -5    1    3    3    0  501 -0.75084079279E+02 -0.32456132623E+02 -0.48573301992E+03  0.49257242731E+03  0.10000000000E+00 0.  1.
         21    1    1    2  504  503  0.46471376006E+02  0.76040281906E+01 -0.11288758483E+03  0.12231523553E+03  0.00000000000E+00 0. -1.
<mgrwt>
<rscale>  1 0.13357044E+03</rscale>
<asrwt>0</asrwt>
<pdfrwt beam="1">  1       21 0.19271786E-02 0.13357044E+03</pdfrwt>
<pdfrwt beam="2">  1       21 0.10592168E+00 0.13357044E+03</pdfrwt>
<totfact> 0.94147039E+05</totfact>
</mgrwt>
</event>
<event>
 6    1  0.4424270E-002  0.1275374E+03  0.7546771E-02  0.1231156E+00
         21   -1    0    0  503  502  0.00000000000E+00  0.00000000000E+00  0.10540501936E+03  0.10540501936E+03  0.00000000000E+00 0.  1.
         21   -1    0    0  504  503 -0.00000000000E+00 -0.00000000000E+00 -0.55906232845E+02  0.55906232845E+02  0.00000000000E+00 0.  1.
         25    2    1    2    0    0  0.79919481154E+01 -0.24030747913E+02  0.46757904213E+02  0.13583851157E+03  0.12499780613E+03 0.  0.
          5    1    3    3  501    0  0.16146898406E+02 -0.50536450924E+02  0.77829030679E+02  0.94191417956E+02  0.10000000000E+00 0.  1.
         -5    1    3    3    0  501 -0.81549502903E+01  0.26505703011E+02 -0.31071126466E+02  0.41647093611E+02  0.10000000000E+00 0.  1.
         21    1    1    2  504  502 -0.79919481154E+01  0.24030747913E+02  0.27408823055E+01  0.25472740641E+02  0.00000000000E+00 0.  1.
<mgrwt>
<rscale>  1 0.12753744E+03</rscale>
<asrwt>0</asrwt>
<pdfrwt beam="1">  1       21 0.16216157E-01 0.12753744E+03</pdfrwt>
<pdfrwt beam="2">  1       21 0.86009589E-02 0.12753744E+03</pdfrwt>
<totfact> 0.35543728E+06</totfact>
</mgrwt>
</event>
<event>
 6    1  0.4424270E-002  0.1386487E+03  0.7546771E-02  0.1215159E+00
         21   -1    0    0  504  502  0.00000000000E+00  0.00000000000E+00  0.42212635010E+02  0.42212635010E+02  0.00000000000E+00 0.  1.
         21   -1    0    0  502  503 -0.00000000000E+00 -0.00000000000E+00 -0.23598371365E+03  0.23598371365E+03  0.00000000000E+00 0.  1.
         25    2    1    2    0    0 -0.38219919650E+01  0.59865607652E+02 -0.14751944533E+03  0.20244866100E+03  0.12499989995E+03 0.  0.
          5    1    3    3  501    0 -0.11283431178E+02  0.49619496219E+02 -0.16955568813E+03  0.17702697987E+03  0.10000000000E+00 0.  1.
         -5    1    3    3    0  501  0.74614392129E+01  0.10246111433E+02  0.22036242802E+02  0.25421681130E+02  0.10000000000E+00 0.  1.
         21    1    1    2  504  503  0.38219919650E+01 -0.59865607652E+02 -0.46251633313E+02  0.75747687662E+02  0.00000000000E+00 0.  1.
<mgrwt>
<rscale>  1 0.13864874E+03</rscale>
<asrwt>0</asrwt>
<pdfrwt beam="1">  1       21 0.64942516E-02 0.13864874E+03</pdfrwt>
<pdfrwt beam="2">  1       21 0.36305186E-01 0.13864874E+03</pdfrwt>
<totfact> 0.12595987E+06</totfact>
</mgrwt>
</event>
<event>
 6    1  0.4424270E-002  0.1304115E+03  0.7546771E-02  0.1226846E+00
         21   -1    0    0  503  502  0.00000000000E+00  0.00000000000E+00  0.24486207742E+02  0.24486207742E+02  0.00000000000E+00 0.  1.
         21   -1    0    0  504  503 -0.00000000000E+00 -0.00000000000E+00 -0.41864238630E+03  0.41864238630E+03  0.00000000000E+00 0.  1.
         25    2    1    2    0    0 -0.99752691521E+01 -0.35833967982E+02 -0.38254316766E+03  0.40416141197E+03  0.12499437008E+03 0.  0.
          5    1    3    3  501    0 -0.23042602347E+02  0.38358830434E+02 -0.22658441098E+03  0.23096074708E+03  0.10000000000E+00 0.  1.
         -5    1    3    3    0  501  0.13067333195E+02 -0.74192798416E+02 -0.15595875668E+03  0.17320066489E+03  0.10000000000E+00 0.  1.
         21    1    1    2  504  502  0.99752691521E+01  0.35833967982E+02 -0.11613010899E+02  0.38967182065E+02  0.00000000000E+00 0.  1.
<mgrwt>
<rscale>  1 0.13041155E+03</rscale>
<asrwt>0</asrwt>
<pdfrwt beam="1">  1       21 0.37671088E-02 0.13041155E+03</pdfrwt>
<pdfrwt beam="2">  1       21 0.64406522E-01 0.13041155E+03</pdfrwt>
<totfact> 0.96649927E+05</totfact>
</mgrwt>
</event>
<event>
 6    1  0.4424270E-002  0.1325468E+03  0.7546771E-02  0.1223725E+00
         21   -1    0    0  504  502  0.00000000000E+00  0.00000000000E+00  0.44217124241E+01  0.44217124241E+01  0.00000000000E+00 0. -1.
         21   -1    0    0  502  503 -0.00000000000E+00 -0.00000000000E+00 -0.17650974274E+04  0.17650974274E+04  0.00000000000E+00 0. -1.
         25    2    1    2    0    0  0.26295297400E+02  0.35418140604E+02 -0.13349927040E+04  0.13415566261E+04  0.12499109511E+03 0.  0.
          5    1    3    3  501    0  0.48832324332E+02  0.71734572905E+02 -0.10186460492E+04  0.10223356730E+04  0.10000000000E+00 0.  1.
         -5    1    3    3    0  501 -0.22537026932E+02 -0.36316432300E+02 -0.31634665484E+03  0.31922095305E+03  0.10000000000E+00 0.  1.
         21    1    1    2  504  503 -0.26295297400E+02 -0.35418140604E+02 -0.42568301096E+03  0.42796251374E+03  0.00000000000E+00 0. -1.
<mgrwt>
<rscale>  1 0.13254683E+03</rscale>
<asrwt>0</asrwt>
<pdfrwt beam="1">  1       21 0.68026375E-03 0.13254683E+03</pdfrwt>
<pdfrwt beam="2">  1       21 0.27155333E+00 0.13254683E+03</pdfrwt>
<totfact> 0.35728343E+05</totfact>
</mgrwt>
</event>
<event>
 6    1  0.4424270E-002  0.1259847E+03  0.7546771E-02  0.1233538E+00
         21   -1    0    0  503  502  0.00000000000E+00  0.00000000000E+00  0.12608160565E+03  0.12608160565E+03  0.00000000000E+00 0. -1.
         21   -1    0    0  504  503 -0.00000000000E+00 -0.00000000000E+00 -0.44211281002E+03  0.44211281002E+03  0.00000000000E+00 0.  1.
         25    2    1    2    0    0  0.15759823615E+02  0.45767156355E-01 -0.43259659152E+03  0.45056846779E+03  0.12499503607E+03 0.  0.
          5    1    3    3  501    0 -0.13125658256E+02 -0.56640632626E+02 -0.14943184931E+03  0.16034441605E+03  0.10000000000E+00 0. -1.
         -5    1    3    3    0  501  0.28885481871E+02  0.56686399783E+02 -0.28316474221E+03  0.29022405175E+03  0.10000000000E+00 0. -1.
         21    1    1    2  504  502 -0.15759823615E+02 -0.45767156355E-01  0.11656538714E+03  0.11762594788E+03  0.00000000000E+00 0. -1.
<mgrwt>
<rscale>  1 0.12598465E+03</rscale>
<asrwt>0</asrwt>
<pdfrwt beam="1">  1       21 0.19397170E-01 0.12598465E+03</pdfrwt>
<pdfrwt beam="2">  1       21 0.68017357E-01 0.12598465E+03</pdfrwt>
<totfact> 0.49908549E+04</totfact>
</mgrwt>
</event>
<event>
 6    1  0.4424270E-002  0.1277615E+03  0.7546771E-02  0.1230816E+00
         21   -1    0    0  503  502  0.00000000000E+00  0.00000000000E+00  0.11600884955E+02  0.11600884955E+02  0.00000000000E+00 0. -1.
         21   -1    0    0  504  503 -0.00000000000E+00 -0.00000000000E+00 -0.59259193121E+03  0.59259193121E+03  0.00000000000E+00 0. -1.
         25    2    1    2    0    0 -0.21389615282E+02 -0.15500325178E+02 -0.54360125743E+03  0.55841321338E+03  0.12500085631E+03 0.  0.
          5    1    3    3  501    0 -0.71631137030E+02  0.84048459283E+01 -0.30705610746E+03  0.31541262555E+03  0.10000000000E+00 0.  1.
         -5    1    3    3    0  501  0.50241521748E+02 -0.23905171107E+02 -0.23654514997E+03  0.24300058784E+03  0.10000000000E+00 0.  1.
         21    1    1    2  504  502  0.21389615282E+02  0.15500325178E+02 -0.37389788823E+02  0.45779602781E+02  0.00000000000E+00 0. -1.
<mgrwt>
<rscale>  1 0.12776146E+03</rscale>
<asrwt>0</asrwt>
<pdfrwt beam="1">  1       21 0.17847516E-02 0.12776146E+03</pdfrwt>
<pdfrwt beam="2">  1       21 0.91167984E-01 0.12776146E+03</pdfrwt>
<totfact> 0.15117009E+06</totfact>
</mgrwt>
</event>
<event>
 6    1  0.4424270E-002  0.1268501E+03  0.7546771E-02  0.1232206E+00
         21   -1    0    0  503  502  0.00000000000E+00  0.00000000000E+00  0.54847290928E+02  0.54847290928E+02  0.00000000000E+00 0.  1.
         21   -1    0    0  504  503 -0.00000000000E+00 -0.00000000000E+00 -0.14422997169E+03  0.14422997169E+03  0.00000000000E+00 0.  1.
         25    2    1    2    0    0  0.10637612956E+02  0.18795096729E+02 -0.11097214575E+03  0.16854008087E+03  0.12499810901E+03 0.  0.
          5    1    3    3  501    0 -0.40295175473E+02  0.52143865208E+02 -0.60508794888E+02  0.89465122277E+02  0.10000000000E+00 0.  1.
         -5    1    3    3    0  501  0.50932788429E+02 -0.33348768480E+02 -0.50463350861E+02  0.79074958592E+02  0.10000000000E+00 0.  1.
         21    1    1    2  504  502 -0.10637612956E+02 -0.18795096729E+02  0.21589464989E+02  0.30537181746E+02  0.00000000000E+00 0.  1.
<mgrwt>
<rscale>  1 0.12685008E+03</rscale>
<asrwt>0</asrwt>
<pdfrwt beam="1">  1       21 0.84380447E-02 0.12685008E+03</pdfrwt>
<pdfrwt beam="2">  1       21 0.22189226E-01 0.12685008E+03</pdfrwt>
<totfact> 0.20632250E+06</totfact>
</mgrwt>
</event>
<event>
 6    1  0.4424270E-002  0.1363250E+03  0.7546771E-02  0.1218361E+00
         21   -1    0    0  503  502  0.00000000000E+00  0.00000000000E+00  0.74051406443E+02  0.74051406443E+02  0.00000000000E+00 0. -1.
         21   -1    0    0  504  503 -0.00000000000E+00 -0.00000000000E+00 -0.14338054316E+03  0.14338054316E+03  0.00000000000E+00 0. -1.
         25    2    1    2    0    0  0.49490840009E+02  0.22131607202E+02 -0.85425541656E+02  0.16087891667E+03  0.12508137903E+03 0.  0.
          5    1    3    3  501    0 -0.48919755616E+01 -0.14946016828E+02 -0.93276077407E+02  0.94592554994E+02  0.10000000000E+00 0. -1.
         -5    1    3    3    0  501  0.54382815571E+02  0.37077624030E+02  0.78505357507E+01  0.66286361679E+02  0.10000000000E+00 0. -1.
         21    1    1    2  504  502 -0.49490840009E+02 -0.22131607202E+02  0.16096404936E+02  0.56553032934E+02  0.00000000000E+00 0. -1.
<mgrwt>
<rscale>  1 0.13632499E+03</rscale>
<asrwt>0</asrwt>
<pdfrwt beam="1">  1       21 0.11392524E-01 0.13632499E+03</pdfrwt>
<pdfrwt beam="2">  1       21 0.22058545E-01 0.13632499E+03</pdfrwt>
<totfact> 0.12361621E+06</totfact>
</mgrwt>
</event>
<event>
 6    1  0.4424270E-002  0.1270155E+03  0.7546771E-02  0.1231953E+00
         21   -1    0    0  504  502  0.00000000000E+00  0.00000000000E+00  0.10239230123E+03  0.10239230123E+03  0.00000000000E+00 0. -1.
         21   -1    0    0  502  503 -0.00000000000E+00 -0.00000000000E+00 -0.25307732232E+03  0.25307732232E+03  0.00000000000E+00 0. -1.
         25    2    1    2    0    0 -0.17795369016E+02  0.13856875061E+02 -0.23557474969E+03  0.26763481174E+03  0.12499696645E+03 0.  0.
          5    1    3    3  501    0  0.14756794663E+02  0.15992597509E+02 -0.23396290193E+03  0.23497271255E+03  0.10000000000E+00 0. -1.
         -5    1    3    3    0  501 -0.32552163680E+02 -0.21357224474E+01 -0.16118477613E+01  0.32662099195E+02  0.10000000000E+00 0. -1.
         21    1    1    2  504  503  0.17795369016E+02 -0.13856875061E+02  0.84889728594E+02  0.87834811810E+02  0.00000000000E+00 0. -1.
<mgrwt>
<rscale>  1 0.12701547E+03</rscale>
<asrwt>0</asrwt>
<pdfrwt beam="1">  1       21 0.15752662E-01 0.12701547E+03</pdfrwt>
<pdfrwt beam="2">  1       21 0.38934972E-01 0.12701547E+03</pdfrwt>
<totfact> 0.23197124E+05</totfact>
</mgrwt>
</event>
<event>
 6    1  0.4424270E-002  0.1264334E+03  0.7546771E-02  0.1232846E+00
         21   -1    0    0  503  502  0.00000000000E+00  0.00000000000E+00  0.41504965577E+03  0.41504965577E+03  0.00000000000E+00 0. -1.
         21   -1    0    0  504  503 -0.00000000000E+00 -0.00000000000E+00 -0.21473161892E+02  0.21473161892E+02  0.00000000000E+00 0. -1.
         25    2    1    2    0    0 -0.18399794265E+02  0.45511722144E+01  0.16855280957E+03  0.21070226037E+03  0.12500450917E+03 0.  0.
          5    1    3    3  501    0  0.11164097850E+02 -0.92482937463E+01  0.17652257570E+03  0.17711690419E+03  0.10000000000E+00 0. -1.
         -5    1    3    3    0  501 -0.29563892115E+02  0.13799465961E+02 -0.79697661255E+01  0.33585356182E+02  0.10000000000E+00 0. -1.
         21    1    1    2  504  502  0.18399794265E+02 -0.45511722144E+01  0.22502368430E+03  0.22582055729E+03  0.00000000000E+00 0. -1.
<mgrwt>
<rscale>  1 0.12643335E+03</rscale>
<asrwt>0</asrwt>
<pdfrwt beam="1">  1       21 0.63853787E-01 0.12643335E+03</pdfrwt>
<pdfrwt beam="2">  1       21 0.33035637E-02 0.12643335E+03</pdfrwt>
<totfact> 0.12227155E+06</totfact>
</mgrwt>
</event>
<event>
 6    1  0.4424270E-002  0.1313553E+03  0.7546771E-02  0.1225458E+00
         21   -1    0    0  503  502  0.00000000000E+00  0.00000000000E+00  0.92570981189E+02  0.92570981189E+02  0.00000000000E+00 0.  1.
         21   -1    0    0  504  503 -0.00000000000E+00 -0.00000000000E+00 -0.99568946036E+02  0.99568946036E+02  0.00000000000E+00 0.  1.
         25    2    1    2    0    0 -0.34489085191E+02  0.20938963021E+02 -0.42846999058E+02  0.13816687447E+03  0.12500513071E+03 0.  0.
          5    1    3    3  501    0  0.33977014906E+02  0.11778120655E+02 -0.57247859981E+02  0.67605392836E+02  0.10000000000E+00 0.  1.
         -5    1    3    3    0  501 -0.68466100097E+02  0.91608423657E+01  0.14400860923E+02  0.70561481636E+02  0.10000000000E+00 0.  1.
         21    1    1    2  504  502  0.34489085191E+02 -0.20938963021E+02  0.35849034211E+02  0.53973052754E+02  0.00000000000E+00 0.  1.
<mgrwt>
<rscale>  1 0.13135532E+03</rscale>
<asrwt>0</asrwt>
<pdfrwt beam="1">  1       21 0.14241689E-01 0.13135532E+03</pdfrwt>
<pdfrwt beam="2">  1       21 0.15318299E-01 0.13135532E+03</pdfrwt>
<totfact> 0.16217508E+06</totfact>
</mgrwt>
</event>
<event>
 6    1  0.4424270E-002  0.1261605E+03  0.7546771E-02  0.1233267E+00
         21   -1    0    0  504  502  0.00000000000E+00  0.00000000000E+00  0.26788727673E+01  0.26788727673E+01  0.00000000000E+00 0. -1.
         21   -1    0    0  502  503 -0.00000000000E+00 -0.00000000000E+00 -0.23101596451E+04  0.23101596451E+04  0.00000000000E+00 0. -1.
         25    2    1    2    0    0  0.15166485023E+02 -0.78490631016E+01 -0.22267629089E+04  0.22303339511E+04  0.12499940375E+03 0.  0.
          5    1    3    3  501    0 -0.31938028077E+02 -0.48507588849E+02 -0.14141555914E+04  0.14153476854E+04  0.10000000000E+00 0. -1.
         -5    1    3    3    0  501  0.47104513100E+02  0.40658525747E+02 -0.81260731754E+03  0.81498626577E+03  0.10000000000E+00 0. -1.
         21    1    1    2  504  503 -0.15166485023E+02  0.78490631016E+01 -0.80717863413E+02  0.82504566743E+02  0.00000000000E+00 0. -1.
<mgrwt>
<rscale>  1 0.12616054E+03</rscale>
<asrwt>0</asrwt>
<pdfrwt beam="1">  1       21 0.41213369E-03 0.12616054E+03</pdfrwt>
<pdfrwt beam="2">  1       21 0.35540968E+00 0.12616054E+03</pdfrwt>
<totfact> 0.26151318E+05</totfact>
</mgrwt>
</event>
<event>
 6    1  0.4424270E-002  0.1270208E+03  0.7546771E-02  0.1231945E+00
         21   -1    0    0  504  502  0.00000000000E+00  0.00000000000E+00  0.45221681347E+02  0.45221681347E+02  0.00000000000E+00 0. -1.
         21   -1    0    0  502  503 -0.00000000000E+00 -0.00000000000E+00 -0.12421083080E+03  0.12421083080E+03  0.00000000000E+00 0. -1.
         25    2    1    2    0    0 -0.15885169342E+02  0.16027540146E+02 -0.70846582935E+02  0.14544247176E+03  0.12500021452E+03 0.  0.
          5    1    3    3  501    0  0.23663302122E+02  0.19874307311E+02 -0.94346358589E+02  0.99278322595E+02  0.10000000000E+00 0.  1.
         -5    1    3    3    0  501 -0.39548471463E+02 -0.38467671654E+01  0.23499775654E+02  0.46164149169E+02  0.10000000000E+00 0.  1.
         21    1    1    2  504  503  0.15885169342E+02 -0.16027540146E+02 -0.81425665216E+01  0.23990040386E+02  0.00000000000E+00 0.  1.
<mgrwt>
<rscale>  1 0.12702076E+03</rscale>
<asrwt>0</asrwt>
<pdfrwt beam="1">  1       21 0.69571818E-02 0.12702076E+03</pdfrwt>
<pdfrwt beam="2">  1       21 0.19109358E-01 0.12702076E+03</pdfrwt>
<totfact> 0.37923598E+06</totfact>
</mgrwt>
</event>
<event>
 6    1  0.4424270E-002  0.1681223E+03  0.7546771E-02  0.1179820E+00
         21   -1    0    0  504  502  0.00000000000E+00  0.00000000000E+00  0.52671832685E+03  0.52671832685E+03  0.00000000000E+00 0.  1.
         21   -1    0    0  502  503 -0.00000000000E+00 -0.00000000000E+00 -0.37783570488E+02  0.37783570488E+02  0.00000000000E+00 0.  1.
         25    2    1    2    0    0  0.48091639171E+02  0.10162588110E+03  0.32179377221E+03  0.36306522230E+03  0.12499799336E+03 0.  0.
          5    1    3    3  501    0  0.25779831285E+02  0.12875942794E+03  0.27301508739E+03  0.30295352437E+03  0.10000000000E+00 0.  1.
         -5    1    3    3    0  501  0.22311807886E+02 -0.27133546843E+02  0.48778684823E+02  0.60111697933E+02  0.10000000000E+00 0.  1.
         21    1    1    2  504  503 -0.48091639171E+02 -0.10162588110E+03  0.16714098415E+03  0.20143667504E+03  0.00000000000E+00 0.  1.
<mgrwt>
<rscale>  1 0.16812235E+03</rscale>
<asrwt>0</asrwt>
<pdfrwt beam="1">  1       21 0.81033584E-01 0.16812235E+03</pdfrwt>
<pdfrwt beam="2">  1       21 0.58128574E-02 0.16812235E+03</pdfrwt>
<totfact> 0.27994999E+05</totfact>
</mgrwt>
</event>
<event>
 6    1  0.4424270E-002  0.1270697E+03  0.7546771E-02  0.1231870E+00
         21   -1    0    0  503  502  0.00000000000E+00  0.00000000000E+00  0.41678161890E+03  0.41678161890E+03  0.00000000000E+00 0.  1.
         21   -1    0    0  504  503 -0.00000000000E+00 -0.00000000000E+00 -0.29278499577E+02  0.29278499577E+02  0.00000000000E+00 0.  1.
         25    2    1    2    0    0  0.92389878882E+01  0.20927439716E+02  0.11132968575E+03  0.16894086248E+03  0.12499359766E+03 0.  0.
          5    1    3    3  501    0  0.55172079358E+02  0.16780516922E+02  0.11262742250E+02  0.58757156602E+02  0.10000000000E+00 0.  1.
         -5    1    3    3    0  501 -0.45933091470E+02  0.41469227938E+01  0.10006694350E+03  0.11018370588E+03  0.10000000000E+00 0.  1.
         21    1    1    2  504  502 -0.92389878882E+01 -0.20927439716E+02  0.27617343357E+03  0.27711925599E+03  0.00000000000E+00 0.  1.
<mgrwt>
<rscale>  1 0.12706973E+03</rscale>
<asrwt>0</asrwt>
<pdfrwt beam="1">  1       21 0.64120245E-01 0.12706973E+03</pdfrwt>
<pdfrwt beam="2">  1       21 0.45043849E-02 0.12706973E+03</pdfrwt>
<totfact> 0.72480928E+05</totfact>
</mgrwt>
</event>
<event>
 6    1  0.4424270E-002  0.1290765E+03  0.7546771E-02  0.1228833E+00
         21   -1    0    0  503  502  0.00000000000E+00  0.00000000000E+00  0.89418462586E+02  0.89418462586E+02  0.00000000000E+00 0. -1.
         21   -1    0    0  504  503 -0.00000000000E+00 -0.00000000000E+00 -0.73442646866E+02  0.73442646866E+02  0.00000000000E+00 0. -1.
         25    2    1    2    0    0 -0.21883082305E+02 -0.23597219410E+02  0.19284799543E+02  0.13050917861E+03  0.12500017662E+03 0.  0.
          5    1    3    3  501    0  0.25852650810E+02 -0.22918308714E+02  0.59024974871E+02  0.68392734166E+02  0.10000000000E+00 0.  1.
         -5    1    3    3    0  501 -0.47735733115E+02 -0.67891069616E+00 -0.39740175328E+02  0.62116444448E+02  0.10000000000E+00 0.  1.
         21    1    1    2  504  502  0.21883082305E+02  0.23597219410E+02 -0.33089838222E+01  0.32351930839E+02  0.00000000000E+00 0. -1.
<mgrwt>
<rscale>  1 0.12907650E+03</rscale>
<asrwt>0</asrwt>
<pdfrwt beam="1">  1       21 0.13756687E-01 0.12907650E+03</pdfrwt>
<pdfrwt beam="2">  1       21 0.11298869E-01 0.12907650E+03</pdfrwt>
<totfact> 0.29691851E+06</totfact>
</mgrwt>
</event>
<event>
 6    1  0.4424270E-002  0.1273140E+03  0.7546771E-02  0.1231497E+00
         21   -1    0    0  503  502  0.00000000000E+00  0.00000000000E+00  0.86920922551E+01  0.86920922551E+01  0.00000000000E+00 0. -1.
         21   -1    0    0  504  503 -0.00000000000E+00 -0.00000000000E+00 -0.91507327628E+03  0.91507327628E+03  0.00000000000E+00 0. -1.
         25    2    1    2    0    0  0.19659566109E+02  0.14030089157E+02 -0.87475594047E+03  0.88397217852E+03  0.12500206029E+03 0.  0.
          5    1    3    3  501    0 -0.12706991653E+01 -0.15688096373E+02 -0.10429209022E+02  0.18881457703E+02  0.10000000000E+00 0.  1.
         -5    1    3    3    0  501  0.20930265275E+02  0.29718185530E+02 -0.86432673145E+03  0.86509072082E+03  0.10000000000E+00 0.  1.
         21    1    1    2  504  502 -0.19659566109E+02 -0.14030089157E+02 -0.31625243558E+02  0.39793190013E+02  0.00000000000E+00 0. -1.
<mgrwt>
<rscale>  1 0.12731401E+03</rscale>
<asrwt>0</asrwt>
<pdfrwt beam="1">  1       21 0.13372463E-02 0.12731401E+03</pdfrwt>
<pdfrwt beam="2">  1       21 0.14078037E+00 0.12731401E+03</pdfrwt>
<totfact> 0.84186484E+05</totfact>
</mgrwt>
</event>
<event>
 6    1  0.4424270E-002  0.1283671E+03  0.7546771E-02  0.1229899E+00
         21   -1    0    0  504  502  0.00000000000E+00  0.00000000000E+00  0.87929260298E+03  0.87929260298E+03  0.00000000000E+00 0.  1.
         21   -1    0    0  502  503 -0.00000000000E+00 -0.00000000000E+00 -0.37415910614E+02  0.37415910614E+02  0.00000000000E+00 0.  1.
         25    2    1    2    0    0  0.10288639589E+02 -0.27693130651E+02  0.73811020993E+02  0.14807489402E+03  0.12492134257E+03 0.  0.
          5    1    3    3  501    0 -0.71306424035E+01 -0.27288960189E+02 -0.30950322069E+02  0.41874405613E+02  0.10000000000E+00 0. -1.
         -5    1    3    3    0  501  0.17419281992E+02 -0.40417046154E+00  0.10476134306E+03  0.10620048841E+03  0.10000000000E+00 0. -1.
         21    1    1    2  504  503 -0.10288639589E+02  0.27693130651E+02  0.76806567137E+03  0.76863361957E+03  0.00000000000E+00 0.  1.
<mgrwt>
<rscale>  1 0.12836708E+03</rscale>
<asrwt>0</asrwt>
<pdfrwt beam="1">  1       21 0.13527577E+00 0.12836708E+03</pdfrwt>
<pdfrwt beam="2">  1       21 0.57562946E-02 0.12836708E+03</pdfrwt>
<totfact> 0.85410685E+04</totfact>
</mgrwt>
</event>
<event>
 6    1  0.4424270E-002  0.1277343E+03  0.7546771E-02  0.1230857E+00
         21   -1    0    0  503  502  0.00000000000E+00  0.00000000000E+00  0.94103167012E+02  0.94103167012E+02  0.00000000000E+00 0.  1.
         21   -1    0    0  504  503 -0.00000000000E+00 -0.00000000000E+00 -0.90582085995E+02  0.90582085995E+02  0.00000000000E+00 0.  1.
         25    2    1    2    0    0  0.25747064963E+02 -0.52287231098E+01 -0.39998284524E+02  0.13385036266E+03  0.12500322364E+03 0.  0.
          5    1    3    3  501    0  0.19075729751E+02  0.50355343240E+02 -0.53876863955E+02  0.76172636347E+02  0.10000000000E+00 0. -1.
         -5    1    3    3    0  501  0.66713352123E+01 -0.55584066350E+02  0.13878579431E+02  0.57677726312E+02  0.10000000000E+00 0. -1.
         21    1    1    2  504  502 -0.25747064963E+02  0.52287231098E+01  0.43519365541E+02  0.50834890348E+02  0.00000000000E+00 0.  1.
<mgrwt>
<rscale>  1 0.12773432E+03</rscale>
<asrwt>0</asrwt>
<pdfrwt beam="1">  1       21 0.14477410E-01 0.12773432E+03</pdfrwt>
<pdfrwt beam="2">  1       21 0.13935706E-01 0.12773432E+03</pdfrwt>
<totfact> 0.18654496E+06</totfact>
</mgrwt>
</event>
<event>
 6    1  0.4424270E-002  0.1260161E+03  0.7546771E-02  0.1233490E+00
         21   -1    0    0  504  502  0.00000000000E+00  0.00000000000E+00  0.22229049348E+02  0.22229049348E+02  0.00000000000E+00 0.  1.
         21   -1    0    0  502  503 -0.00000000000E+00 -0.00000000000E+00 -0.27951571946E+03  0.27951571946E+03  0.00000000000E+00 0.  1.
         25    2    1    2    0    0  0.13866115620E+02  0.80436209944E+01 -0.25639534910E+03  0.28568975544E+03  0.12499236907E+03 0.  0.
          5    1    3    3  501    0  0.16283825539E+02 -0.24347967965E+02 -0.21418136877E+01  0.29369778414E+02  0.10000000000E+00 0.  1.
         -5    1    3    3    0  501 -0.24177099196E+01  0.32391588959E+02 -0.25425353541E+03  0.25631997703E+03  0.10000000000E+00 0.  1.
         21    1    1    2  504  503 -0.13866115620E+02 -0.80436209944E+01 -0.89132101919E+00  0.16055013368E+02  0.00000000000E+00 0.  1.
<mgrwt>
<rscale>  1 0.12601612E+03</rscale>
<asrwt>0</asrwt>
<pdfrwt beam="1">  1       21 0.34198535E-02 0.12601612E+03</pdfrwt>
<pdfrwt beam="2">  1       21 0.43002422E-01 0.12601612E+03</pdfrwt>
<totfact> 0.26263054E+06</totfact>
</mgrwt>
</event>
<event>
 6    1  0.4424270E-002  0.1287128E+03  0.7546771E-02  0.1229378E+00
         21   -1    0    0  503  502  0.00000000000E+00  0.00000000000E+00  0.15659409136E+03  0.15659409136E+03  0.00000000000E+00 0. -1.
         21   -1    0    0  504  503 -0.00000000000E+00 -0.00000000000E+00 -0.11356480725E+03  0.11356480725E+03  0.00000000000E+00 0.  1.
         25    2    1    2    0    0 -0.42644672787E+01  0.30465395716E+02 -0.74467137321E+02  0.14870217765E+03  0.12498262711E+03 0.  0.
          5    1    3    3  501    0 -0.24176430220E+01  0.40443557182E+02  0.25727994660E+02  0.47994437433E+02  0.10000000000E+00 0. -1.
         -5    1    3    3    0  501 -0.18468242567E+01 -0.99781614663E+01 -0.10019513198E+03  0.10070774021E+03  0.10000000000E+00 0. -1.
         21    1    1    2  504  502  0.42644672787E+01 -0.30465395716E+02  0.11749642144E+03  0.12145672097E+03  0.00000000000E+00 0. -1.
<mgrwt>
<rscale>  1 0.12871279E+03</rscale>
<asrwt>0</asrwt>
<pdfrwt beam="1">  1       21 0.24091399E-01 0.12871279E+03</pdfrwt>
<pdfrwt beam="2">  1       21 0.17471509E-01 0.12871279E+03</pdfrwt>
<totfact> 0.48615954E+05</totfact>
</mgrwt>
</event>
<event>
 6    1  0.4424270E-002  0.1271494E+03  0.7546771E-02  0.1231748E+00
         21   -1    0    0  503  502  0.00000000000E+00  0.00000000000E+00  0.55086188525E+02  0.55086188525E+02  0.00000000000E+00 0.  1.
         21   -1    0    0  504  503 -0.00000000000E+00 -0.00000000000E+00 -0.10328579819E+03  0.10328579819E+03  0.00000000000E+00 0.  1.
         25    2    1    2    0    0 -0.90557118647E+01  0.21613963720E+02 -0.44110827400E+02  0.13458359700E+03  0.12497123726E+03 0.  0.
          5    1    3    3  501    0  0.14032717833E+02  0.11321401339E+02  0.41537815134E+02  0.45282351796E+02  0.10000000000E+00 0.  1.
         -5    1    3    3    0  501 -0.23088429698E+02  0.10292562381E+02 -0.85648642534E+02  0.89301245199E+02  0.10000000000E+00 0.  1.
         21    1    1    2  504  502  0.90557118647E+01 -0.21613963720E+02 -0.40887822647E+01  0.23788389720E+02  0.00000000000E+00 0.  1.
<mgrwt>
<rscale>  1 0.12714944E+03</rscale>
<asrwt>0</asrwt>
<pdfrwt beam="1">  1       21 0.84747983E-02 0.12714944E+03</pdfrwt>
<pdfrwt beam="2">  1       21 0.15890123E-01 0.12714944E+03</pdfrwt>
<totfact> 0.37826155E+06</totfact>
</mgrwt>
</event>
<event>
 6    1  0.4424270E-002  0.1267642E+03  0.7546771E-02  0.1232338E+00
         21   -1    0    0  503  502  0.00000000000E+00  0.00000000000E+00  0.98528796314E+02  0.98528796314E+02  0.00000000000E+00 0. -1.
         21   -1    0    0  504  503 -0.00000000000E+00 -0.00000000000E+00 -0.55503757795E+02  0.55503757795E+02  0.00000000000E+00 0. -1.
         25    2    1    2    0    0 -0.19558786412E+02 -0.78486564647E+01  0.35312184942E+02  0.13159072610E+03  0.12500008502E+03 0.  0.
          5    1    3    3  501    0  0.22002642553E+02 -0.51338632372E+02 -0.93967002907E+01  0.56639910218E+02  0.10000000000E+00 0. -1.
         -5    1    3    3    0  501 -0.41561428965E+02  0.43489975908E+02  0.44708885233E+02  0.74950815878E+02  0.10000000000E+00 0. -1.
         21    1    1    2  504  502  0.19558786412E+02  0.78486564647E+01  0.77128535776E+01  0.22441828012E+02  0.00000000000E+00 0.  1.
<mgrwt>
<rscale>  1 0.12676423E+03</rscale>
<asrwt>0</asrwt>
<pdfrwt beam="1">  1       21 0.15158276E-01 0.12676423E+03</pdfrwt>
<pdfrwt beam="2">  1       21 0.85390397E-02 0.12676423E+03</pdfrwt>
<totfact> 0.40649914E+06</totfact>
</mgrwt>
</event>
<event>
 6    1  0.4424270E-002  0.1266443E+03  0.7546771E-02  0.1232522E+00
         21   -1    0    0  503  502  0.00000000000E+00  0.00000000000E+00  0.16352781034E+03  0.16352781034E+03  0.00000000000E+00 0. -1.
         21   -1    0    0  504  503 -0.00000000000E+00 -0.00000000000E+00 -0.38850250550E+02  0.38850250550E+02  0.00000000000E+00 0. -1.
         25    2    1    2    0    0 -0.16682237060E+02  0.11618085628E+02  0.71470245682E+02  0.14541934583E+03  0.12500205269E+03 0.  0.
          5    1    3    3  501    0 -0.41288054925E+02 -0.47246545087E+02  0.32566874878E+02  0.70693357831E+02  0.10000000000E+00 0. -1.
         -5    1    3    3    0  501  0.24605817864E+02  0.58864630715E+02  0.38903370804E+02  0.74725987995E+02  0.10000000000E+00 0. -1.
         21    1    1    2  504  502  0.16682237060E+02 -0.11618085628E+02  0.53207314106E+02  0.56958715061E+02  0.00000000000E+00 0. -1.
<mgrwt>
<rscale>  1 0.12664435E+03</rscale>
<asrwt>0</asrwt>
<pdfrwt beam="1">  1       21 0.25158124E-01 0.12664435E+03</pdfrwt>
<pdfrwt beam="2">  1       21 0.59769617E-02 0.12664435E+03</pdfrwt>
<totfact> 0.29404320E+06</totfact>
</mgrwt>
</event>
<event>
 6    1  0.4424270E-002  0.1269749E+03  0.7546771E-02  0.1232015E+00
         21   -1    0    0  503  502  0.00000000000E+00  0.00000000000E+00  0.66000177700E+02  0.66000177700E+02  0.00000000000E+00 0.  1.
         21   -1    0    0  504  503 -0.00000000000E+00 -0.00000000000E+00 -0.10099168337E+03  0.10099168337E+03  0.00000000000E+00 0.  1.
         25    2    1    2    0    0  0.21779097685E+01 -0.22211401268E+02 -0.53706167739E+02  0.13786578661E+03  0.12499813210E+03 0.  0.
          5    1    3    3  501    0 -0.38762865193E+02  0.25791881778E+02 -0.58297173330E+02  0.74607984170E+02  0.10000000000E+00 0. -1.
         -5    1    3    3    0  501  0.40940774961E+02 -0.48003283046E+02  0.45910055918E+01  0.63257802443E+02  0.10000000000E+00 0. -1.
         21    1    1    2  504  502 -0.21779097685E+01  0.22211401268E+02  0.18714662066E+02  0.29126074461E+02  0.00000000000E+00 0.  1.
<mgrwt>
<rscale>  1 0.12697489E+03</rscale>
<asrwt>0</asrwt>
<pdfrwt beam="1">  1       21 0.10153873E-01 0.12697489E+03</pdfrwt>
<pdfrwt beam="2">  1       21 0.15537182E-01 0.12697489E+03</pdfrwt>
<totfact> 0.28762019E+06</totfact>
</mgrwt>
</event>
<event>
 6    1  0.4424270E-002  0.2013625E+03  0.7546771E-02  0.1148595E+00
         21   -1    0    0  504  502  0.00000000000E+00  0.00000000000E+00  0.62669979933E+03  0.62669979933E+03  0.00000000000E+00 0.  1.
         21   -1    0    0  502  503 -0.00000000000E+00 -0.00000000000E+00 -0.56061297224E+02  0.56061297224E+02  0.00000000000E+00 0.  1.
         25    2    1    2    0    0 -0.71938116195E+02  0.14052329858E+03  0.22009312273E+03  0.29830829971E+03  0.12499987597E+03 0.  0.
          5    1    3    3  501    0 -0.12362917065E+02 -0.21677219384E+02  0.11604976478E+02  0.27521428700E+02  0.10000000000E+00 0. -1.
         -5    1    3    3    0  501 -0.59575199129E+02  0.16220051797E+03  0.20848814626E+03  0.27078687101E+03  0.10000000000E+00 0. -1.
         21    1    1    2  504  503  0.71938116195E+02 -0.14052329858E+03  0.35054537937E+03  0.38445279685E+03  0.00000000000E+00 0.  1.
<mgrwt>
<rscale>  1 0.20136251E+03</rscale>
<asrwt>0</asrwt>
<pdfrwt beam="1">  1       21 0.96415349E-01 0.20136251E+03</pdfrwt>
<pdfrwt beam="2">  1       21 0.86248154E-02 0.20136251E+03</pdfrwt>
<totfact> 0.93812867E+04</totfact>
</mgrwt>
</event>
<event>
 6    1  0.4424270E-002  0.1263632E+03  0.7546771E-02  0.1232954E+00
         21   -1    0    0  504  502  0.00000000000E+00  0.00000000000E+00  0.72111086423E+03  0.72111086423E+03  0.00000000000E+00 0. -1.
         21   -1    0    0  502  503 -0.00000000000E+00 -0.00000000000E+00 -0.79685908985E+02  0.79685908985E+02  0.00000000000E+00 0. -1.
         25    2    1    2    0    0  0.16449335654E+02 -0.80838901035E+01 -0.29386283767E+02  0.12973519012E+03  0.12502694093E+03 0.  0.
          5    1    3    3  501    0 -0.24100533761E+02  0.15289142319E+02  0.38101530431E+02  0.47605989346E+02  0.10000000000E+00 0.  1.
         -5    1    3    3    0  501  0.40549869415E+02 -0.23373032422E+02 -0.67487814198E+02  0.82129200772E+02  0.10000000000E+00 0.  1.
         21    1    1    2  504  503 -0.16449335654E+02  0.80838901035E+01  0.67081123902E+03  0.67106158310E+03  0.00000000000E+00 0. -1.
<mgrwt>
<rscale>  1 0.12636323E+03</rscale>
<asrwt>0</asrwt>
<pdfrwt beam="1">  1       21 0.11094013E+00 0.12636323E+03</pdfrwt>
<pdfrwt beam="2">  1       21 0.12259371E-01 0.12636323E+03</pdfrwt>
<totfact> 0.37581069E+04</totfact>
</mgrwt>
</event>
<event>
 6    1  0.4424270E-002  0.1269426E+03  0.7546771E-02  0.1232064E+00
         21   -1    0    0  504  502  0.00000000000E+00  0.00000000000E+00  0.90679742025E+02  0.90679742025E+02  0.00000000000E+00 0.  1.
         21   -1    0    0  502  503 -0.00000000000E+00 -0.00000000000E+00 -0.12773389313E+03  0.12773389313E+03  0.00000000000E+00 0.  1.
         25    2    1    2    0    0  0.78291862030E+01 -0.20706114988E+02 -0.93580147047E+02  0.15770755991E+03  0.12499756468E+03 0.  0.
          5    1    3    3  501    0  0.25726554890E+02 -0.68624769728E+02 -0.70128583780E+02  0.10143590543E+03  0.10000000000E+00 0. -1.
         -5    1    3    3    0  501 -0.17897368687E+02  0.47918654740E+02 -0.23451563267E+02  0.56271654478E+02  0.10000000000E+00 0. -1.
         21    1    1    2  504  503 -0.78291862030E+01  0.20706114988E+02  0.56525995944E+02  0.60706075248E+02  0.00000000000E+00 0.  1.
<mgrwt>
<rscale>  1 0.12694263E+03</rscale>
<asrwt>0</asrwt>
<pdfrwt beam="1">  1       21 0.13950730E-01 0.12694263E+03</pdfrwt>
<pdfrwt beam="2">  1       21 0.19651368E-01 0.12694263E+03</pdfrwt>
<totfact> 0.10674856E+06</totfact>
</mgrwt>
</event>
<event>
 6    1  0.4424270E-002  0.1262182E+03  0.7546771E-02  0.1233178E+00
         21   -1    0    0  503  502  0.00000000000E+00  0.00000000000E+00  0.53252724040E+02  0.53252724040E+02  0.00000000000E+00 0.  1.
         21   -1    0    0  504  503 -0.00000000000E+00 -0.00000000000E+00 -0.29329260449E+03  0.29329260449E+03  0.00000000000E+00 0. -1.
         25    2    1    2    0    0 -0.57443343739E+01 -0.16531674293E+02 -0.27768847787E+03  0.30502773562E+03  0.12499894049E+03 0.  0.
          5    1    3    3  501    0  0.50969468855E+02 -0.16868010739E+02 -0.62035332050E+02  0.82041507569E+02  0.10000000000E+00 0. -1.
         -5    1    3    3    0  501 -0.56713803229E+02  0.33633644526E+00 -0.21565314582E+03  0.22298622805E+03  0.10000000000E+00 0. -1.
         21    1    1    2  504  502  0.57443343739E+01  0.16531674293E+02  0.37648597426E+02  0.41517592903E+02  0.00000000000E+00 0.  1.
<mgrwt>
<rscale>  1 0.12621818E+03</rscale>
<asrwt>0</asrwt>
<pdfrwt beam="1">  1       21 0.81927268E-02 0.12621818E+03</pdfrwt>
<pdfrwt beam="2">  1       21 0.45121939E-01 0.12621818E+03</pdfrwt>
<totfact> 0.54681533E+05</totfact>
</mgrwt>
</event>
<event>
 6    1  0.4424270E-002  0.1269342E+03  0.7546771E-02  0.1232077E+00
         21   -1    0    0  503  502  0.00000000000E+00  0.00000000000E+00  0.28134442154E+03  0.28134442154E+03  0.00000000000E+00 0. -1.
         21   -1    0    0  504  503 -0.00000000000E+00 -0.00000000000E+00 -0.98020883818E+02  0.98020883818E+02  0.00000000000E+00 0. -1.
         25    2    1    2    0    0  0.86399879024E+01 -0.20294236001E+02 -0.56206651281E+02  0.13882171918E+03  0.12500310661E+03 0.  0.
          5    1    3    3  501    0 -0.48898399922E+00  0.38985532208E+02  0.18385612476E+02  0.43106282292E+02  0.10000000000E+00 0.  1.
         -5    1    3    3    0  501  0.91289719016E+01 -0.59279768209E+02 -0.74592263757E+02  0.95715436891E+02  0.10000000000E+00 0.  1.
         21    1    1    2  504  502 -0.86399879024E+01  0.20294236001E+02  0.23953018900E+03  0.24054358618E+03  0.00000000000E+00 0. -1.
<mgrwt>
<rscale>  1 0.12693416E+03</rscale>
<asrwt>0</asrwt>
<pdfrwt beam="1">  1       21 0.43283757E-01 0.12693416E+03</pdfrwt>
<pdfrwt beam="2">  1       21 0.15080136E-01 0.12693416E+03</pdfrwt>
<totfact> 0.20297379E+05</totfact>
</mgrwt>
</event>
<event>
 6    1  0.4424270E-002  0.1260471E+03  0.7546771E-02  0.1233442E+00
         21   -1    0    0  504  502  0.00000000000E+00  0.00000000000E+00  0.14711796872E+02  0.14711796872E+02  0.00000000000E+00 0.  1.
         21   -1    0    0  502  503 -0.00000000000E+00 -0.00000000000E+00 -0.34629338507E+03  0.34629338507E+03  0.00000000000E+00 0.  1.
         25    2    1    2    0    0  0.13786602744E+02  0.85279042283E+01 -0.28331841891E+03  0.31009222607E+03  0.12500026644E+03 0.  0.
          5    1    3    3  501    0  0.58876423012E+02  0.99428656568E+00 -0.67901274413E+02  0.89877777339E+02  0.10000000000E+00 0. -1.
         -5    1    3    3    0  501 -0.45089820268E+02  0.75336176627E+01 -0.21541714450E+03  0.22021444874E+03  0.10000000000E+00 0. -1.
         21    1    1    2  504  503 -0.13786602744E+02 -0.85279042283E+01 -0.48263169287E+02  0.50912955869E+02  0.00000000000E+00 0. -1.
<mgrwt>
<rscale>  1 0.12604706E+03</rscale>
<asrwt>0</asrwt>
<pdfrwt beam="1">  1       21 0.22633536E-02 0.12604706E+03</pdfrwt>
<pdfrwt beam="2">  1       21 0.53275900E-01 0.12604706E+03</pdfrwt>
<totfact> 0.33237771E+06</totfact>
</mgrwt>
</event>
<event>
 6    1  0.4424270E-002  0.1261533E+03  0.7546771E-02  0.1233278E+00
         21   -1    0    0  504  502  0.00000000000E+00  0.00000000000E+00  0.35559114123E+02  0.35559114123E+02  0.00000000000E+00 0. -1.
         21   -1    0    0  502  503 -0.00000000000E+00 -0.00000000000E+00 -0.73403509369E+03  0.73403509369E+03  0.00000000000E+00 0.  1.
         25    2    1    2    0    0  0.15680572595E+02  0.67083824020E+01 -0.72618265602E+03  0.73705895507E+03  0.12499508228E+03 0.  0.
          5    1    3    3  501    0 -0.51675480332E+02  0.55799123180E-01 -0.43784113726E+03  0.44088006289E+03  0.10000000000E+00 0. -1.
         -5    1    3    3    0  501  0.67356052927E+02  0.66525832788E+01 -0.28834151876E+03  0.29617889218E+03  0.10000000000E+00 0. -1.
         21    1    1    2  504  503 -0.15680572595E+02 -0.67083824020E+01  0.27706676449E+02  0.32535252745E+02  0.00000000000E+00 0. -1.
<mgrwt>
<rscale>  1 0.12615329E+03</rscale>
<asrwt>0</asrwt>
<pdfrwt beam="1">  1       21 0.54706330E-02 0.12615329E+03</pdfrwt>
<pdfrwt beam="2">  1       21 0.11292847E+00 0.12615329E+03</pdfrwt>
<totfact> 0.14514713E+05</totfact>
</mgrwt>
</event>
<event>
 6    1  0.4424270E-002  0.1274595E+03  0.7546771E-02  0.1231275E+00
         21   -1    0    0  503  502  0.00000000000E+00  0.00000000000E+00  0.28482541597E+03  0.28482541597E+03  0.00000000000E+00 0. -1.
         21   -1    0    0  504  503 -0.00000000000E+00 -0.00000000000E+00 -0.24960436549E+02  0.24960436549E+02  0.00000000000E+00 0. -1.
         25    2    1    2    0    0  0.96768137550E+01  0.22965907597E+02  0.14865072792E+03  0.19581356039E+03  0.12499935154E+03 0.  0.
          5    1    3    3  501    0  0.11834764363E+02  0.68491486845E+02  0.45587907630E+02  0.83122877356E+02  0.10000000000E+00 0. -1.
         -5    1    3    3    0  501 -0.21579506082E+01 -0.45525579249E+02  0.10306282029E+03  0.11269068304E+03  0.10000000000E+00 0. -1.
         21    1    1    2  504  502 -0.96768137550E+01 -0.22965907597E+02  0.11121425150E+03  0.11397229213E+03  0.00000000000E+00 0. -1.
<mgrwt>
<rscale>  1 0.12745945E+03</rscale>
<asrwt>0</asrwt>
<pdfrwt beam="1">  1       21 0.43819293E-01 0.12745945E+03</pdfrwt>
<pdfrwt beam="2">  1       21 0.38400674E-02 0.12745945E+03</pdfrwt>
<totfact> 0.20882329E+06</totfact>
</mgrwt>
</event>
<event>
 6    1  0.4424270E-002  0.1283636E+03  0.7546771E-02  0.1229904E+00
         21   -1    0    0  503  502  0.00000000000E+00  0.00000000000E+00  0.27156020093E+02  0.27156020093E+02  0.00000000000E+00 0.  1.
         21   -1    0    0  504  503 -0.00000000000E+00 -0.00000000000E+00 -0.26244931576E+03  0.26244931576E+03  0.00000000000E+00 0.  1.
         25    2    1    2    0    0 -0.25332895472E+02 -0.14084364732E+02 -0.22463297110E+03  0.25872221032E+03  0.12504833259E+03 0.  0.
          5    1    3    3  501    0 -0.49533477087E+02 -0.76651139091E+01 -0.22323925620E+02  0.54869727343E+02  0.10000000000E+00 0.  1.
         -5    1    3    3    0  501  0.24200581616E+02 -0.64192508227E+01 -0.20230904548E+03  0.20385248297E+03  0.10000000000E+00 0.  1.
         21    1    1    2  504  502  0.25332895472E+02  0.14084364732E+02 -0.10660324564E+02  0.30883125533E+02  0.00000000000E+00 0.  1.
<mgrwt>
<rscale>  1 0.12836359E+03</rscale>
<asrwt>0</asrwt>
<pdfrwt beam="1">  1       21 0.41778493E-02 0.12836359E+03</pdfrwt>
<pdfrwt beam="2">  1       21 0.40376817E-01 0.12836359E+03</pdfrwt>
<totfact> 0.21407693E+06</totfact>
</mgrwt>
</event>
<event>
 6    1  0.4424270E-002  0.1266726E+03  0.7546771E-02  0.1232478E+00
         21   -1    0    0  503  502  0.00000000000E+00  0.00000000000E+00  0.12962355245E+03  0.12962355245E+03  0.00000000000E+00 0. -1.
         21   -1    0    0  504  503 -0.00000000000E+00 -0.00000000000E+00 -0.93462450912E+02  0.93462450912E+02  0.00000000000E+00 0. -1.
         25    2    1    2    0    0 -0.95464889298E+01 -0.18182209009E+02 -0.48747961033E+02  0.13572882231E+03  0.12499688526E+03 0.  0.
          5    1    3    3  501    0 -0.53540217964E+02  0.27758154628E+02 -0.96773160343E+01  0.61079706398E+02  0.10000000000E+00 0. -1.
         -5    1    3    3    0  501  0.43993729034E+02 -0.45940363636E+02 -0.39070644999E+02  0.74649115909E+02  0.10000000000E+00 0. -1.
         21    1    1    2  504  502  0.95464889298E+01  0.18182209009E+02  0.84909062576E+02  0.87357181060E+02  0.00000000000E+00 0. -1.
<mgrwt>
<rscale>  1 0.12667261E+03</rscale>
<asrwt>0</asrwt>
<pdfrwt beam="1">  1       21 0.19942085E-01 0.12667261E+03</pdfrwt>
<pdfrwt beam="2">  1       21 0.14378839E-01 0.12667261E+03</pdfrwt>
<totfact> 0.98407650E+05</totfact>
</mgrwt>
</event>
<event>
 6    1  0.4424270E-002  0.1278440E+03  0.7546771E-02  0.1230690E+00
         21   -1    0    0  503  502  0.00000000000E+00  0.00000000000E+00  0.71582077229E+01  0.71582077229E+01  0.00000000000E+00 0.  1.
         21   -1    0    0  504  503 -0.00000000000E+00 -0.00000000000E+00 -0.95128680758E+03  0.95128680758E+03  0.00000000000E+00 0.  1.
         25    2    1    2    0    0  0.92361576738E+01  0.25164669187E+02 -0.87518961326E+03  0.88447778569E+03  0.12500210812E+03 0.  0.
          5    1    3    3  501    0  0.41454111410E+02 -0.38234348197E+02 -0.41907144059E+03  0.42284889861E+03  0.10000000000E+00 0. -1.
         -5    1    3    3    0  501 -0.32217953737E+02  0.63399017384E+02 -0.45611817267E+03  0.46162888708E+03  0.10000000000E+00 0. -1.
         21    1    1    2  504  502 -0.92361576738E+01 -0.25164669187E+02 -0.68938986602E+02  0.73967229620E+02  0.00000000000E+00 0.  1.
<mgrwt>
<rscale>  1 0.12784402E+03</rscale>
<asrwt>0</asrwt>
<pdfrwt beam="1">  1       21 0.11012624E-02 0.12784402E+03</pdfrwt>
<pdfrwt beam="2">  1       21 0.14635186E+00 0.12784402E+03</pdfrwt>
<totfact> 0.10368897E+06</totfact>
</mgrwt>
</event>
<event>
 6    1  0.4424270E-002  0.1260143E+03  0.7546771E-02  0.1233493E+00
         21   -1    0    0  504  502  0.00000000000E+00  0.00000000000E+00  0.17388885152E+03  0.17388885152E+03  0.00000000000E+00 0.  1.
         21   -1    0    0  502  503 -0.00000000000E+00 -0.00000000000E+00 -0.61751624250E+02  0.61751624250E+02  0.00000000000E+00 0.  1.
         25    2    1    2    0    0 -0.72953285399E+01  0.14147441826E+02  0.37285593992E+01  0.12606944311E+03  0.12500492151E+03 0.  0.
          5    1    3    3  501    0  0.58871179912E+02  0.45607714966E+01 -0.86930123036E+00  0.59054061211E+02  0.10000000000E+00 0. -1.
         -5    1    3    3    0  501 -0.66166508452E+02  0.95866703291E+01  0.45978606295E+01  0.67015381899E+02  0.10000000000E+00 0. -1.
         21    1    1    2  504  503  0.72953285399E+01 -0.14147441826E+02  0.10840866787E+03  0.10957103266E+03  0.00000000000E+00 0. -1.
<mgrwt>
<rscale>  1 0.12601429E+03</rscale>
<asrwt>0</asrwt>
<pdfrwt beam="1">  1       21 0.26752131E-01 0.12601429E+03</pdfrwt>
<pdfrwt beam="2">  1       21 0.95002499E-02 0.12601429E+03</pdfrwt>
<totfact> 0.11806162E+06</totfact>
</mgrwt>
</event>
<event>
 6    1  0.4424270E-002  0.1262498E+03  0.7546771E-02  0.1233129E+00
         21   -1    0    0  503  502  0.00000000000E+00  0.00000000000E+00  0.19029457831E+03  0.19029457831E+03  0.00000000000E+00 0.  1.
         21   -1    0    0  504  503 -0.00000000000E+00 -0.00000000000E+00 -0.28266326196E+02  0.28266326196E+02  0.00000000000E+00 0.  1.
         25    2    1    2    0    0  0.91125748110E+01 -0.15165327181E+02  0.12571288130E+03  0.17816496009E+03  0.12500399317E+03 0.  0.
          5    1    3    3  501    0 -0.52020883205E+02  0.14708453044E+02  0.33618078308E+02  0.63660789105E+02  0.10000000000E+00 0. -1.
         -5    1    3    3    0  501  0.61133458016E+02 -0.29873780225E+02  0.92094802991E+02  0.11450417098E+03  0.10000000000E+00 0. -1.
         21    1    1    2  504  502 -0.91125748110E+01  0.15165327181E+02  0.36315370813E+02  0.40395944418E+02  0.00000000000E+00 0.  1.
<mgrwt>
<rscale>  1 0.12624985E+03</rscale>
<asrwt>0</asrwt>
<pdfrwt beam="1">  1       21 0.29276088E-01 0.12624985E+03</pdfrwt>
<pdfrwt beam="2">  1       21 0.43486657E-02 0.12624985E+03</pdfrwt>
<totfact> 0.37583569E+06</totfact>
</mgrwt>
</event>
<event>
 6    1  0.4424270E-002  0.1268966E+03  0.7546771E-02  0.1232135E+00
         21   -1    0    0  503  502  0.00000000000E+00  0.00000000000E+00  0.10299971800E+04  0.10299971800E+04  0.00000000000E+00 0.  1.
         21   -1    0    0  504  503 -0.00000000000E+00 -0.00000000000E+00 -0.12448243514E+02  0.12448243514E+02  0.00000000000E+00 0.  1.
         25    2    1    2    0    0  0.15707819294E+02 -0.15170571773E+02  0.31558773913E+03  0.34014463010E+03  0.12500346580E+03 0.  0.
          5    1    3    3  501    0  0.23085332869E+02  0.53251724315E+02  0.14850026663E+03  0.15943969997E+03  0.10000000000E+00 0.  1.
         -5    1    3    3    0  501 -0.73775135748E+01 -0.68422296088E+02  0.16708747250E+03  0.18070493013E+03  0.10000000000E+00 0.  1.
         21    1    1    2  504  502 -0.15707819294E+02  0.15170571773E+02  0.70196119739E+03  0.70230079345E+03  0.00000000000E+00 0.  1.
<mgrwt>
<rscale>  1 0.12689660E+03</rscale>
<asrwt>0</asrwt>
<pdfrwt beam="1">  1       21 0.15846104E+00 0.12689660E+03</pdfrwt>
<pdfrwt beam="2">  1       21 0.19151152E-02 0.12689660E+03</pdfrwt>
<totfact> 0.34893018E+05</totfact>
</mgrwt>
</event>
<event>
 6    1  0.4424270E-002  0.1268132E+03  0.7546771E-02  0.1232262E+00
         21   -1    0    0  504  502  0.00000000000E+00  0.00000000000E+00  0.97933405344E+01  0.97933405344E+01  0.00000000000E+00 0.  1.
         21   -1    0    0  502  503 -0.00000000000E+00 -0.00000000000E+00 -0.60865455297E+03  0.60865455297E+03  0.00000000000E+00 0.  1.
         25    2    1    2    0    0  0.31765314356E+01  0.21111226762E+02 -0.55927388384E+03  0.57347089012E+03  0.12500324169E+03 0.  0.
          5    1    3    3  501    0 -0.53086364462E+02 -0.19277279212E+02 -0.28878412620E+03  0.29425508853E+03  0.10000000000E+00 0. -1.
         -5    1    3    3    0  501  0.56262895898E+02  0.40388505974E+02 -0.27048975764E+03  0.27921580159E+03  0.10000000000E+00 0. -1.
         21    1    1    2  504  503 -0.31765314356E+01 -0.21111226762E+02 -0.39587328601E+02  0.44977003381E+02  0.00000000000E+00 0.  1.
<mgrwt>
<rscale>  1 0.12681319E+03</rscale>
<asrwt>0</asrwt>
<pdfrwt beam="1">  1       21 0.15066677E-02 0.12681319E+03</pdfrwt>
<pdfrwt beam="2">  1       21 0.93639167E-01 0.12681319E+03</pdfrwt>
<totfact> 0.18644127E+06</totfact>
</mgrwt>
</event>
<event>
 6    1  0.4424270E-002  0.1264676E+03  0.7546771E-02  0.1232793E+00
         21   -1    0    0  504  502  0.00000000000E+00  0.00000000000E+00  0.14378834429E+04  0.14378834429E+04  0.00000000000E+00 0.  1.
         21   -1    0    0  502  503 -0.00000000000E+00 -0.00000000000E+00 -0.20860239532E+02  0.20860239532E+02  0.00000000000E+00 0. -1.
         25    2    1    2    0    0  0.19094022647E+02 -0.25946976486E+01  0.17158270599E+03  0.21315412457E+03  0.12499096635E+03 0.  0.
          5    1    3    3  501    0  0.71160802780E+02  0.58522617496E+01  0.11830658324E+03  0.13818309035E+03  0.10000000000E+00 0.  1.
         -5    1    3    3    0  501 -0.52066780134E+02 -0.84469593982E+01  0.53276122749E+02  0.74971034218E+02  0.10000000000E+00 0.  1.
         21    1    1    2  504  503 -0.19094022647E+02  0.25946976486E+01  0.12454404973E+04  0.12455895578E+04  0.00000000000E+00 0.  1.
<mgrwt>
<rscale>  1 0.12646761E+03</rscale>
<asrwt>0</asrwt>
<pdfrwt beam="1">  1       21 0.22121276E+00 0.12646761E+03</pdfrwt>
<pdfrwt beam="2">  1       21 0.32092687E-02 0.12646761E+03</pdfrwt>
<totfact> 0.58843027E+04</totfact>
</mgrwt>
</event>
<event>
 6    1  0.4424270E-002  0.1278612E+03  0.7546771E-02  0.1230664E+00
         21   -1    0    0  503  502  0.00000000000E+00  0.00000000000E+00  0.40070134413E+02  0.40070134413E+02  0.00000000000E+00 0. -1.
         21   -1    0    0  504  503 -0.00000000000E+00 -0.00000000000E+00 -0.64434722578E+03  0.64434722578E+03  0.00000000000E+00 0. -1.
         25    2    1    2    0    0 -0.46798182419E+01  0.26502939744E+02 -0.63257341023E+03  0.64536626321E+03  0.12499675135E+03 0.  0.
          5    1    3    3  501    0 -0.44846422120E+02  0.59196959419E+02 -0.31792310060E+03  0.32648214266E+03  0.10000000000E+00 0. -1.
         -5    1    3    3    0  501  0.40166603878E+02 -0.32694019675E+02 -0.31465030963E+03  0.31888412055E+03  0.10000000000E+00 0. -1.
         21    1    1    2  504  502  0.46798182419E+01 -0.26502939744E+02  0.28296318865E+02  0.39051096978E+02  0.00000000000E+00 0. -1.
<mgrwt>
<rscale>  1 0.12786123E+03</rscale>
<asrwt>0</asrwt>
<pdfrwt beam="1">  1       21 0.61646365E-02 0.12786123E+03</pdfrwt>
<pdfrwt beam="2">  1       21 0.99130335E-01 0.12786123E+03</pdfrwt>
<totfact> 0.16140994E+05</totfact>
</mgrwt>
</event>
<event>
 6    1  0.4424270E-002  0.1293763E+03  0.7546771E-02  0.1228384E+00
         21   -1    0    0  503  502  0.00000000000E+00  0.00000000000E+00  0.13484697677E+04  0.13484697677E+04  0.00000000000E+00 0.  1.
         21   -1    0    0  504  503 -0.00000000000E+00 -0.00000000000E+00 -0.10429816266E+03  0.10429816266E+03  0.00000000000E+00 0.  1.
         25    2    1    2    0    0  0.29837394227E+02  0.14911553942E+02 -0.63882517932E+02  0.14428857891E+03  0.12500237347E+03 0.  0.
          5    1    3    3  501    0  0.27090182359E+02 -0.20008426280E+02  0.29362805827E+02  0.44681086250E+02  0.10000000000E+00 0. -1.
         -5    1    3    3    0  501  0.27472118681E+01  0.34919980222E+02 -0.93245323759E+02  0.99607492663E+02  0.10000000000E+00 0. -1.
         21    1    1    2  504  502 -0.29837394227E+02 -0.14911553942E+02  0.13080541230E+04  0.13084793515E+04  0.00000000000E+00 0.  1.
<mgrwt>
<rscale>  1 0.12937626E+03</rscale>
<asrwt>0</asrwt>
<pdfrwt beam="1">  1       21 0.20745688E+00 0.12937626E+03</pdfrwt>
<pdfrwt beam="2">  1       21 0.16045872E-01 0.12937626E+03</pdfrwt>
<totfact> 0.44782627E+03</totfact>
</mgrwt>
</event>
<event>
 6    1  0.4424270E-002  0.1261000E+03  0.7546771E-02  0.1233360E+00
         21   -1    0    0  503  502  0.00000000000E+00  0.00000000000E+00  0.98631081428E+01  0.98631081428E+01  0.00000000000E+00 0. -1.
         21   -1    0    0  504  503 -0.00000000000E+00 -0.00000000000E+00 -0.95818951197E+03  0.95818951197E+03  0.00000000000E+00 0. -1.
         25    2    1    2    0    0 -0.52342906746E+01  0.15762142312E+02 -0.94180542008E+03  0.95020980200E+03  0.12500150238E+03 0.  0.
          5    1    3    3  501    0 -0.17979011674E+02 -0.51579719155E+02 -0.52151293363E+03  0.52436577142E+03  0.10000000000E+00 0. -1.
         -5    1    3    3    0  501  0.12744721000E+02  0.67341861466E+02 -0.42029248644E+03  0.42584403058E+03  0.10000000000E+00 0. -1.
         21    1    1    2  504  502  0.52342906746E+01 -0.15762142312E+02 -0.65209837469E+01  0.17842818111E+02  0.00000000000E+00 0. -1.
<mgrwt>
<rscale>  1 0.12610003E+03</rscale>
<asrwt>0</asrwt>
<pdfrwt beam="1">  1       21 0.15174010E-02 0.12610003E+03</pdfrwt>
<pdfrwt beam="2">  1       21 0.14741380E+00 0.12610003E+03</pdfrwt>
<totfact> 0.61187884E+05</totfact>
</mgrwt>
</event>
<event>
 6    1  0.4424270E-002  0.1278176E+03  0.7546771E-02  0.1230730E+00
         21   -1    0    0  504  502  0.00000000000E+00  0.00000000000E+00  0.51720111215E+03  0.51720111215E+03  0.00000000000E+00 0.  1.
         21   -1    0    0  502  503 -0.00000000000E+00 -0.00000000000E+00 -0.11885233046E+02  0.11885233046E+02  0.00000000000E+00 0.  1.
         25    2    1    2    0    0  0.47688602922E+01 -0.26246354834E+02  0.37862984747E+03  0.39962220428E+03  0.12500292634E+03 0.  0.
          5    1    3    3  501    0 -0.30635909552E+02  0.66596937068E+01  0.32847271099E+03  0.32996551690E+03  0.10000000000E+00 0. -1.
         -5    1    3    3    0  501  0.35404769844E+02 -0.32906048541E+02  0.50157136475E+02  0.69656687387E+02  0.10000000000E+00 0. -1.
         21    1    1    2  504  503 -0.47688602922E+01  0.26246354834E+02  0.12668603164E+03  0.12946414092E+03  0.00000000000E+00 0.  1.
<mgrwt>
<rscale>  1 0.12781762E+03</rscale>
<asrwt>0</asrwt>
<pdfrwt beam="1">  1       21 0.79569384E-01 0.12781762E+03</pdfrwt>
<pdfrwt beam="2">  1       21 0.18284978E-02 0.12781762E+03</pdfrwt>
<totfact> 0.19778190E+06</totfact>
</mgrwt>
</event>
<event>
 6    1  0.4424270E-002  0.1282317E+03  0.7546771E-02  0.1230103E+00
         21   -1    0    0  504  502  0.00000000000E+00  0.00000000000E+00  0.10288631220E+04  0.10288631220E+04  0.00000000000E+00 0.  1.
         21   -1    0    0  502  503 -0.00000000000E+00 -0.00000000000E+00 -0.11352757487E+02  0.11352757487E+02  0.00000000000E+00 0.  1.
         25    2    1    2    0    0 -0.28043978694E+02 -0.56968441291E+01  0.36128676765E+03  0.38336861577E+03  0.12499779319E+03 0.  0.
          5    1    3    3  501    0 -0.73123907599E+02  0.11868993042E+02  0.27091366201E+03  0.28085975348E+03  0.10000000000E+00 0. -1.
         -5    1    3    3    0  501  0.45079928905E+02 -0.17565837171E+02  0.90373105638E+02  0.10250886229E+03  0.10000000000E+00 0. -1.
         21    1    1    2  504  503  0.28043978694E+02  0.56968441291E+01  0.65622359685E+03  0.65684726371E+03  0.00000000000E+00 0.  1.
<mgrwt>
<rscale>  1 0.12823169E+03</rscale>
<asrwt>0</asrwt>
<pdfrwt beam="1">  1       21 0.15828656E+00 0.12823169E+03</pdfrwt>
<pdfrwt beam="2">  1       21 0.17465789E-02 0.12823169E+03</pdfrwt>
<totfact> 0.40562647E+05</totfact>
</mgrwt>
</event>
<event>
 6    1  0.4424270E-002  0.1261760E+03  0.7546771E-02  0.1233243E+00
         21   -1    0    0  503  502  0.00000000000E+00  0.00000000000E+00  0.61577533554E+03  0.61577533554E+03  0.00000000000E+00 0. -1.
         21   -1    0    0  504  503 -0.00000000000E+00 -0.00000000000E+00 -0.84592555618E+01  0.84592555618E+01  0.00000000000E+00 0. -1.
         25    2    1    2    0    0 -0.10270697447E+02  0.13793361540E+02  0.50763629424E+03  0.52308221232E+03  0.12499859826E+03 0.  0.
          5    1    3    3  501    0 -0.62304722816E+02  0.10169187511E+02  0.16810575676E+03  0.17956850034E+03  0.10000000000E+00 0. -1.
         -5    1    3    3    0  501  0.52034025368E+02  0.36241740286E+01  0.33953053748E+03  0.34351371197E+03  0.10000000000E+00 0. -1.
         21    1    1    2  504  502  0.10270697447E+02 -0.13793361540E+02  0.99679785738E+02  0.10115237878E+03  0.00000000000E+00 0.  1.
<mgrwt>
<rscale>  1 0.12617604E+03</rscale>
<asrwt>0</asrwt>
<pdfrwt beam="1">  1       21 0.94734632E-01 0.12617604E+03</pdfrwt>
<pdfrwt beam="2">  1       21 0.13014244E-02 0.12617604E+03</pdfrwt>
<totfact> 0.22915761E+06</totfact>
</mgrwt>
</event>
<event>
 6    1  0.4424270E-002  0.1270517E+03  0.7546771E-02  0.1231897E+00
         21   -1    0    0  504  502  0.00000000000E+00  0.00000000000E+00  0.31385583569E+03  0.31385583569E+03  0.00000000000E+00 0.  1.
         21   -1    0    0  502  503 -0.00000000000E+00 -0.00000000000E+00 -0.18831240511E+02  0.18831240511E+02  0.00000000000E+00 0. -1.
         25    2    1    2    0    0  0.12207072376E+02  0.19164934506E+02  0.21738063852E+03  0.25178657351E+03  0.12500331701E+03 0.  0.
          5    1    3    3  501    0 -0.32834710382E+02  0.13888751268E+02  0.66939759802E+01  0.36274439101E+02  0.10000000000E+00 0. -1.
         -5    1    3    3    0  501  0.45041782758E+02  0.52761832381E+01  0.21068666254E+03  0.21551213441E+03  0.10000000000E+00 0. -1.
         21    1    1    2  504  503 -0.12207072376E+02 -0.19164934506E+02  0.77643956653E+02  0.80900502689E+02  0.00000000000E+00 0.  1.
<mgrwt>
<rscale>  1 0.12705171E+03</rscale>
<asrwt>0</asrwt>
<pdfrwt beam="1">  1       21 0.48285509E-01 0.12705171E+03</pdfrwt>
<pdfrwt beam="2">  1       21 0.28971142E-02 0.12705171E+03</pdfrwt>
<totfact> 0.27253351E+06</totfact>
</mgrwt>
</event>
<event>
 6    1  0.4424270E-002  0.1405470E+03  0.7546771E-02  0.1212595E+00
         21   -1    0    0  503  502  0.00000000000E+00  0.00000000000E+00  0.19033497772E+03  0.19033497772E+03  0.00000000000E+00 0.  1.
         21   -1    0    0  504  503 -0.00000000000E+00 -0.00000000000E+00 -0.55792312129E+02  0.55792312129E+02  0.00000000000E+00 0.  1.
         25    2    1    2    0    0  0.54617270486E+02  0.33785492976E+02  0.10498868510E+03  0.17543115464E+03  0.12501583999E+03 0.  0.
          5    1    3    3  501    0  0.72025127428E+01  0.14831585404E+02  0.12084372446E+03  0.12196338736E+03  0.10000000000E+00 0.  1.
         -5    1    3    3    0  501  0.47414757743E+02  0.18953907572E+02 -0.15855039365E+02  0.53467767275E+02  0.10000000000E+00 0.  1.
         21    1    1    2  504  502 -0.54617270486E+02 -0.33785492976E+02  0.29553980496E+02  0.70696135213E+02  0.00000000000E+00 0.  1.
<mgrwt>
<rscale>  1 0.14054702E+03</rscale>
<asrwt>0</asrwt>
<pdfrwt beam="1">  1       21 0.29282304E-01 0.14054702E+03</pdfrwt>
<pdfrwt beam="2">  1       21 0.85834327E-02 0.14054702E+03</pdfrwt>
<totfact> 0.11861072E+06</totfact>
</mgrwt>
</event>
<event>
 6    1  0.4424270E-002  0.1267721E+03  0.7546771E-02  0.1232326E+00
         21   -1    0    0  503  502  0.00000000000E+00  0.00000000000E+00  0.52938809554E+02  0.52938809554E+02  0.00000000000E+00 0. -1.
         21   -1    0    0  504  503 -0.00000000000E+00 -0.00000000000E+00 -0.10505052537E+03  0.10505052537E+03  0.00000000000E+00 0. -1.
         25    2    1    2    0    0  0.33154947974E+01 -0.21340219750E+02 -0.38615987763E+02  0.13252304033E+03  0.12491903066E+03 0.  0.
          5    1    3    3  501    0 -0.36190157515E+02 -0.17999051917E+02 -0.70754935608E+02  0.81485975995E+02  0.10000000000E+00 0. -1.
         -5    1    3    3    0  501  0.39505652312E+02 -0.33411678332E+01  0.32138947845E+02  0.51037064333E+02  0.10000000000E+00 0. -1.
         21    1    1    2  504  502 -0.33154947974E+01  0.21340219750E+02 -0.13495728049E+02  0.25466294593E+02  0.00000000000E+00 0. -1.
<mgrwt>
<rscale>  1 0.12677209E+03</rscale>
<asrwt>0</asrwt>
<pdfrwt beam="1">  1       21 0.81444323E-02 0.12677209E+03</pdfrwt>
<pdfrwt beam="2">  1       21 0.16161619E-01 0.12677209E+03</pdfrwt>
<totfact> 0.39285434E+06</totfact>
</mgrwt>
</event>
<event>
 6    1  0.4424270E-002  0.1263156E+03  0.7546771E-02  0.1233027E+00
         21   -1    0    0  503  502  0.00000000000E+00  0.00000000000E+00  0.54845613404E+02  0.54845613404E+02  0.00000000000E+00 0. -1.
         21   -1    0    0  504  503 -0.00000000000E+00 -0.00000000000E+00 -0.29967050079E+03  0.29967050079E+03  0.00000000000E+00 0. -1.
         25    2    1    2    0    0 -0.17412729953E+02 -0.70236231717E+01 -0.28413756561E+03  0.31094983002E+03  0.12491239390E+03 0.  0.
          5    1    3    3  501    0  0.42971898783E+02 -0.90782141115E+01 -0.39860683545E+02  0.59311737027E+02  0.10000000000E+00 0. -1.
         -5    1    3    3    0  501 -0.60384628736E+02  0.20545909397E+01 -0.24427688207E+03  0.25163809299E+03  0.10000000000E+00 0. -1.
         21    1    1    2  504  502  0.17412729953E+02  0.70236231717E+01  0.39312678230E+02  0.43566284171E+02  0.00000000000E+00 0. -1.
<mgrwt>
<rscale>  1 0.12631564E+03</rscale>
<asrwt>0</asrwt>
<pdfrwt beam="1">  1       21 0.84377868E-02 0.12631564E+03</pdfrwt>
<pdfrwt beam="2">  1       21 0.46103153E-01 0.12631564E+03</pdfrwt>
<totfact> 0.49741754E+05</totfact>
</mgrwt>
</event>
<event>
 6    1  0.4424270E-002  0.1260298E+03  0.7546771E-02  0.1233469E+00
         21   -1    0    0  503  502  0.00000000000E+00  0.00000000000E+00  0.92977897034E+02  0.92977897034E+02  0.00000000000E+00 0.  1.
         21   -1    0    0  504  503 -0.00000000000E+00 -0.00000000000E+00 -0.54753122877E+02  0.54753122877E+02  0.00000000000E+00 0.  1.
         25    2    1    2    0    0 -0.91243483849E+01 -0.13251562987E+02  0.29531122505E+02  0.12944339475E+03  0.12499859036E+03 0.  0.
          5    1    3    3  501    0 -0.54824651359E+02  0.30173844233E+02  0.19915958343E+02  0.65672358486E+02  0.10000000000E+00 0.  1.
         -5    1    3    3    0  501  0.45700302974E+02 -0.43425407220E+02  0.96151641617E+01  0.63771036262E+02  0.10000000000E+00 0.  1.
         21    1    1    2  504  502  0.91243483849E+01  0.13251562987E+02  0.86936516523E+01  0.18287625163E+02  0.00000000000E+00 0.  1.
<mgrwt>
<rscale>  1 0.12602978E+03</rscale>
<asrwt>0</asrwt>
<pdfrwt beam="1">  1       21 0.14304292E-01 0.12602978E+03</pdfrwt>
<pdfrwt beam="2">  1       21 0.84235574E-02 0.12602978E+03</pdfrwt>
<totfact> 0.46181813E+06</totfact>
</mgrwt>
</event>
<event>
 6    1  0.4424270E-002  0.1262488E+03  0.7546771E-02  0.1233130E+00
         21   -1    0    0  504  502  0.00000000000E+00  0.00000000000E+00  0.17218269899E+02  0.17218269899E+02  0.00000000000E+00 0. -1.
         21   -1    0    0  502  503 -0.00000000000E+00 -0.00000000000E+00 -0.31933607486E+03  0.31933607486E+03  0.00000000000E+00 0. -1.
         25    2    1    2    0    0 -0.38358832940E+01  0.17309965783E+02 -0.28586573748E+03  0.31250276241E+03  0.12499763091E+03 0.  0.
          5    1    3    3  501    0  0.24833133333E+02  0.37306433225E+02 -0.29248209858E+02  0.53515626232E+02  0.10000000000E+00 0. -1.
         -5    1    3    3    0  501 -0.28669016627E+02 -0.19996467441E+02 -0.25661752762E+03  0.25898713618E+03  0.10000000000E+00 0. -1.
         21    1    1    2  504  503  0.38358832940E+01 -0.17309965783E+02 -0.16252067486E+02  0.24051582352E+02  0.00000000000E+00 0.  1.
<mgrwt>
<rscale>  1 0.12624879E+03</rscale>
<asrwt>0</asrwt>
<pdfrwt beam="1">  1       21 0.26489646E-02 0.12624879E+03</pdfrwt>
<pdfrwt beam="2">  1       21 0.49128627E-01 0.12624879E+03</pdfrwt>
<totfact> 0.30437951E+06</totfact>
</mgrwt>
</event>
<event>
 6    1  0.4424270E-002  0.1270746E+03  0.7546771E-02  0.1231862E+00
         21   -1    0    0  503  502  0.00000000000E+00  0.00000000000E+00  0.47784033450E+01  0.47784033450E+01  0.00000000000E+00 0.  1.
         21   -1    0    0  504  503 -0.00000000000E+00 -0.00000000000E+00 -0.18732599140E+04  0.18732599140E+04  0.00000000000E+00 0.  1.
         25    2    1    2    0    0 -0.22845220199E+02  0.98991522379E-01 -0.18201389940E+04  0.18245695152E+04  0.12500417780E+03 0.  0.
          5    1    3    3  501    0 -0.32061464274E+01 -0.61047736833E+02 -0.10377517650E+04  0.10395507883E+04  0.10000000000E+00 0.  1.
         -5    1    3    3    0  501 -0.19639073771E+02  0.61146728355E+02 -0.78238722899E+03  0.78501872697E+03  0.10000000000E+00 0.  1.
         21    1    1    2  504  502  0.22845220199E+02 -0.98991522379E-01 -0.48342516651E+02  0.53468802132E+02  0.00000000000E+00 0.  1.
<mgrwt>
<rscale>  1 0.12707462E+03</rscale>
<asrwt>0</asrwt>
<pdfrwt beam="1">  1       21 0.73513786E-03 0.12707462E+03</pdfrwt>
<pdfrwt beam="2">  1       21 0.28819427E+00 0.12707462E+03</pdfrwt>
<totfact> 0.25633075E+05</totfact>
</mgrwt>
</event>
<event>
 6    1  0.4424270E-002  0.1263977E+03  0.7546771E-02  0.1232901E+00
         21   -1    0    0  504  502  0.00000000000E+00  0.00000000000E+00  0.82399706305E+02  0.82399706305E+02  0.00000000000E+00 0. -1.
         21   -1    0    0  502  503 -0.00000000000E+00 -0.00000000000E+00 -0.13873402931E+03  0.13873402931E+03  0.00000000000E+00 0. -1.
         25    2    1    2    0    0 -0.17304372797E+02  0.71929432879E+01 -0.10795000826E+03  0.16622145360E+03  0.12500075040E+03 0.  0.
          5    1    3    3  501    0 -0.95241814598E+01  0.66034569145E+02 -0.63065517808E+02  0.91807101528E+02  0.10000000000E+00 0.  1.
         -5    1    3    3    0  501 -0.77801913374E+01 -0.58841625857E+02 -0.44884490454E+02  0.74414352070E+02  0.10000000000E+00 0.  1.
         21    1    1    2  504  503  0.17304372797E+02 -0.71929432879E+01  0.51615685260E+02  0.54912282013E+02  0.00000000000E+00 0. -1.
<mgrwt>
<rscale>  1 0.12639766E+03</rscale>
<asrwt>0</asrwt>
<pdfrwt beam="1">  1       21 0.12676878E-01 0.12639766E+03</pdfrwt>
<pdfrwt beam="2">  1       21 0.21343696E-01 0.12639766E+03</pdfrwt>
<totfact> 0.10867036E+06</totfact>
</mgrwt>
</event>
<event>
 6    1  0.4424270E-002  0.1266082E+03  0.7546771E-02  0.1232577E+00
         21   -1    0    0  504  502  0.00000000000E+00  0.00000000000E+00  0.39225064481E+02  0.39225064481E+02  0.00000000000E+00 0. -1.
         21   -1    0    0  502  503 -0.00000000000E+00 -0.00000000000E+00 -0.22533792377E+03  0.22533792377E+03  0.00000000000E+00 0. -1.
         25    2    1    2    0    0 -0.12026981694E+02 -0.16134393016E+02 -0.20235727715E+03  0.23870089169E+03  0.12499872460E+03 0.  0.
          5    1    3    3  501    0 -0.22752677884E+02 -0.31597628263E+02 -0.36538246039E+01  0.39108245895E+02  0.10000000000E+00 0. -1.
         -5    1    3    3    0  501  0.10725696190E+02  0.15463235247E+02 -0.19870345254E+03  0.19959264580E+03  0.10000000000E+00 0. -1.
         21    1    1    2  504  503  0.12026981694E+02  0.16134393016E+02  0.16244417861E+02  0.25862096557E+02  0.00000000000E+00 0. -1.
<mgrwt>
<rscale>  1 0.12660825E+03</rscale>
<asrwt>0</asrwt>
<pdfrwt beam="1">  1       21 0.60346253E-02 0.12660825E+03</pdfrwt>
<pdfrwt beam="2">  1       21 0.34667373E-01 0.12660825E+03</pdfrwt>
<totfact> 0.15607608E+06</totfact>
</mgrwt>
</event>
<event>
 6    1  0.4424270E-002  0.1262420E+03  0.7546771E-02  0.1233141E+00
         21   -1    0    0  503  502  0.00000000000E+00  0.00000000000E+00  0.86351722504E+02  0.86351722504E+02  0.00000000000E+00 0.  1.
         21   -1    0    0  504  503 -0.00000000000E+00 -0.00000000000E+00 -0.74712022278E+02  0.74712022278E+02  0.00000000000E+00 0.  1.
         25    2    1    2    0    0 -0.14814017215E+00  0.17643531561E+02 -0.17044417964E+02  0.12738742094E+03  0.12500290668E+03 0.  0.
          5    1    3    3  501    0 -0.28076384943E+01 -0.35372448419E+02  0.37256753589E+02  0.51450642650E+02  0.10000000000E+00 0.  1.
         -5    1    3    3    0  501  0.26594983221E+01  0.53015979980E+02 -0.54301171552E+02  0.75936778287E+02  0.10000000000E+00 0.  1.
         21    1    1    2  504  502  0.14814017215E+00 -0.17643531561E+02  0.28684118190E+02  0.33676323846E+02  0.00000000000E+00 0.  1.
<mgrwt>
<rscale>  1 0.12624200E+03</rscale>
<asrwt>0</asrwt>
<pdfrwt beam="1">  1       21 0.13284880E-01 0.12624200E+03</pdfrwt>
<pdfrwt beam="2">  1       21 0.11494157E-01 0.12624200E+03</pdfrwt>
<totfact> 0.30634969E+06</totfact>
</mgrwt>
</event>
<event>
 6    1  0.4424270E-002  0.1315728E+03  0.7546771E-02  0.1225140E+00
         21   -1    0    0  504  502  0.00000000000E+00  0.00000000000E+00  0.18142989351E+04  0.18142989351E+04  0.00000000000E+00 0. -1.
         21   -1    0    0  502  503 -0.00000000000E+00 -0.00000000000E+00 -0.59058081090E+01  0.59058081090E+01  0.00000000000E+00 0. -1.
         25    2    1    2    0    0  0.35227394541E+02  0.21191331864E+02  0.78221249045E+03  0.79320097462E+03  0.12498545539E+03 0.  0.
          5    1    3    3  501    0 -0.31855772499E+01 -0.24164209382E+02  0.61938948726E+03  0.61986886020E+03  0.10000000000E+00 0.  1.
         -5    1    3    3    0  501  0.38412971791E+02  0.45355541245E+02  0.16282300319E+03  0.17333211443E+03  0.10000000000E+00 0.  1.
         21    1    1    2  504  503 -0.35227394541E+02 -0.21191331864E+02  0.10261806365E+04  0.10270037686E+04  0.00000000000E+00 0.  1.
<mgrwt>
<rscale>  1 0.13157282E+03</rscale>
<asrwt>0</asrwt>
<pdfrwt beam="1">  1       21 0.27912247E+00 0.13157282E+03</pdfrwt>
<pdfrwt beam="2">  1       21 0.90858731E-03 0.13157282E+03</pdfrwt>
<totfact> 0.20602351E+05</totfact>
</mgrwt>
</event>
<event>
 6    1  0.4424270E-002  0.1930009E+03  0.7546771E-02  0.1155782E+00
         21   -1    0    0  504  502  0.00000000000E+00  0.00000000000E+00  0.16784347567E+03  0.16784347567E+03  0.00000000000E+00 0.  1.
         21   -1    0    0  502  503 -0.00000000000E+00 -0.00000000000E+00 -0.24874100204E+03  0.24874100204E+03  0.00000000000E+00 0.  1.
         25    2    1    2    0    0 -0.74416978943E+02  0.12683270536E+03  0.70549077587E+02  0.20549090662E+03  0.12499967381E+03 0.  0.
          5    1    3    3  501    0 -0.63381982076E+02  0.15194260331E+03  0.67354281762E+02  0.17787759731E+03  0.10000000000E+00 0.  1.
         -5    1    3    3    0  501 -0.11034996866E+02 -0.25109897949E+02  0.31947958247E+01  0.27613309313E+02  0.10000000000E+00 0.  1.
         21    1    1    2  504  503  0.74416978943E+02 -0.12683270536E+03 -0.15144660395E+03  0.21109357108E+03  0.00000000000E+00 0.  1.
<mgrwt>
<rscale>  1 0.19300088E+03</rscale>
<asrwt>0</asrwt>
<pdfrwt beam="1">  1       21 0.25822073E-01 0.19300088E+03</pdfrwt>
<pdfrwt beam="2">  1       21 0.38267846E-01 0.19300088E+03</pdfrwt>
<totfact> 0.93753392E+04</totfact>
</mgrwt>
</event>
<event>
 6    1  0.4424270E-002  0.1270106E+03  0.7546771E-02  0.1231960E+00
         21   -1    0    0  503  502  0.00000000000E+00  0.00000000000E+00  0.81923438539E+03  0.81923438539E+03  0.00000000000E+00 0.  1.
         21   -1    0    0  504  503 -0.00000000000E+00 -0.00000000000E+00 -0.43626292392E+02  0.43626292392E+02  0.00000000000E+00 0.  1.
         25    2    1    2    0    0  0.22375152912E+02 -0.26715645157E+01  0.49362751204E+02  0.13626582423E+03  0.12499563562E+03 0.  0.
          5    1    3    3  501    0  0.68251828135E+02  0.11710426838E+02  0.54209475676E+02  0.87943865014E+02  0.10000000000E+00 0. -1.
         -5    1    3    3    0  501 -0.45876675223E+02 -0.14381991353E+02 -0.48467244724E+01  0.48321959221E+02  0.10000000000E+00 0. -1.
         21    1    1    2  504  502 -0.22375152912E+02  0.26715645157E+01  0.72624534179E+03  0.72659485355E+03  0.00000000000E+00 0.  1.
<mgrwt>
<rscale>  1 0.12701060E+03</rscale>
<asrwt>0</asrwt>
<pdfrwt beam="1">  1       21 0.12603605E+00 0.12701060E+03</pdfrwt>
<pdfrwt beam="2">  1       21 0.67117379E-02 0.12701060E+03</pdfrwt>
<totfact> 0.78521652E+04</totfact>
</mgrwt>
</event>
<event>
 6    1  0.4424270E-002  0.1275440E+03  0.7546771E-02  0.1231146E+00
         21   -1    0    0  504  502  0.00000000000E+00  0.00000000000E+00  0.50576858498E+03  0.50576858498E+03  0.00000000000E+00 0.  1.
         21   -1    0    0  502  503 -0.00000000000E+00 -0.00000000000E+00 -0.28956181448E+02  0.28956181448E+02  0.00000000000E+00 0.  1.
         25    2    1    2    0    0 -0.25105400326E+02 -0.36310653824E+01  0.11411794552E+03  0.17114432741E+03  0.12499603816E+03 0.  0.
          5    1    3    3  501    0 -0.73095924889E+02  0.17407388591E+02  0.67921676616E+02  0.10128867443E+03  0.10000000000E+00 0.  1.
         -5    1    3    3    0  501  0.47990524563E+02 -0.21038453974E+02  0.46196268902E+02  0.69855652984E+02  0.10000000000E+00 0.  1.
         21    1    1    2  504  503  0.25105400326E+02  0.36310653824E+01  0.36269445802E+03  0.36358043902E+03  0.00000000000E+00 0.  1.
<mgrwt>
<rscale>  1 0.12754401E+03</rscale>
<asrwt>0</asrwt>
<pdfrwt beam="1">  1       21 0.77810545E-01 0.12754401E+03</pdfrwt>
<pdfrwt beam="2">  1       21 0.44547975E-02 0.12754401E+03</pdfrwt>
<totfact> 0.48388515E+05</totfact>
</mgrwt>
</event>
<event>
 6    1  0.4424270E-002  0.1268255E+03  0.7546771E-02  0.1232244E+00
         21   -1    0    0  504  502  0.00000000000E+00  0.00000000000E+00  0.30793719363E+03  0.30793719363E+03  0.00000000000E+00 0. -1.
         21   -1    0    0  502  503 -0.00000000000E+00 -0.00000000000E+00 -0.27524687464E+02  0.27524687464E+02  0.00000000000E+00 0. -1.
         25    2    1    2    0    0  0.83012636046E+01 -0.19767032733E+02  0.12326492254E+03  0.17685857218E+03  0.12500026745E+03 0.  0.
          5    1    3    3  501    0  0.10035731553E+02 -0.42673467928E+02  0.14111445158E+03  0.14776684072E+03  0.10000000000E+00 0.  1.
         -5    1    3    3    0  501 -0.17344679484E+01  0.22906435195E+02 -0.17849529034E+02  0.29091731457E+02  0.10000000000E+00 0.  1.
         21    1    1    2  504  503 -0.83012636046E+01  0.19767032733E+02  0.15714758363E+03  0.15860330892E+03  0.00000000000E+00 0. -1.
<mgrwt>
<rscale>  1 0.12682552E+03</rscale>
<asrwt>0</asrwt>
<pdfrwt beam="1">  1       21 0.47374950E-01 0.12682552E+03</pdfrwt>
<pdfrwt beam="2">  1       21 0.42345675E-02 0.12682552E+03</pdfrwt>
<totfact> 0.15144026E+06</totfact>
</mgrwt>
</event>
<event>
 6    1  0.4424270E-002  0.1315444E+03  0.7546771E-02  0.1225182E+00
         21   -1    0    0  504  502  0.00000000000E+00  0.00000000000E+00  0.10303705823E+04  0.10303705823E+04  0.00000000000E+00 0. -1.
         21   -1    0    0  502  503 -0.00000000000E+00 -0.00000000000E+00 -0.14664459845E+02  0.14664459845E+02  0.00000000000E+00 0.  1.
         25    2    1    2    0    0 -0.35383317299E+02  0.20636699033E+02  0.29306094265E+03  0.32122988301E+03  0.12500427650E+03 0.  0.
          5    1    3    3  501    0  0.28978252869E+02 -0.18887898577E+02  0.19185018403E+03  0.19494356867E+03  0.10000000000E+00 0. -1.
         -5    1    3    3    0  501 -0.64361570169E+02  0.39524597610E+02  0.10121075861E+03  0.12628631434E+03  0.10000000000E+00 0. -1.
         21    1    1    2  504  503  0.35383317299E+02 -0.20636699033E+02  0.72264517977E+03  0.72380515910E+03  0.00000000000E+00 0. -1.
<mgrwt>
<rscale>  1 0.13154437E+03</rscale>
<asrwt>0</asrwt>
<pdfrwt beam="1">  1       21 0.15851849E+00 0.13154437E+03</pdfrwt>
<pdfrwt beam="2">  1       21 0.22560716E-02 0.13154437E+03</pdfrwt>
<totfact> 0.26704184E+05</totfact>
</mgrwt>
</event>
<event>
 6    1  0.4424270E-002  0.1305849E+03  0.7546771E-02  0.1226590E+00
         21   -1    0    0  504  502  0.00000000000E+00  0.00000000000E+00  0.20715687959E+02  0.20715687959E+02  0.00000000000E+00 0. -1.
         21   -1    0    0  502  503 -0.00000000000E+00 -0.00000000000E+00 -0.46646325076E+03  0.46646325076E+03  0.00000000000E+00 0. -1.
         25    2    1    2    0    0 -0.15447676461E+02  0.34486192967E+02 -0.42383825086E+03  0.44349889564E+03  0.12499791730E+03 0.  0.
          5    1    3    3  501    0 -0.30330081062E+02 -0.12381118178E+02 -0.23906338401E+02  0.40555257616E+02  0.10000000000E+00 0.  1.
         -5    1    3    3    0  501  0.14882404601E+02  0.46867311145E+02 -0.39993191246E+03  0.40294363803E+03  0.10000000000E+00 0.  1.
         21    1    1    2  504  503  0.15447676461E+02 -0.34486192967E+02 -0.21909311934E+02  0.43680043073E+02  0.00000000000E+00 0. -1.
<mgrwt>
<rscale>  1 0.13058487E+03</rscale>
<asrwt>0</asrwt>
<pdfrwt beam="1">  1       21 0.31870291E-02 0.13058487E+03</pdfrwt>
<pdfrwt beam="2">  1       21 0.71763572E-01 0.13058487E+03</pdfrwt>
<totfact> 0.10072921E+06</totfact>
</mgrwt>
</event>
<event>
 6    1  0.4424270E-002  0.1275591E+03  0.7546771E-02  0.1231123E+00
         21   -1    0    0  504  502  0.00000000000E+00  0.00000000000E+00  0.68278993271E+03  0.68278993271E+03  0.00000000000E+00 0. -1.
         21   -1    0    0  502  503 -0.00000000000E+00 -0.00000000000E+00 -0.46710996070E+02  0.46710996070E+02  0.00000000000E+00 0. -1.
         25    2    1    2    0    0  0.24307345630E+02 -0.74397042205E+01  0.41154470899E+02  0.13403361970E+03  0.12500049793E+03 0.  0.
          5    1    3    3  501    0  0.63732816020E+01 -0.50558112976E+02  0.64193138800E+02  0.81960420784E+02  0.10000000000E+00 0.  1.
         -5    1    3    3    0  501  0.17934064028E+02  0.43118408756E+02 -0.23038667901E+02  0.52073198911E+02  0.10000000000E+00 0.  1.
         21    1    1    2  504  503 -0.24307345630E+02  0.74397042205E+01  0.59492446574E+03  0.59546730908E+03  0.00000000000E+00 0. -1.
<mgrwt>
<rscale>  1 0.12755909E+03</rscale>
<asrwt>0</asrwt>
<pdfrwt beam="1">  1       21 0.10504460E+00 0.12755909E+03</pdfrwt>
<pdfrwt beam="2">  1       21 0.71863076E-02 0.12755909E+03</pdfrwt>
<totfact> 0.10842639E+05</totfact>
</mgrwt>
</event>
<event>
 6    1  0.4424270E-002  0.1279221E+03  0.7546771E-02  0.1230572E+00
         21   -1    0    0  504  502  0.00000000000E+00  0.00000000000E+00  0.28029978681E+03  0.28029978681E+03  0.00000000000E+00 0. -1.
         21   -1    0    0  502  503 -0.00000000000E+00 -0.00000000000E+00 -0.35503849383E+02  0.35503849383E+02  0.00000000000E+00 0. -1.
         25    2    1    2    0    0  0.26988747506E+02  0.34376859879E+01  0.84720941451E+02  0.15343302766E+03  0.12499538344E+03 0.  0.
          5    1    3    3  501    0  0.71150829100E+02 -0.11545483341E+02  0.78185744690E+02  0.10634265062E+03  0.10000000000E+00 0. -1.
         -5    1    3    3    0  501 -0.44162081594E+02  0.14983169329E+02  0.65351967607E+01  0.47090377049E+02  0.10000000000E+00 0. -1.
         21    1    1    2  504  503 -0.26988747506E+02 -0.34376859879E+01  0.16007499598E+03  0.16237060853E+03  0.00000000000E+00 0. -1.
<mgrwt>
<rscale>  1 0.12792207E+03</rscale>
<asrwt>0</asrwt>
<pdfrwt beam="1">  1       21 0.43123043E-01 0.12792207E+03</pdfrwt>
<pdfrwt beam="2">  1       21 0.54621309E-02 0.12792207E+03</pdfrwt>
<totfact> 0.11968338E+06</totfact>
</mgrwt>
</event>
<event>
 6    1  0.4424270E-002  0.1288886E+03  0.7546771E-02  0.1229114E+00
         21   -1    0    0  503  502  0.00000000000E+00  0.00000000000E+00  0.31676749333E+02  0.31676749333E+02  0.00000000000E+00 0.  1.
         21   -1    0    0  504  503 -0.00000000000E+00 -0.00000000000E+00 -0.23526351763E+03  0.23526351763E+03  0.00000000000E+00 0.  1.
         25    2    1    2    0    0 -0.27270714619E+02 -0.15600208005E+02 -0.19606428730E+03  0.23463475527E+03  0.12500082103E+03 0.  0.
          5    1    3    3  501    0 -0.16027270357E+02 -0.70780174287E+02 -0.11112825951E+03  0.13272605822E+03  0.10000000000E+00 0. -1.
         -5    1    3    3    0  501 -0.11243444262E+02  0.55179966282E+02 -0.84936027787E+02  0.10190869705E+03  0.10000000000E+00 0. -1.
         21    1    1    2  504  502  0.27270714619E+02  0.15600208005E+02 -0.75224809923E+01  0.32305511696E+02  0.00000000000E+00 0.  1.
<mgrwt>
<rscale>  1 0.12888857E+03</rscale>
<asrwt>0</asrwt>
<pdfrwt beam="1">  1       21 0.48733461E-02 0.12888857E+03</pdfrwt>
<pdfrwt beam="2">  1       21 0.36194387E-01 0.12888857E+03</pdfrwt>
<totfact> 0.20568986E+06</totfact>
</mgrwt>
</event>
<event>
 6    1  0.4424270E-002  0.1320420E+03  0.7546771E-02  0.1224457E+00
         21   -1    0    0  503  502  0.00000000000E+00  0.00000000000E+00  0.17082481135E+02  0.17082481135E+02  0.00000000000E+00 0. -1.
         21   -1    0    0  504  503 -0.00000000000E+00 -0.00000000000E+00 -0.57442317335E+03  0.57442317335E+03  0.00000000000E+00 0. -1.
         25    2    1    2    0    0  0.42594886735E+02 -0.14829745530E+01 -0.51411866605E+03  0.53080419540E+03  0.12497426729E+03 0.  0.
          5    1    3    3  501    0  0.85526907730E+02 -0.10723125935E+01 -0.27969384141E+03  0.29248018176E+03  0.10000000000E+00 0. -1.
         -5    1    3    3    0  501 -0.42932020995E+02 -0.41066195956E+00 -0.23442482464E+03  0.23832401364E+03  0.10000000000E+00 0. -1.
         21    1    1    2  504  502 -0.42594886735E+02  0.14829745530E+01 -0.43222026172E+02  0.60701459092E+02  0.00000000000E+00 0. -1.
<mgrwt>
<rscale>  1 0.13204200E+03</rscale>
<asrwt>0</asrwt>
<pdfrwt beam="1">  1       21 0.26280737E-02 0.13204200E+03</pdfrwt>
<pdfrwt beam="2">  1       21 0.88372807E-01 0.13204200E+03</pdfrwt>
<totfact> 0.86767568E+05</totfact>
</mgrwt>
</event>
<event>
 6    1  0.4424270E-002  0.1335064E+03  0.7546771E-02  0.1222344E+00
         21   -1    0    0  503  502  0.00000000000E+00  0.00000000000E+00  0.18103091094E+04  0.18103091094E+04  0.00000000000E+00 0. -1.
         21   -1    0    0  504  503 -0.00000000000E+00 -0.00000000000E+00 -0.36477005046E+03  0.36477005046E+03  0.00000000000E+00 0.  1.
         25    2    1    2    0    0  0.13428905735E+02  0.44934739114E+02 -0.35223811356E+03  0.37669037313E+03  0.12499792908E+03 0.  0.
          5    1    3    3  501    0 -0.23567880730E+02  0.67420860516E+02 -0.30218698394E+03  0.31051248074E+03  0.10000000000E+00 0. -1.
         -5    1    3    3    0  501  0.36996786465E+02 -0.22486121401E+02 -0.50051129623E+02  0.66177892388E+02  0.10000000000E+00 0. -1.
         21    1    1    2  504  502 -0.13428905735E+02 -0.44934739114E+02  0.17977771725E+04  0.17983887867E+04  0.00000000000E+00 0. -1.
<mgrwt>
<rscale>  1 0.13350636E+03</rscale>
<asrwt>0</asrwt>
<pdfrwt beam="1">  1       21 0.27850909E+00 0.13350636E+03</pdfrwt>
<pdfrwt beam="2">  1       21 0.56118470E-01 0.13350636E+03</pdfrwt>
<totfact> 0.15117397E+02</totfact>
</mgrwt>
</event>
<event>
 6    1  0.4424270E-002  0.1263713E+03  0.7546771E-02  0.1232942E+00
         21   -1    0    0  504  502  0.00000000000E+00  0.00000000000E+00  0.19834303501E+02  0.19834303501E+02  0.00000000000E+00 0.  1.
         21   -1    0    0  502  503 -0.00000000000E+00 -0.00000000000E+00 -0.66253687197E+03  0.66253687197E+03  0.00000000000E+00 0. -1.
         25    2    1    2    0    0  0.75679967579E+01 -0.16952192649E+02 -0.65018734330E+03  0.66235435092E+03  0.12500021357E+03 0.  0.
          5    1    3    3  501    0  0.42614109720E+02 -0.59324284758E+01 -0.59185727472E+03  0.59341907595E+03  0.10000000000E+00 0.  1.
         -5    1    3    3    0  501 -0.35046112962E+02 -0.11019764173E+02 -0.58330068576E+02  0.68935274978E+02  0.10000000000E+00 0.  1.
         21    1    1    2  504  503 -0.75679967579E+01  0.16952192649E+02  0.74847748330E+01  0.20016824544E+02  0.00000000000E+00 0.  1.
<mgrwt>
<rscale>  1 0.12637130E+03</rscale>
<asrwt>0</asrwt>
<pdfrwt beam="1">  1       21 0.30514317E-02 0.12637130E+03</pdfrwt>
<pdfrwt beam="2">  1       21 0.10192874E+00 0.12637130E+03</pdfrwt>
<totfact> 0.48872414E+05</totfact>
</mgrwt>
</event>
<event>
 6    1  0.4424270E-002  0.1268610E+03  0.7546771E-02  0.1232189E+00
         21   -1    0    0  504  502  0.00000000000E+00  0.00000000000E+00  0.90838560400E+02  0.90838560400E+02  0.00000000000E+00 0. -1.
         21   -1    0    0  502  503 -0.00000000000E+00 -0.00000000000E+00 -0.28625342835E+03  0.28625342835E+03  0.00000000000E+00 0.  1.
         25    2    1    2    0    0  0.44531745301E+01 -0.21120053546E+02 -0.27060462718E+03  0.29886547586E+03  0.12501128343E+03 0.  0.
          5    1    3    3  501    0 -0.19725763749E+02  0.48602411585E+02 -0.98197089194E+02  0.11132824661E+03  0.10000000000E+00 0.  1.
         -5    1    3    3    0  501  0.24178938279E+02 -0.69722465131E+02 -0.17240753799E+03  0.18753722925E+03  0.10000000000E+00 0.  1.
         21    1    1    2  504  503 -0.44531745301E+01  0.21120053546E+02  0.75189759232E+02  0.78226512888E+02  0.00000000000E+00 0. -1.
<mgrwt>
<rscale>  1 0.12686098E+03</rscale>
<asrwt>0</asrwt>
<pdfrwt beam="1">  1       21 0.13975163E-01 0.12686098E+03</pdfrwt>
<pdfrwt beam="2">  1       21 0.44038988E-01 0.12686098E+03</pdfrwt>
<totfact> 0.22472549E+05</totfact>
</mgrwt>
</event>
<event>
 6    1  0.4424270E-002  0.1300205E+03  0.7546771E-02  0.1227425E+00
         21   -1    0    0  503  502  0.00000000000E+00  0.00000000000E+00  0.20967328658E+03  0.20967328658E+03  0.00000000000E+00 0.  1.
         21   -1    0    0  504  503 -0.00000000000E+00 -0.00000000000E+00 -0.79317384817E+02  0.79317384817E+02  0.00000000000E+00 0.  1.
         25    2    1    2    0    0 -0.23184188486E+02 -0.27241127341E+02 -0.22545446047E+02  0.13196071318E+03  0.12500298825E+03 0.  0.
          5    1    3    3  501    0 -0.46935434173E+02  0.37420428910E+02 -0.19085890068E+02  0.62988131267E+02  0.10000000000E+00 0.  1.
         -5    1    3    3    0  501  0.23751245687E+02 -0.64661556251E+02 -0.34595559796E+01  0.68972581916E+02  0.10000000000E+00 0.  1.
         21    1    1    2  504  502  0.23184188486E+02  0.27241127341E+02  0.15290134781E+03  0.15702995821E+03  0.00000000000E+00 0.  1.
<mgrwt>
<rscale>  1 0.13002051E+03</rscale>
<asrwt>0</asrwt>
<pdfrwt beam="1">  1       21 0.32257429E-01 0.13002051E+03</pdfrwt>
<pdfrwt beam="2">  1       21 0.12202675E-01 0.13002051E+03</pdfrwt>
<totfact> 0.53048727E+05</totfact>
</mgrwt>
</event>
<event>
 6    1  0.4424270E-002  0.1263290E+03  0.7546771E-02  0.1233007E+00
         21   -1    0    0  504  502  0.00000000000E+00  0.00000000000E+00  0.93465227081E+01  0.93465227081E+01  0.00000000000E+00 0. -1.
         21   -1    0    0  502  503 -0.00000000000E+00 -0.00000000000E+00 -0.92101612560E+03  0.92101612560E+03  0.00000000000E+00 0. -1.
         25    2    1    2    0    0 -0.92346921341E+01  0.15548457953E+02 -0.90003873349E+03  0.90886122495E+03  0.12502787827E+03 0.  0.
          5    1    3    3  501    0  0.11745131212E+02 -0.52394768423E+02 -0.31900924683E+03  0.32349662970E+03  0.10000000000E+00 0.  1.
         -5    1    3    3    0  501 -0.20979823346E+02  0.67943226376E+02 -0.58102948666E+03  0.58536459525E+03  0.10000000000E+00 0.  1.
         21    1    1    2  504  503  0.92346921341E+01 -0.15548457953E+02 -0.11630869401E+02  0.21501423361E+02  0.00000000000E+00 0. -1.
<mgrwt>
<rscale>  1 0.12632895E+03</rscale>
<asrwt>0</asrwt>
<pdfrwt beam="1">  1       21 0.14379262E-02 0.12632895E+03</pdfrwt>
<pdfrwt beam="2">  1       21 0.14169482E+00 0.12632895E+03</pdfrwt>
<totfact> 0.73782667E+05</totfact>
</mgrwt>
</event>
<event>
 6    1  0.4424270E-002  0.1269507E+03  0.7546771E-02  0.1232052E+00
         21   -1    0    0  503  502  0.00000000000E+00  0.00000000000E+00  0.33775451935E+02  0.33775451935E+02  0.00000000000E+00 0.  1.
         21   -1    0    0  504  503 -0.00000000000E+00 -0.00000000000E+00 -0.16469099629E+03  0.16469099629E+03  0.00000000000E+00 0.  1.
         25    2    1    2    0    0 -0.10675386486E+02  0.19473552796E+02 -0.11206020692E+03  0.16933387393E+03  0.12499315082E+03 0.  0.
          5    1    3    3  501    0 -0.77617998614E+01 -0.25896899948E+02  0.17381126058E+02  0.32140449702E+02  0.10000000000E+00 0. -1.
         -5    1    3    3    0  501 -0.29135866246E+01  0.45370452744E+02 -0.12944133297E+03  0.13719342423E+03  0.10000000000E+00 0. -1.
         21    1    1    2  504  502  0.10675386486E+02 -0.19473552796E+02 -0.18855337438E+02  0.29132574294E+02  0.00000000000E+00 0.  1.
<mgrwt>
<rscale>  1 0.12695066E+03</rscale>
<asrwt>0</asrwt>
<pdfrwt beam="1">  1       21 0.51962232E-02 0.12695066E+03</pdfrwt>
<pdfrwt beam="2">  1       21 0.25337077E-01 0.12695066E+03</pdfrwt>
<totfact> 0.36750253E+06</totfact>
</mgrwt>
</event>
<event>
 6    1  0.4424270E-002  0.1332963E+03  0.7546771E-02  0.1222645E+00
         21   -1    0    0  503  502  0.00000000000E+00  0.00000000000E+00  0.64656130057E+03  0.64656130057E+03  0.00000000000E+00 0.  1.
         21   -1    0    0  504  503 -0.00000000000E+00 -0.00000000000E+00 -0.18631801704E+04  0.18631801704E+04  0.00000000000E+00 0.  1.
         25    2    1    2    0    0  0.31895345568E+02  0.33533673329E+02 -0.18599637999E+04  0.18647340917E+04  0.12500430185E+03 0.  0.
          5    1    3    3  501    0  0.60677470134E+02  0.61720463461E+02 -0.96823583030E+03  0.97209660223E+03  0.10000000000E+00 0.  1.
         -5    1    3    3    0  501 -0.28782124567E+02 -0.28186790132E+02 -0.89172796957E+03  0.89263748944E+03  0.10000000000E+00 0.  1.
         21    1    1    2  504  502 -0.31895345568E+02 -0.33533673329E+02  0.64334493005E+03  0.64500737929E+03  0.00000000000E+00 0.  1.
<mgrwt>
<rscale>  1 0.13329627E+03</rscale>
<asrwt>0</asrwt>
<pdfrwt beam="1">  1       21 0.99470970E-01 0.13329627E+03</pdfrwt>
<pdfrwt beam="2">  1       21 0.28664310E+00 0.13329627E+03</pdfrwt>
<totfact> 0.38363940E+01</totfact>
</mgrwt>
</event>
<event>
 6    1  0.4424270E-002  0.1319455E+03  0.7546771E-02  0.1224597E+00
         21   -1    0    0  503  502  0.00000000000E+00  0.00000000000E+00  0.28927234375E+03  0.28927234375E+03  0.00000000000E+00 0.  1.
         21   -1    0    0  504  503 -0.00000000000E+00 -0.00000000000E+00 -0.35370343884E+02  0.35370343884E+02  0.00000000000E+00 0.  1.
         25    2    1    2    0    0 -0.40097495266E+02  0.13263357781E+02  0.10142076683E+03  0.16642052669E+03  0.12500357584E+03 0.  0.
          5    1    3    3  501    0 -0.67842060450E+02 -0.17140562284E+02  0.10380957120E+03  0.12519097856E+03  0.10000000000E+00 0. -1.
         -5    1    3    3    0  501  0.27744565183E+02  0.30403920065E+02 -0.23888043647E+01  0.41229548128E+02  0.10000000000E+00 0. -1.
         21    1    1    2  504  502  0.40097495266E+02 -0.13263357781E+02  0.15248123303E+03  0.15822216094E+03  0.00000000000E+00 0.  1.
<mgrwt>
<rscale>  1 0.13194552E+03</rscale>
<asrwt>0</asrwt>
<pdfrwt beam="1">  1       21 0.44503436E-01 0.13194552E+03</pdfrwt>
<pdfrwt beam="2">  1       21 0.54415915E-02 0.13194552E+03</pdfrwt>
<totfact> 0.11304268E+06</totfact>
</mgrwt>
</event>
<event>
 6    1  0.4424270E-002  0.1272144E+03  0.7546771E-02  0.1231649E+00
         21   -1    0    0  504  502  0.00000000000E+00  0.00000000000E+00  0.16011917116E+03  0.16011917116E+03  0.00000000000E+00 0. -1.
         21   -1    0    0  502  503 -0.00000000000E+00 -0.00000000000E+00 -0.62707585913E+02  0.62707585913E+02  0.00000000000E+00 0. -1.
         25    2    1    2    0    0  0.23442693481E+02 -0.25200900312E+01  0.48472202901E+01  0.12730674665E+03  0.12501040543E+03 0.  0.
          5    1    3    3  501    0  0.17614431241E+02 -0.34193749606E+02  0.55353883113E+02  0.67405808917E+02  0.10000000000E+00 0.  1.
         -5    1    3    3    0  501  0.58282622400E+01  0.31673659575E+02 -0.50506662823E+02  0.59900937732E+02  0.10000000000E+00 0.  1.
         21    1    1    2  504  503 -0.23442693481E+02  0.25200900312E+01  0.92564364954E+02  0.95520010420E+02  0.00000000000E+00 0. -1.
<mgrwt>
<rscale>  1 0.12721443E+03</rscale>
<asrwt>0</asrwt>
<pdfrwt beam="1">  1       21 0.24633718E-01 0.12721443E+03</pdfrwt>
<pdfrwt beam="2">  1       21 0.96473210E-02 0.12721443E+03</pdfrwt>
<totfact> 0.13440065E+06</totfact>
</mgrwt>
</event>
<event>
 6    1  0.4424270E-002  0.1278703E+03  0.7546771E-02  0.1230651E+00
         21   -1    0    0  503  502  0.00000000000E+00  0.00000000000E+00  0.10834461697E+03  0.10834461697E+03  0.00000000000E+00 0. -1.
         21   -1    0    0  504  503 -0.00000000000E+00 -0.00000000000E+00 -0.85886788211E+02  0.85886788211E+02  0.00000000000E+00 0. -1.
         25    2    1    2    0    0  0.24038294864E+02 -0.12148816804E+02 -0.33450875941E+02  0.13217323383E+03  0.12500147708E+03 0.  0.
          5    1    3    3  501    0 -0.22165355618E+02 -0.56940267947E+02 -0.29092266924E+02  0.67674715355E+02  0.10000000000E+00 0. -1.
         -5    1    3    3    0  501  0.46203650482E+02  0.44791451144E+02 -0.43586090168E+01  0.64498518479E+02  0.10000000000E+00 0. -1.
         21    1    1    2  504  502 -0.24038294864E+02  0.12148816804E+02  0.55908704700E+02  0.62058171347E+02  0.00000000000E+00 0. -1.
<mgrwt>
<rscale>  1 0.12787026E+03</rscale>
<asrwt>0</asrwt>
<pdfrwt beam="1">  1       21 0.16668403E-01 0.12787026E+03</pdfrwt>
<pdfrwt beam="2">  1       21 0.13213352E-01 0.12787026E+03</pdfrwt>
<totfact> 0.15904131E+06</totfact>
</mgrwt>
</event>
<event>
 6    1  0.4424270E-002  0.1345830E+03  0.7546771E-02  0.1220810E+00
         21   -1    0    0  503  502  0.00000000000E+00  0.00000000000E+00  0.94910897438E+02  0.94910897438E+02  0.00000000000E+00 0.  1.
         21   -1    0    0  504  503 -0.00000000000E+00 -0.00000000000E+00 -0.10731544172E+03  0.10731544172E+03  0.00000000000E+00 0.  1.
         25    2    1    2    0    0 -0.45826639693E+02  0.19651609570E+02 -0.45858002525E+02  0.14218135158E+03  0.12500525460E+03 0.  0.
          5    1    3    3  501    0  0.78869360995E+01  0.54666688146E+02  0.11193295498E+02  0.56355571313E+02  0.10000000000E+00 0. -1.
         -5    1    3    3    0  501 -0.53713575793E+02 -0.35015078575E+02 -0.57051298024E+02  0.85825780266E+02  0.10000000000E+00 0. -1.
         21    1    1    2  504  502  0.45826639693E+02 -0.19651609570E+02  0.33453458247E+02  0.60044987575E+02  0.00000000000E+00 0.  1.
<mgrwt>
<rscale>  1 0.13458299E+03</rscale>
<asrwt>0</asrwt>
<pdfrwt beam="1">  1       21 0.14601676E-01 0.13458299E+03</pdfrwt>
<pdfrwt beam="2">  1       21 0.16510068E-01 0.13458299E+03</pdfrwt>
<totfact> 0.13542144E+06</totfact>
</mgrwt>
</event>
<event>
 6    1  0.4424270E-002  0.1263746E+03  0.7546771E-02  0.1232937E+00
         21   -1    0    0  503  502  0.00000000000E+00  0.00000000000E+00  0.52133435447E+02  0.52133435447E+02  0.00000000000E+00 0. -1.
         21   -1    0    0  504  503 -0.00000000000E+00 -0.00000000000E+00 -0.14831807583E+03  0.14831807583E+03  0.00000000000E+00 0. -1.
         25    2    1    2    0    0 -0.17690328010E+02 -0.57044903061E+01 -0.11722813945E+03  0.17237451415E+03  0.12500019014E+03 0.  0.
          5    1    3    3  501    0 -0.24583078133E+02 -0.94137804555E+01 -0.14301920646E+03  0.14542162979E+03  0.10000000000E+00 0. -1.
         -5    1    3    3    0  501  0.68927501221E+01  0.37092901494E+01  0.25791067016E+02  0.26952884363E+02  0.10000000000E+00 0. -1.
         21    1    1    2  504  502  0.17690328010E+02  0.57044903061E+01  0.21043499064E+02  0.28076997126E+02  0.00000000000E+00 0. -1.
<mgrwt>
<rscale>  1 0.12637459E+03</rscale>
<asrwt>0</asrwt>
<pdfrwt beam="1">  1       21 0.80205286E-02 0.12637459E+03</pdfrwt>
<pdfrwt beam="2">  1       21 0.22818165E-01 0.12637459E+03</pdfrwt>
<totfact> 0.21372470E+06</totfact>
</mgrwt>
</event>
<event>
 6    1  0.4424270E-002  0.1283611E+03  0.7546771E-02  0.1229908E+00
         21   -1    0    0  503  502  0.00000000000E+00  0.00000000000E+00  0.29981728564E+03  0.29981728564E+03  0.00000000000E+00 0. -1.
         21   -1    0    0  504  503 -0.00000000000E+00 -0.00000000000E+00 -0.39049613315E+02  0.39049613315E+02  0.00000000000E+00 0. -1.
         25    2    1    2    0    0 -0.18825516054E+02  0.22314927516E+02  0.70647945466E+02  0.14651860397E+03  0.12499685222E+03 0.  0.
          5    1    3    3  501    0  0.53588384800E+01 -0.43040921703E+02 -0.50050154843E+01  0.43661175784E+02  0.10000000000E+00 0. -1.
         -5    1    3    3    0  501 -0.24184354534E+02  0.65355849219E+02  0.75652960950E+02  0.10285742818E+03  0.10000000000E+00 0. -1.
         21    1    1    2  504  502  0.18825516054E+02 -0.22314927516E+02  0.19011972686E+03  0.19234829499E+03  0.00000000000E+00 0. -1.
<mgrwt>
<rscale>  1 0.12836109E+03</rscale>
<asrwt>0</asrwt>
<pdfrwt beam="1">  1       21 0.46125735E-01 0.12836109E+03</pdfrwt>
<pdfrwt beam="2">  1       21 0.60076330E-02 0.12836109E+03</pdfrwt>
<totfact> 0.88883316E+05</totfact>
</mgrwt>
</event>
<event>
 6    1  0.4424270E-002  0.1321947E+03  0.7546771E-02  0.1224235E+00
         21   -1    0    0  503  502  0.00000000000E+00  0.00000000000E+00  0.23537458968E+03  0.23537458968E+03  0.00000000000E+00 0.  1.
         21   -1    0    0  504  503 -0.00000000000E+00 -0.00000000000E+00 -0.66982037326E+02  0.66982037326E+02  0.00000000000E+00 0.  1.
         25    2    1    2    0    0 -0.37621999108E+02  0.20889183326E+02  0.38187323830E+01  0.13224985166E+03  0.12499467089E+03 0.  0.
          5    1    3    3  501    0 -0.48918978154E+00 -0.22887379812E+02 -0.49100419056E+02  0.54175018346E+02  0.10000000000E+00 0. -1.
         -5    1    3    3    0  501 -0.37132809327E+02  0.43776563138E+02  0.52919151439E+02  0.78074833319E+02  0.10000000000E+00 0. -1.
         21    1    1    2  504  502  0.37621999108E+02 -0.20889183326E+02  0.16457381997E+03  0.17010677534E+03  0.00000000000E+00 0.  1.
<mgrwt>
<rscale>  1 0.13219471E+03</rscale>
<asrwt>0</asrwt>
<pdfrwt beam="1">  1       21 0.36211475E-01 0.13219471E+03</pdfrwt>
<pdfrwt beam="2">  1       21 0.10304929E-01 0.13219471E+03</pdfrwt>
<totfact> 0.56978083E+05</totfact>
</mgrwt>
</event>
<event>
 6    1  0.4424270E-002  0.1273831E+03  0.7546771E-02  0.1231391E+00
         21   -1    0    0  503  502  0.00000000000E+00  0.00000000000E+00  0.24566065831E+03  0.24566065831E+03  0.00000000000E+00 0.  1.
         21   -1    0    0  504  503 -0.00000000000E+00 -0.00000000000E+00 -0.11069685595E+03  0.11069685595E+03  0.00000000000E+00 0. -1.
         25    2    1    2    0    0  0.76229017137E+00  0.24526300864E+02 -0.73089420992E+02  0.14686225354E+03  0.12499735010E+03 0.  0.
          5    1    3    3  501    0 -0.10309053826E+02  0.62971773110E+02 -0.30965808276E+00  0.63810866532E+02  0.10000000000E+00 0.  1.
         -5    1    3    3    0  501  0.11071343997E+02 -0.38445472247E+02 -0.72779762909E+02  0.83051387004E+02  0.10000000000E+00 0.  1.
         21    1    1    2  504  502 -0.76229017137E+00 -0.24526300864E+02  0.20805322335E+03  0.20949526072E+03  0.00000000000E+00 0.  1.
<mgrwt>
<rscale>  1 0.12738312E+03</rscale>
<asrwt>0</asrwt>
<pdfrwt beam="1">  1       21 0.37793947E-01 0.12738312E+03</pdfrwt>
<pdfrwt beam="2">  1       21 0.17030286E-01 0.12738312E+03</pdfrwt>
<totfact> 0.21359103E+05</totfact>
</mgrwt>
</event>
<event>
 6    1  0.4424270E-002  0.1341764E+03  0.7546771E-02  0.1221387E+00
         21   -1    0    0  503  502  0.00000000000E+00  0.00000000000E+00  0.54122452300E+01  0.54122452300E+01  0.00000000000E+00 0. -1.
         21   -1    0    0  504  503 -0.00000000000E+00 -0.00000000000E+00 -0.16317225762E+04  0.16317225762E+04  0.00000000000E+00 0. -1.
         25    2    1    2    0    0  0.44892135893E+02 -0.19222906311E+02 -0.13387711910E+04  0.13454782066E+04  0.12497391104E+03 0.  0.
          5    1    3    3  501    0 -0.11199176350E+02 -0.12760480432E+02 -0.10996602868E+04  0.10997913474E+04  0.10000000000E+00 0.  1.
         -5    1    3    3    0  501  0.56091312243E+02 -0.64624258791E+01 -0.23911090422E+03  0.24568685918E+03  0.10000000000E+00 0.  1.
         21    1    1    2  504  502 -0.44892135893E+02  0.19222906311E+02 -0.28753913994E+03  0.29165661485E+03  0.00000000000E+00 0. -1.
<mgrwt>
<rscale>  1 0.13417639E+03</rscale>
<asrwt>0</asrwt>
<pdfrwt beam="1">  1       21 0.83265249E-03 0.13417639E+03</pdfrwt>
<pdfrwt beam="2">  1       21 0.25103443E+00 0.13417639E+03</pdfrwt>
<totfact> 0.34055703E+05</totfact>
</mgrwt>
</event>
<event>
 6    1  0.4424270E-002  0.1287844E+03  0.7546771E-02  0.1229271E+00
         21   -1    0    0  504  502  0.00000000000E+00  0.00000000000E+00  0.25441870568E+02  0.25441870568E+02  0.00000000000E+00 0. -1.
         21   -1    0    0  502  503 -0.00000000000E+00 -0.00000000000E+00 -0.25564440371E+03  0.25564440371E+03  0.00000000000E+00 0. -1.
         25    2    1    2    0    0 -0.18748898904E+02 -0.24675006547E+02 -0.19954355635E+03  0.23749327007E+03  0.12500018115E+03 0.  0.
          5    1    3    3  501    0  0.43393898989E+02 -0.48658165668E+01 -0.23141084492E+02  0.49418887400E+02  0.10000000000E+00 0. -1.
         -5    1    3    3    0  501 -0.62142797894E+02 -0.19809189980E+02 -0.17640247186E+03  0.18807438267E+03  0.10000000000E+00 0. -1.
         21    1    1    2  504  503  0.18748898904E+02  0.24675006547E+02 -0.30658976791E+02  0.43593004210E+02  0.00000000000E+00 0. -1.
<mgrwt>
<rscale>  1 0.12878440E+03</rscale>
<asrwt>0</asrwt>
<pdfrwt beam="1">  1       21 0.39141340E-02 0.12878440E+03</pdfrwt>
<pdfrwt beam="2">  1       21 0.39329908E-01 0.12878440E+03</pdfrwt>
<totfact> 0.25145715E+06</totfact>
</mgrwt>
</event>
<event>
 6    1  0.4424270E-002  0.1261729E+03  0.7546771E-02  0.1233248E+00
         21   -1    0    0  503  502  0.00000000000E+00  0.00000000000E+00  0.27375274765E+02  0.27375274765E+02  0.00000000000E+00 0. -1.
         21   -1    0    0  504  503 -0.00000000000E+00 -0.00000000000E+00 -0.43002338437E+03  0.43002338437E+03  0.00000000000E+00 0.  1.
         25    2    1    2    0    0  0.15394001032E+02 -0.75640843414E+01 -0.41660085843E+03  0.43528825798E+03  0.12500160658E+03 0.  0.
          5    1    3    3  501    0  0.44844536700E+02 -0.33154451676E+02 -0.86698241302E+02  0.10308659070E+03  0.10000000000E+00 0. -1.
         -5    1    3    3    0  501 -0.29450535668E+02  0.25590367334E+02 -0.32990261713E+03  0.33220166727E+03  0.10000000000E+00 0. -1.
         21    1    1    2  504  502 -0.15394001032E+02  0.75640843414E+01  0.13952748825E+02  0.22110401160E+02  0.00000000000E+00 0. -1.
<mgrwt>
<rscale>  1 0.12617287E+03</rscale>
<asrwt>0</asrwt>
<pdfrwt beam="1">  1       21 0.42115809E-02 0.12617287E+03</pdfrwt>
<pdfrwt beam="2">  1       21 0.66157441E-01 0.12617287E+03</pdfrwt>
<totfact> 0.75800656E+05</totfact>
</mgrwt>
</event>
<event>
 6    1  0.4424270E-002  0.1265739E+03  0.7546771E-02  0.1232630E+00
         21   -1    0    0  503  502  0.00000000000E+00  0.00000000000E+00  0.80700982809E+03  0.80700982809E+03  0.00000000000E+00 0. -1.
         21   -1    0    0  504  503 -0.00000000000E+00 -0.00000000000E+00 -0.16013841132E+02  0.16013841132E+02  0.00000000000E+00 0. -1.
         25    2    1    2    0    0 -0.36998274423E+01  0.19547331864E+02  0.23709649312E+03  0.26876701732E+03  0.12500070257E+03 0.  0.
          5    1    3    3  501    0 -0.17313824499E+02  0.68690293662E+02  0.17242373500E+03  0.18640836718E+03  0.10000000000E+00 0. -1.
         -5    1    3    3    0  501  0.13613997057E+02 -0.49142961798E+02  0.64672758121E+02  0.82358650141E+02  0.10000000000E+00 0. -1.
         21    1    1    2  504  502  0.36998274423E+01 -0.19547331864E+02  0.55389949384E+03  0.55425665190E+03  0.00000000000E+00 0. -1.
<mgrwt>
<rscale>  1 0.12657394E+03</rscale>
<asrwt>0</asrwt>
<pdfrwt beam="1">  1       21 0.12415533E+00 0.12657394E+03</pdfrwt>
<pdfrwt beam="2">  1       21 0.24636685E-02 0.12657394E+03</pdfrwt>
<totfact> 0.43157365E+05</totfact>
</mgrwt>
</event>
<event>
 6    1  0.4424270E-002  0.1727948E+03  0.7546771E-02  0.1174964E+00
         21   -1    0    0  503  502  0.00000000000E+00  0.00000000000E+00  0.98781095054E+02  0.98781095054E+02  0.00000000000E+00 0. -1.
         21   -1    0    0  504  503 -0.00000000000E+00 -0.00000000000E+00 -0.31996525353E+03  0.31996525353E+03  0.00000000000E+00 0. -1.
         25    2    1    2    0    0  0.11879473606E+03  0.10943732415E+02 -0.24229149191E+03  0.29759572283E+03  0.12500437034E+03 0.  0.
          5    1    3    3  501    0  0.53321099977E+02  0.65450936185E+02 -0.14903170341E+03  0.17128170763E+03  0.10000000000E+00 0.  1.
         -5    1    3    3    0  501  0.65473636082E+02 -0.54507203771E+02 -0.93259788500E+02  0.12631401520E+03  0.10000000000E+00 0.  1.
         21    1    1    2  504  502 -0.11879473606E+03 -0.10943732415E+02  0.21107333432E+02  0.12115062575E+03  0.00000000000E+00 0. -1.
<mgrwt>
<rscale>  1 0.17279481E+03</rscale>
<asrwt>0</asrwt>
<pdfrwt beam="1">  1       21 0.15197092E-01 0.17279481E+03</pdfrwt>
<pdfrwt beam="2">  1       21 0.49225423E-01 0.17279481E+03</pdfrwt>
<totfact> 0.15177455E+05</totfact>
</mgrwt>
</event>
<event>
 6    1  0.4424270E-002  0.1268133E+03  0.7546771E-02  0.1232262E+00
         21   -1    0    0  504  502  0.00000000000E+00  0.00000000000E+00  0.22346883943E+02  0.22346883943E+02  0.00000000000E+00 0. -1.
         21   -1    0    0  502  503 -0.00000000000E+00 -0.00000000000E+00 -0.24986831076E+03  0.24986831076E+03  0.00000000000E+00 0. -1.
         25    2    1    2    0    0 -0.44499559676E+01  0.20944367703E+02 -0.20566026267E+03  0.24161488189E+03  0.12499255522E+03 0.  0.
          5    1    3    3  501    0 -0.59090727263E+02 -0.26492175315E+01 -0.14515167602E+03  0.15674103308E+03  0.10000000000E+00 0.  1.
         -5    1    3    3    0  501  0.54640771295E+02  0.23593585234E+02 -0.60508586655E+02  0.84873848804E+02  0.10000000000E+00 0.  1.
         21    1    1    2  504  503  0.44499559676E+01 -0.20944367703E+02 -0.21861164150E+02  0.30600312818E+02  0.00000000000E+00 0. -1.
<mgrwt>
<rscale>  1 0.12681328E+03</rscale>
<asrwt>0</asrwt>
<pdfrwt beam="1">  1       21 0.34379821E-02 0.12681328E+03</pdfrwt>
<pdfrwt beam="2">  1       21 0.38441279E-01 0.12681328E+03</pdfrwt>
<totfact> 0.32596215E+06</totfact>
</mgrwt>
</event>
<event>
 6    1  0.4424270E-002  0.1307407E+03  0.7546771E-02  0.1226361E+00
         21   -1    0    0  504  502  0.00000000000E+00  0.00000000000E+00  0.11808439594E+03  0.11808439594E+03  0.00000000000E+00 0.  1.
         21   -1    0    0  502  503 -0.00000000000E+00 -0.00000000000E+00 -0.11209866004E+03  0.11209866004E+03  0.00000000000E+00 0. -1.
         25    2    1    2    0    0 -0.95905722548E+01 -0.37109264513E+02 -0.67622576934E+02  0.14719353671E+03  0.12499619094E+03 0.  0.
          5    1    3    3  501    0 -0.59016803083E+02  0.46086155643E+00 -0.53514985303E+01  0.59260813157E+02  0.10000000000E+00 0. -1.
         -5    1    3    3    0  501  0.49426230828E+02 -0.37570126070E+02 -0.62271078403E+02  0.87932723558E+02  0.10000000000E+00 0. -1.
         21    1    1    2  504  503  0.95905722548E+01  0.37109264513E+02  0.73608312833E+02  0.82989519260E+02  0.00000000000E+00 0.  1.
<mgrwt>
<rscale>  1 0.13074068E+03</rscale>
<asrwt>0</asrwt>
<pdfrwt beam="1">  1       21 0.18166830E-01 0.13074068E+03</pdfrwt>
<pdfrwt beam="2">  1       21 0.17245948E-01 0.13074068E+03</pdfrwt>
<totfact> 0.84088976E+05</totfact>
</mgrwt>
</event>
<event>
 6    1  0.4424270E-002  0.1476330E+03  0.7546771E-02  0.1203412E+00
         21   -1    0    0  504  502  0.00000000000E+00  0.00000000000E+00  0.23463117452E+03  0.23463117452E+03  0.00000000000E+00 0. -1.
         21   -1    0    0  502  503 -0.00000000000E+00 -0.00000000000E+00 -0.54530282758E+02  0.54530282758E+02  0.00000000000E+00 0. -1.
         25    2    1    2    0    0  0.76718810427E+02 -0.17013247316E+02  0.11624469280E+03  0.18790514585E+03  0.12498115368E+03 0.  0.
          5    1    3    3  501    0  0.43972102672E+02 -0.68141680880E+02  0.91697592289E+02  0.12241443101E+03  0.10000000000E+00 0.  1.
         -5    1    3    3    0  501  0.32746707755E+02  0.51128433565E+02  0.24547100508E+02  0.65490714845E+02  0.10000000000E+00 0.  1.
         21    1    1    2  504  503 -0.76718810427E+02  0.17013247316E+02  0.63856198963E+02  0.10125631143E+03  0.00000000000E+00 0. -1.
<mgrwt>
<rscale>  1 0.14763304E+03</rscale>
<asrwt>0</asrwt>
<pdfrwt beam="1">  1       21 0.36097103E-01 0.14763304E+03</pdfrwt>
<pdfrwt beam="2">  1       21 0.83892744E-02 0.14763304E+03</pdfrwt>
<totfact> 0.82034008E+05</totfact>
</mgrwt>
</event>
<event>
 6    1  0.4424270E-002  0.1303800E+03  0.7546771E-02  0.1226893E+00
         21   -1    0    0  503  502  0.00000000000E+00  0.00000000000E+00  0.27638368806E+03  0.27638368806E+03  0.00000000000E+00 0. -1.
         21   -1    0    0  504  503 -0.00000000000E+00 -0.00000000000E+00 -0.31827521966E+02  0.31827521966E+02  0.00000000000E+00 0. -1.
         25    2    1    2    0    0 -0.95663910251E+01  0.35826027008E+02  0.11633684576E+03  0.17473756411E+03  0.12499573825E+03 0.  0.
          5    1    3    3  501    0 -0.41230877794E+02 -0.13525381227E+02 -0.11751474036E+01  0.43408664946E+02  0.10000000000E+00 0. -1.
         -5    1    3    3    0  501  0.31664486769E+02  0.49351408235E+02  0.11751199317E+03  0.13132889916E+03  0.10000000000E+00 0. -1.
         21    1    1    2  504  502  0.95663910251E+01 -0.35826027008E+02  0.12821932033E+03  0.13347364591E+03  0.00000000000E+00 0. -1.
<mgrwt>
<rscale>  1 0.13038004E+03</rscale>
<asrwt>0</asrwt>
<pdfrwt beam="1">  1       21 0.42520566E-01 0.13038004E+03</pdfrwt>
<pdfrwt beam="2">  1       21 0.48965420E-02 0.13038004E+03</pdfrwt>
<totfact> 0.14803371E+06</totfact>
</mgrwt>
</event>
<event>
 6    1  0.4424270E-002  0.1321978E+03  0.7546771E-02  0.1224231E+00
         21   -1    0    0  503  502  0.00000000000E+00  0.00000000000E+00  0.89208763753E+02  0.89208763753E+02  0.00000000000E+00 0. -1.
         21   -1    0    0  504  503 -0.00000000000E+00 -0.00000000000E+00 -0.93396135040E+02  0.93396135040E+02  0.00000000000E+00 0. -1.
         25    2    1    2    0    0  0.11163849790E+02  0.41533871392E+02 -0.25454117183E+02  0.13462606496E+03  0.12500628492E+03 0.  0.
          5    1    3    3  501    0 -0.53794256634E+02  0.37510012830E+02 -0.23000400234E+02  0.69497133180E+02  0.10000000000E+00 0.  1.
         -5    1    3    3    0  501  0.64958106424E+02  0.40238585616E+01 -0.24537169492E+01  0.65128931780E+02  0.10000000000E+00 0.  1.
         21    1    1    2  504  502 -0.11163849790E+02 -0.41533871392E+02  0.21266745896E+02  0.47978833833E+02  0.00000000000E+00 0. -1.
<mgrwt>
<rscale>  1 0.13219783E+03</rscale>
<asrwt>0</asrwt>
<pdfrwt beam="1">  1       21 0.13724425E-01 0.13219783E+03</pdfrwt>
<pdfrwt beam="2">  1       21 0.14368636E-01 0.13219783E+03</pdfrwt>
<totfact> 0.19452214E+06</totfact>
</mgrwt>
</event>
<event>
 6    1  0.4424270E-002  0.1281913E+03  0.7546771E-02  0.1230164E+00
         21   -1    0    0  503  502  0.00000000000E+00  0.00000000000E+00  0.17047911227E+03  0.17047911227E+03  0.00000000000E+00 0.  1.
         21   -1    0    0  504  503 -0.00000000000E+00 -0.00000000000E+00 -0.95011660173E+02  0.95011660173E+02  0.00000000000E+00 0.  1.
         25    2    1    2    0    0  0.25213818393E+02  0.13680654790E+02 -0.49392666713E+02  0.13737775116E+03  0.12494044195E+03 0.  0.
          5    1    3    3  501    0  0.24869430917E+02 -0.36773186471E+02  0.22324398332E+02  0.49690488006E+02  0.10000000000E+00 0. -1.
         -5    1    3    3    0  501  0.34438747577E+00  0.50453841261E+02 -0.71717065044E+02  0.87687263153E+02  0.10000000000E+00 0. -1.
         21    1    1    2  504  502 -0.25213818393E+02 -0.13680654790E+02  0.12486011881E+03  0.12811302129E+03  0.00000000000E+00 0.  1.
<mgrwt>
<rscale>  1 0.12819131E+03</rscale>
<asrwt>0</asrwt>
<pdfrwt beam="1">  1       21 0.26227556E-01 0.12819131E+03</pdfrwt>
<pdfrwt beam="2">  1       21 0.14617178E-01 0.12819131E+03</pdfrwt>
<totfact> 0.57200485E+05</totfact>
</mgrwt>
</event>
<event>
 6    1  0.4424270E-002  0.1280380E+03  0.7546771E-02  0.1230396E+00
         21   -1    0    0  503  502  0.00000000000E+00  0.00000000000E+00  0.25128440337E+02  0.25128440337E+02  0.00000000000E+00 0.  1.
         21   -1    0    0  504  503 -0.00000000000E+00 -0.00000000000E+00 -0.93910682904E+03  0.93910682904E+03  0.00000000000E+00 0. -1.
         25    2    1    2    0    0 -0.24926038217E+02 -0.12151485430E+02 -0.92542135763E+03  0.93423681080E+03  0.12499905409E+03 0.  0.
          5    1    3    3  501    0  0.90821511359E+01  0.19874515027E+02 -0.27609445950E+02  0.35210414972E+02  0.10000000000E+00 0.  1.
         -5    1    3    3    0  501 -0.34008189353E+02 -0.32026000457E+02 -0.89781191168E+03  0.89902639583E+03  0.10000000000E+00 0.  1.
         21    1    1    2  504  502  0.24926038217E+02  0.12151485430E+02  0.11442968922E+02  0.29998458579E+02  0.00000000000E+00 0.  1.
<mgrwt>
<rscale>  1 0.12803800E+03</rscale>
<asrwt>0</asrwt>
<pdfrwt beam="1">  1       21 0.38659146E-02 0.12803800E+03</pdfrwt>
<pdfrwt beam="2">  1       21 0.14447795E+00 0.12803800E+03</pdfrwt>
<totfact> 0.14076437E+05</totfact>
</mgrwt>
</event>
<event>
 6    1  0.4424270E-002  0.1960762E+03  0.7546771E-02  0.1153092E+00
         21   -1    0    0  504  502  0.00000000000E+00  0.00000000000E+00  0.51214559834E+03  0.51214559834E+03  0.00000000000E+00 0.  1.
         21   -1    0    0  502  503 -0.00000000000E+00 -0.00000000000E+00 -0.76396717653E+02  0.76396717653E+02  0.00000000000E+00 0.  1.
         25    2    1    2    0    0  0.85763019273E+02  0.12438595637E+03  0.99431477880E+02  0.21984656467E+03  0.12497492383E+03 0.  0.
          5    1    3    3  501    0  0.28400445075E+01  0.10325922599E+03  0.83450542411E+02  0.13279509266E+03  0.10000000000E+00 0.  1.
         -5    1    3    3    0  501  0.82922974765E+02  0.21126730373E+02  0.15980935468E+02  0.87051472007E+02  0.10000000000E+00 0.  1.
         21    1    1    2  504  503 -0.85763019273E+02 -0.12438595637E+03  0.33631740281E+03  0.36869575133E+03  0.00000000000E+00 0.  1.
<mgrwt>
<rscale>  1 0.19607624E+03</rscale>
<asrwt>0</asrwt>
<pdfrwt beam="1">  1       21 0.78791628E-01 0.19607624E+03</pdfrwt>
<pdfrwt beam="2">  1       21 0.11753342E-01 0.19607624E+03</pdfrwt>
<totfact> 0.86562329E+04</totfact>
</mgrwt>
</event>
<event>
 6    1  0.4424270E-002  0.1262375E+03  0.7546771E-02  0.1233148E+00
         21   -1    0    0  504  502  0.00000000000E+00  0.00000000000E+00  0.16489779224E+02  0.16489779224E+02  0.00000000000E+00 0.  1.
         21   -1    0    0  502  503 -0.00000000000E+00 -0.00000000000E+00 -0.31467175204E+03  0.31467175204E+03  0.00000000000E+00 0.  1.
         25    2    1    2    0    0  0.11219902331E+02 -0.13252293242E+02 -0.25268117760E+03  0.28246007492E+03  0.12503762205E+03 0.  0.
          5    1    3    3  501    0 -0.45271441920E+02  0.78983495167E+01 -0.38514121052E+02  0.59960277676E+02  0.10000000000E+00 0.  1.
         -5    1    3    3    0  501  0.56491344251E+02 -0.21150642759E+02 -0.21416705655E+03  0.22249979725E+03  0.10000000000E+00 0.  1.
         21    1    1    2  504  503 -0.11219902331E+02  0.13252293242E+02 -0.45500795217E+02  0.48701456342E+02  0.00000000000E+00 0.  1.
<mgrwt>
<rscale>  1 0.12623754E+03</rscale>
<asrwt>0</asrwt>
<pdfrwt beam="1">  1       21 0.25368890E-02 0.12623754E+03</pdfrwt>
<pdfrwt beam="2">  1       21 0.48411040E-01 0.12623754E+03</pdfrwt>
<totfact> 0.33660950E+06</totfact>
</mgrwt>
</event>
<event>
 6    1  0.4424270E-002  0.1413905E+03  0.7546771E-02  0.1211470E+00
         21   -1    0    0  504  502  0.00000000000E+00  0.00000000000E+00  0.18371313733E+03  0.18371313733E+03  0.00000000000E+00 0. -1.
         21   -1    0    0  502  503 -0.00000000000E+00 -0.00000000000E+00 -0.58575581395E+02  0.58575581395E+02  0.00000000000E+00 0. -1.
         25    2    1    2    0    0 -0.24955649131E+02 -0.61187011200E+02  0.85511089266E+02  0.16523749146E+03  0.12499858972E+03 0.  0.
          5    1    3    3  501    0  0.38680209993E+01 -0.95775709904E+02  0.64627567565E+02  0.11560571216E+03  0.10000000000E+00 0.  1.
         -5    1    3    3    0  501 -0.28823670130E+02  0.34588698704E+02  0.20883521701E+02  0.49631779299E+02  0.10000000000E+00 0.  1.
         21    1    1    2  504  503  0.24955649131E+02  0.61187011200E+02  0.39626466671E+02  0.77051227271E+02  0.00000000000E+00 0. -1.
<mgrwt>
<rscale>  1 0.14139053E+03</rscale>
<asrwt>0</asrwt>
<pdfrwt beam="1">  1       21 0.28263559E-01 0.14139053E+03</pdfrwt>
<pdfrwt beam="2">  1       21 0.90116280E-02 0.14139053E+03</pdfrwt>
<totfact> 0.11667884E+06</totfact>
</mgrwt>
</event>
<event>
 6    1  0.4424270E-002  0.1260414E+03  0.7546771E-02  0.1233451E+00
         21   -1    0    0  503  502  0.00000000000E+00  0.00000000000E+00  0.10679448453E+04  0.10679448453E+04  0.00000000000E+00 0.  1.
         21   -1    0    0  504  503 -0.00000000000E+00 -0.00000000000E+00 -0.13186140658E+02  0.13186140658E+02  0.00000000000E+00 0.  1.
         25    2    1    2    0    0 -0.13695609172E+02  0.85868460820E+01  0.29005895348E+03  0.31626040013E+03  0.12500056224E+03 0.  0.
          5    1    3    3  501    0  0.52153679609E+02 -0.28743011240E+01  0.18065583266E+03  0.18805533169E+03  0.10000000000E+00 0. -1.
         -5    1    3    3    0  501 -0.65849288781E+02  0.11461147206E+02  0.10940312082E+03  0.12820506844E+03  0.10000000000E+00 0. -1.
         21    1    1    2  504  502  0.13695609172E+02 -0.85868460820E+01  0.76469975113E+03  0.76487058580E+03  0.00000000000E+00 0.  1.
<mgrwt>
<rscale>  1 0.12604144E+03</rscale>
<asrwt>0</asrwt>
<pdfrwt beam="1">  1       21 0.16429914E+00 0.12604144E+03</pdfrwt>
<pdfrwt beam="2">  1       21 0.20286379E-02 0.12604144E+03</pdfrwt>
<totfact> 0.28896534E+05</totfact>
</mgrwt>
</event>
<event>
 6    1  0.4424270E-002  0.1264289E+03  0.7546771E-02  0.1232853E+00
         21   -1    0    0  504  502  0.00000000000E+00  0.00000000000E+00  0.10596711792E+03  0.10596711792E+03  0.00000000000E+00 0. -1.
         21   -1    0    0  502  503 -0.00000000000E+00 -0.00000000000E+00 -0.41586525560E+03  0.41586525560E+03  0.00000000000E+00 0. -1.
         25    2    1    2    0    0 -0.12433380385E+02  0.14336280700E+02 -0.40530003524E+03  0.42456141203E+03  0.12499662445E+03 0.  0.
          5    1    3    3  501    0  0.34975381041E+02  0.84130113816E+01 -0.34844567465E+03  0.35029766517E+03  0.10000000000E+00 0.  1.
         -5    1    3    3    0  501 -0.47408761426E+02  0.59232693181E+01 -0.56854360590E+02  0.74263746858E+02  0.10000000000E+00 0.  1.
         21    1    1    2  504  503  0.12433380385E+02 -0.14336280700E+02  0.95401897559E+02  0.97270961494E+02  0.00000000000E+00 0. -1.
<mgrwt>
<rscale>  1 0.12642893E+03</rscale>
<asrwt>0</asrwt>
<pdfrwt beam="1">  1       21 0.16302634E-01 0.12642893E+03</pdfrwt>
<pdfrwt beam="2">  1       21 0.63979270E-01 0.12642893E+03</pdfrwt>
<totfact> 0.78226731E+04</totfact>
</mgrwt>
</event>
<event>
 6    1  0.4424270E-002  0.1268221E+03  0.7546771E-02  0.1232249E+00
         21   -1    0    0  503  502  0.00000000000E+00  0.00000000000E+00  0.29761664325E+02  0.29761664325E+02  0.00000000000E+00 0. -1.
         21   -1    0    0  504  503 -0.00000000000E+00 -0.00000000000E+00 -0.19310907464E+03  0.19310907464E+03  0.00000000000E+00 0. -1.
         25    2    1    2    0    0 -0.70893384457E+00 -0.21443188661E+02 -0.15391659874E+03  0.19943458881E+03  0.12499409154E+03 0.  0.
          5    1    3    3  501    0  0.44969457255E+02 -0.51519170701E+02 -0.61105171990E+02  0.91707846335E+02  0.10000000000E+00 0. -1.
         -5    1    3    3    0  501 -0.45678391100E+02  0.30075982040E+02 -0.92811426751E+02  0.10772674248E+03  0.10000000000E+00 0. -1.
         21    1    1    2  504  502  0.70893384457E+00  0.21443188661E+02 -0.94308115775E+01  0.23436150156E+02  0.00000000000E+00 0. -1.
<mgrwt>
<rscale>  1 0.12682206E+03</rscale>
<asrwt>0</asrwt>
<pdfrwt beam="1">  1       21 0.45787176E-02 0.12682206E+03</pdfrwt>
<pdfrwt beam="2">  1       21 0.29709088E-01 0.12682206E+03</pdfrwt>
<totfact> 0.33530165E+06</totfact>
</mgrwt>
</event>
<event>
 6    1  0.4424270E-002  0.1290987E+03  0.7546771E-02  0.1228799E+00
         21   -1    0    0  504  502  0.00000000000E+00  0.00000000000E+00  0.95064027139E+03  0.95064027139E+03  0.00000000000E+00 0. -1.
         21   -1    0    0  502  503 -0.00000000000E+00 -0.00000000000E+00 -0.65527663684E+02  0.65527663684E+02  0.00000000000E+00 0.  1.
         25    2    1    2    0    0  0.17875159781E+02  0.26822386104E+02 -0.13636562207E+01  0.12910585819E+03  0.12501000491E+03 0.  0.
          5    1    3    3  501    0  0.11545935033E+02 -0.50078986578E+02 -0.63489852224E+01  0.51783521760E+02  0.10000000000E+00 0. -1.
         -5    1    3    3    0  501  0.63292247474E+01  0.76901372683E+02  0.49853290017E+01  0.77322336434E+02  0.10000000000E+00 0. -1.
         21    1    1    2  504  503 -0.17875159781E+02 -0.26822386104E+02  0.88647626393E+03  0.88706207688E+03  0.00000000000E+00 0. -1.
<mgrwt>
<rscale>  1 0.12909866E+03</rscale>
<asrwt>0</asrwt>
<pdfrwt beam="1">  1       21 0.14625234E+00 0.12909866E+03</pdfrwt>
<pdfrwt beam="2">  1       21 0.10081180E-01 0.12909866E+03</pdfrwt>
<totfact> 0.26702238E+04</totfact>
</mgrwt>
</event>
<event>
 6    1  0.4424270E-002  0.1314204E+03  0.7546771E-02  0.1225363E+00
         21   -1    0    0  504  502  0.00000000000E+00  0.00000000000E+00  0.50678425714E+03  0.50678425714E+03  0.00000000000E+00 0.  1.
         21   -1    0    0  502  503 -0.00000000000E+00 -0.00000000000E+00 -0.23680648820E+02  0.23680648820E+02  0.00000000000E+00 0.  1.
         25    2    1    2    0    0 -0.27024465622E+02 -0.30279509540E+02  0.17066657010E+03  0.21540289096E+03  0.12499662734E+03 0.  0.
          5    1    3    3  501    0  0.26612963128E+02 -0.55748192867E+02  0.45039825786E+02  0.76450681627E+02  0.10000000000E+00 0. -1.
         -5    1    3    3    0  501 -0.53637428750E+02  0.25468683328E+02  0.12562674431E+03  0.13895220934E+03  0.10000000000E+00 0. -1.
         21    1    1    2  504  503  0.27024465622E+02  0.30279509540E+02  0.31243703822E+03  0.31506201499E+03  0.00000000000E+00 0.  1.
<mgrwt>
<rscale>  1 0.13142042E+03</rscale>
<asrwt>0</asrwt>
<pdfrwt beam="1">  1       21 0.77966801E-01 0.13142042E+03</pdfrwt>
<pdfrwt beam="2">  1       21 0.36431771E-02 0.13142042E+03</pdfrwt>
<totfact> 0.67270355E+05</totfact>
</mgrwt>
</event>
<event>
 6    1  0.4424270E-002  0.1290331E+03  0.7546771E-02  0.1228898E+00
         21   -1    0    0  503  502  0.00000000000E+00  0.00000000000E+00  0.35526912128E+02  0.35526912128E+02  0.00000000000E+00 0. -1.
         21   -1    0    0  504  503 -0.00000000000E+00 -0.00000000000E+00 -0.25629203662E+03  0.25629203662E+03  0.00000000000E+00 0. -1.
         25    2    1    2    0    0 -0.26460327346E+02 -0.18029264279E+02 -0.22514781076E+03  0.25950159687E+03  0.12499735516E+03 0.  0.
          5    1    3    3  501    0  0.27845147903E+02 -0.21088256379E+02 -0.82538079786E+01  0.35891533333E+02  0.10000000000E+00 0.  1.
         -5    1    3    3    0  501 -0.54305475250E+02  0.30589921006E+01 -0.21689400278E+03  0.22361006354E+03  0.10000000000E+00 0.  1.
         21    1    1    2  504  502  0.26460327346E+02  0.18029264279E+02  0.43826862607E+01  0.32317351880E+02  0.00000000000E+00 0. -1.
<mgrwt>
<rscale>  1 0.12903310E+03</rscale>
<asrwt>0</asrwt>
<pdfrwt beam="1">  1       21 0.54656791E-02 0.12903310E+03</pdfrwt>
<pdfrwt beam="2">  1       21 0.39429542E-01 0.12903310E+03</pdfrwt>
<totfact> 0.14311380E+06</totfact>
</mgrwt>
</event>
<event>
 6    1  0.4424270E-002  0.1285832E+03  0.7546771E-02  0.1229573E+00
         21   -1    0    0  503  502  0.00000000000E+00  0.00000000000E+00  0.99555062657E+03  0.99555062657E+03  0.00000000000E+00 0. -1.
         21   -1    0    0  504  503 -0.00000000000E+00 -0.00000000000E+00 -0.18119086129E+02  0.18119086129E+02  0.00000000000E+00 0. -1.
         25    2    1    2    0    0  0.14777473888E+02  0.26248563197E+02  0.21410503395E+03  0.24974909096E+03  0.12500512817E+03 0.  0.
          5    1    3    3  501    0  0.70015605558E+02  0.19829775745E+02  0.12827964496E+03  0.14748248146E+03  0.10000000000E+00 0. -1.
         -5    1    3    3    0  501 -0.55238131671E+02  0.64187874523E+01  0.85825388989E+02  0.10226660950E+03  0.10000000000E+00 0. -1.
         21    1    1    2  504  502 -0.14777473888E+02 -0.26248563197E+02  0.76332650649E+03  0.76392062174E+03  0.00000000000E+00 0. -1.
<mgrwt>
<rscale>  1 0.12858321E+03</rscale>
<asrwt>0</asrwt>
<pdfrwt beam="1">  1       21 0.15316159E+00 0.12858321E+03</pdfrwt>
<pdfrwt beam="2">  1       21 0.27875525E-02 0.12858321E+03</pdfrwt>
<totfact> 0.20736333E+05</totfact>
</mgrwt>
</event>
<event>
 6    1  0.4424270E-002  0.1284173E+03  0.7546771E-02  0.1229823E+00
         21   -1    0    0  503  502  0.00000000000E+00  0.00000000000E+00  0.15916578416E+02  0.15916578416E+02  0.00000000000E+00 0. -1.
         21   -1    0    0  504  503 -0.00000000000E+00 -0.00000000000E+00 -0.39223686583E+03  0.39223686583E+03  0.00000000000E+00 0. -1.
         25    2    1    2    0    0 -0.15566544500E+02 -0.25046731767E+02 -0.31203571940E+03  0.33742748179E+03  0.12498543599E+03 0.  0.
          5    1    3    3  501    0 -0.33634373998E+01  0.11730388813E+02  0.82987897617E+01  0.14757867202E+02  0.10000000000E+00 0. -1.
         -5    1    3    3    0  501 -0.12203107100E+02 -0.36777120580E+02 -0.32033450916E+03  0.32266961459E+03  0.10000000000E+00 0. -1.
         21    1    1    2  504  502  0.15566544500E+02  0.25046731767E+02 -0.64284568013E+02  0.70725962450E+02  0.00000000000E+00 0. -1.
<mgrwt>
<rscale>  1 0.12841735E+03</rscale>
<asrwt>0</asrwt>
<pdfrwt beam="1">  1       21 0.24487041E-02 0.12841735E+03</pdfrwt>
<pdfrwt beam="2">  1       21 0.60344139E-01 0.12841735E+03</pdfrwt>
<totfact> 0.22521796E+06</totfact>
</mgrwt>
</event>
<event>
 6    1  0.4424270E-002  0.1270142E+03  0.7546771E-02  0.1231955E+00
         21   -1    0    0  504  502  0.00000000000E+00  0.00000000000E+00  0.17855729135E+02  0.17855729135E+02  0.00000000000E+00 0.  1.
         21   -1    0    0  502  503 -0.00000000000E+00 -0.00000000000E+00 -0.31318443601E+03  0.31318443601E+03  0.00000000000E+00 0.  1.
         25    2    1    2    0    0 -0.10340619161E+02 -0.20035635961E+02 -0.25102049626E+03  0.28132525148E+03  0.12499700982E+03 0.  0.
          5    1    3    3  501    0  0.35115184925E+02 -0.40560520421E+02 -0.21001072683E+03  0.21675504011E+03  0.10000000000E+00 0. -1.
         -5    1    3    3    0  501 -0.45455804086E+02  0.20524884460E+02 -0.41009769425E+02  0.64570211363E+02  0.10000000000E+00 0. -1.
         21    1    1    2  504  503  0.10340619161E+02  0.20035635961E+02 -0.44308210618E+02  0.49714913670E+02  0.00000000000E+00 0.  1.
<mgrwt>
<rscale>  1 0.12701420E+03</rscale>
<asrwt>0</asrwt>
<pdfrwt beam="1">  1       21 0.27470353E-02 0.12701420E+03</pdfrwt>
<pdfrwt beam="2">  1       21 0.48182219E-01 0.12701420E+03</pdfrwt>
<totfact> 0.29860105E+06</totfact>
</mgrwt>
</event>
<event>
 6    1  0.4424270E-002  0.1717314E+03  0.7546771E-02  0.1176054E+00
         21   -1    0    0  504  502  0.00000000000E+00  0.00000000000E+00  0.18699537536E+03  0.18699537536E+03  0.00000000000E+00 0.  1.
         21   -1    0    0  502  503 -0.00000000000E+00 -0.00000000000E+00 -0.74863275114E+03  0.74863275114E+03  0.00000000000E+00 0.  1.
         25    2    1    2    0    0  0.86519708792E+02 -0.79867944545E+02 -0.71892378303E+03  0.73915023340E+03  0.12500845230E+03 0.  0.
          5    1    3    3  501    0  0.92093543167E+01  0.25369352572E+02 -0.27770724071E+03  0.27901565870E+03  0.10000000000E+00 0.  1.
         -5    1    3    3    0  501  0.77310354475E+02 -0.10523729712E+03 -0.44121654232E+03  0.46013457469E+03  0.10000000000E+00 0.  1.
         21    1    1    2  504  503 -0.86519708792E+02  0.79867944545E+02  0.15728640725E+03  0.19647789311E+03  0.00000000000E+00 0.  1.
<mgrwt>
<rscale>  1 0.17173136E+03</rscale>
<asrwt>0</asrwt>
<pdfrwt beam="1">  1       21 0.28768519E-01 0.17173136E+03</pdfrwt>
<pdfrwt beam="2">  1       21 0.11517427E+00 0.17173136E+03</pdfrwt>
<totfact> 0.68654546E+03</totfact>
</mgrwt>
</event>
<event>
 6    1  0.4424270E-002  0.1434997E+03  0.7546771E-02  0.1208696E+00
         21   -1    0    0  503  502  0.00000000000E+00  0.00000000000E+00  0.36736812754E+02  0.36736812754E+02  0.00000000000E+00 0.  1.
         21   -1    0    0  504  503 -0.00000000000E+00 -0.00000000000E+00 -0.32946073915E+03  0.32946073915E+03  0.00000000000E+00 0.  1.
         25    2    1    2    0    0  0.67062292668E+02  0.21698554103E+02 -0.23380574992E+03  0.27433063802E+03  0.12499596758E+03 0.  0.
          5    1    3    3  501    0 -0.30010198793E+02  0.32750517996E+01 -0.11943442191E+03  0.12319062112E+03  0.10000000000E+00 0. -1.
         -5    1    3    3    0  501  0.97072491462E+02  0.18423502304E+02 -0.11437132801E+03  0.15114001689E+03  0.10000000000E+00 0. -1.
         21    1    1    2  504  502 -0.67062292668E+02 -0.21698554103E+02 -0.58918176480E+02  0.91866913891E+02  0.00000000000E+00 0.  1.
<mgrwt>
<rscale>  1 0.14349972E+03</rscale>
<asrwt>0</asrwt>
<pdfrwt beam="1">  1       21 0.56518171E-02 0.14349972E+03</pdfrwt>
<pdfrwt beam="2">  1       21 0.50686270E-01 0.14349972E+03</pdfrwt>
<totfact> 0.81206469E+05</totfact>
</mgrwt>
</event>
<event>
 6    1  0.4424270E-002  0.1260236E+03  0.7546771E-02  0.1233478E+00
         21   -1    0    0  504  502  0.00000000000E+00  0.00000000000E+00  0.44270445195E+03  0.44270445195E+03  0.00000000000E+00 0.  1.
         21   -1    0    0  502  503 -0.00000000000E+00 -0.00000000000E+00 -0.17270180721E+02  0.17270180721E+02  0.00000000000E+00 0.  1.
         25    2    1    2    0    0  0.12671544785E+02  0.98393617822E+01  0.21712290962E+03  0.25104640465E+03  0.12499823326E+03 0.  0.
          5    1    3    3  501    0 -0.31436245257E+02  0.36236417260E+01  0.23817667550E+01  0.31734068571E+02  0.10000000000E+00 0. -1.
         -5    1    3    3    0  501  0.44107790042E+02  0.62157200562E+01  0.21474114286E+03  0.21931233608E+03  0.10000000000E+00 0. -1.
         21    1    1    2  504  503 -0.12671544785E+02 -0.98393617822E+01  0.20831136161E+03  0.20892822802E+03  0.00000000000E+00 0.  1.
<mgrwt>
<rscale>  1 0.12602357E+03</rscale>
<asrwt>0</asrwt>
<pdfrwt beam="1">  1       21 0.68108369E-01 0.12602357E+03</pdfrwt>
<pdfrwt beam="2">  1       21 0.26569512E-02 0.12602357E+03</pdfrwt>
<totfact> 0.15201253E+06</totfact>
</mgrwt>
</event>
<event>
 6    1  0.4424270E-002  0.1292258E+03  0.7546771E-02  0.1228609E+00
         21   -1    0    0  504  502  0.00000000000E+00  0.00000000000E+00  0.11706324802E+03  0.11706324802E+03  0.00000000000E+00 0. -1.
         21   -1    0    0  502  503 -0.00000000000E+00 -0.00000000000E+00 -0.80032197244E+02  0.80032197244E+02  0.00000000000E+00 0. -1.
         25    2    1    2    0    0  0.21408524858E+02 -0.24829609466E+02 -0.20536045060E+02  0.13084738895E+03  0.12499790240E+03 0.  0.
          5    1    3    3  501    0  0.24412208663E+02 -0.15888937515E+02 -0.72448688555E+02  0.78084804799E+02  0.10000000000E+00 0. -1.
         -5    1    3    3    0  501 -0.30036838054E+01 -0.89406719509E+01  0.51912643495E+02  0.52762584148E+02  0.10000000000E+00 0. -1.
         21    1    1    2  504  503 -0.21408524858E+02  0.24829609466E+02  0.57567095840E+02  0.66248056321E+02  0.00000000000E+00 0. -1.
<mgrwt>
<rscale>  1 0.12922581E+03</rscale>
<asrwt>0</asrwt>
<pdfrwt beam="1">  1       21 0.18009730E-01 0.12922581E+03</pdfrwt>
<pdfrwt beam="2">  1       21 0.12312646E-01 0.12922581E+03</pdfrwt>
<totfact> 0.15662447E+06</totfact>
</mgrwt>
</event>
<event>
 6    1  0.4424270E-002  0.1309917E+03  0.7546771E-02  0.1225992E+00
         21   -1    0    0  503  502  0.00000000000E+00  0.00000000000E+00  0.10482988782E+02  0.10482988782E+02  0.00000000000E+00 0. -1.
         21   -1    0    0  504  503 -0.00000000000E+00 -0.00000000000E+00 -0.70497117528E+03  0.70497117528E+03  0.00000000000E+00 0. -1.
         25    2    1    2    0    0  0.22195510567E+02 -0.32253816853E+02 -0.57429791954E+03  0.58904748045E+03  0.12500353772E+03 0.  0.
          5    1    3    3  501    0 -0.22058856531E+02 -0.69607357927E+02 -0.31131594982E+03  0.31976461349E+03  0.10000000000E+00 0. -1.
         -5    1    3    3    0  501  0.44254367098E+02  0.37353541074E+02 -0.26298196972E+03  0.26928286696E+03  0.10000000000E+00 0. -1.
         21    1    1    2  504  502 -0.22195510567E+02  0.32253816853E+02 -0.12019026695E+03  0.12640668361E+03  0.00000000000E+00 0. -1.
<mgrwt>
<rscale>  1 0.13099173E+03</rscale>
<asrwt>0</asrwt>
<pdfrwt beam="1">  1       21 0.16127677E-02 0.13099173E+03</pdfrwt>
<pdfrwt beam="2">  1       21 0.10845709E+00 0.13099173E+03</pdfrwt>
<totfact> 0.11849060E+06</totfact>
</mgrwt>
</event>
<event>
 6    1  0.4424270E-002  0.1281251E+03  0.7546771E-02  0.1230265E+00
         21   -1    0    0  503  502  0.00000000000E+00  0.00000000000E+00  0.21296173677E+03  0.21296173677E+03  0.00000000000E+00 0. -1.
         21   -1    0    0  504  503 -0.00000000000E+00 -0.00000000000E+00 -0.31340778740E+02  0.31340778740E+02  0.00000000000E+00 0. -1.
         25    2    1    2    0    0 -0.10033749527E+02  0.26283650015E+02  0.11571996569E+03  0.17264745861E+03  0.12499811246E+03 0.  0.
          5    1    3    3  501    0 -0.10007909099E+02  0.18526073670E+02  0.14286862852E+03  0.14441201011E+03  0.10000000000E+00 0.  1.
         -5    1    3    3    0  501 -0.25840428432E-01  0.77575763457E+01 -0.27148662829E+02  0.28235448498E+02  0.10000000000E+00 0.  1.
         21    1    1    2  504  502  0.10033749527E+02 -0.26283650015E+02  0.65900992338E+02  0.71655056896E+02  0.00000000000E+00 0. -1.
<mgrwt>
<rscale>  1 0.12812507E+03</rscale>
<asrwt>0</asrwt>
<pdfrwt beam="1">  1       21 0.32763343E-01 0.12812507E+03</pdfrwt>
<pdfrwt beam="2">  1       21 0.48216584E-02 0.12812507E+03</pdfrwt>
<totfact> 0.25450183E+06</totfact>
</mgrwt>
</event>
<event>
 6    1  0.4424270E-002  0.1282458E+03  0.7546771E-02  0.1230082E+00
         21   -1    0    0  503  502  0.00000000000E+00  0.00000000000E+00  0.21500125845E+03  0.21500125845E+03  0.00000000000E+00 0. -1.
         21   -1    0    0  504  503 -0.00000000000E+00 -0.00000000000E+00 -0.29040541149E+02  0.29040541149E+02  0.00000000000E+00 0. -1.
         25    2    1    2    0    0  0.15270542802E+02 -0.24305979399E+02  0.14006144940E+03  0.18990574040E+03  0.12499204181E+03 0.  0.
          5    1    3    3  501    0  0.34469512198E+02  0.26749688407E+02  0.45983816959E+01  0.43873092155E+02  0.10000000000E+00 0.  1.
         -5    1    3    3    0  501 -0.19198969396E+02 -0.51055667806E+02  0.13546306771E+03  0.14603264824E+03  0.10000000000E+00 0.  1.
         21    1    1    2  504  502 -0.15270542802E+02  0.24305979399E+02  0.45899267897E+02  0.54136059198E+02  0.00000000000E+00 0. -1.
<mgrwt>
<rscale>  1 0.12824578E+03</rscale>
<asrwt>0</asrwt>
<pdfrwt beam="1">  1       21 0.33077116E-01 0.12824578E+03</pdfrwt>
<pdfrwt beam="2">  1       21 0.44677757E-02 0.12824578E+03</pdfrwt>
<totfact> 0.28380801E+06</totfact>
</mgrwt>
</event>
<event>
 6    1  0.4424270E-002  0.1268974E+03  0.7546771E-02  0.1232133E+00
         21   -1    0    0  504  502  0.00000000000E+00  0.00000000000E+00  0.20221694069E+03  0.20221694069E+03  0.00000000000E+00 0. -1.
         21   -1    0    0  502  503 -0.00000000000E+00 -0.00000000000E+00 -0.22878618459E+04  0.22878618459E+04  0.00000000000E+00 0. -1.
         25    2    1    2    0    0  0.18733846185E+02 -0.11260174873E+02 -0.22855059562E+04  0.22890260865E+04  0.12500080129E+03 0.  0.
          5    1    3    3  501    0  0.10578812652E+02  0.22419337586E+02 -0.21092646910E+04  0.21094103642E+04  0.10000000000E+00 0. -1.
         -5    1    3    3    0  501  0.81550335328E+01 -0.33679512460E+02 -0.17624126519E+03  0.17961572227E+03  0.10000000000E+00 0. -1.
         21    1    1    2  504  503 -0.18733846185E+02  0.11260174873E+02  0.19986105096E+03  0.20105270011E+03  0.00000000000E+00 0. -1.
<mgrwt>
<rscale>  1 0.12689739E+03</rscale>
<asrwt>0</asrwt>
<pdfrwt beam="1">  1       21 0.31110300E-01 0.12689739E+03</pdfrwt>
<pdfrwt beam="2">  1       21 0.35197872E+00 0.12689739E+03</pdfrwt>
<totfact> 0.19329452E+02</totfact>
</mgrwt>
</event>
<event>
 6    1  0.4424270E-002  0.1317195E+03  0.7546771E-02  0.1224926E+00
         21   -1    0    0  504  502  0.00000000000E+00  0.00000000000E+00  0.63209723251E+03  0.63209723251E+03  0.00000000000E+00 0. -1.
         21   -1    0    0  502  503 -0.00000000000E+00 -0.00000000000E+00 -0.14595407584E+02  0.14595407584E+02  0.00000000000E+00 0. -1.
         25    2    1    2    0    0  0.29416466787E+02  0.29307369215E+02  0.31613069961E+03  0.34247428827E+03  0.12500307390E+03 0.  0.
          5    1    3    3  501    0  0.63725567755E+02 -0.14460067250E+02  0.10118586024E+03  0.12045177393E+03  0.10000000000E+00 0. -1.
         -5    1    3    3    0  501 -0.34309100968E+02  0.43767436465E+02  0.21494483937E+03  0.22202251434E+03  0.10000000000E+00 0. -1.
         21    1    1    2  504  503 -0.29416466787E+02 -0.29307369215E+02  0.30137112532E+03  0.30421835182E+03  0.00000000000E+00 0. -1.
<mgrwt>
<rscale>  1 0.13171947E+03</rscale>
<asrwt>0</asrwt>
<pdfrwt beam="1">  1       21 0.97245707E-01 0.13171947E+03</pdfrwt>
<pdfrwt beam="2">  1       21 0.22454478E-02 0.13171947E+03</pdfrwt>
<totfact> 0.89918777E+05</totfact>
</mgrwt>
</event>
<event>
 6    1  0.4424270E-002  0.1414813E+03  0.7546771E-02  0.1211350E+00
         21   -1    0    0  504  502  0.00000000000E+00  0.00000000000E+00  0.34028080979E+03  0.34028080979E+03  0.00000000000E+00 0.  1.
         21   -1    0    0  502  503 -0.00000000000E+00 -0.00000000000E+00 -0.33020723853E+02  0.33020723853E+02  0.00000000000E+00 0.  1.
         25    2    1    2    0    0 -0.55424440152E+02  0.36297083829E+02  0.17220249390E+03  0.22286915672E+03  0.12501046056E+03 0.  0.
          5    1    3    3  501    0 -0.75090514153E+02  0.62730218060E+02  0.84854948143E+02  0.12951462388E+03  0.10000000000E+00 0. -1.
         -5    1    3    3    0  501  0.19666074001E+02 -0.26433134232E+02  0.87347545758E+02  0.93354532841E+02  0.10000000000E+00 0. -1.
         21    1    1    2  504  503  0.55424440152E+02 -0.36297083829E+02  0.13505759203E+03  0.15043237692E+03  0.00000000000E+00 0.  1.
<mgrwt>
<rscale>  1 0.14148131E+03</rscale>
<asrwt>0</asrwt>
<pdfrwt beam="1">  1       21 0.52350892E-01 0.14148131E+03</pdfrwt>
<pdfrwt beam="2">  1       21 0.50801116E-02 0.14148131E+03</pdfrwt>
<totfact> 0.90926013E+05</totfact>
</mgrwt>
</event>
<event>
 6    1  0.4424270E-002  0.1744817E+03  0.7546771E-02  0.1173253E+00
         21   -1    0    0  504  502  0.00000000000E+00  0.00000000000E+00  0.99606930550E+03  0.99606930550E+03  0.00000000000E+00 0. -1.
         21   -1    0    0  502  503 -0.00000000000E+00 -0.00000000000E+00 -0.11130025568E+03  0.11130025568E+03  0.00000000000E+00 0. -1.
         25    2    1    2    0    0  0.52398877176E+02  0.10987845502E+03 -0.36361260710E+02  0.17823019264E+03  0.12499977232E+03 0.  0.
          5    1    3    3  501    0 -0.16216369466E+02 -0.58920343292E+01 -0.40044232917E+02  0.43603179897E+02  0.10000000000E+00 0. -1.
         -5    1    3    3    0  501  0.68615246642E+02  0.11577048935E+03  0.36829722074E+01  0.13462701274E+03  0.10000000000E+00 0. -1.
         21    1    1    2  504  503 -0.52398877176E+02 -0.10987845502E+03  0.92113031052E+03  0.92913936854E+03  0.00000000000E+00 0. -1.
<mgrwt>
<rscale>  1 0.17448169E+03</rscale>
<asrwt>0</asrwt>
<pdfrwt beam="1">  1       21 0.15324143E+00 0.17448169E+03</pdfrwt>
<pdfrwt beam="2">  1       21 0.17123117E-01 0.17448169E+03</pdfrwt>
<totfact> 0.88240999E+03</totfact>
</mgrwt>
</event>
<event>
 6    1  0.4424270E-002  0.1390674E+03  0.7546771E-02  0.1214589E+00
         21   -1    0    0  503  502  0.00000000000E+00  0.00000000000E+00  0.31146232849E+03  0.31146232849E+03  0.00000000000E+00 0.  1.
         21   -1    0    0  504  503 -0.00000000000E+00 -0.00000000000E+00 -0.55264481093E+02  0.55264481093E+02  0.00000000000E+00 0.  1.
         25    2    1    2    0    0  0.40918676980E+02  0.45228863069E+02  0.43885718979E+02  0.14582767411E+03  0.12497906235E+03 0.  0.
          5    1    3    3  501    0 -0.33758798313E+02  0.24215369622E+02 -0.19265955775E+02  0.45795498048E+02  0.10000000000E+00 0.  1.
         -5    1    3    3    0  501  0.74677475293E+02  0.21013493447E+02  0.63151674754E+02  0.10003217606E+03  0.10000000000E+00 0.  1.
         21    1    1    2  504  502 -0.40918676980E+02 -0.45228863069E+02  0.21231212842E+03  0.22089913547E+03  0.00000000000E+00 0.  1.
<mgrwt>
<rscale>  1 0.13906744E+03</rscale>
<asrwt>0</asrwt>
<pdfrwt beam="1">  1       21 0.47917280E-01 0.13906744E+03</pdfrwt>
<pdfrwt beam="2">  1       21 0.85022280E-02 0.13906744E+03</pdfrwt>
<totfact> 0.45306025E+05</totfact>
</mgrwt>
</event>
<event>
 6    1  0.4424270E-002  0.1263385E+03  0.7546771E-02  0.1232992E+00
         21   -1    0    0  504  502  0.00000000000E+00  0.00000000000E+00  0.23706102238E+03  0.23706102238E+03  0.00000000000E+00 0.  1.
         21   -1    0    0  502  503 -0.00000000000E+00 -0.00000000000E+00 -0.54626094963E+02  0.54626094963E+02  0.00000000000E+00 0.  1.
         25    2    1    2    0    0  0.17932737111E+02 -0.38801152803E+01  0.19633429938E+02  0.12785499004E+03  0.12499915421E+03 0.  0.
          5    1    3    3  501    0 -0.47941602045E+02  0.25216192338E+02  0.52920531397E+01  0.54426734140E+02  0.10000000000E+00 0. -1.
         -5    1    3    3    0  501  0.65874339157E+02 -0.29096307618E+02  0.14341376798E+02  0.73428255902E+02  0.10000000000E+00 0. -1.
         21    1    1    2  504  503 -0.17932737111E+02  0.38801152803E+01  0.16280149748E+03  0.16383212730E+03  0.00000000000E+00 0.  1.
<mgrwt>
<rscale>  1 0.12633854E+03</rscale>
<asrwt>0</asrwt>
<pdfrwt beam="1">  1       21 0.36470926E-01 0.12633854E+03</pdfrwt>
<pdfrwt beam="2">  1       21 0.84040148E-02 0.12633854E+03</pdfrwt>
<totfact> 0.80130946E+05</totfact>
</mgrwt>
</event>
<event>
 6    1  0.4424270E-002  0.1259337E+03  0.7546771E-02  0.1233617E+00
         21   -1    0    0  503  502  0.00000000000E+00  0.00000000000E+00  0.10594132050E+03  0.10594132050E+03  0.00000000000E+00 0. -1.
         21   -1    0    0  504  503 -0.00000000000E+00 -0.00000000000E+00 -0.22417717966E+03  0.22417717966E+03  0.00000000000E+00 0. -1.
         25    2    1    2    0    0  0.85426449639E+01 -0.12600806291E+02 -0.20578218832E+03  0.24125840309E+03  0.12501020329E+03 0.  0.
          5    1    3    3  501    0  0.51939935738E+01 -0.68460409970E+02 -0.95848241373E+02  0.11790123272E+03  0.10000000000E+00 0. -1.
         -5    1    3    3    0  501  0.33486513901E+01  0.55859603679E+02 -0.10993394695E+03  0.12335717037E+03  0.10000000000E+00 0. -1.
         21    1    1    2  504  502 -0.85426449639E+01  0.12600806291E+02  0.87546329159E+02  0.88860097070E+02  0.00000000000E+00 0. -1.
<mgrwt>
<rscale>  1 0.12593374E+03</rscale>
<asrwt>0</asrwt>
<pdfrwt beam="1">  1       21 0.16298665E-01 0.12593374E+03</pdfrwt>
<pdfrwt beam="2">  1       21 0.34488796E-01 0.12593374E+03</pdfrwt>
<totfact> 0.27714928E+05</totfact>
</mgrwt>
</event>
<event>
 6    1  0.4424270E-002  0.1323441E+03  0.7546771E-02  0.1224018E+00
         21   -1    0    0  503  502  0.00000000000E+00  0.00000000000E+00  0.85560792444E+03  0.85560792444E+03  0.00000000000E+00 0.  1.
         21   -1    0    0  504  503 -0.00000000000E+00 -0.00000000000E+00 -0.90342097408E+01  0.90342097408E+01  0.00000000000E+00 0.  1.
         25    2    1    2    0    0 -0.23007027124E+02  0.36892501076E+02  0.63227481254E+03  0.64597709491E+03  0.12499835456E+03 0.  0.
          5    1    3    3  501    0  0.35020767909E+02  0.80749570668E+01  0.46814206887E+03  0.46951961169E+03  0.10000000000E+00 0. -1.
         -5    1    3    3    0  501 -0.58027795034E+02  0.28817544009E+02  0.16413274367E+03  0.17645748322E+03  0.10000000000E+00 0. -1.
         21    1    1    2  504  502  0.23007027124E+02 -0.36892501076E+02  0.21429890216E+03  0.21866503927E+03  0.00000000000E+00 0.  1.
<mgrwt>
<rscale>  1 0.13234413E+03</rscale>
<asrwt>0</asrwt>
<pdfrwt beam="1">  1       21 0.13163192E+00 0.13234413E+03</pdfrwt>
<pdfrwt beam="2">  1       21 0.13898791E-02 0.13234413E+03</pdfrwt>
<totfact> 0.93713008E+05</totfact>
</mgrwt>
</event>
<event>
 6    1  0.4424270E-002  0.1389832E+03  0.7546771E-02  0.1214704E+00
         21   -1    0    0  503  502  0.00000000000E+00  0.00000000000E+00  0.19684988503E+03  0.19684988503E+03  0.00000000000E+00 0.  1.
         21   -1    0    0  504  503 -0.00000000000E+00 -0.00000000000E+00 -0.58830603960E+02  0.58830603960E+02  0.00000000000E+00 0.  1.
         25    2    1    2    0    0  0.59048918293E+02  0.14310806468E+02  0.47926457686E+02  0.14701452947E+03  0.12499901038E+03 0.  0.
          5    1    3    3  501    0  0.96082705451E+01  0.25229613169E+02  0.81770994374E+02  0.86112471596E+02  0.10000000000E+00 0.  1.
         -5    1    3    3    0  501  0.49440647748E+02 -0.10918806701E+02 -0.33844536688E+02  0.60902057872E+02  0.10000000000E+00 0.  1.
         21    1    1    2  504  502 -0.59048918293E+02 -0.14310806468E+02  0.90092823381E+02  0.10866595952E+03  0.00000000000E+00 0.  1.
<mgrwt>
<rscale>  1 0.13898319E+03</rscale>
<asrwt>0</asrwt>
<pdfrwt beam="1">  1       21 0.30284597E-01 0.13898319E+03</pdfrwt>
<pdfrwt beam="2">  1       21 0.90508623E-02 0.13898319E+03</pdfrwt>
<totfact> 0.10135208E+06</totfact>
</mgrwt>
</event>
<event>
 6    1  0.4424270E-002  0.1261919E+03  0.7546771E-02  0.1233218E+00
         21   -1    0    0  504  502  0.00000000000E+00  0.00000000000E+00  0.85725160990E+02  0.85725160990E+02  0.00000000000E+00 0. -1.
         21   -1    0    0  502  503 -0.00000000000E+00 -0.00000000000E+00 -0.60734358023E+03  0.60734358023E+03  0.00000000000E+00 0.  1.
         25    2    1    2    0    0 -0.16044700736E+02 -0.74654323417E+01 -0.59978891551E+03  0.61292018173E+03  0.12494495150E+03 0.  0.
          5    1    3    3  501    0  0.10564899138E+01 -0.39065030803E+02 -0.55070946116E+03  0.55209429757E+03  0.10000000000E+00 0.  1.
         -5    1    3    3    0  501 -0.17101190649E+02  0.31599598461E+02 -0.49079454349E+02  0.60825884159E+02  0.10000000000E+00 0.  1.
         21    1    1    2  504  503  0.16044700736E+02  0.74654323417E+01  0.78170496266E+02  0.80148559490E+02  0.00000000000E+00 0. -1.
<mgrwt>
<rscale>  1 0.12619194E+03</rscale>
<asrwt>0</asrwt>
<pdfrwt beam="1">  1       21 0.13188487E-01 0.12619194E+03</pdfrwt>
<pdfrwt beam="2">  1       21 0.93437472E-01 0.12619194E+03</pdfrwt>
<totfact> 0.49407092E+04</totfact>
</mgrwt>
</event>
<event>
 6    1  0.4424270E-002  0.1629085E+03  0.7546771E-02  0.1185452E+00
         21   -1    0    0  503  502  0.00000000000E+00  0.00000000000E+00  0.12836929604E+03  0.12836929604E+03  0.00000000000E+00 0. -1.
         21   -1    0    0  504  503 -0.00000000000E+00 -0.00000000000E+00 -0.14982558657E+03  0.14982558657E+03  0.00000000000E+00 0. -1.
         25    2    1    2    0    0  0.92667736545E+02  0.48249448440E+02  0.23242489117E+02  0.16455818268E+03  0.12499545397E+03 0.  0.
          5    1    3    3  501    0  0.98036037476E+02  0.86316778591E-01 -0.19481218298E+02  0.99952988754E+02  0.10000000000E+00 0. -1.
         -5    1    3    3    0  501 -0.53683009310E+01  0.48163131661E+02  0.42723707415E+02  0.64605193921E+02  0.10000000000E+00 0. -1.
         21    1    1    2  504  502 -0.92667736545E+02 -0.48249448440E+02 -0.44698779640E+02  0.11363669994E+03  0.00000000000E+00 0. -1.
<mgrwt>
<rscale>  1 0.16290851E+03</rscale>
<asrwt>0</asrwt>
<pdfrwt beam="1">  1       21 0.19749123E-01 0.16290851E+03</pdfrwt>
<pdfrwt beam="2">  1       21 0.23050090E-01 0.16290851E+03</pdfrwt>
<totfact> 0.42008889E+05</totfact>
</mgrwt>
</event>
<event>
 6    1  0.4424270E-002  0.1431038E+03  0.7546771E-02  0.1209213E+00
         21   -1    0    0  503  502  0.00000000000E+00  0.00000000000E+00  0.14079372968E+03  0.14079372968E+03  0.00000000000E+00 0. -1.
         21   -1    0    0  504  503 -0.00000000000E+00 -0.00000000000E+00 -0.99463974743E+02  0.99463974743E+02  0.00000000000E+00 0. -1.
         25    2    1    2    0    0 -0.50437931400E+02 -0.48098709348E+02 -0.23560769984E+02  0.14503033971E+03  0.12498487425E+03 0.  0.
          5    1    3    3  501    0 -0.15638773280E+02 -0.84897518232E+02  0.57427423882E+01  0.86516755150E+02  0.10000000000E+00 0.  1.
         -5    1    3    3    0  501 -0.34799158120E+02  0.36798808883E+02 -0.29303512372E+02  0.58513584563E+02  0.10000000000E+00 0.  1.
         21    1    1    2  504  502  0.50437931400E+02  0.48098709348E+02  0.64890524922E+02  0.95227364710E+02  0.00000000000E+00 0. -1.
<mgrwt>
<rscale>  1 0.14310377E+03</rscale>
<asrwt>0</asrwt>
<pdfrwt beam="1">  1       21 0.21660574E-01 0.14310377E+03</pdfrwt>
<pdfrwt beam="2">  1       21 0.15302150E-01 0.14310377E+03</pdfrwt>
<totfact> 0.75471967E+05</totfact>
</mgrwt>
</event>
<event>
 6    1  0.4424270E-002  0.1268305E+03  0.7546771E-02  0.1232236E+00
         21   -1    0    0  504  502  0.00000000000E+00  0.00000000000E+00  0.78031364404E+03  0.78031364404E+03  0.00000000000E+00 0.  1.
         21   -1    0    0  502  503 -0.00000000000E+00 -0.00000000000E+00 -0.89613752831E+01  0.89613752831E+01  0.00000000000E+00 0.  1.
         25    2    1    2    0    0  0.14951209079E+02 -0.15423940735E+02  0.45946225788E+03  0.47664614112E+03  0.12499816330E+03 0.  0.
          5    1    3    3  501    0 -0.44674288769E+02  0.16826801731E+02  0.29376347222E+03  0.29761707099E+03  0.10000000000E+00 0. -1.
         -5    1    3    3    0  501  0.59625497848E+02 -0.32250742465E+02  0.16569878566E+03  0.17902907013E+03  0.10000000000E+00 0. -1.
         21    1    1    2  504  503 -0.14951209079E+02  0.15423940735E+02  0.31189001088E+03  0.31262887820E+03  0.00000000000E+00 0.  1.
<mgrwt>
<rscale>  1 0.12683051E+03</rscale>
<asrwt>0</asrwt>
<pdfrwt beam="1">  1       21 0.12004820E+00 0.12683051E+03</pdfrwt>
<pdfrwt beam="2">  1       21 0.13786737E-02 0.12683051E+03</pdfrwt>
<totfact> 0.11922621E+06</totfact>
</mgrwt>
</event>
<event>
 6    1  0.4424270E-002  0.1637422E+03  0.7546771E-02  0.1184535E+00
         21   -1    0    0  504  502  0.00000000000E+00  0.00000000000E+00  0.16088372647E+03  0.16088372647E+03  0.00000000000E+00 0. -1.
         21   -1    0    0  502  503 -0.00000000000E+00 -0.00000000000E+00 -0.14165815704E+03  0.14165815704E+03  0.00000000000E+00 0. -1.
         25    2    1    2    0    0  0.55200948151E+02  0.90234439197E+02 -0.55653266912E+02  0.17294157939E+03  0.12498841975E+03 0.  0.
          5    1    3    3  501    0  0.53958769297E+02 -0.16678311654E+02 -0.24606166208E+02  0.61605099457E+02  0.10000000000E+00 0.  1.
         -5    1    3    3    0  501  0.12421788538E+01  0.10691275085E+03 -0.31047100703E+02  0.11133647994E+03  0.10000000000E+00 0.  1.
         21    1    1    2  504  503 -0.55200948151E+02 -0.90234439197E+02  0.74878836344E+02  0.12960030411E+03  0.00000000000E+00 0. -1.
<mgrwt>
<rscale>  1 0.16374219E+03</rscale>
<asrwt>0</asrwt>
<pdfrwt beam="1">  1       21 0.24751342E-01 0.16374219E+03</pdfrwt>
<pdfrwt beam="2">  1       21 0.21793563E-01 0.16374219E+03</pdfrwt>
<totfact> 0.30540190E+05</totfact>
</mgrwt>
</event>
<event>
 6    1  0.4424270E-002  0.1272437E+03  0.7546771E-02  0.1231604E+00
         21   -1    0    0  504  502  0.00000000000E+00  0.00000000000E+00  0.98316175537E+02  0.98316175537E+02  0.00000000000E+00 0.  1.
         21   -1    0    0  502  503 -0.00000000000E+00 -0.00000000000E+00 -0.67630093496E+02  0.67630093496E+02  0.00000000000E+00 0.  1.
         25    2    1    2    0    0 -0.22594504613E+02  0.76526857474E+01  0.20982174501E+00  0.12724384431E+03  0.12498750598E+03 0.  0.
          5    1    3    3  501    0  0.14218775295E+02  0.20121283743E+02  0.54884847831E+02  0.60161417468E+02  0.10000000000E+00 0. -1.
         -5    1    3    3    0  501 -0.36813279908E+02 -0.12468597996E+02 -0.54675026086E+02  0.67082426842E+02  0.10000000000E+00 0. -1.
         21    1    1    2  504  503  0.22594504613E+02 -0.76526857474E+01  0.30476260296E+02  0.38702424724E+02  0.00000000000E+00 0.  1.
<mgrwt>
<rscale>  1 0.12724367E+03</rscale>
<asrwt>0</asrwt>
<pdfrwt beam="1">  1       21 0.15125566E-01 0.12724367E+03</pdfrwt>
<pdfrwt beam="2">  1       21 0.10404630E-01 0.12724367E+03</pdfrwt>
<totfact> 0.28929635E+06</totfact>
</mgrwt>
</event>
<event>
 6    1  0.4424270E-002  0.1326349E+03  0.7546771E-02  0.1223598E+00
         21   -1    0    0  504  502  0.00000000000E+00  0.00000000000E+00  0.77198538482E+01  0.77198538482E+01  0.00000000000E+00 0.  1.
         21   -1    0    0  502  503 -0.00000000000E+00 -0.00000000000E+00 -0.15080203157E+04  0.15080203157E+04  0.00000000000E+00 0.  1.
         25    2    1    2    0    0 -0.43138196908E+02 -0.10348206334E+02 -0.13974513536E+04  0.14037315606E+04  0.12499607664E+03 0.  0.
          5    1    3    3  501    0 -0.81143156340E+02  0.10097714820E+02 -0.11159133313E+04  0.11189051562E+04  0.10000000000E+00 0.  1.
         -5    1    3    3    0  501  0.38004959432E+02 -0.20445921153E+02 -0.28153802231E+03  0.28482640439E+03  0.10000000000E+00 0.  1.
         21    1    1    2  504  503  0.43138196908E+02  0.10348206334E+02 -0.10284910822E+03  0.11200860890E+03  0.00000000000E+00 0.  1.
<mgrwt>
<rscale>  1 0.13263487E+03</rscale>
<asrwt>0</asrwt>
<pdfrwt beam="1">  1       21 0.11876701E-02 0.13263487E+03</pdfrwt>
<pdfrwt beam="2">  1       21 0.23200307E+00 0.13263487E+03</pdfrwt>
<totfact> 0.25119601E+05</totfact>
</mgrwt>
</event>
<event>
 6    1  0.4424270E-002  0.1265001E+03  0.7546771E-02  0.1232743E+00
         21   -1    0    0  503  502  0.00000000000E+00  0.00000000000E+00  0.22537965026E+03  0.22537965026E+03  0.00000000000E+00 0. -1.
         21   -1    0    0  504  503 -0.00000000000E+00 -0.00000000000E+00 -0.28066536121E+02  0.28066536121E+02  0.00000000000E+00 0. -1.
         25    2    1    2    0    0  0.94323954124E+01 -0.17010373598E+02  0.12230331961E+03  0.17595559232E+03  0.12499578228E+03 0.  0.
          5    1    3    3  501    0 -0.43435200516E+02  0.22107251981E+01  0.11012092688E+03  0.11839819461E+03  0.10000000000E+00 0.  1.
         -5    1    3    3    0  501  0.52867595929E+02 -0.19221098796E+02  0.12182392729E+02  0.57557397707E+02  0.10000000000E+00 0.  1.
         21    1    1    2  504  502 -0.94323954124E+01  0.17010373598E+02  0.75009794528E+02  0.77490594063E+02  0.00000000000E+00 0.  1.
<mgrwt>
<rscale>  1 0.12650007E+03</rscale>
<asrwt>0</asrwt>
<pdfrwt beam="1">  1       21 0.34673791E-01 0.12650007E+03</pdfrwt>
<pdfrwt beam="2">  1       21 0.43179288E-02 0.12650007E+03</pdfrwt>
<totfact> 0.27383783E+06</totfact>
</mgrwt>
</event>
<event>
 6    1  0.4424270E-002  0.1263906E+03  0.7546771E-02  0.1232912E+00
         21   -1    0    0  504  502  0.00000000000E+00  0.00000000000E+00  0.13724984073E+04  0.13724984073E+04  0.00000000000E+00 0. -1.
         21   -1    0    0  502  503 -0.00000000000E+00 -0.00000000000E+00 -0.11652938607E+02  0.11652938607E+02  0.00000000000E+00 0.  1.
         25    2    1    2    0    0  0.18174659098E+02 -0.43448481995E+01  0.33366573759E+03  0.35680165085E+03  0.12500159067E+03 0.  0.
          5    1    3    3  501    0 -0.50540788123E+02 -0.16692909427E+02  0.10507646883E+03  0.11778836441E+03  0.10000000000E+00 0. -1.
         -5    1    3    3    0  501  0.68715447221E+02  0.12348061228E+02  0.22858926876E+03  0.23901328644E+03  0.10000000000E+00 0. -1.
         21    1    1    2  504  503 -0.18174659098E+02  0.43448481995E+01  0.10271797311E+04  0.10273496951E+04  0.00000000000E+00 0. -1.
<mgrwt>
<rscale>  1 0.12639064E+03</rscale>
<asrwt>0</asrwt>
<pdfrwt beam="1">  1       21 0.21115347E+00 0.12639064E+03</pdfrwt>
<pdfrwt beam="2">  1       21 0.17927609E-02 0.12639064E+03</pdfrwt>
<totfact> 0.17430976E+05</totfact>
</mgrwt>
</event>
<event>
 6    1  0.4424270E-002  0.1552042E+03  0.7546771E-02  0.1194220E+00
         21   -1    0    0  503  502  0.00000000000E+00  0.00000000000E+00  0.55952888225E+03  0.55952888225E+03  0.00000000000E+00 0. -1.
         21   -1    0    0  504  503 -0.00000000000E+00 -0.00000000000E+00 -0.30484428246E+03  0.30484428246E+03  0.00000000000E+00 0. -1.
         25    2    1    2    0    0 -0.85994407815E+02  0.32558571158E+02 -0.28091456048E+03  0.32093820152E+03  0.12503295636E+03 0.  0.
          5    1    3    3  501    0 -0.49573653979E+02 -0.22398779750E+02 -0.31295001698E+02  0.62758582157E+02  0.10000000000E+00 0.  1.
         -5    1    3    3    0  501 -0.36420753836E+02  0.54957350908E+02 -0.24961955878E+03  0.25817961937E+03  0.10000000000E+00 0.  1.
         21    1    1    2  504  502  0.85994407815E+02 -0.32558571158E+02  0.53559916027E+03  0.54343496319E+03  0.00000000000E+00 0. -1.
<mgrwt>
<rscale>  1 0.15520418E+03</rscale>
<asrwt>0</asrwt>
<pdfrwt beam="1">  1       21 0.86081366E-01 0.15520418E+03</pdfrwt>
<pdfrwt beam="2">  1       21 0.46899120E-01 0.15520418E+03</pdfrwt>
<totfact> 0.52272296E+03</totfact>
</mgrwt>
</event>
<event>
 6    1  0.4424270E-002  0.1352225E+03  0.7546771E-02  0.1219906E+00
         21   -1    0    0  504  502  0.00000000000E+00  0.00000000000E+00  0.10296594634E+02  0.10296594634E+02  0.00000000000E+00 0. -1.
         21   -1    0    0  502  503 -0.00000000000E+00 -0.00000000000E+00 -0.15118751583E+04  0.15118751583E+04  0.00000000000E+00 0. -1.
         25    2    1    2    0    0  0.50992385671E+01  0.51531407688E+02 -0.14138396701E+04  0.14202914228E+04  0.12491447027E+03 0.  0.
          5    1    3    3  501    0 -0.51395616646E+02  0.86268511391E+01 -0.32582075243E+03  0.32996227767E+03  0.10000000000E+00 0. -1.
         -5    1    3    3    0  501  0.56494855213E+02  0.42904556549E+02 -0.10880189176E+04  0.10903291452E+04  0.10000000000E+00 0. -1.
         21    1    1    2  504  503 -0.50992385671E+01 -0.51531407688E+02 -0.87738893570E+02  0.10188033008E+03  0.00000000000E+00 0. -1.
<mgrwt>
<rscale>  1 0.13522246E+03</rscale>
<asrwt>0</asrwt>
<pdfrwt beam="1">  1       21 0.15840918E-02 0.13522246E+03</pdfrwt>
<pdfrwt beam="2">  1       21 0.23259612E+00 0.13522246E+03</pdfrwt>
<totfact> 0.15720938E+05</totfact>
</mgrwt>
</event>
<event>
 6    1  0.4424270E-002  0.1284402E+03  0.7546771E-02  0.1229789E+00
         21   -1    0    0  503  502  0.00000000000E+00  0.00000000000E+00  0.32943872489E+03  0.32943872489E+03  0.00000000000E+00 0.  1.
         21   -1    0    0  504  503 -0.00000000000E+00 -0.00000000000E+00 -0.20804708608E+02  0.20804708608E+02  0.00000000000E+00 0.  1.
         25    2    1    2    0    0 -0.26319512179E+02  0.13386159956E+02  0.20018539514E+03  0.23784677239E+03  0.12499995485E+03 0.  0.
          5    1    3    3  501    0  0.40214520018E+02 -0.21324152838E+02  0.38585073607E+02  0.59671978514E+02  0.10000000000E+00 0.  1.
         -5    1    3    3    0  501 -0.66534032197E+02  0.34710312794E+02  0.16160032153E+03  0.17817479388E+03  0.10000000000E+00 0.  1.
         21    1    1    2  504  502  0.26319512179E+02 -0.13386159956E+02  0.10844862115E+03  0.11239666111E+03  0.00000000000E+00 0.  1.
<mgrwt>
<rscale>  1 0.12844024E+03</rscale>
<asrwt>0</asrwt>
<pdfrwt beam="1">  1       21 0.50682877E-01 0.12844024E+03</pdfrwt>
<pdfrwt beam="2">  1       21 0.32007247E-02 0.12844024E+03</pdfrwt>
<totfact> 0.20950718E+06</totfact>
</mgrwt>
</event>
<event>
 6    1  0.4424270E-002  0.1303809E+03  0.7546771E-02  0.1226892E+00
         21   -1    0    0  503  502  0.00000000000E+00  0.00000000000E+00  0.58919235242E+02  0.58919235242E+02  0.00000000000E+00 0.  1.
         21   -1    0    0  504  503 -0.00000000000E+00 -0.00000000000E+00 -0.12123818609E+03  0.12123818609E+03  0.00000000000E+00 0.  1.
         25    2    1    2    0    0 -0.18325677783E+02 -0.32178139470E+02 -0.58587240385E+02  0.14293929687E+03  0.12501165836E+03 0.  0.
          5    1    3    3  501    0  0.43866538642E+02 -0.30674974803E+02  0.52720337207E+01  0.53786909477E+02  0.10000000000E+00 0.  1.
         -5    1    3    3    0  501 -0.62192216424E+02 -0.15031646672E+01 -0.63859274106E+02  0.89152387389E+02  0.10000000000E+00 0.  1.
         21    1    1    2  504  502  0.18325677783E+02  0.32178139470E+02 -0.37317104648E+01  0.37218124468E+02  0.00000000000E+00 0.  1.
<mgrwt>
<rscale>  1 0.13038090E+03</rscale>
<asrwt>0</asrwt>
<pdfrwt beam="1">  1       21 0.90644977E-02 0.13038090E+03</pdfrwt>
<pdfrwt beam="2">  1       21 0.18652029E-01 0.13038090E+03</pdfrwt>
<totfact> 0.25157624E+06</totfact>
</mgrwt>
</event>
<event>
 6    1  0.4424270E-002  0.1425664E+03  0.7546771E-02  0.1209917E+00
         21   -1    0    0  503  502  0.00000000000E+00  0.00000000000E+00  0.38311602567E+03  0.38311602567E+03  0.00000000000E+00 0. -1.
         21   -1    0    0  504  503 -0.00000000000E+00 -0.00000000000E+00 -0.11370121910E+03  0.11370121910E+03  0.00000000000E+00 0.  1.
         25    2    1    2    0    0  0.15394406752E+02 -0.66808509780E+02 -0.64110731587E+02  0.15631812679E+03  0.12499922448E+03 0.  0.
          5    1    3    3  501    0  0.32751544284E+02 -0.99816449055E+02 -0.51090488679E+02  0.11681710144E+03  0.10000000000E+00 0. -1.
         -5    1    3    3    0  501 -0.17357137532E+02  0.33007939274E+02 -0.13020242909E+02  0.39501025352E+02  0.10000000000E+00 0. -1.
         21    1    1    2  504  502 -0.15394406752E+02  0.66808509780E+02  0.33352553816E+03  0.34049911797E+03  0.00000000000E+00 0. -1.
<mgrwt>
<rscale>  1 0.14256637E+03</rscale>
<asrwt>0</asrwt>
<pdfrwt beam="1">  1       21 0.58940926E-01 0.14256637E+03</pdfrwt>
<pdfrwt beam="2">  1       21 0.17492496E-01 0.14256637E+03</pdfrwt>
<totfact> 0.81376172E+04</totfact>
</mgrwt>
</event>
<event>
 6    1  0.4424270E-002  0.1267800E+03  0.7546771E-02  0.1232313E+00
         21   -1    0    0  504  502  0.00000000000E+00  0.00000000000E+00  0.58991259034E+01  0.58991259034E+01  0.00000000000E+00 0.  1.
         21   -1    0    0  502  503 -0.00000000000E+00 -0.00000000000E+00 -0.10398220656E+04  0.10398220656E+04  0.00000000000E+00 0.  1.
         25    2    1    2    0    0 -0.19676332982E+02  0.80232895430E+01 -0.97244581462E+03  0.98067529877E+03  0.12498659120E+03 0.  0.
          5    1    3    3  501    0 -0.63776456176E+02 -0.14734095884E+01 -0.29947475523E+03  0.30619396846E+03  0.10000000000E+00 0. -1.
         -5    1    3    3    0  501  0.44100123194E+02  0.94966991314E+01 -0.67297105939E+03  0.67448133031E+03  0.10000000000E+00 0. -1.
         21    1    1    2  504  503  0.19676332982E+02 -0.80232895430E+01 -0.61477125109E+02  0.65045892771E+02  0.00000000000E+00 0. -1.
<mgrwt>
<rscale>  1 0.12678004E+03</rscale>
<asrwt>0</asrwt>
<pdfrwt beam="1">  1       21 0.90755772E-03 0.12678004E+03</pdfrwt>
<pdfrwt beam="2">  1       21 0.15997265E+00 0.12678004E+03</pdfrwt>
<totfact> 0.11153418E+06</totfact>
</mgrwt>
</event>
<event>
 6    1  0.4424270E-002  0.1290879E+03  0.7546771E-02  0.1228815E+00
         21   -1    0    0  504  502  0.00000000000E+00  0.00000000000E+00  0.39386809962E+02  0.39386809962E+02  0.00000000000E+00 0. -1.
         21   -1    0    0  502  503 -0.00000000000E+00 -0.00000000000E+00 -0.19730160455E+03  0.19730160455E+03  0.00000000000E+00 0. -1.
         25    2    1    2    0    0  0.94518750843E+01  0.30819082013E+02 -0.15853918644E+03  0.20444646010E+03  0.12499811059E+03 0.  0.
          5    1    3    3  501    0 -0.56746009056E+02  0.16935857916E+02 -0.55309461297E+02  0.81031347861E+02  0.10000000000E+00 0. -1.
         -5    1    3    3    0  501  0.66197884141E+02  0.13883224097E+02 -0.10322972514E+03  0.12341511224E+03  0.10000000000E+00 0. -1.
         21    1    1    2  504  503 -0.94518750843E+01 -0.30819082013E+02  0.62439185758E+00  0.32241954407E+02  0.00000000000E+00 0. -1.
<mgrwt>
<rscale>  1 0.12908788E+03</rscale>
<asrwt>0</asrwt>
<pdfrwt beam="1">  1       21 0.60595092E-02 0.12908788E+03</pdfrwt>
<pdfrwt beam="2">  1       21 0.30354093E-01 0.12908788E+03</pdfrwt>
<totfact> 0.20081846E+06</totfact>
</mgrwt>
</event>
<event>
 6    1  0.4424270E-002  0.1320319E+03  0.7546771E-02  0.1224471E+00
         21   -1    0    0  504  502  0.00000000000E+00  0.00000000000E+00  0.51160040125E+02  0.51160040125E+02  0.00000000000E+00 0.  1.
         21   -1    0    0  502  503 -0.00000000000E+00 -0.00000000000E+00 -0.32536243583E+03  0.32536243583E+03  0.00000000000E+00 0.  1.
         25    2    1    2    0    0  0.39723717371E+02  0.15126067120E+02 -0.29932221548E+03  0.32714862687E+03  0.12500265497E+03 0.  0.
          5    1    3    3  501    0  0.65970708989E+02  0.68839866464E-01 -0.71342181222E+02  0.97169213256E+02  0.10000000000E+00 0. -1.
         -5    1    3    3    0  501 -0.26246991618E+02  0.15057227254E+02 -0.22798003426E+03  0.22997941361E+03  0.10000000000E+00 0. -1.
         21    1    1    2  504  503 -0.39723717371E+02 -0.15126067120E+02  0.25119819779E+02  0.49373849090E+02  0.00000000000E+00 0.  1.
<mgrwt>
<rscale>  1 0.13203195E+03</rscale>
<asrwt>0</asrwt>
<pdfrwt beam="1">  1       21 0.78707754E-02 0.13203195E+03</pdfrwt>
<pdfrwt beam="2">  1       21 0.50055759E-01 0.13203195E+03</pdfrwt>
<totfact> 0.47357015E+05</totfact>
</mgrwt>
</event>
<event>
 6    1  0.4424270E-002  0.1275411E+03  0.7546771E-02  0.1231151E+00
         21   -1    0    0  503  502  0.00000000000E+00  0.00000000000E+00  0.64466280673E+02  0.64466280673E+02  0.00000000000E+00 0.  1.
         21   -1    0    0  504  503 -0.00000000000E+00 -0.00000000000E+00 -0.26762764954E+03  0.26762764954E+03  0.00000000000E+00 0.  1.
         25    2    1    2    0    0 -0.24662671876E+02 -0.56643598591E+01 -0.24898343144E+03  0.27974898036E+03  0.12500564197E+03 0.  0.
          5    1    3    3  501    0 -0.35044073155E+02  0.43017055851E+02 -0.20799570285E+03  0.21526907944E+03  0.10000000000E+00 0.  1.
         -5    1    3    3    0  501  0.10381401280E+02 -0.48681415710E+02 -0.40987728592E+02  0.64479900924E+02  0.10000000000E+00 0.  1.
         21    1    1    2  504  502  0.24662671876E+02  0.56643598591E+01  0.45822062574E+02  0.52344949854E+02  0.00000000000E+00 0.  1.
<mgrwt>
<rscale>  1 0.12754114E+03</rscale>
<asrwt>0</asrwt>
<pdfrwt beam="1">  1       21 0.99178895E-02 0.12754114E+03</pdfrwt>
<pdfrwt beam="2">  1       21 0.41173484E-01 0.12754114E+03</pdfrwt>
<totfact> 0.47203219E+05</totfact>
</mgrwt>
</event>
<event>
 6    1  0.4424270E-002  0.1258898E+03  0.7546771E-02  0.1233685E+00
         21   -1    0    0  503  502  0.00000000000E+00  0.00000000000E+00  0.45935677856E+03  0.45935677856E+03  0.00000000000E+00 0.  1.
         21   -1    0    0  504  503 -0.00000000000E+00 -0.00000000000E+00 -0.11409448350E+02  0.11409448350E+02  0.00000000000E+00 0.  1.
         25    2    1    2    0    0  0.84468263780E+01  0.12493755790E+02  0.35629528226E+03  0.37788167112E+03  0.12498314447E+03 0.  0.
          5    1    3    3  501    0  0.32620696190E+02  0.21342935823E+02  0.34893708177E+03  0.35110785773E+03  0.10000000000E+00 0.  1.
         -5    1    3    3    0  501 -0.24173869812E+02 -0.88491800337E+01  0.73582004883E+01  0.26773813389E+02  0.10000000000E+00 0.  1.
         21    1    1    2  504  502 -0.84468263780E+01 -0.12493755790E+02  0.91652047954E+02  0.92884555787E+02  0.00000000000E+00 0. -1.
<mgrwt>
<rscale>  1 0.12588975E+03</rscale>
<asrwt>0</asrwt>
<pdfrwt beam="1">  1       21 0.70670259E-01 0.12588975E+03</pdfrwt>
<pdfrwt beam="2">  1       21 0.17553001E-02 0.12588975E+03</pdfrwt>
<totfact> 0.27427746E+06</totfact>
</mgrwt>
</event>
<event>
 6    1  0.4424270E-002  0.1266567E+03  0.7546771E-02  0.1232503E+00
         21   -1    0    0  504  502  0.00000000000E+00  0.00000000000E+00  0.58012666593E+02  0.58012666593E+02  0.00000000000E+00 0.  1.
         21   -1    0    0  502  503 -0.00000000000E+00 -0.00000000000E+00 -0.97948406705E+02  0.97948406705E+02  0.00000000000E+00 0.  1.
         25    2    1    2    0    0  0.16131186466E+02 -0.12531285138E+02 -0.45842269055E+02  0.13469759832E+03  0.12499872430E+03 0.  0.
          5    1    3    3  501    0 -0.46973533784E+02 -0.28305960950E+02  0.47594833298E+00  0.54845025556E+02  0.10000000000E+00 0. -1.
         -5    1    3    3    0  501  0.63104720250E+02  0.15774675811E+02 -0.46318217388E+02  0.79852572763E+02  0.10000000000E+00 0. -1.
         21    1    1    2  504  503 -0.16131186466E+02  0.12531285138E+02  0.59065289431E+01  0.21263474979E+02  0.00000000000E+00 0. -1.
<mgrwt>
<rscale>  1 0.12665674E+03</rscale>
<asrwt>0</asrwt>
<pdfrwt beam="1">  1       21 0.89250258E-02 0.12665674E+03</pdfrwt>
<pdfrwt beam="2">  1       21 0.15068985E-01 0.12665674E+03</pdfrwt>
<totfact> 0.38054221E+06</totfact>
</mgrwt>
</event>
<event>
 6    1  0.4424270E-002  0.1380678E+03  0.7546771E-02  0.1215953E+00
         21   -1    0    0  504  502  0.00000000000E+00  0.00000000000E+00  0.90074331704E+03  0.90074331704E+03  0.00000000000E+00 0. -1.
         21   -1    0    0  502  503 -0.00000000000E+00 -0.00000000000E+00 -0.23185861413E+02  0.23185861413E+02  0.00000000000E+00 0. -1.
         25    2    1    2    0    0 -0.49812098033E+02 -0.30938590796E+02  0.19540457121E+03  0.23926064608E+03  0.12499707516E+03 0.  0.
          5    1    3    3  501    0 -0.27527342603E+02  0.38932080293E+02  0.25205427525E+02  0.53933153473E+02  0.10000000000E+00 0.  1.
         -5    1    3    3    0  501 -0.22284755429E+02 -0.69870671089E+02  0.17019914369E+03  0.18532749260E+03  0.10000000000E+00 0.  1.
         21    1    1    2  504  503  0.49812098033E+02  0.30938590796E+02  0.68215288441E+03  0.68466853237E+03  0.00000000000E+00 0. -1.
<mgrwt>
<rscale>  1 0.13806777E+03</rscale>
<asrwt>0</asrwt>
<pdfrwt beam="1">  1       21 0.13857587E+00 0.13806777E+03</pdfrwt>
<pdfrwt beam="2">  1       21 0.35670563E-02 0.13806777E+03</pdfrwt>
<totfact> 0.17813972E+05</totfact>
</mgrwt>
</event>
<event>
 6    1  0.4424270E-002  0.1328245E+03  0.7546771E-02  0.1223324E+00
         21   -1    0    0  503  502  0.00000000000E+00  0.00000000000E+00  0.26115193749E+03  0.26115193749E+03  0.00000000000E+00 0.  1.
         21   -1    0    0  504  503 -0.00000000000E+00 -0.00000000000E+00 -0.62599912462E+02  0.62599912462E+02  0.00000000000E+00 0.  1.
         25    2    1    2    0    0  0.28361866059E+02  0.34835413600E+02  0.13710571454E+02  0.13353023066E+03  0.12499776495E+03 0.  0.
          5    1    3    3  501    0 -0.97675094232E+01 -0.25943731360E+02  0.46896997363E+02  0.54477700014E+02  0.10000000000E+00 0.  1.
         -5    1    3    3    0  501  0.38129375482E+02  0.60779144960E+02 -0.33186425909E+02  0.79052530645E+02  0.10000000000E+00 0.  1.
         21    1    1    2  504  502 -0.28361866059E+02 -0.34835413600E+02  0.18484145357E+03  0.19022161929E+03  0.00000000000E+00 0.  1.
<mgrwt>
<rscale>  1 0.13282448E+03</rscale>
<asrwt>0</asrwt>
<pdfrwt beam="1">  1       21 0.40177221E-01 0.13282448E+03</pdfrwt>
<pdfrwt beam="2">  1       21 0.96307559E-02 0.13282448E+03</pdfrwt>
<totfact> 0.52169339E+05</totfact>
</mgrwt>
</event>
<event>
 6    1  0.4424270E-002  0.1265237E+03  0.7546771E-02  0.1232707E+00
         21   -1    0    0  503  502  0.00000000000E+00  0.00000000000E+00  0.55358247882E+03  0.55358247882E+03  0.00000000000E+00 0. -1.
         21   -1    0    0  504  503 -0.00000000000E+00 -0.00000000000E+00 -0.98182042127E+01  0.98182042127E+01  0.00000000000E+00 0. -1.
         25    2    1    2    0    0  0.95366091371E+01  0.17117049201E+02  0.44128741446E+03  0.45906733672E+03  0.12499718875E+03 0.  0.
          5    1    3    3  501    0  0.35616069333E+02 -0.14656060071E+02  0.39614955074E+03  0.39801731249E+03  0.10000000000E+00 0.  1.
         -5    1    3    3    0  501 -0.26079460196E+02  0.31773109273E+02  0.45137863716E+02  0.61050024225E+02  0.10000000000E+00 0.  1.
         21    1    1    2  504  502 -0.95366091371E+01 -0.17117049201E+02  0.10247686015E+03  0.10433334631E+03  0.00000000000E+00 0.  1.
<mgrwt>
<rscale>  1 0.12652366E+03</rscale>
<asrwt>0</asrwt>
<pdfrwt beam="1">  1       21 0.85166511E-01 0.12652366E+03</pdfrwt>
<pdfrwt beam="2">  1       21 0.15104934E-02 0.12652366E+03</pdfrwt>
<totfact> 0.23054142E+06</totfact>
</mgrwt>
</event>
<event>
 6    1  0.4424270E-002  0.1310234E+03  0.7546771E-02  0.1225945E+00
         21   -1    0    0  503  502  0.00000000000E+00  0.00000000000E+00  0.20602229703E+03  0.20602229703E+03  0.00000000000E+00 0.  1.
         21   -1    0    0  504  503 -0.00000000000E+00 -0.00000000000E+00 -0.37305628660E+02  0.37305628660E+02  0.00000000000E+00 0.  1.
         25    2    1    2    0    0  0.35043152041E+02 -0.17665840372E+02  0.10249031518E+03  0.16634718603E+03  0.12500806844E+03 0.  0.
          5    1    3    3  501    0 -0.10593523202E+02 -0.13904077906E+02 -0.25214316779E+02  0.30680904271E+02  0.10000000000E+00 0. -1.
         -5    1    3    3    0  501  0.45636675243E+02 -0.37617624667E+01  0.12770463196E+03  0.13566628176E+03  0.10000000000E+00 0. -1.
         21    1    1    2  504  502 -0.35043152041E+02  0.17665840372E+02  0.66226353193E+02  0.76980739658E+02  0.00000000000E+00 0.  1.
<mgrwt>
<rscale>  1 0.13102336E+03</rscale>
<asrwt>0</asrwt>
<pdfrwt beam="1">  1       21 0.31695737E-01 0.13102336E+03</pdfrwt>
<pdfrwt beam="2">  1       21 0.57393276E-02 0.13102336E+03</pdfrwt>
<totfact> 0.20255513E+06</totfact>
</mgrwt>
</event>
<event>
 6    1  0.4424270E-002  0.1263932E+03  0.7546771E-02  0.1232908E+00
         21   -1    0    0  504  502  0.00000000000E+00  0.00000000000E+00  0.59023813983E+02  0.59023813983E+02  0.00000000000E+00 0.  1.
         21   -1    0    0  502  503 -0.00000000000E+00 -0.00000000000E+00 -0.92359299083E+02  0.92359299083E+02  0.00000000000E+00 0.  1.
         25    2    1    2    0    0 -0.30921921487E+00  0.18673162152E+02 -0.38282014689E+02  0.13206341441E+03  0.12500580057E+03 0.  0.
          5    1    3    3  501    0 -0.32932003594E+02 -0.35288214423E+02 -0.48221908430E+02  0.68228567261E+02  0.10000000000E+00 0. -1.
         -5    1    3    3    0  501  0.32622784379E+02  0.53961376576E+02  0.99398937413E+01  0.63834847146E+02  0.10000000000E+00 0. -1.
         21    1    1    2  504  503  0.30921921487E+00 -0.18673162152E+02  0.49465295888E+01  0.19319698659E+02  0.00000000000E+00 0.  1.
<mgrwt>
<rscale>  1 0.12639317E+03</rscale>
<asrwt>0</asrwt>
<pdfrwt beam="1">  1       21 0.90805868E-02 0.12639317E+03</pdfrwt>
<pdfrwt beam="2">  1       21 0.14209123E-01 0.12639317E+03</pdfrwt>
<totfact> 0.41040750E+06</totfact>
</mgrwt>
</event>
<event>
 6    1  0.4424270E-002  0.1325972E+03  0.7546771E-02  0.1223652E+00
         21   -1    0    0  504  502  0.00000000000E+00  0.00000000000E+00  0.25039997985E+02  0.25039997985E+02  0.00000000000E+00 0. -1.
         21   -1    0    0  502  503 -0.00000000000E+00 -0.00000000000E+00 -0.31231292170E+03  0.31231292170E+03  0.00000000000E+00 0. -1.
         25    2    1    2    0    0 -0.43357607853E+02 -0.88225206560E+01 -0.21308603247E+03  0.25097344375E+03  0.12499717279E+03 0.  0.
          5    1    3    3  501    0 -0.52504448155E+02 -0.47558092633E+02 -0.60117753953E+02  0.92912020704E+02  0.10000000000E+00 0. -1.
         -5    1    3    3    0  501  0.91468403019E+01  0.38735571977E+02 -0.15296827852E+03  0.15806142305E+03  0.10000000000E+00 0. -1.
         21    1    1    2  504  503  0.43357607853E+02  0.88225206560E+01 -0.74186891248E+02  0.86379475933E+02  0.00000000000E+00 0. -1.
<mgrwt>
<rscale>  1 0.13259718E+03</rscale>
<asrwt>0</asrwt>
<pdfrwt beam="1">  1       21 0.38523072E-02 0.13259718E+03</pdfrwt>
<pdfrwt beam="2">  1       21 0.48048144E-01 0.13259718E+03</pdfrwt>
<totfact> 0.17232124E+06</totfact>
</mgrwt>
</event>
<event>
 6    1  0.4424270E-002  0.1589981E+03  0.7546771E-02  0.1189833E+00
         21   -1    0    0  504  502  0.00000000000E+00  0.00000000000E+00  0.24496097341E+03  0.24496097341E+03  0.00000000000E+00 0. -1.
         21   -1    0    0  502  503 -0.00000000000E+00 -0.00000000000E+00 -0.15956768545E+03  0.15956768545E+03  0.00000000000E+00 0. -1.
         25    2    1    2    0    0 -0.98231560073E+02  0.22123648201E+01 -0.10481715401E+03  0.19043908372E+03  0.12500429945E+03 0.  0.
          5    1    3    3  501    0 -0.11726644006E+03  0.33841443879E+02 -0.78878325249E+02  0.14532192361E+03  0.10000000000E+00 0. -1.
         -5    1    3    3    0  501  0.19034879990E+02 -0.31629079059E+02 -0.25938828763E+02  0.45117160105E+02  0.10000000000E+00 0. -1.
         21    1    1    2  504  503  0.98231560073E+02 -0.22123648201E+01  0.19021044197E+03  0.21408957515E+03  0.00000000000E+00 0. -1.
<mgrwt>
<rscale>  1 0.15899814E+03</rscale>
<asrwt>0</asrwt>
<pdfrwt beam="1">  1       21 0.37686303E-01 0.15899814E+03</pdfrwt>
<pdfrwt beam="2">  1       21 0.24548875E-01 0.15899814E+03</pdfrwt>
<totfact> 0.10786885E+05</totfact>
</mgrwt>
</event>
<event>
 6    1  0.4424270E-002  0.1267180E+03  0.7546771E-02  0.1232409E+00
         21   -1    0    0  504  502  0.00000000000E+00  0.00000000000E+00  0.62336217056E+02  0.62336217056E+02  0.00000000000E+00 0. -1.
         21   -1    0    0  502  503 -0.00000000000E+00 -0.00000000000E+00 -0.88566714789E+02  0.88566714789E+02  0.00000000000E+00 0. -1.
         25    2    1    2    0    0  0.19348030285E+02 -0.75531482383E+01 -0.15918723347E+02  0.12771394706E+03  0.12500420072E+03 0.  0.
          5    1    3    3  501    0  0.32537503250E+02  0.66570141288E+01 -0.66068776169E+02  0.73946589775E+02  0.10000000000E+00 0.  1.
         -5    1    3    3    0  501 -0.13189472964E+02 -0.14210162367E+02  0.50150052822E+02  0.53767357287E+02  0.10000000000E+00 0.  1.
         21    1    1    2  504  503 -0.19348030285E+02  0.75531482383E+01 -0.10311774386E+02  0.23188984782E+02  0.00000000000E+00 0. -1.
<mgrwt>
<rscale>  1 0.12671798E+03</rscale>
<asrwt>0</asrwt>
<pdfrwt beam="1">  1       21 0.95901873E-02 0.12671798E+03</pdfrwt>
<pdfrwt beam="2">  1       21 0.13625648E-01 0.12671798E+03</pdfrwt>
<totfact> 0.40235637E+06</totfact>
</mgrwt>
</event>
<event>
 6    1  0.4424270E-002  0.1624795E+03  0.7546771E-02  0.1185926E+00
         21   -1    0    0  503  502  0.00000000000E+00  0.00000000000E+00  0.46028248079E+03  0.46028248079E+03  0.00000000000E+00 0.  1.
         21   -1    0    0  504  503 -0.00000000000E+00 -0.00000000000E+00 -0.77396596889E+03  0.77396596889E+03  0.00000000000E+00 0. -1.
         25    2    1    2    0    0 -0.31476290860E+02  0.98917305152E+02 -0.75940843433E+03  0.77659561417E+03  0.12499675064E+03 0.  0.
          5    1    3    3  501    0 -0.73020673104E+02  0.24091245171E+02 -0.35762247714E+03  0.36579537032E+03  0.10000000000E+00 0.  1.
         -5    1    3    3    0  501  0.41544382244E+02  0.74826059982E+02 -0.40178595719E+03  0.41080024385E+03  0.10000000000E+00 0.  1.
         21    1    1    2  504  502  0.31476290860E+02 -0.98917305152E+02  0.44572494624E+03  0.45765283550E+03  0.00000000000E+00 0.  1.
<mgrwt>
<rscale>  1 0.16247947E+03</rscale>
<asrwt>0</asrwt>
<pdfrwt beam="1">  1       21 0.70812690E-01 0.16247947E+03</pdfrwt>
<pdfrwt beam="2">  1       21 0.11907169E+00 0.16247947E+03</pdfrwt>
<totfact> 0.10051264E+03</totfact>
</mgrwt>
</event>
<event>
 6    1  0.4424270E-002  0.1273005E+03  0.7546771E-02  0.1231517E+00
         21   -1    0    0  503  502  0.00000000000E+00  0.00000000000E+00  0.52442566429E+02  0.52442566429E+02  0.00000000000E+00 0.  1.
         21   -1    0    0  504  503 -0.00000000000E+00 -0.00000000000E+00 -0.12637067957E+03  0.12637067957E+03  0.00000000000E+00 0.  1.
         25    2    1    2    0    0 -0.19715998579E+02 -0.13860199380E+02 -0.33314885111E+02  0.13158761717E+03  0.12499837478E+03 0.  0.
          5    1    3    3  501    0 -0.62447945142E+02 -0.34393000046E+02 -0.42920180442E+02  0.83215240154E+02  0.10000000000E+00 0.  1.
         -5    1    3    3    0  501  0.42731946564E+02  0.20532800665E+02  0.96052953305E+01  0.48372377021E+02  0.10000000000E+00 0.  1.
         21    1    1    2  504  502  0.19715998579E+02  0.13860199380E+02 -0.40613228029E+02  0.47225628823E+02  0.00000000000E+00 0.  1.
<mgrwt>
<rscale>  1 0.12730051E+03</rscale>
<asrwt>0</asrwt>
<pdfrwt beam="1">  1       21 0.80680872E-02 0.12730051E+03</pdfrwt>
<pdfrwt beam="2">  1       21 0.19441643E-01 0.12730051E+03</pdfrwt>
<totfact> 0.28490762E+06</totfact>
</mgrwt>
</event>
<event>
 6    1  0.4424270E-002  0.1298162E+03  0.7546771E-02  0.1227729E+00
         21   -1    0    0  503  502  0.00000000000E+00  0.00000000000E+00  0.16020002881E+04  0.16020002881E+04  0.00000000000E+00 0.  1.
         21   -1    0    0  504  503 -0.00000000000E+00 -0.00000000000E+00 -0.82747603877E+01  0.82747603877E+01  0.00000000000E+00 0.  1.
         25    2    1    2    0    0  0.19826737486E+02 -0.28895130477E+02  0.51936334742E+03  0.53534150518E+03  0.12499684972E+03 0.  0.
          5    1    3    3  501    0  0.75411668885E+01 -0.78420511117E+02  0.31242759219E+03  0.32220747373E+03  0.10000000000E+00 0. -1.
         -5    1    3    3    0  501  0.12285570597E+02  0.49525380640E+02  0.20693575523E+03  0.21313403145E+03  0.10000000000E+00 0. -1.
         21    1    1    2  504  502 -0.19826737486E+02  0.28895130477E+02  0.10743621803E+04  0.10749335433E+04  0.00000000000E+00 0.  1.
<mgrwt>
<rscale>  1 0.12981618E+03</rscale>
<asrwt>0</asrwt>
<pdfrwt beam="1">  1       21 0.24646134E+00 0.12981618E+03</pdfrwt>
<pdfrwt beam="2">  1       21 0.12730413E-02 0.12981618E+03</pdfrwt>
<totfact> 0.18574223E+05</totfact>
</mgrwt>
</event>
<event>
 6    1  0.4424270E-002  0.1349838E+03  0.7546771E-02  0.1220243E+00
         21   -1    0    0  504  502  0.00000000000E+00  0.00000000000E+00  0.17096474637E+04  0.17096474637E+04  0.00000000000E+00 0. -1.
         21   -1    0    0  502  503 -0.00000000000E+00 -0.00000000000E+00 -0.71188211607E+02  0.71188211607E+02  0.00000000000E+00 0. -1.
         25    2    1    2    0    0 -0.47359259311E+02  0.18830903404E+02 -0.64492818039E+01  0.13513777251E+03  0.12499248761E+03 0.  0.
          5    1    3    3  501    0 -0.42383219562E+02  0.49382028334E+01  0.56318985491E+02  0.70658058807E+02  0.10000000000E+00 0. -1.
         -5    1    3    3    0  501 -0.49760397496E+01  0.13892700571E+02 -0.62768267294E+02  0.64479713708E+02  0.10000000000E+00 0. -1.
         21    1    1    2  504  503  0.47359259311E+02 -0.18830903404E+02  0.16449085339E+04  0.16456979028E+04  0.00000000000E+00 0. -1.
<mgrwt>
<rscale>  1 0.13498379E+03</rscale>
<asrwt>0</asrwt>
<pdfrwt beam="1">  1       21 0.26302266E+00 0.13498379E+03</pdfrwt>
<pdfrwt beam="2">  1       21 0.10952034E-01 0.13498379E+03</pdfrwt>
<totfact> 0.41431270E+03</totfact>
</mgrwt>
</event>
<event>
 6    1  0.4424270E-002  0.1276575E+03  0.7546771E-02  0.1230974E+00
         21   -1    0    0  504  502  0.00000000000E+00  0.00000000000E+00  0.48547768077E+02  0.48547768077E+02  0.00000000000E+00 0. -1.
         21   -1    0    0  502  503 -0.00000000000E+00 -0.00000000000E+00 -0.14214804142E+03  0.14214804142E+03  0.00000000000E+00 0. -1.
         25    2    1    2    0    0  0.16265143914E+02  0.20177130139E+02 -0.10205283076E+03  0.16343563316E+03  0.12499901773E+03 0.  0.
          5    1    3    3  501    0  0.68623130048E+02  0.28670792946E+02 -0.64506228128E+02  0.98449031550E+02  0.10000000000E+00 0. -1.
         -5    1    3    3    0  501 -0.52357986134E+02 -0.84936628067E+01 -0.37546602631E+02  0.64986601612E+02  0.10000000000E+00 0. -1.
         21    1    1    2  504  503 -0.16265143914E+02 -0.20177130139E+02  0.84525574118E+01  0.27260176339E+02  0.00000000000E+00 0. -1.
<mgrwt>
<rscale>  1 0.12765746E+03</rscale>
<asrwt>0</asrwt>
<pdfrwt beam="1">  1       21 0.74688873E-02 0.12765746E+03</pdfrwt>
<pdfrwt beam="2">  1       21 0.21868930E-01 0.12765746E+03</pdfrwt>
<totfact> 0.26163297E+06</totfact>
</mgrwt>
</event>
<event>
 6    1  0.4424270E-002  0.1264124E+03  0.7546771E-02  0.1232878E+00
         21   -1    0    0  504  502  0.00000000000E+00  0.00000000000E+00  0.32703872694E+02  0.32703872694E+02  0.00000000000E+00 0.  1.
         21   -1    0    0  502  503 -0.00000000000E+00 -0.00000000000E+00 -0.16469897107E+03  0.16469897107E+03  0.00000000000E+00 0.  1.
         25    2    1    2    0    0  0.18903052767E+02  0.14866160839E+01 -0.12314097155E+03  0.17647604293E+03  0.12498223643E+03 0.  0.
          5    1    3    3  501    0 -0.32102348671E+02 -0.61626341515E+01  0.95984896094E+01  0.34068751851E+02  0.10000000000E+00 0. -1.
         -5    1    3    3    0  501  0.51005401438E+02  0.76492502354E+01 -0.13273946116E+03  0.14240729108E+03  0.10000000000E+00 0. -1.
         21    1    1    2  504  503 -0.18903052767E+02 -0.14866160839E+01 -0.88541268335E+01  0.20926800837E+02  0.00000000000E+00 0.  1.
<mgrwt>
<rscale>  1 0.12641240E+03</rscale>
<asrwt>0</asrwt>
<pdfrwt beam="1">  1       21 0.50313649E-02 0.12641240E+03</pdfrwt>
<pdfrwt beam="2">  1       21 0.25338304E-01 0.12641240E+03</pdfrwt>
<totfact> 0.38785791E+06</totfact>
</mgrwt>
</event>
<event>
 6    1  0.4424270E-002  0.1445684E+03  0.7546771E-02  0.1207311E+00
         21   -1    0    0  503  502  0.00000000000E+00  0.00000000000E+00  0.49754229099E+03  0.49754229099E+03  0.00000000000E+00 0.  1.
         21   -1    0    0  504  503 -0.00000000000E+00 -0.00000000000E+00 -0.80589051625E+02  0.80589051625E+02  0.00000000000E+00 0.  1.
         25    2    1    2    0    0 -0.44733716575E+02  0.57226916380E+02 -0.10122820052E+02  0.14492240240E+03  0.12499602343E+03 0.  0.
          5    1    3    3  501    0 -0.37255808057E+02 -0.26932987660E+02  0.26245681567E+02  0.52936063880E+02  0.10000000000E+00 0.  1.
         -5    1    3    3    0  501 -0.74779085186E+01  0.84159904040E+02 -0.36368501618E+02  0.91986338517E+02  0.10000000000E+00 0.  1.
         21    1    1    2  504  502  0.44733716575E+02 -0.57226916380E+02  0.42707605941E+03  0.43320894021E+03  0.00000000000E+00 0.  1.
<mgrwt>
<rscale>  1 0.14456843E+03</rscale>
<asrwt>0</asrwt>
<pdfrwt beam="1">  1       21 0.76544966E-01 0.14456843E+03</pdfrwt>
<pdfrwt beam="2">  1       21 0.12398316E-01 0.14456843E+03</pdfrwt>
<totfact> 0.85800638E+04</totfact>
</mgrwt>
</event>
<event>
 6    1  0.4424270E-002  0.1259025E+03  0.7546771E-02  0.1233666E+00
         21   -1    0    0  504  502  0.00000000000E+00  0.00000000000E+00  0.51460400818E+03  0.51460400818E+03  0.00000000000E+00 0.  1.
         21   -1    0    0  502  503 -0.00000000000E+00 -0.00000000000E+00 -0.19105443369E+02  0.19105443369E+02  0.00000000000E+00 0.  1.
         25    2    1    2    0    0  0.89679785994E+01  0.12082064220E+02  0.19053381905E+03  0.22837373947E+03  0.12500011104E+03 0.  0.
          5    1    3    3  501    0 -0.26233791754E+02 -0.30497573157E+02  0.16055347240E+03  0.16551658920E+03  0.10000000000E+00 0.  1.
         -5    1    3    3    0  501  0.35201770354E+02  0.42579637376E+02  0.29980346648E+02  0.62857150272E+02  0.10000000000E+00 0.  1.
         21    1    1    2  504  503 -0.89679785994E+01 -0.12082064220E+02  0.30496474576E+03  0.30533571209E+03  0.00000000000E+00 0.  1.
<mgrwt>
<rscale>  1 0.12590246E+03</rscale>
<asrwt>0</asrwt>
<pdfrwt beam="1">  1       21 0.79169837E-01 0.12590246E+03</pdfrwt>
<pdfrwt beam="2">  1       21 0.29392994E-02 0.12590246E+03</pdfrwt>
<totfact> 0.92591083E+05</totfact>
</mgrwt>
</event>
<event>
 6    1  0.4424270E-002  0.1269541E+03  0.7546771E-02  0.1232047E+00
         21   -1    0    0  504  502  0.00000000000E+00  0.00000000000E+00  0.99416952164E+02  0.99416952164E+02  0.00000000000E+00 0.  1.
         21   -1    0    0  502  503 -0.00000000000E+00 -0.00000000000E+00 -0.66243188518E+02  0.66243188518E+02  0.00000000000E+00 0.  1.
         25    2    1    2    0    0 -0.12710203362E+02 -0.18184067889E+02  0.14674629439E+01  0.12696260719E+03  0.12500056232E+03 0.  0.
          5    1    3    3  501    0  0.17884960085E+02 -0.66957004664E+02  0.29684944680E+01  0.69368106722E+02  0.10000000000E+00 0.  1.
         -5    1    3    3    0  501 -0.30595163447E+02  0.48772936775E+02 -0.15010315240E+01  0.57594500463E+02  0.10000000000E+00 0.  1.
         21    1    1    2  504  503  0.12710203362E+02  0.18184067889E+02  0.31706300702E+02  0.38697533496E+02  0.00000000000E+00 0.  1.
<mgrwt>
<rscale>  1 0.12695413E+03</rscale>
<asrwt>0</asrwt>
<pdfrwt beam="1">  1       21 0.15294916E-01 0.12695413E+03</pdfrwt>
<pdfrwt beam="2">  1       21 0.10191260E-01 0.12695413E+03</pdfrwt>
<totfact> 0.29400065E+06</totfact>
</mgrwt>
</event>
<event>
 6    1  0.4424270E-002  0.1294769E+03  0.7546771E-02  0.1228234E+00
         21   -1    0    0  504  502  0.00000000000E+00  0.00000000000E+00  0.39745018085E+02  0.39745018085E+02  0.00000000000E+00 0.  1.
         21   -1    0    0  502  503 -0.00000000000E+00 -0.00000000000E+00 -0.83309441404E+03  0.83309441404E+03  0.00000000000E+00 0.  1.
         25    2    1    2    0    0  0.14756669980E+01  0.33512288310E+02 -0.81989897836E+03  0.83005939721E+03  0.12505605590E+03 0.  0.
          5    1    3    3  501    0 -0.32974054111E+02 -0.37045193695E+02 -0.37789333123E+03  0.38113385367E+03  0.10000000000E+00 0. -1.
         -5    1    3    3    0  501  0.34449721109E+02  0.70557482005E+02 -0.44200564713E+03  0.44892554354E+03  0.10000000000E+00 0. -1.
         21    1    1    2  504  503 -0.14756669980E+01 -0.33512288310E+02  0.26549582411E+02  0.42780034912E+02  0.00000000000E+00 0.  1.
<mgrwt>
<rscale>  1 0.12947690E+03</rscale>
<asrwt>0</asrwt>
<pdfrwt beam="1">  1       21 0.61146181E-02 0.12947690E+03</pdfrwt>
<pdfrwt beam="2">  1       21 0.12816837E+00 0.12947690E+03</pdfrwt>
<totfact> 0.88155809E+04</totfact>
</mgrwt>
</event>
<event>
 6    1  0.4424270E-002  0.1267810E+03  0.7546771E-02  0.1232312E+00
         21   -1    0    0  504  502  0.00000000000E+00  0.00000000000E+00  0.12938384915E+03  0.12938384915E+03  0.00000000000E+00 0. -1.
         21   -1    0    0  502  503 -0.00000000000E+00 -0.00000000000E+00 -0.61318490906E+03  0.61318490906E+03  0.00000000000E+00 0. -1.
         25    2    1    2    0    0  0.99360711579E+01 -0.18668864995E+02 -0.60571153558E+03  0.61883753293E+03  0.12500470312E+03 0.  0.
          5    1    3    3  501    0 -0.50487207266E+01  0.53002331988E+02 -0.23363288139E+03  0.23962276612E+03  0.10000000000E+00 0. -1.
         -5    1    3    3    0  501  0.14984791885E+02 -0.71671196983E+02 -0.37207865419E+03  0.37921476681E+03  0.10000000000E+00 0. -1.
         21    1    1    2  504  503 -0.99360711579E+01  0.18668864995E+02  0.12191047567E+03  0.12373122528E+03  0.00000000000E+00 0. -1.
<mgrwt>
<rscale>  1 0.12678102E+03</rscale>
<asrwt>0</asrwt>
<pdfrwt beam="1">  1       21 0.19905207E-01 0.12678102E+03</pdfrwt>
<pdfrwt beam="2">  1       21 0.94336141E-01 0.12678102E+03</pdfrwt>
<totfact> 0.22895931E+04</totfact>
</mgrwt>
</event>
<event>
 6    1  0.4424270E-002  0.1264513E+03  0.7546771E-02  0.1232818E+00
         21   -1    0    0  504  502  0.00000000000E+00  0.00000000000E+00  0.15879670922E+02  0.15879670922E+02  0.00000000000E+00 0.  1.
         21   -1    0    0  502  503 -0.00000000000E+00 -0.00000000000E+00 -0.51957545604E+03  0.51957545604E+03  0.00000000000E+00 0. -1.
         25    2    1    2    0    0 -0.96603578568E+01  0.16488506574E+02 -0.50031604792E+03  0.51604853049E+03  0.12499897861E+03 0.  0.
          5    1    3    3  501    0  0.35353982966E+02 -0.40321598675E+02 -0.23173562061E+03  0.23785950326E+03  0.10000000000E+00 0.  1.
         -5    1    3    3    0  501 -0.45014340823E+02  0.56810105249E+02 -0.26858042732E+03  0.27818902724E+03  0.10000000000E+00 0.  1.
         21    1    1    2  504  503  0.96603578568E+01 -0.16488506574E+02 -0.33797371958E+01  0.19406596468E+02  0.00000000000E+00 0.  1.
<mgrwt>
<rscale>  1 0.12645133E+03</rscale>
<asrwt>0</asrwt>
<pdfrwt beam="1">  1       21 0.24430262E-02 0.12645133E+03</pdfrwt>
<pdfrwt beam="2">  1       21 0.79934690E-01 0.12645133E+03</pdfrwt>
<totfact> 0.12254064E+06</totfact>
</mgrwt>
</event>
<event>
 6    1  0.4424270E-002  0.1390720E+03  0.7546771E-02  0.1214583E+00
         21   -1    0    0  504  502  0.00000000000E+00  0.00000000000E+00  0.13805718319E+03  0.13805718319E+03  0.00000000000E+00 0.  1.
         21   -1    0    0  502  503 -0.00000000000E+00 -0.00000000000E+00 -0.79694989012E+02  0.79694989012E+02  0.00000000000E+00 0.  1.
         25    2    1    2    0    0 -0.32693961710E+02  0.51473209621E+02  0.91146863635E+01  0.13937039201E+03  0.12499056852E+03 0.  0.
          5    1    3    3  501    0 -0.50371311647E+02  0.16203263725E+01  0.51150293101E+02  0.71807081676E+02  0.10000000000E+00 0.  1.
         -5    1    3    3    0  501  0.17677349936E+02  0.49852883248E+02 -0.42035606738E+02  0.67563310330E+02  0.10000000000E+00 0.  1.
         21    1    1    2  504  503  0.32693961710E+02 -0.51473209621E+02  0.49247507819E+02  0.78381780200E+02  0.00000000000E+00 0.  1.
<mgrwt>
<rscale>  1 0.13907203E+03</rscale>
<asrwt>0</asrwt>
<pdfrwt beam="1">  1       21 0.21239567E-01 0.13907203E+03</pdfrwt>
<pdfrwt beam="2">  1       21 0.12260768E-01 0.13907203E+03</pdfrwt>
<totfact> 0.11648898E+06</totfact>
</mgrwt>
</event>
<event>
 6    1  0.4424270E-002  0.1290485E+03  0.7546771E-02  0.1228874E+00
         21   -1    0    0  503  502  0.00000000000E+00  0.00000000000E+00  0.23559922367E+03  0.23559922367E+03  0.00000000000E+00 0. -1.
         21   -1    0    0  504  503 -0.00000000000E+00 -0.00000000000E+00 -0.80517847063E+02  0.80517847063E+02  0.00000000000E+00 0.  1.
         25    2    1    2    0    0  0.30973678940E+02 -0.86340063706E+01 -0.26474178899E+02  0.13173612110E+03  0.12497843254E+03 0.  0.
          5    1    3    3  501    0  0.71799396920E+02 -0.21075680682E+02  0.10127893204E+02  0.75511071606E+02  0.10000000000E+00 0.  1.
         -5    1    3    3    0  501 -0.40825717981E+02  0.12441674311E+02 -0.36602072103E+02  0.56225049494E+02  0.10000000000E+00 0.  1.
         21    1    1    2  504  502 -0.30973678940E+02  0.86340063706E+01  0.18155555551E+03  0.18438094964E+03  0.00000000000E+00 0. -1.
<mgrwt>
<rscale>  1 0.12904853E+03</rscale>
<asrwt>0</asrwt>
<pdfrwt beam="1">  1       21 0.36246034E-01 0.12904853E+03</pdfrwt>
<pdfrwt beam="2">  1       21 0.12387361E-01 0.12904853E+03</pdfrwt>
<totfact> 0.41109342E+05</totfact>
</mgrwt>
</event>
<event>
 6    1  0.4424270E-002  0.1271340E+03  0.7546771E-02  0.1231771E+00
         21   -1    0    0  503  502  0.00000000000E+00  0.00000000000E+00  0.78454969705E+02  0.78454969705E+02  0.00000000000E+00 0. -1.
         21   -1    0    0  504  503 -0.00000000000E+00 -0.00000000000E+00 -0.11557413279E+03  0.11557413279E+03  0.00000000000E+00 0. -1.
         25    2    1    2    0    0 -0.18518296132E+02 -0.13988664829E+02 -0.76458532449E+02  0.14835420768E+03  0.12499781485E+03 0.  0.
          5    1    3    3  501    0  0.23060257249E+02  0.20012865686E+02  0.21011758243E+02  0.37064730429E+02  0.10000000000E+00 0. -1.
         -5    1    3    3    0  501 -0.41578553380E+02 -0.34001530515E+02 -0.97470290692E+02  0.11128947725E+03  0.10000000000E+00 0. -1.
         21    1    1    2  504  502  0.18518296132E+02  0.13988664829E+02  0.39339369360E+02  0.45674894822E+02  0.00000000000E+00 0. -1.
<mgrwt>
<rscale>  1 0.12713404E+03</rscale>
<asrwt>0</asrwt>
<pdfrwt beam="1">  1       21 0.12069995E-01 0.12713404E+03</pdfrwt>
<pdfrwt beam="2">  1       21 0.17780636E-01 0.12713404E+03</pdfrwt>
<totfact> 0.16603278E+06</totfact>
</mgrwt>
</event>
<event>
 6    1  0.4424270E-002  0.1338525E+03  0.7546771E-02  0.1221849E+00
         21   -1    0    0  504  502  0.00000000000E+00  0.00000000000E+00  0.41082690354E+02  0.41082690354E+02  0.00000000000E+00 0.  1.
         21   -1    0    0  502  503 -0.00000000000E+00 -0.00000000000E+00 -0.32864877064E+03  0.32864877064E+03  0.00000000000E+00 0.  1.
         25    2    1    2    0    0 -0.33610374237E+02 -0.34025959987E+02 -0.29247908988E+03  0.32165276641E+03  0.12501624260E+03 0.  0.
          5    1    3    3  501    0 -0.35039404481E+02  0.40208657861E+02 -0.76411016425E+02  0.93183418399E+02  0.10000000000E+00 0. -1.
         -5    1    3    3    0  501  0.14290302436E+01 -0.74234617848E+02 -0.21606807346E+03  0.22846934801E+03  0.10000000000E+00 0. -1.
         21    1    1    2  504  503  0.33610374237E+02  0.34025959987E+02  0.49130095958E+01  0.48078694582E+02  0.00000000000E+00 0.  1.
<mgrwt>
<rscale>  1 0.13385247E+03</rscale>
<asrwt>0</asrwt>
<pdfrwt beam="1">  1       21 0.63204140E-02 0.13385247E+03</pdfrwt>
<pdfrwt beam="2">  1       21 0.50561349E-01 0.13385247E+03</pdfrwt>
<totfact> 0.67528226E+05</totfact>
</mgrwt>
</event>
<event>
 6    1  0.4424270E-002  0.1268977E+03  0.7546771E-02  0.1232133E+00
         21   -1    0    0  504  502  0.00000000000E+00  0.00000000000E+00  0.26029329236E+02  0.26029329236E+02  0.00000000000E+00 0. -1.
         21   -1    0    0  502  503 -0.00000000000E+00 -0.00000000000E+00 -0.33872809938E+03  0.33872809938E+03  0.00000000000E+00 0. -1.
         25    2    1    2    0    0  0.76421304306E+01 -0.20491025386E+02 -0.31788818302E+03  0.34228045629E+03  0.12499891831E+03 0.  0.
          5    1    3    3  501    0  0.39556244925E+02 -0.36348693070E+02 -0.29516861836E+03  0.30001741160E+03  0.10000000000E+00 0. -1.
         -5    1    3    3    0  501 -0.31914114494E+02  0.15857667684E+02 -0.22719564662E+02  0.42263044693E+02  0.10000000000E+00 0. -1.
         21    1    1    2  504  503 -0.76421304306E+01  0.20491025386E+02  0.51894128737E+01  0.22476972324E+02  0.00000000000E+00 0. -1.
<mgrwt>
<rscale>  1 0.12689765E+03</rscale>
<asrwt>0</asrwt>
<pdfrwt beam="1">  1       21 0.40045119E-02 0.12689765E+03</pdfrwt>
<pdfrwt beam="2">  1       21 0.52112019E-01 0.12689765E+03</pdfrwt>
<totfact> 0.13655532E+06</totfact>
</mgrwt>
</event>
<event>
 6    1  0.4424270E-002  0.1270780E+03  0.7546771E-02  0.1231857E+00
         21   -1    0    0  504  502  0.00000000000E+00  0.00000000000E+00  0.89067964765E+01  0.89067964765E+01  0.00000000000E+00 0. -1.
         21   -1    0    0  502  503 -0.00000000000E+00 -0.00000000000E+00 -0.68440473811E+03  0.68440473811E+03  0.00000000000E+00 0. -1.
         25    2    1    2    0    0 -0.15295007857E+02 -0.16896615901E+02 -0.62669226909E+03  0.63944664281E+03  0.12501750262E+03 0.  0.
          5    1    3    3  501    0 -0.28411735558E+02 -0.50202149283E+02 -0.13970454261E+03  0.15114513468E+03  0.10000000000E+00 0. -1.
         -5    1    3    3    0  501  0.13116727701E+02  0.33305533382E+02 -0.48698772648E+03  0.48830150813E+03  0.10000000000E+00 0. -1.
         21    1    1    2  504  503  0.15295007857E+02  0.16896615901E+02 -0.48805672540E+02  0.53864891778E+02  0.00000000000E+00 0. -1.
<mgrwt>
<rscale>  1 0.12707796E+03</rscale>
<asrwt>0</asrwt>
<pdfrwt beam="1">  1       21 0.13702768E-02 0.12707796E+03</pdfrwt>
<pdfrwt beam="2">  1       21 0.10529301E+00 0.12707796E+03</pdfrwt>
<totfact> 0.16488600E+06</totfact>
</mgrwt>
</event>
<event>
 6    1  0.4424270E-002  0.1265220E+03  0.7546771E-02  0.1232710E+00
         21   -1    0    0  503  502  0.00000000000E+00  0.00000000000E+00  0.58776385764E+02  0.58776385764E+02  0.00000000000E+00 0. -1.
         21   -1    0    0  504  503 -0.00000000000E+00 -0.00000000000E+00 -0.91168835910E+02  0.91168835910E+02  0.00000000000E+00 0. -1.
         25    2    1    2    0    0  0.11030171216E+01  0.19524121443E+02 -0.24582015037E+02  0.12888789845E+03  0.12500162774E+03 0.  0.
          5    1    3    3  501    0 -0.56474308452E+01  0.67487171777E+02  0.11233544569E+02  0.68648483983E+02  0.10000000000E+00 0.  1.
         -5    1    3    3    0  501  0.67504479668E+01 -0.47963050334E+02 -0.35815559606E+02  0.60239414464E+02  0.10000000000E+00 0.  1.
         21    1    1    2  504  502 -0.11030171216E+01 -0.19524121443E+02 -0.78104351095E+01  0.21057323227E+02  0.00000000000E+00 0. -1.
<mgrwt>
<rscale>  1 0.12652199E+03</rscale>
<asrwt>0</asrwt>
<pdfrwt beam="1">  1       21 0.90425209E-02 0.12652199E+03</pdfrwt>
<pdfrwt beam="2">  1       21 0.14025975E-01 0.12652199E+03</pdfrwt>
<totfact> 0.42316456E+06</totfact>
</mgrwt>
</event>
<event>
 6    1  0.4424270E-002  0.1464819E+03  0.7546771E-02  0.1204864E+00
         21   -1    0    0  503  502  0.00000000000E+00  0.00000000000E+00  0.95374173516E+02  0.95374173516E+02  0.00000000000E+00 0.  1.
         21   -1    0    0  504  503 -0.00000000000E+00 -0.00000000000E+00 -0.15751186235E+03  0.15751186235E+03  0.00000000000E+00 0.  1.
         25    2    1    2    0    0 -0.13786715058E+02  0.75114384305E+02 -0.89619767368E+02  0.17172256575E+03  0.12499877057E+03 0.  0.
          5    1    3    3  501    0 -0.48444492205E+02  0.86153918974E+02 -0.92319435383E+02  0.13524886221E+03  0.10000000000E+00 0.  1.
         -5    1    3    3    0  501  0.34657777148E+02 -0.11039534669E+02  0.26996680147E+01  0.36473703540E+02  0.10000000000E+00 0.  1.
         21    1    1    2  504  502  0.13786715058E+02 -0.75114384305E+02  0.27482078531E+02  0.81163470120E+02  0.00000000000E+00 0.  1.
<mgrwt>
<rscale>  1 0.14648187E+03</rscale>
<asrwt>0</asrwt>
<pdfrwt beam="1">  1       21 0.14672950E-01 0.14648187E+03</pdfrwt>
<pdfrwt beam="2">  1       21 0.24232594E-01 0.14648187E+03</pdfrwt>
<totfact> 0.65941787E+05</totfact>
</mgrwt>
</event>
<event>
 6    1  0.4424270E-002  0.1266363E+03  0.7546771E-02  0.1232534E+00
         21   -1    0    0  504  502  0.00000000000E+00  0.00000000000E+00  0.53718894877E+03  0.53718894877E+03  0.00000000000E+00 0. -1.
         21   -1    0    0  502  503 -0.00000000000E+00 -0.00000000000E+00 -0.21030066800E+03  0.21030066800E+03  0.00000000000E+00 0. -1.
         25    2    1    2    0    0 -0.17851705676E+02 -0.95999352583E+01 -0.19102036357E+03  0.22918448846E+03  0.12500363315E+03 0.  0.
          5    1    3    3  501    0  0.29666633116E+01  0.45513553050E+02 -0.15156413173E+03  0.15827817484E+03  0.10000000000E+00 0.  1.
         -5    1    3    3    0  501 -0.20818368988E+02 -0.55113488308E+02 -0.39456231834E+02  0.70906313621E+02  0.10000000000E+00 0.  1.
         21    1    1    2  504  503  0.17851705676E+02  0.95999352583E+01  0.51790864434E+03  0.51830512831E+03  0.00000000000E+00 0. -1.
<mgrwt>
<rscale>  1 0.12663629E+03</rscale>
<asrwt>0</asrwt>
<pdfrwt beam="1">  1       21 0.82644453E-01 0.12663629E+03</pdfrwt>
<pdfrwt beam="2">  1       21 0.32353949E-01 0.12663629E+03</pdfrwt>
<totfact> 0.12336420E+04</totfact>
</mgrwt>
</event>
<event>
 6    1  0.4424270E-002  0.1259307E+03  0.7546771E-02  0.1233622E+00
         21   -1    0    0  503  502  0.00000000000E+00  0.00000000000E+00  0.61790417326E+02  0.61790417326E+02  0.00000000000E+00 0.  1.
         21   -1    0    0  504  503 -0.00000000000E+00 -0.00000000000E+00 -0.10626546253E+04  0.10626546253E+04  0.00000000000E+00 0. -1.
         25    2    1    2    0    0  0.13040372533E+02  0.79858508334E+01 -0.10579133149E+04  0.10653821462E+04  0.12499884206E+03 0.  0.
          5    1    3    3  501    0  0.60259061994E+02  0.54292639931E+00 -0.84603648741E+03  0.84817993218E+03  0.10000000000E+00 0.  1.
         -5    1    3    3    0  501 -0.47218689460E+02  0.74429244341E+01 -0.21187682751E+03  0.21720221407E+03  0.10000000000E+00 0.  1.
         21    1    1    2  504  502 -0.13040372533E+02 -0.79858508334E+01  0.57049106931E+02  0.59062896399E+02  0.00000000000E+00 0.  1.
<mgrwt>
<rscale>  1 0.12593068E+03</rscale>
<asrwt>0</asrwt>
<pdfrwt beam="1">  1       21 0.95062189E-02 0.12593068E+03</pdfrwt>
<pdfrwt beam="2">  1       21 0.16348531E+00 0.12593068E+03</pdfrwt>
<totfact> 0.22165228E+04</totfact>
</mgrwt>
</event>
<event>
 6    1  0.4424270E-002  0.1278379E+03  0.7546771E-02  0.1230700E+00
         21   -1    0    0  503  502  0.00000000000E+00  0.00000000000E+00  0.39946374208E+01  0.39946374208E+01  0.00000000000E+00 0.  1.
         21   -1    0    0  504  503 -0.00000000000E+00 -0.00000000000E+00 -0.22448132535E+04  0.22448132535E+04  0.00000000000E+00 0.  1.
         25    2    1    2    0    0 -0.17514320475E+02 -0.20284234560E+02 -0.21575281431E+04  0.21613121511E+04  0.12499729890E+03 0.  0.
          5    1    3    3  501    0  0.10173340977E+02 -0.49182276024E+02 -0.19025031308E+04  0.19031659323E+04  0.10000000000E+00 0. -1.
         -5    1    3    3    0  501 -0.27687661453E+02  0.28898041464E+02 -0.25502501227E+03  0.25814621880E+03  0.10000000000E+00 0. -1.
         21    1    1    2  504  502  0.17514320475E+02  0.20284234560E+02 -0.83290472962E+02  0.87495739780E+02  0.00000000000E+00 0.  1.
<mgrwt>
<rscale>  1 0.12783789E+03</rscale>
<asrwt>0</asrwt>
<pdfrwt beam="1">  1       21 0.61456083E-03 0.12783789E+03</pdfrwt>
<pdfrwt beam="2">  1       21 0.34535520E+00 0.12783789E+03</pdfrwt>
<totfact> 0.16091019E+05</totfact>
</mgrwt>
</event>
<event>
 6    1  0.4424270E-002  0.1291729E+03  0.7546771E-02  0.1228688E+00
         21   -1    0    0  504  502  0.00000000000E+00  0.00000000000E+00  0.85344946037E+02  0.85344946037E+02  0.00000000000E+00 0. -1.
         21   -1    0    0  502  503 -0.00000000000E+00 -0.00000000000E+00 -0.42776864917E+03  0.42776864917E+03  0.00000000000E+00 0. -1.
         25    2    1    2    0    0  0.32568387632E+02  0.72761951500E+00 -0.41442292016E+03  0.43408754534E+03  0.12499764383E+03 0.  0.
          5    1    3    3  501    0  0.57135095092E+02 -0.11308229082E+02 -0.39787458886E+03  0.40211502534E+03  0.10000000000E+00 0. -1.
         -5    1    3    3    0  501 -0.24566707461E+02  0.12035848597E+02 -0.16548331296E+02  0.31972520007E+02  0.10000000000E+00 0. -1.
         21    1    1    2  504  503 -0.32568387632E+02 -0.72761951500E+00  0.71999217032E+02  0.79026049859E+02  0.00000000000E+00 0. -1.
<mgrwt>
<rscale>  1 0.12917291E+03</rscale>
<asrwt>0</asrwt>
<pdfrwt beam="1">  1       21 0.13129992E-01 0.12917291E+03</pdfrwt>
<pdfrwt beam="2">  1       21 0.65810561E-01 0.12917291E+03</pdfrwt>
<totfact> 0.10853035E+05</totfact>
</mgrwt>
</event>
<event>
 6    1  0.4424270E-002  0.1291335E+03  0.7546771E-02  0.1228747E+00
         21   -1    0    0  503  502  0.00000000000E+00  0.00000000000E+00  0.78538403439E+02  0.78538403439E+02  0.00000000000E+00 0.  1.
         21   -1    0    0  504  503 -0.00000000000E+00 -0.00000000000E+00 -0.13257747461E+03  0.13257747461E+03  0.00000000000E+00 0.  1.
         25    2    1    2    0    0 -0.32368856291E+02 -0.17353040742E+01 -0.93954319620E+02  0.15969622037E+03  0.12499885794E+03 0.  0.
          5    1    3    3  501    0  0.24680270447E+02  0.27080104088E+02 -0.88219885688E+02  0.95525944212E+02  0.10000000000E+00 0. -1.
         -5    1    3    3    0  501 -0.57049126738E+02 -0.28815408162E+02 -0.57344339324E+01  0.64170276154E+02  0.10000000000E+00 0. -1.
         21    1    1    2  504  502  0.32368856291E+02  0.17353040742E+01  0.39915248448E+02  0.51419657685E+02  0.00000000000E+00 0.  1.
<mgrwt>
<rscale>  1 0.12913353E+03</rscale>
<asrwt>0</asrwt>
<pdfrwt beam="1">  1       21 0.12082831E-01 0.12913353E+03</pdfrwt>
<pdfrwt beam="2">  1       21 0.20396534E-01 0.12913353E+03</pdfrwt>
<totfact> 0.12877507E+06</totfact>
</mgrwt>
</event>
<event>
 6    1  0.4424270E-002  0.1328243E+03  0.7546771E-02  0.1223324E+00
         21   -1    0    0  504  502  0.00000000000E+00  0.00000000000E+00  0.89003015871E+02  0.89003015871E+02  0.00000000000E+00 0.  1.
         21   -1    0    0  502  503 -0.00000000000E+00 -0.00000000000E+00 -0.89663577791E+02  0.89663577791E+02  0.00000000000E+00 0.  1.
         25    2    1    2    0    0 -0.32452515128E+02 -0.31046596706E+02 -0.84143899598E+01  0.13309051710E+03  0.12500090751E+03 0.  0.
          5    1    3    3  501    0 -0.78979468249E+01  0.19660232456E+02  0.48549781069E+02  0.52971629635E+02  0.10000000000E+00 0. -1.
         -5    1    3    3    0  501 -0.24554568303E+02 -0.50706829162E+02 -0.56964171029E+02  0.80118887469E+02  0.10000000000E+00 0. -1.
         21    1    1    2  504  503  0.32452515128E+02  0.31046596706E+02  0.77538280401E+01  0.45576076558E+02  0.00000000000E+00 0.  1.
<mgrwt>
<rscale>  1 0.13282426E+03</rscale>
<asrwt>0</asrwt>
<pdfrwt beam="1">  1       21 0.13692772E-01 0.13282426E+03</pdfrwt>
<pdfrwt beam="2">  1       21 0.13794397E-01 0.13282426E+03</pdfrwt>
<totfact> 0.21019172E+06</totfact>
</mgrwt>
</event>
<event>
 6    1  0.4424270E-002  0.1396244E+03  0.7546771E-02  0.1213835E+00
         21   -1    0    0  504  502  0.00000000000E+00  0.00000000000E+00  0.30001971065E+03  0.30001971065E+03  0.00000000000E+00 0.  1.
         21   -1    0    0  502  503 -0.00000000000E+00 -0.00000000000E+00 -0.75769832735E+02  0.75769832735E+02  0.00000000000E+00 0. -1.
         25    2    1    2    0    0  0.32739928746E+01  0.62125669443E+02 -0.35277234409E+01  0.13966891000E+03  0.12499856701E+03 0.  0.
          5    1    3    3  501    0 -0.34941407661E+02 -0.10419950921E+02 -0.36221712644E+02  0.51395523281E+02  0.10000000000E+00 0. -1.
         -5    1    3    3    0  501  0.38215400535E+02  0.72545620363E+02  0.32693989203E+02  0.88273386714E+02  0.10000000000E+00 0. -1.
         21    1    1    2  504  503 -0.32739928746E+01 -0.62125669443E+02  0.22777760136E+03  0.23612063339E+03  0.00000000000E+00 0.  1.
<mgrwt>
<rscale>  1 0.13962435E+03</rscale>
<asrwt>0</asrwt>
<pdfrwt beam="1">  1       21 0.46156878E-01 0.13962435E+03</pdfrwt>
<pdfrwt beam="2">  1       21 0.11656897E-01 0.13962435E+03</pdfrwt>
<totfact> 0.28136096E+05</totfact>
</mgrwt>
</event>
<event>
 6    1  0.4424270E-002  0.1285733E+03  0.7546771E-02  0.1229588E+00
         21   -1    0    0  503  502  0.00000000000E+00  0.00000000000E+00  0.34654789769E+02  0.34654789769E+02  0.00000000000E+00 0.  1.
         21   -1    0    0  504  503 -0.00000000000E+00 -0.00000000000E+00 -0.24527335538E+03  0.24527335538E+03  0.00000000000E+00 0.  1.
         25    2    1    2    0    0  0.27550930739E+02  0.12144707734E+02 -0.21397522508E+03  0.24963268553E+03  0.12499813209E+03 0.  0.
          5    1    3    3  501    0 -0.58677721982E+01  0.88474949067E+01  0.14906336050E+02  0.18300758758E+02  0.10000000000E+00 0. -1.
         -5    1    3    3    0  501  0.33418702937E+02  0.32972128278E+01 -0.22888156113E+03  0.23133192678E+03  0.10000000000E+00 0. -1.
         21    1    1    2  504  502 -0.27550930739E+02 -0.12144707734E+02  0.33566594723E+01  0.30295459616E+02  0.00000000000E+00 0.  1.
<mgrwt>
<rscale>  1 0.12857325E+03</rscale>
<asrwt>0</asrwt>
<pdfrwt beam="1">  1       21 0.53315061E-02 0.12857325E+03</pdfrwt>
<pdfrwt beam="2">  1       21 0.37734363E-01 0.12857325E+03</pdfrwt>
<totfact> 0.16285477E+06</totfact>
</mgrwt>
</event>
<event>
 6    1  0.4424270E-002  0.1403993E+03  0.7546771E-02  0.1212793E+00
         21   -1    0    0  503  502  0.00000000000E+00  0.00000000000E+00  0.62310761320E+02  0.62310761320E+02  0.00000000000E+00 0. -1.
         21   -1    0    0  504  503 -0.00000000000E+00 -0.00000000000E+00 -0.17954469726E+03  0.17954469726E+03  0.00000000000E+00 0. -1.
         25    2    1    2    0    0 -0.96652090698E+01  0.63194342702E+02 -0.10827752781E+03  0.17730192682E+03  0.12500003604E+03 0.  0.
          5    1    3    3  501    0  0.30790694051E+02  0.69026315108E+02 -0.11321958053E+03  0.13613002033E+03  0.10000000000E+00 0.  1.
         -5    1    3    3    0  501 -0.40455903121E+02 -0.58319724058E+01  0.49420527248E+01  0.41171906497E+02  0.10000000000E+00 0.  1.
         21    1    1    2  504  502  0.96652090698E+01 -0.63194342702E+02 -0.89564081318E+01  0.64553531759E+02  0.00000000000E+00 0. -1.
<mgrwt>
<rscale>  1 0.14039925E+03</rscale>
<asrwt>0</asrwt>
<pdfrwt beam="1">  1       21 0.95862709E-02 0.14039925E+03</pdfrwt>
<pdfrwt beam="2">  1       21 0.27622261E-01 0.14039925E+03</pdfrwt>
<totfact> 0.10945663E+06</totfact>
</mgrwt>
</event>
<event>
 6    1  0.4424270E-002  0.1259546E+03  0.7546771E-02  0.1233585E+00
         21   -1    0    0  503  502  0.00000000000E+00  0.00000000000E+00  0.36237905194E+01  0.36237905194E+01  0.00000000000E+00 0. -1.
         21   -1    0    0  504  503 -0.00000000000E+00 -0.00000000000E+00 -0.14137110689E+04  0.14137110689E+04  0.00000000000E+00 0. -1.
         25    2    1    2    0    0 -0.15414465454E+02  0.34112830807E+00 -0.13134363443E+04  0.13194618541E+04  0.12500732681E+03 0.  0.
          5    1    3    3  501    0 -0.88277653923E+01  0.24359399636E+02 -0.55192660604E+02  0.60971711285E+02  0.10000000000E+00 0. -1.
         -5    1    3    3    0  501 -0.65867000619E+01 -0.24018271328E+02 -0.12582436837E+04  0.12584901428E+04  0.10000000000E+00 0. -1.
         21    1    1    2  504  502  0.15414465454E+02 -0.34112830807E+00 -0.96650934107E+02  0.97873005356E+02  0.00000000000E+00 0. -1.
<mgrwt>
<rscale>  1 0.12595457E+03</rscale>
<asrwt>0</asrwt>
<pdfrwt beam="1">  1       21 0.55750529E-03 0.12595457E+03</pdfrwt>
<pdfrwt beam="2">  1       21 0.21749438E+00 0.12595457E+03</pdfrwt>
<totfact> 0.10052780E+06</totfact>
</mgrwt>
</event>
<event>
 6    1  0.4424270E-002  0.1452277E+03  0.7546771E-02  0.1206463E+00
         21   -1    0    0  503  502  0.00000000000E+00  0.00000000000E+00  0.78103941397E+03  0.78103941397E+03  0.00000000000E+00 0. -1.
         21   -1    0    0  504  503 -0.00000000000E+00 -0.00000000000E+00 -0.23644789341E+02  0.23644789341E+02  0.00000000000E+00 0. -1.
         25    2    1    2    0    0 -0.70815958612E+02  0.21233332623E+02  0.22917422935E+03  0.27131515621E+03  0.12500132874E+03 0.  0.
          5    1    3    3  501    0  0.27122676900E+02  0.25486449668E+01  0.12171022351E+03  0.12472178518E+03  0.10000000000E+00 0.  1.
         -5    1    3    3    0  501 -0.97938635512E+02  0.18684687656E+02  0.10746400584E+03  0.14659337103E+03  0.10000000000E+00 0.  1.
         21    1    1    2  504  502  0.70815958612E+02 -0.21233332623E+02  0.52822039529E+03  0.53336904710E+03  0.00000000000E+00 0. -1.
<mgrwt>
<rscale>  1 0.14522771E+03</rscale>
<asrwt>0</asrwt>
<pdfrwt beam="1">  1       21 0.12015989E+00 0.14522771E+03</pdfrwt>
<pdfrwt beam="2">  1       21 0.36376605E-02 0.14522771E+03</pdfrwt>
<totfact> 0.24547007E+05</totfact>
</mgrwt>
</event>
<event>
 6    1  0.4424270E-002  0.1281229E+03  0.7546771E-02  0.1230268E+00
         21   -1    0    0  503  502  0.00000000000E+00  0.00000000000E+00  0.43755724400E+02  0.43755724400E+02  0.00000000000E+00 0. -1.
         21   -1    0    0  504  503 -0.00000000000E+00 -0.00000000000E+00 -0.23633605071E+03  0.23633605071E+03  0.00000000000E+00 0. -1.
         25    2    1    2    0    0  0.16687031140E+02 -0.22489163533E+02 -0.21080024179E+03  0.24668242305E+03  0.12502502317E+03 0.  0.
          5    1    3    3  501    0 -0.21401907956E+02 -0.62790010830E+02 -0.15207352088E+03  0.16591260614E+03  0.10000000000E+00 0. -1.
         -5    1    3    3    0  501  0.38088939096E+02  0.40300847297E+02 -0.58726720913E+02  0.80769816909E+02  0.10000000000E+00 0. -1.
         21    1    1    2  504  502 -0.16687031140E+02  0.22489163533E+02  0.18219915483E+02  0.33409352057E+02  0.00000000000E+00 0.  1.
<mgrwt>
<rscale>  1 0.12812289E+03</rscale>
<asrwt>0</asrwt>
<pdfrwt beam="1">  1       21 0.67316499E-02 0.12812289E+03</pdfrwt>
<pdfrwt beam="2">  1       21 0.36359392E-01 0.12812289E+03</pdfrwt>
<totfact> 0.11802108E+06</totfact>
</mgrwt>
</event>
<event>
 6    1  0.4424270E-002  0.1597092E+03  0.7546771E-02  0.1189025E+00
         21   -1    0    0  504  502  0.00000000000E+00  0.00000000000E+00  0.60753979653E+02  0.60753979653E+02  0.00000000000E+00 0.  1.
         21   -1    0    0  502  503 -0.00000000000E+00 -0.00000000000E+00 -0.10185970859E+04  0.10185970859E+04  0.00000000000E+00 0.  1.
         25    2    1    2    0    0  0.95432864972E+02 -0.27847226720E+02 -0.96645843176E+03  0.97956567792E+03  0.12499646909E+03 0.  0.
          5    1    3    3  501    0  0.28908350968E+02 -0.30216679449E+02 -0.77025056339E+02  0.87644793209E+02  0.10000000000E+00 0.  1.
         -5    1    3    3    0  501  0.66524514004E+02  0.23694527291E+01 -0.88943337543E+03  0.89192088471E+03  0.10000000000E+00 0.  1.
         21    1    1    2  504  503 -0.95432864972E+02  0.27847226720E+02  0.86153255078E+01  0.99785387639E+02  0.00000000000E+00 0.  1.
<mgrwt>
<rscale>  1 0.15970916E+03</rscale>
<asrwt>0</asrwt>
<pdfrwt beam="1">  1       21 0.93467664E-02 0.15970916E+03</pdfrwt>
<pdfrwt beam="2">  1       21 0.15670724E+00 0.15970916E+03</pdfrwt>
<totfact> 0.24890916E+04</totfact>
</mgrwt>
</event>
<event>
 6    1  0.4424270E-002  0.1262563E+03  0.7546771E-02  0.1233119E+00
         21   -1    0    0  503  502  0.00000000000E+00  0.00000000000E+00  0.76032824596E+01  0.76032824596E+01  0.00000000000E+00 0. -1.
         21   -1    0    0  504  503 -0.00000000000E+00 -0.00000000000E+00 -0.72274378653E+03  0.72274378653E+03  0.00000000000E+00 0. -1.
         25    2    1    2    0    0  0.10382449363E+02 -0.14483875475E+02 -0.67045099530E+03  0.68223542697E+03  0.12499225101E+03 0.  0.
          5    1    3    3  501    0 -0.20347788945E+02  0.34221302646E+02 -0.51369284910E+03  0.51523342602E+03  0.10000000000E+00 0. -1.
         -5    1    3    3    0  501  0.30730238308E+02 -0.48705178120E+02 -0.15675814619E+03  0.16700200095E+03  0.10000000000E+00 0. -1.
         21    1    1    2  504  502 -0.10382449363E+02  0.14483875475E+02 -0.44689508771E+02  0.48111642019E+02  0.00000000000E+00 0. -1.
<mgrwt>
<rscale>  1 0.12625625E+03</rscale>
<asrwt>0</asrwt>
<pdfrwt beam="1">  1       21 0.11697359E-02 0.12625625E+03</pdfrwt>
<pdfrwt beam="2">  1       21 0.11119134E+00 0.12625625E+03</pdfrwt>
<totfact> 0.18615291E+06</totfact>
</mgrwt>
</event>
<event>
 6    1  0.4424270E-002  0.1270549E+03  0.7546771E-02  0.1231892E+00
         21   -1    0    0  503  502  0.00000000000E+00  0.00000000000E+00  0.19955524468E+03  0.19955524468E+03  0.00000000000E+00 0.  1.
         21   -1    0    0  504  503 -0.00000000000E+00 -0.00000000000E+00 -0.78746820806E+03  0.78746820806E+03  0.00000000000E+00 0. -1.
         25    2    1    2    0    0 -0.15863021776E+02  0.16596303819E+02 -0.78166111152E+03  0.79191984522E+03  0.12496349563E+03 0.  0.
          5    1    3    3  501    0 -0.67017814598E+02  0.20408806726E+02 -0.56194668642E+03  0.56629673780E+03  0.10000000000E+00 0.  1.
         -5    1    3    3    0  501  0.51154792822E+02 -0.38125029072E+01 -0.21971442510E+03  0.22562310742E+03  0.10000000000E+00 0.  1.
         21    1    1    2  504  502  0.15863021776E+02 -0.16596303819E+02  0.19374814814E+03  0.19510360752E+03  0.00000000000E+00 0.  1.
<mgrwt>
<rscale>  1 0.12705490E+03</rscale>
<asrwt>0</asrwt>
<pdfrwt beam="1">  1       21 0.30700807E-01 0.12705490E+03</pdfrwt>
<pdfrwt beam="2">  1       21 0.12114895E+00 0.12705490E+03</pdfrwt>
<totfact> 0.55773581E+03</totfact>
</mgrwt>
</event>
<event>
 6    1  0.4424270E-002  0.1267793E+03  0.7546771E-02  0.1232314E+00
         21   -1    0    0  504  502  0.00000000000E+00  0.00000000000E+00  0.41545422885E+02  0.41545422885E+02  0.00000000000E+00 0.  1.
         21   -1    0    0  502  503 -0.00000000000E+00 -0.00000000000E+00 -0.18221694283E+03  0.18221694283E+03  0.00000000000E+00 0.  1.
         25    2    1    2    0    0 -0.19061305625E+02  0.93196321451E+01 -0.15340830954E+03  0.19901535126E+03  0.12499124643E+03 0.  0.
          5    1    3    3  501    0 -0.34471413187E+02 -0.48551642442E+02 -0.10989040231E+03  0.12498580252E+03  0.10000000000E+00 0. -1.
         -5    1    3    3    0  501  0.15410107562E+02  0.57871274587E+02 -0.43517907232E+02  0.74029548744E+02  0.10000000000E+00 0. -1.
         21    1    1    2  504  503  0.19061305625E+02 -0.93196321451E+01  0.12736789593E+02  0.24747014459E+02  0.00000000000E+00 0.  1.
<mgrwt>
<rscale>  1 0.12677934E+03</rscale>
<asrwt>0</asrwt>
<pdfrwt beam="1">  1       21 0.63916035E-02 0.12677934E+03</pdfrwt>
<pdfrwt beam="2">  1       21 0.28033376E-01 0.12677934E+03</pdfrwt>
<totfact> 0.21360784E+06</totfact>
</mgrwt>
</event>
<event>
 6    1  0.4424270E-002  0.1286588E+03  0.7546771E-02  0.1229459E+00
         21   -1    0    0  504  502  0.00000000000E+00  0.00000000000E+00  0.20488414607E+03  0.20488414607E+03  0.00000000000E+00 0. -1.
         21   -1    0    0  502  503 -0.00000000000E+00 -0.00000000000E+00 -0.49375060949E+02  0.49375060949E+02  0.00000000000E+00 0. -1.
         25    2    1    2    0    0  0.25613929401E+02  0.17169866193E+02  0.40042569464E+02  0.13474605326E+03  0.12490882200E+03 0.  0.
          5    1    3    3  501    0  0.15583318027E+02  0.54352962465E+02  0.67049331343E+02  0.87708079234E+02  0.10000000000E+00 0. -1.
         -5    1    3    3    0  501  0.10030611374E+02 -0.37183096272E+02 -0.27006761879E+02  0.47037974022E+02  0.10000000000E+00 0. -1.
         21    1    1    2  504  503 -0.25613929401E+02 -0.17169866193E+02  0.11546651566E+03  0.11951315376E+03  0.00000000000E+00 0. -1.
<mgrwt>
<rscale>  1 0.12865882E+03</rscale>
<asrwt>0</asrwt>
<pdfrwt beam="1">  1       21 0.31520637E-01 0.12865882E+03</pdfrwt>
<pdfrwt beam="2">  1       21 0.75961633E-02 0.12865882E+03</pdfrwt>
<totfact> 0.12689785E+06</totfact>
</mgrwt>
</event>
<event>
 6    1  0.4424270E-002  0.1963229E+03  0.7546771E-02  0.1152879E+00
         21   -1    0    0  504  502  0.00000000000E+00  0.00000000000E+00  0.79058543283E+02  0.79058543283E+02  0.00000000000E+00 0. -1.
         21   -1    0    0  502  503 -0.00000000000E+00 -0.00000000000E+00 -0.43023108817E+03  0.43023108817E+03  0.00000000000E+00 0. -1.
         25    2    1    2    0    0  0.14804490887E+03  0.31604641072E+02 -0.28011062249E+03  0.34205941530E+03  0.12500613739E+03 0.  0.
          5    1    3    3  501    0  0.47535077072E+01 -0.30798427159E+01  0.12877992763E+02  0.14068900606E+02  0.10000000000E+00 0.  1.
         -5    1    3    3    0  501  0.14329140116E+03  0.34684483788E+02 -0.29298861525E+03  0.32799051470E+03  0.10000000000E+00 0.  1.
         21    1    1    2  504  503 -0.14804490887E+03 -0.31604641072E+02 -0.71061922398E+02  0.16723021615E+03  0.00000000000E+00 0. -1.
<mgrwt>
<rscale>  1 0.19632290E+03</rscale>
<asrwt>0</asrwt>
<pdfrwt beam="1">  1       21 0.12162853E-01 0.19632290E+03</pdfrwt>
<pdfrwt beam="2">  1       21 0.66189399E-01 0.19632290E+03</pdfrwt>
<totfact> 0.11984147E+05</totfact>
</mgrwt>
</event>
<event>
 6    1  0.4424270E-002  0.1315137E+03  0.7546771E-02  0.1225227E+00
         21   -1    0    0  504  502  0.00000000000E+00  0.00000000000E+00  0.52480333431E+02  0.52480333431E+02  0.00000000000E+00 0. -1.
         21   -1    0    0  502  503 -0.00000000000E+00 -0.00000000000E+00 -0.22495077929E+03  0.22495077929E+03  0.00000000000E+00 0. -1.
         25    2    1    2    0    0 -0.13606122326E+02 -0.38610727747E+02 -0.19148083250E+03  0.23229454592E+03  0.12497972631E+03 0.  0.
          5    1    3    3  501    0 -0.57166156676E+02 -0.87621821468E+01 -0.16156385579E+03  0.17160313168E+03  0.10000000000E+00 0. -1.
         -5    1    3    3    0  501  0.43560034350E+02 -0.29848545600E+02 -0.29916976702E+02  0.60691414237E+02  0.10000000000E+00 0. -1.
         21    1    1    2  504  503  0.13606122326E+02  0.38610727747E+02  0.19010386640E+02  0.45136566796E+02  0.00000000000E+00 0. -1.
<mgrwt>
<rscale>  1 0.13151368E+03</rscale>
<asrwt>0</asrwt>
<pdfrwt beam="1">  1       21 0.80738974E-02 0.13151368E+03</pdfrwt>
<pdfrwt beam="2">  1       21 0.34607812E-01 0.13151368E+03</pdfrwt>
<totfact> 0.95229019E+05</totfact>
</mgrwt>
</event>
<event>
 6    1  0.4424270E-002  0.1278198E+03  0.7546771E-02  0.1230727E+00
         21   -1    0    0  503  502  0.00000000000E+00  0.00000000000E+00  0.19946773602E+03  0.19946773602E+03  0.00000000000E+00 0.  1.
         21   -1    0    0  504  503 -0.00000000000E+00 -0.00000000000E+00 -0.79852872092E+02  0.79852872092E+02  0.00000000000E+00 0.  1.
         25    2    1    2    0    0 -0.22697275853E+02 -0.14073208489E+02 -0.26708197954E+02  0.13058036485E+03  0.12499872926E+03 0.  0.
          5    1    3    3  501    0  0.25318383119E+02  0.36635110621E+02 -0.39568063349E+02  0.59571750782E+02  0.10000000000E+00 0. -1.
         -5    1    3    3    0  501 -0.48015658972E+02 -0.50708319110E+02  0.12859865395E+02  0.71008614065E+02  0.10000000000E+00 0. -1.
         21    1    1    2  504  502  0.22697275853E+02  0.14073208489E+02  0.14632306188E+03  0.14874024327E+03  0.00000000000E+00 0.  1.
<mgrwt>
<rscale>  1 0.12781981E+03</rscale>
<asrwt>0</asrwt>
<pdfrwt beam="1">  1       21 0.30687344E-01 0.12781981E+03</pdfrwt>
<pdfrwt beam="2">  1       21 0.12285057E-01 0.12781981E+03</pdfrwt>
<totfact> 0.57751617E+05</totfact>
</mgrwt>
</event>
<event>
 6    1  0.4424270E-002  0.1297011E+03  0.7546771E-02  0.1227900E+00
         21   -1    0    0  504  502  0.00000000000E+00  0.00000000000E+00  0.59733920352E+02  0.59733920352E+02  0.00000000000E+00 0.  1.
         21   -1    0    0  502  503 -0.00000000000E+00 -0.00000000000E+00 -0.28665878434E+03  0.28665878434E+03  0.00000000000E+00 0.  1.
         25    2    1    2    0    0  0.10775463147E+02 -0.33162337764E+02 -0.26483220184E+03  0.29488719513E+03  0.12492602398E+03 0.  0.
          5    1    3    3  501    0  0.42684959143E+02 -0.56157875475E+02 -0.83352438848E+02  0.10919410138E+03  0.10000000000E+00 0. -1.
         -5    1    3    3    0  501 -0.31909495997E+02  0.22995537711E+02 -0.18147976299E+03  0.18569309375E+03  0.10000000000E+00 0. -1.
         21    1    1    2  504  503 -0.10775463147E+02  0.33162337764E+02  0.37907337854E+02  0.51505509561E+02  0.00000000000E+00 0.  1.
<mgrwt>
<rscale>  1 0.12970105E+03</rscale>
<asrwt>0</asrwt>
<pdfrwt beam="1">  1       21 0.91898340E-02 0.12970105E+03</pdfrwt>
<pdfrwt beam="2">  1       21 0.44101351E-01 0.12970105E+03</pdfrwt>
<totfact> 0.46932429E+05</totfact>
</mgrwt>
</event>
<event>
 6    1  0.4424270E-002  0.1282952E+03  0.7546771E-02  0.1230008E+00
         21   -1    0    0  503  502  0.00000000000E+00  0.00000000000E+00  0.37008886662E+02  0.37008886662E+02  0.00000000000E+00 0. -1.
         21   -1    0    0  504  503 -0.00000000000E+00 -0.00000000000E+00 -0.18015373533E+03  0.18015373533E+03  0.00000000000E+00 0. -1.
         25    2    1    2    0    0  0.13239928563E+02 -0.25686829430E+02 -0.13685618113E+03  0.18758803402E+03  0.12499818910E+03 0.  0.
          5    1    3    3  501    0 -0.22784407546E+02 -0.95310291290E+01 -0.14515737821E+03  0.14724348608E+03  0.10000000000E+00 0. -1.
         -5    1    3    3    0  501  0.36024336109E+02 -0.16155800301E+02  0.83011970787E+01  0.40344547939E+02  0.10000000000E+00 0. -1.
         21    1    1    2  504  502 -0.13239928563E+02  0.25686829430E+02 -0.62886675361E+01  0.29574587975E+02  0.00000000000E+00 0. -1.
<mgrwt>
<rscale>  1 0.12829519E+03</rscale>
<asrwt>0</asrwt>
<pdfrwt beam="1">  1       21 0.56936748E-02 0.12829519E+03</pdfrwt>
<pdfrwt beam="2">  1       21 0.27715959E-01 0.12829519E+03</pdfrwt>
<totfact> 0.26570113E+06</totfact>
</mgrwt>
</event>
<event>
 6    1  0.4424270E-002  0.1294362E+03  0.7546771E-02  0.1228295E+00
         21   -1    0    0  504  502  0.00000000000E+00  0.00000000000E+00  0.53124704530E+03  0.53124704530E+03  0.00000000000E+00 0. -1.
         21   -1    0    0  502  503 -0.00000000000E+00 -0.00000000000E+00 -0.12977389553E+02  0.12977389553E+02  0.00000000000E+00 0. -1.
         25    2    1    2    0    0  0.20272560942E+02  0.26799459865E+02  0.36374611565E+03  0.38608932737E+03  0.12499817710E+03 0.  0.
          5    1    3    3  501    0  0.43893414325E+02  0.65578461202E+02  0.17518038134E+03  0.19213365765E+03  0.10000000000E+00 0.  1.
         -5    1    3    3    0  501 -0.23620853384E+02 -0.38779001336E+02  0.18856573431E+03  0.19395566971E+03  0.10000000000E+00 0.  1.
         21    1    1    2  504  503 -0.20272560942E+02 -0.26799459865E+02  0.15452354009E+03  0.15813510748E+03  0.00000000000E+00 0. -1.
<mgrwt>
<rscale>  1 0.12943621E+03</rscale>
<asrwt>0</asrwt>
<pdfrwt beam="1">  1       21 0.81730298E-01 0.12943621E+03</pdfrwt>
<pdfrwt beam="2">  1       21 0.19965219E-02 0.12943621E+03</pdfrwt>
<totfact> 0.16171300E+06</totfact>
</mgrwt>
</event>
<event>
 6    1  0.4424270E-002  0.1284425E+03  0.7546771E-02  0.1229785E+00
         21   -1    0    0  504  502  0.00000000000E+00  0.00000000000E+00  0.84570694841E+02  0.84570694841E+02  0.00000000000E+00 0.  1.
         21   -1    0    0  502  503 -0.00000000000E+00 -0.00000000000E+00 -0.85949301054E+02  0.85949301054E+02  0.00000000000E+00 0.  1.
         25    2    1    2    0    0 -0.29141852047E+02 -0.45849061341E+01  0.25108399502E+02  0.13087367984E+03  0.12500887746E+03 0.  0.
          5    1    3    3  501    0  0.48335387011E+02 -0.10061327957E+02  0.41864303869E+00  0.49373324981E+02  0.10000000000E+00 0. -1.
         -5    1    3    3    0  501 -0.77477239057E+02  0.54764218225E+01  0.24689756463E+02  0.81500354859E+02  0.10000000000E+00 0. -1.
         21    1    1    2  504  503  0.29141852047E+02  0.45849061341E+01 -0.26487005715E+02  0.39646316055E+02  0.00000000000E+00 0.  1.
<mgrwt>
<rscale>  1 0.12844255E+03</rscale>
<asrwt>0</asrwt>
<pdfrwt beam="1">  1       21 0.13010876E-01 0.12844255E+03</pdfrwt>
<pdfrwt beam="2">  1       21 0.13222969E-01 0.12844255E+03</pdfrwt>
<totfact> 0.24811714E+06</totfact>
</mgrwt>
</event>
<event>
 6    1  0.4424270E-002  0.1272458E+03  0.7546771E-02  0.1231601E+00
         21   -1    0    0  503  502  0.00000000000E+00  0.00000000000E+00  0.60202024312E+02  0.60202024312E+02  0.00000000000E+00 0.  1.
         21   -1    0    0  504  503 -0.00000000000E+00 -0.00000000000E+00 -0.10335341420E+03  0.10335341420E+03  0.00000000000E+00 0.  1.
         25    2    1    2    0    0  0.16658068679E+02  0.17007271887E+02 -0.52934864258E+02  0.13781723889E+03  0.12499901172E+03 0.  0.
          5    1    3    3  501    0  0.68278783490E+02  0.27720275791E+02 -0.38568235500E+02  0.83174062991E+02  0.10000000000E+00 0.  1.
         -5    1    3    3    0  501 -0.51620714811E+02 -0.10713003904E+02 -0.14366628758E+02  0.54643175897E+02  0.10000000000E+00 0.  1.
         21    1    1    2  504  502 -0.16658068679E+02 -0.17007271887E+02  0.97834743704E+01  0.25738199624E+02  0.00000000000E+00 0.  1.
<mgrwt>
<rscale>  1 0.12724579E+03</rscale>
<asrwt>0</asrwt>
<pdfrwt beam="1">  1       21 0.92618499E-02 0.12724579E+03</pdfrwt>
<pdfrwt beam="2">  1       21 0.15900525E-01 0.12724579E+03</pdfrwt>
<totfact> 0.32388382E+06</totfact>
</mgrwt>
</event>
<event>
 6    1  0.4424270E-002  0.1303023E+03  0.7546771E-02  0.1227008E+00
         21   -1    0    0  503  502  0.00000000000E+00  0.00000000000E+00  0.92182236386E+02  0.92182236386E+02  0.00000000000E+00 0. -1.
         21   -1    0    0  504  503 -0.00000000000E+00 -0.00000000000E+00 -0.20580712652E+03  0.20580712652E+03  0.00000000000E+00 0. -1.
         25    2    1    2    0    0 -0.24953353444E+01  0.36720112160E+02 -0.17992869500E+03  0.22215541355E+03  0.12499639655E+03 0.  0.
          5    1    3    3  501    0 -0.46490457207E+02 -0.21266380682E+02 -0.10962335198E+03  0.12095830214E+03  0.10000000000E+00 0.  1.
         -5    1    3    3    0  501  0.43995121863E+02  0.57986492841E+02 -0.70305343019E+02  0.10119711141E+03  0.10000000000E+00 0.  1.
         21    1    1    2  504  502  0.24953353444E+01 -0.36720112160E+02  0.66303804864E+02  0.75833949356E+02  0.00000000000E+00 0. -1.
<mgrwt>
<rscale>  1 0.13030231E+03</rscale>
<asrwt>0</asrwt>
<pdfrwt beam="1">  1       21 0.14181883E-01 0.13030231E+03</pdfrwt>
<pdfrwt beam="2">  1       21 0.31662635E-01 0.13030231E+03</pdfrwt>
<totfact> 0.42060968E+05</totfact>
</mgrwt>
</event>
<event>
 6    1  0.4424270E-002  0.1273168E+03  0.7546771E-02  0.1231492E+00
         21   -1    0    0  504  502  0.00000000000E+00  0.00000000000E+00  0.32414357939E+03  0.32414357939E+03  0.00000000000E+00 0. -1.
         21   -1    0    0  502  503 -0.00000000000E+00 -0.00000000000E+00 -0.19260253058E+02  0.19260253058E+02  0.00000000000E+00 0. -1.
         25    2    1    2    0    0 -0.60936706068E+01 -0.23173397800E+02  0.21033542520E+03  0.24586694304E+03  0.12504168664E+03 0.  0.
          5    1    3    3  501    0 -0.32684977265E+02 -0.22903494594E+02  0.66600700155E+01  0.40462876023E+02  0.10000000000E+00 0.  1.
         -5    1    3    3    0  501  0.26591306658E+02 -0.26990320572E+00  0.20367535519E+03  0.20540406702E+03  0.10000000000E+00 0.  1.
         21    1    1    2  504  503  0.60936706068E+01  0.23173397800E+02  0.94547901126E+02  0.97536889403E+02  0.00000000000E+00 0. -1.
<mgrwt>
<rscale>  1 0.12731678E+03</rscale>
<asrwt>0</asrwt>
<pdfrwt beam="1">  1       21 0.49868239E-01 0.12731678E+03</pdfrwt>
<pdfrwt beam="2">  1       21 0.29631161E-02 0.12731678E+03</pdfrwt>
<totfact> 0.24582037E+06</totfact>
</mgrwt>
</event>
<event>
 6    1  0.4424270E-002  0.1259444E+03  0.7546771E-02  0.1233601E+00
         21   -1    0    0  503  502  0.00000000000E+00  0.00000000000E+00  0.95725340188E+01  0.95725340188E+01  0.00000000000E+00 0.  1.
         21   -1    0    0  504  503 -0.00000000000E+00 -0.00000000000E+00 -0.58828092113E+03  0.58828092113E+03  0.00000000000E+00 0.  1.
         25    2    1    2    0    0  0.12303894329E+02  0.92113406190E+01 -0.55815999300E+03  0.57219276318E+03  0.12500298333E+03 0.  0.
          5    1    3    3  501    0  0.21135666148E+02 -0.54936625508E+02 -0.21156237309E+03  0.21959826255E+03  0.10000000000E+00 0.  1.
         -5    1    3    3    0  501 -0.88317718185E+01  0.64147966127E+02 -0.34659761991E+03  0.35259450064E+03  0.10000000000E+00 0.  1.
         21    1    1    2  504  502 -0.12303894329E+02 -0.92113406190E+01 -0.20548394113E+02  0.25660691968E+02  0.00000000000E+00 0.  1.
<mgrwt>
<rscale>  1 0.12594435E+03</rscale>
<asrwt>0</asrwt>
<pdfrwt beam="1">  1       21 0.14726968E-02 0.12594435E+03</pdfrwt>
<pdfrwt beam="2">  1       21 0.90504800E-01 0.12594435E+03</pdfrwt>
<totfact> 0.20904800E+06</totfact>
</mgrwt>
</event>
<event>
 6    1  0.4424270E-002  0.1408898E+03  0.7546771E-02  0.1212137E+00
         21   -1    0    0  503  502  0.00000000000E+00  0.00000000000E+00  0.40295605605E+03  0.40295605605E+03  0.00000000000E+00 0. -1.
         21   -1    0    0  504  503 -0.00000000000E+00 -0.00000000000E+00 -0.30045657489E+02  0.30045657489E+02  0.00000000000E+00 0. -1.
         25    2    1    2    0    0  0.45355897888E+02  0.46569351074E+02  0.17486997269E+03  0.22456497923E+03  0.12499624240E+03 0.  0.
          5    1    3    3  501    0  0.88404420028E+02  0.31687914082E+02  0.10216016663E+03  0.13876662072E+03  0.10000000000E+00 0.  1.
         -5    1    3    3    0  501 -0.43048522140E+02  0.14881436992E+02  0.72709806061E+02  0.85798358509E+02  0.10000000000E+00 0.  1.
         21    1    1    2  504  502 -0.45355897888E+02 -0.46569351074E+02  0.19804042587E+03  0.20843673431E+03  0.00000000000E+00 0. -1.
<mgrwt>
<rscale>  1 0.14088975E+03</rscale>
<asrwt>0</asrwt>
<pdfrwt beam="1">  1       21 0.61993235E-01 0.14088975E+03</pdfrwt>
<pdfrwt beam="2">  1       21 0.46224092E-02 0.14088975E+03</pdfrwt>
<totfact> 0.74579877E+05</totfact>
</mgrwt>
</event>
<event>
 6    1  0.4424270E-002  0.1288414E+03  0.7546771E-02  0.1229185E+00
         21   -1    0    0  503  502  0.00000000000E+00  0.00000000000E+00  0.43739889948E+03  0.43739889948E+03  0.00000000000E+00 0.  1.
         21   -1    0    0  504  503 -0.00000000000E+00 -0.00000000000E+00 -0.17420536968E+02  0.17420536968E+02  0.00000000000E+00 0.  1.
         25    2    1    2    0    0 -0.13712908393E+02 -0.28039906267E+02  0.24235255196E+03  0.27447196966E+03  0.12500328992E+03 0.  0.
          5    1    3    3  501    0  0.11886265137E+01 -0.71768984733E+02  0.19726473137E+03  0.20991804173E+03  0.10000000000E+00 0.  1.
         -5    1    3    3    0  501 -0.14901534907E+02  0.43729078466E+02  0.45087820586E+02  0.64553927930E+02  0.10000000000E+00 0.  1.
         21    1    1    2  504  502  0.13712908393E+02  0.28039906267E+02  0.17762581055E+03  0.18034746678E+03  0.00000000000E+00 0.  1.
<mgrwt>
<rscale>  1 0.12884139E+03</rscale>
<asrwt>0</asrwt>
<pdfrwt beam="1">  1       21 0.67292130E-01 0.12884139E+03</pdfrwt>
<pdfrwt beam="2">  1       21 0.26800829E-02 0.12884139E+03</pdfrwt>
<totfact> 0.15389416E+06</totfact>
</mgrwt>
</event>
<event>
 6    1  0.4424270E-002  0.1260960E+03  0.7546771E-02  0.1233366E+00
         21   -1    0    0  503  502  0.00000000000E+00  0.00000000000E+00  0.30253250494E+02  0.30253250494E+02  0.00000000000E+00 0. -1.
         21   -1    0    0  504  503 -0.00000000000E+00 -0.00000000000E+00 -0.16953465261E+03  0.16953465261E+03  0.00000000000E+00 0. -1.
         25    2    1    2    0    0 -0.28696229293E+00 -0.16722034392E+02 -0.12755985505E+03  0.17936479249E+03  0.12498201224E+03 0.  0.
          5    1    3    3  501    0  0.30990815756E+02 -0.62179753415E+02 -0.84366107990E+02  0.10929045051E+03  0.10000000000E+00 0. -1.
         -5    1    3    3    0  501 -0.31277778049E+02  0.45457719022E+02 -0.43193747064E+02  0.70074341980E+02  0.10000000000E+00 0. -1.
         21    1    1    2  504  502  0.28696229293E+00  0.16722034392E+02 -0.11721547065E+02  0.20423110614E+02  0.00000000000E+00 0. -1.
<mgrwt>
<rscale>  1 0.12609604E+03</rscale>
<asrwt>0</asrwt>
<pdfrwt beam="1">  1       21 0.46543463E-02 0.12609604E+03</pdfrwt>
<pdfrwt beam="2">  1       21 0.26082254E-01 0.12609604E+03</pdfrwt>
<totfact> 0.41832300E+06</totfact>
</mgrwt>
</event>
<event>
 6    1  0.4424270E-002  0.1290898E+03  0.7546771E-02  0.1228813E+00
         21   -1    0    0  504  502  0.00000000000E+00  0.00000000000E+00  0.13549601550E+03  0.13549601550E+03  0.00000000000E+00 0. -1.
         21   -1    0    0  502  503 -0.00000000000E+00 -0.00000000000E+00 -0.70334981618E+02  0.70334981618E+02  0.00000000000E+00 0. -1.
         25    2    1    2    0    0  0.32392159713E+01  0.32071944492E+02 -0.43991425924E+01  0.12916470534E+03  0.12500026603E+03 0.  0.
          5    1    3    3  501    0  0.56239913813E+02 -0.11764659045E+02 -0.15459517956E+02  0.59500771454E+02  0.10000000000E+00 0. -1.
         -5    1    3    3    0  501 -0.53000697842E+02  0.43836603537E+02  0.11060375364E+02  0.69663933887E+02  0.10000000000E+00 0. -1.
         21    1    1    2  504  503 -0.32392159713E+01 -0.32071944492E+02  0.69560176476E+02  0.76666291778E+02  0.00000000000E+00 0. -1.
<mgrwt>
<rscale>  1 0.12908977E+03</rscale>
<asrwt>0</asrwt>
<pdfrwt beam="1">  1       21 0.20845541E-01 0.12908977E+03</pdfrwt>
<pdfrwt beam="2">  1       21 0.10820766E-01 0.12908977E+03</pdfrwt>
<totfact> 0.15027240E+06</totfact>
</mgrwt>
</event>
<event>
 6    1  0.4424270E-002  0.1303199E+03  0.7546771E-02  0.1226982E+00
         21   -1    0    0  504  502  0.00000000000E+00  0.00000000000E+00  0.78511419087E+02  0.78511419087E+02  0.00000000000E+00 0.  1.
         21   -1    0    0  502  503 -0.00000000000E+00 -0.00000000000E+00 -0.10671759719E+03  0.10671759719E+03  0.00000000000E+00 0.  1.
         25    2    1    2    0    0 -0.36856652282E+02 -0.68330380599E+00 -0.53126718457E+02  0.14073280236E+03  0.12499757487E+03 0.  0.
          5    1    3    3  501    0 -0.99930590177E+01 -0.29802321301E+01 -0.92459779344E+02  0.93046030590E+02  0.10000000000E+00 0.  1.
         -5    1    3    3    0  501 -0.26863593264E+02  0.22969283241E+01  0.39333060888E+02  0.47686771767E+02  0.10000000000E+00 0.  1.
         21    1    1    2  504  503  0.36856652282E+02  0.68330380599E+00  0.24920540355E+02  0.44496213919E+02  0.00000000000E+00 0.  1.
<mgrwt>
<rscale>  1 0.13031989E+03</rscale>
<asrwt>0</asrwt>
<pdfrwt beam="1">  1       21 0.12078680E-01 0.13031989E+03</pdfrwt>
<pdfrwt beam="2">  1       21 0.16418092E-01 0.13031989E+03</pdfrwt>
<totfact> 0.19186967E+06</totfact>
</mgrwt>
</event>
<event>
 6    1  0.4424270E-002  0.1260724E+03  0.7546771E-02  0.1233403E+00
         21   -1    0    0  504  502  0.00000000000E+00  0.00000000000E+00  0.57512717226E+03  0.57512717226E+03  0.00000000000E+00 0.  1.
         21   -1    0    0  502  503 -0.00000000000E+00 -0.00000000000E+00 -0.89021525988E+01  0.89021525988E+01  0.00000000000E+00 0.  1.
         25    2    1    2    0    0  0.15643637217E+02 -0.49879774336E+01  0.48174063881E+03  0.49796415239E+03  0.12499860271E+03 0.  0.
          5    1    3    3  501    0  0.30627492270E+02 -0.57756349711E+02  0.18537824876E+03  0.19656791276E+03  0.10000000000E+00 0.  1.
         -5    1    3    3    0  501 -0.14983855053E+02  0.52768372278E+02  0.29636239005E+03  0.30139623963E+03  0.10000000000E+00 0.  1.
         21    1    1    2  504  503 -0.15643637217E+02  0.49879774336E+01  0.84484380856E+02  0.86065172473E+02  0.00000000000E+00 0.  1.
<mgrwt>
<rscale>  1 0.12607242E+03</rscale>
<asrwt>0</asrwt>
<pdfrwt beam="1">  1       21 0.88481074E-01 0.12607242E+03</pdfrwt>
<pdfrwt beam="2">  1       21 0.13695624E-02 0.12607242E+03</pdfrwt>
<totfact> 0.24711764E+06</totfact>
</mgrwt>
</event>
<event>
 6    1  0.4424270E-002  0.1271192E+03  0.7546771E-02  0.1231794E+00
         21   -1    0    0  503  502  0.00000000000E+00  0.00000000000E+00  0.14230068101E+03  0.14230068101E+03  0.00000000000E+00 0. -1.
         21   -1    0    0  504  503 -0.00000000000E+00 -0.00000000000E+00 -0.41664215774E+02  0.41664215774E+02  0.00000000000E+00 0. -1.
         25    2    1    2    0    0  0.11756268093E+02  0.19897891777E+02  0.68558268499E+02  0.14442824742E+03  0.12500058615E+03 0.  0.
          5    1    3    3  501    0  0.49171796878E+02  0.41205394934E+02  0.77339395098E+02  0.10048453719E+03  0.10000000000E+00 0. -1.
         -5    1    3    3    0  501 -0.37415528784E+02 -0.21307503157E+02 -0.87811265988E+01  0.43943710236E+02  0.10000000000E+00 0. -1.
         21    1    1    2  504  502 -0.11756268093E+02 -0.19897891777E+02  0.32078196737E+02  0.39536649359E+02  0.00000000000E+00 0.  1.
<mgrwt>
<rscale>  1 0.12711917E+03</rscale>
<asrwt>0</asrwt>
<pdfrwt beam="1">  1       21 0.21892412E-01 0.12711917E+03</pdfrwt>
<pdfrwt beam="2">  1       21 0.64098794E-02 0.12711917E+03</pdfrwt>
<totfact> 0.33903428E+06</totfact>
</mgrwt>
</event>
<event>
 6    1  0.4424270E-002  0.1328301E+03  0.7546771E-02  0.1223316E+00
         21   -1    0    0  504  502  0.00000000000E+00  0.00000000000E+00  0.12296816108E+04  0.12296816108E+04  0.00000000000E+00 0. -1.
         21   -1    0    0  502  503 -0.00000000000E+00 -0.00000000000E+00 -0.20225398567E+03  0.20225398567E+03  0.00000000000E+00 0. -1.
         25    2    1    2    0    0  0.42506779574E+02  0.14589883820E+02 -0.17998177317E+03  0.22369011391E+03  0.12499654943E+03 0.  0.
          5    1    3    3  501    0  0.13031776034E+02  0.25892434757E+02  0.10333903615E+02  0.30774095083E+02  0.10000000000E+00 0.  1.
         -5    1    3    3    0  501  0.29475003540E+02 -0.11302550938E+02 -0.19031567678E+03  0.19291601883E+03  0.10000000000E+00 0.  1.
         21    1    1    2  504  503 -0.42506779574E+02 -0.14589883820E+02  0.12074093983E+04  0.12082454825E+04  0.00000000000E+00 0. -1.
<mgrwt>
<rscale>  1 0.13283007E+03</rscale>
<asrwt>0</asrwt>
<pdfrwt beam="1">  1       21 0.18918178E+00 0.13283007E+03</pdfrwt>
<pdfrwt beam="2">  1       21 0.31115998E-01 0.13283007E+03</pdfrwt>
<totfact> 0.16839500E+03</totfact>
</mgrwt>
</event>
<event>
 6    1  0.4424270E-002  0.1828055E+03  0.7546771E-02  0.1165115E+00
         21   -1    0    0  504  502  0.00000000000E+00  0.00000000000E+00  0.21269942574E+03  0.21269942574E+03  0.00000000000E+00 0. -1.
         21   -1    0    0  502  503 -0.00000000000E+00 -0.00000000000E+00 -0.23904967860E+03  0.23904967860E+03  0.00000000000E+00 0. -1.
         25    2    1    2    0    0  0.10365346369E+03  0.83972484885E+02 -0.17426927568E+03  0.25256211666E+03  0.12498969387E+03 0.  0.
          5    1    3    3  501    0  0.65145515142E+02 -0.84349786969E+01 -0.20017116598E+02  0.68671551356E+02  0.10000000000E+00 0. -1.
         -5    1    3    3    0  501  0.38507948545E+02  0.92407463582E+02 -0.15425215908E+03  0.18389056530E+03  0.10000000000E+00 0. -1.
         21    1    1    2  504  503 -0.10365346369E+03 -0.83972484885E+02  0.14791902281E+03  0.19918698768E+03  0.00000000000E+00 0. -1.
<mgrwt>
<rscale>  1 0.18280548E+03</rscale>
<asrwt>0</asrwt>
<pdfrwt beam="1">  1       21 0.32722989E-01 0.18280548E+03</pdfrwt>
<pdfrwt beam="2">  1       21 0.36776873E-01 0.18280548E+03</pdfrwt>
<totfact> 0.64367650E+04</totfact>
</mgrwt>
</event>
<event>
 6    1  0.4424270E-002  0.1289574E+03  0.7546771E-02  0.1229011E+00
         21   -1    0    0  503  502  0.00000000000E+00  0.00000000000E+00  0.42377507094E+02  0.42377507094E+02  0.00000000000E+00 0.  1.
         21   -1    0    0  504  503 -0.00000000000E+00 -0.00000000000E+00 -0.18553603334E+03  0.18553603334E+03  0.00000000000E+00 0.  1.
         25    2    1    2    0    0 -0.15662373100E+02 -0.27586602853E+02 -0.14746735661E+03  0.19589953401E+03  0.12499470216E+03 0.  0.
          5    1    3    3  501    0 -0.43668804960E+02 -0.11524740449E+02 -0.23065695680E+00  0.45164669507E+02  0.10000000000E+00 0. -1.
         -5    1    3    3    0  501  0.28006431860E+02 -0.16061862404E+02 -0.14723669966E+03  0.15073486450E+03  0.10000000000E+00 0. -1.
         21    1    1    2  504  502  0.15662373100E+02  0.27586602853E+02  0.43088303731E+01  0.32014006423E+02  0.00000000000E+00 0. -1.
<mgrwt>
<rscale>  1 0.12895738E+03</rscale>
<asrwt>0</asrwt>
<pdfrwt beam="1">  1       21 0.65196164E-02 0.12895738E+03</pdfrwt>
<pdfrwt beam="2">  1       21 0.28544005E-01 0.12895738E+03</pdfrwt>
<totfact> 0.19959296E+06</totfact>
</mgrwt>
</event>
<event>
 6    1  0.4424270E-002  0.1273776E+03  0.7546771E-02  0.1231400E+00
         21   -1    0    0  504  502  0.00000000000E+00  0.00000000000E+00  0.16199783604E+02  0.16199783604E+02  0.00000000000E+00 0.  1.
         21   -1    0    0  502  503 -0.00000000000E+00 -0.00000000000E+00 -0.35626389713E+03  0.35626389713E+03  0.00000000000E+00 0.  1.
         25    2    1    2    0    0  0.63381639339E+01 -0.23727045075E+02 -0.28593135907E+03  0.31302042969E+03  0.12498760864E+03 0.  0.
          5    1    3    3  501    0  0.16306614369E+01  0.42365841469E+02 -0.39889515132E+02  0.58212601708E+02  0.10000000000E+00 0. -1.
         -5    1    3    3    0  501  0.47075024970E+01 -0.66092886544E+02 -0.24604184394E+03  0.25480782798E+03  0.10000000000E+00 0. -1.
         21    1    1    2  504  503 -0.63381639339E+01  0.23727045075E+02 -0.54132754456E+02  0.59443251047E+02  0.00000000000E+00 0.  1.
<mgrwt>
<rscale>  1 0.12737758E+03</rscale>
<asrwt>0</asrwt>
<pdfrwt beam="1">  1       21 0.24922747E-02 0.12737758E+03</pdfrwt>
<pdfrwt beam="2">  1       21 0.54809825E-01 0.12737758E+03</pdfrwt>
<totfact> 0.26799303E+06</totfact>
</mgrwt>
</event>
<event>
 6    1  0.4424270E-002  0.1264837E+03  0.7546771E-02  0.1232769E+00
         21   -1    0    0  504  502  0.00000000000E+00  0.00000000000E+00  0.23593491092E+02  0.23593491092E+02  0.00000000000E+00 0.  1.
         21   -1    0    0  502  503 -0.00000000000E+00 -0.00000000000E+00 -0.24661553006E+03  0.24661553006E+03  0.00000000000E+00 0.  1.
         25    2    1    2    0    0 -0.18028324156E+02  0.69474682738E+01 -0.21466819025E+03  0.24915968445E+03  0.12499931464E+03 0.  0.
          5    1    3    3  501    0  0.16562803469E+02  0.54284560549E+02 -0.15691130937E+03  0.16686014797E+03  0.10000000000E+00 0. -1.
         -5    1    3    3    0  501 -0.34591127624E+02 -0.47337092276E+02 -0.57756880889E+02  0.82299536484E+02  0.10000000000E+00 0. -1.
         21    1    1    2  504  503  0.18028324156E+02 -0.69474682738E+01 -0.83538487134E+01  0.21049336702E+02  0.00000000000E+00 0. -1.
<mgrwt>
<rscale>  1 0.12648366E+03</rscale>
<asrwt>0</asrwt>
<pdfrwt beam="1">  1       21 0.36297679E-02 0.12648366E+03</pdfrwt>
<pdfrwt beam="2">  1       21 0.37940850E-01 0.12648366E+03</pdfrwt>
<totfact> 0.30584254E+06</totfact>
</mgrwt>
</event>
<event>
 6    1  0.4424270E-002  0.1274569E+03  0.7546771E-02  0.1231279E+00
         21   -1    0    0  503  502  0.00000000000E+00  0.00000000000E+00  0.24844767737E+03  0.24844767737E+03  0.00000000000E+00 0.  1.
         21   -1    0    0  504  503 -0.00000000000E+00 -0.00000000000E+00 -0.23616227727E+02  0.23616227727E+02  0.00000000000E+00 0.  1.
         25    2    1    2    0    0 -0.18637671340E+01  0.24841695313E+02  0.17675329480E+03  0.21791510615E+03  0.12499873124E+03 0.  0.
          5    1    3    3  501    0  0.47932579801E+02  0.40273482617E+02  0.47629286028E+02  0.78664124580E+02  0.10000000000E+00 0.  1.
         -5    1    3    3    0  501 -0.49796346935E+02 -0.15431787303E+02  0.12912400877E+03  0.13925098157E+03  0.10000000000E+00 0.  1.
         21    1    1    2  504  502  0.18637671340E+01 -0.24841695313E+02  0.48078154845E+02  0.54148798946E+02  0.00000000000E+00 0.  1.
<mgrwt>
<rscale>  1 0.12745692E+03</rscale>
<asrwt>0</asrwt>
<pdfrwt beam="1">  1       21 0.38222718E-01 0.12745692E+03</pdfrwt>
<pdfrwt beam="2">  1       21 0.36332660E-02 0.12745692E+03</pdfrwt>
<totfact> 0.30098700E+06</totfact>
</mgrwt>
</event>
<event>
 6    1  0.4424270E-002  0.1287020E+03  0.7546771E-02  0.1229395E+00
         21   -1    0    0  504  502  0.00000000000E+00  0.00000000000E+00  0.57592713000E+03  0.57592713000E+03  0.00000000000E+00 0.  1.
         21   -1    0    0  502  503 -0.00000000000E+00 -0.00000000000E+00 -0.14530231601E+02  0.14530231601E+02  0.00000000000E+00 0.  1.
         25    2    1    2    0    0  0.35380042343E+01  0.30435748842E+02  0.28924819663E+03  0.31658920325E+03  0.12500140832E+03 0.  0.
          5    1    3    3  501    0  0.80128830034E+01 -0.39424559183E+02  0.19545373371E+03  0.19955118186E+03  0.10000000000E+00 0.  1.
         -5    1    3    3    0  501 -0.44748787692E+01  0.69860308024E+02  0.93794462915E+02  0.11703802139E+03  0.10000000000E+00 0.  1.
         21    1    1    2  504  503 -0.35380042343E+01 -0.30435748842E+02  0.27214870177E+03  0.27386815835E+03  0.00000000000E+00 0.  1.
<mgrwt>
<rscale>  1 0.12870200E+03</rscale>
<asrwt>0</asrwt>
<pdfrwt beam="1">  1       21 0.88604156E-01 0.12870200E+03</pdfrwt>
<pdfrwt beam="2">  1       21 0.22354207E-02 0.12870200E+03</pdfrwt>
<totfact> 0.11221428E+06</totfact>
</mgrwt>
</event>
<event>
 6    1  0.4424270E-002  0.1265932E+03  0.7546771E-02  0.1232600E+00
         21   -1    0    0  503  502  0.00000000000E+00  0.00000000000E+00  0.20120160280E+02  0.20120160280E+02  0.00000000000E+00 0.  1.
         21   -1    0    0  504  503 -0.00000000000E+00 -0.00000000000E+00 -0.56855133739E+03  0.56855133739E+03  0.00000000000E+00 0.  1.
         25    2    1    2    0    0  0.11701329952E+02  0.16262294257E+02 -0.55367431497E+03  0.56796222845E+03  0.12499785020E+03 0.  0.
          5    1    3    3  501    0 -0.48839817896E+02  0.37042777967E+02 -0.23059948920E+03  0.23860768980E+03  0.10000000000E+00 0. -1.
         -5    1    3    3    0  501  0.60541147848E+02 -0.20780483711E+02 -0.32307482576E+03  0.32935453865E+03  0.10000000000E+00 0. -1.
         21    1    1    2  504  502 -0.11701329952E+02 -0.16262294257E+02  0.52431378551E+01  0.20709269222E+02  0.00000000000E+00 0.  1.
<mgrwt>
<rscale>  1 0.12659323E+03</rscale>
<asrwt>0</asrwt>
<pdfrwt beam="1">  1       21 0.30954090E-02 0.12659323E+03</pdfrwt>
<pdfrwt beam="2">  1       21 0.87469443E-01 0.12659323E+03</pdfrwt>
<totfact> 0.67967179E+05</totfact>
</mgrwt>
</event>
<event>
 6    1  0.4424270E-002  0.1259314E+03  0.7546771E-02  0.1233621E+00
         21   -1    0    0  503  502  0.00000000000E+00  0.00000000000E+00  0.56026255456E+02  0.56026255456E+02  0.00000000000E+00 0.  1.
         21   -1    0    0  504  503 -0.00000000000E+00 -0.00000000000E+00 -0.11147982479E+03  0.11147982479E+03  0.00000000000E+00 0.  1.
         25    2    1    2    0    0 -0.11599837137E+02  0.99722983733E+01 -0.71927516754E+02  0.14502511273E+03  0.12499885080E+03 0.  0.
          5    1    3    3  501    0  0.51329233238E+02  0.16607625667E+02 -0.59901389590E+02  0.80614452116E+02  0.10000000000E+00 0. -1.
         -5    1    3    3    0  501 -0.62929070375E+02 -0.66353272937E+01 -0.12026127164E+02  0.64410660617E+02  0.10000000000E+00 0. -1.
         21    1    1    2  504  502  0.11599837137E+02 -0.99722983733E+01  0.16473947423E+02  0.22480967509E+02  0.00000000000E+00 0. -1.
<mgrwt>
<rscale>  1 0.12593139E+03</rscale>
<asrwt>0</asrwt>
<pdfrwt beam="1">  1       21 0.86194240E-02 0.12593139E+03</pdfrwt>
<pdfrwt beam="2">  1       21 0.17150742E-01 0.12593139E+03</pdfrwt>
<totfact> 0.31965899E+06</totfact>
</mgrwt>
</event>
<event>
 6    1  0.4424270E-002  0.1274716E+03  0.7546771E-02  0.1231256E+00
         21   -1    0    0  503  502  0.00000000000E+00  0.00000000000E+00  0.14168234528E+03  0.14168234528E+03  0.00000000000E+00 0. -1.
         21   -1    0    0  504  503 -0.00000000000E+00 -0.00000000000E+00 -0.32785649867E+03  0.32785649867E+03  0.00000000000E+00 0. -1.
         25    2    1    2    0    0  0.12842205698E+02  0.21426989574E+02 -0.31421330228E+03  0.33908555049E+03  0.12499989236E+03 0.  0.
          5    1    3    3  501    0  0.41942288531E+02 -0.26796022332E+02 -0.56527989561E+02  0.75316704548E+02  0.10000000000E+00 0. -1.
         -5    1    3    3    0  501 -0.29100082833E+02  0.48223011906E+02 -0.25768531272E+03  0.26376884594E+03  0.10000000000E+00 0. -1.
         21    1    1    2  504  502 -0.12842205698E+02 -0.21426989574E+02  0.12803914888E+03  0.13045329346E+03  0.00000000000E+00 0. -1.
<mgrwt>
<rscale>  1 0.12747161E+03</rscale>
<asrwt>0</asrwt>
<pdfrwt beam="1">  1       21 0.21797284E-01 0.12747161E+03</pdfrwt>
<pdfrwt beam="2">  1       21 0.50439461E-01 0.12747161E+03</pdfrwt>
<totfact> 0.75606830E+04</totfact>
</mgrwt>
</event>
<event>
 6    1  0.4424270E-002  0.1264523E+03  0.7546771E-02  0.1232817E+00
         21   -1    0    0  504  502  0.00000000000E+00  0.00000000000E+00  0.57473484248E+02  0.57473484248E+02  0.00000000000E+00 0.  1.
         21   -1    0    0  502  503 -0.00000000000E+00 -0.00000000000E+00 -0.10695793854E+03  0.10695793854E+03  0.00000000000E+00 0.  1.
         25    2    1    2    0    0 -0.17324684894E+02  0.81005901859E+01 -0.62740607556E+02  0.14116148796E+03  0.12499767029E+03 0.  0.
          5    1    3    3  501    0  0.34573980259E+02 -0.21154430337E+02 -0.70259333174E+02  0.81112600328E+02  0.10000000000E+00 0. -1.
         -5    1    3    3    0  501 -0.51898665153E+02  0.29255020523E+02  0.75187256184E+01  0.60048887628E+02  0.10000000000E+00 0. -1.
         21    1    1    2  504  503  0.17324684894E+02 -0.81005901859E+01  0.13256153260E+02  0.23269934837E+02  0.00000000000E+00 0. -1.
<mgrwt>
<rscale>  1 0.12645229E+03</rscale>
<asrwt>0</asrwt>
<pdfrwt beam="1">  1       21 0.88420746E-02 0.12645229E+03</pdfrwt>
<pdfrwt beam="2">  1       21 0.16455067E-01 0.12645229E+03</pdfrwt>
<totfact> 0.32981963E+06</totfact>
</mgrwt>
</event>
<event>
 6    1  0.4424270E-002  0.1276399E+03  0.7546771E-02  0.1231000E+00
         21   -1    0    0  503  502  0.00000000000E+00  0.00000000000E+00  0.40817583276E+03  0.40817583276E+03  0.00000000000E+00 0. -1.
         21   -1    0    0  504  503 -0.00000000000E+00 -0.00000000000E+00 -0.25247277393E+02  0.25247277393E+02  0.00000000000E+00 0. -1.
         25    2    1    2    0    0 -0.19445746475E+02  0.17073312645E+02  0.14130616169E+03  0.19041896165E+03  0.12498925780E+03 0.  0.
          5    1    3    3  501    0  0.51855994929E+02 -0.70725590202E+01  0.56122365474E+02  0.76738485830E+02  0.10000000000E+00 0.  1.
         -5    1    3    3    0  501 -0.71301741404E+02  0.24145871665E+02  0.85183796213E+02  0.11368047582E+03  0.10000000000E+00 0.  1.
         21    1    1    2  504  502  0.19445746475E+02 -0.17073312645E+02  0.24162239368E+03  0.24300414850E+03  0.00000000000E+00 0. -1.
<mgrwt>
<rscale>  1 0.12763992E+03</rscale>
<asrwt>0</asrwt>
<pdfrwt beam="1">  1       21 0.62796277E-01 0.12763992E+03</pdfrwt>
<pdfrwt beam="2">  1       21 0.38841968E-02 0.12763992E+03</pdfrwt>
<totfact> 0.96986338E+05</totfact>
</mgrwt>
</event>
<event>
 6    1  0.4424270E-002  0.1260319E+03  0.7546771E-02  0.1233465E+00
         21   -1    0    0  503  502  0.00000000000E+00  0.00000000000E+00  0.37457734508E+02  0.37457734508E+02  0.00000000000E+00 0. -1.
         21   -1    0    0  504  503 -0.00000000000E+00 -0.00000000000E+00 -0.32451977790E+03  0.32451977790E+03  0.00000000000E+00 0. -1.
         25    2    1    2    0    0  0.14764928035E+02 -0.64292803963E+01 -0.30960442936E+03  0.33427375974E+03  0.12499882010E+03 0.  0.
          5    1    3    3  501    0 -0.52871726525E+02  0.55705901158E+01 -0.17869569300E+03  0.18643661560E+03  0.10000000000E+00 0.  1.
         -5    1    3    3    0  501  0.67636654560E+02 -0.11999870512E+02 -0.13090873636E+03  0.14783714414E+03  0.10000000000E+00 0.  1.
         21    1    1    2  504  502 -0.14764928035E+02  0.64292803963E+01  0.22542385972E+02  0.27703752662E+02  0.00000000000E+00 0. -1.
<mgrwt>
<rscale>  1 0.12603192E+03</rscale>
<asrwt>0</asrwt>
<pdfrwt beam="1">  1       21 0.57627287E-02 0.12603192E+03</pdfrwt>
<pdfrwt beam="2">  1       21 0.49926117E-01 0.12603192E+03</pdfrwt>
<totfact> 0.81079641E+05</totfact>
</mgrwt>
</event>
<event>
 6    1  0.4424270E-002  0.1284476E+03  0.7546771E-02  0.1229778E+00
         21   -1    0    0  503  502  0.00000000000E+00  0.00000000000E+00  0.12441360746E+03  0.12441360746E+03  0.00000000000E+00 0. -1.
         21   -1    0    0  504  503 -0.00000000000E+00 -0.00000000000E+00 -0.13465931376E+03  0.13465931376E+03  0.00000000000E+00 0. -1.
         25    2    1    2    0    0  0.19454904167E+02 -0.22250566890E+02 -0.10114422362E+03  0.16348986062E+03  0.12500079812E+03 0.  0.
          5    1    3    3  501    0  0.15534315827E+02 -0.61830138357E+02 -0.10571961708E+03  0.12345415511E+03  0.10000000000E+00 0. -1.
         -5    1    3    3    0  501  0.39205883401E+01  0.39579571467E+02  0.45753934603E+01  0.40035705511E+02  0.10000000000E+00 0. -1.
         21    1    1    2  504  502 -0.19454904167E+02  0.22250566890E+02  0.90898517319E+02  0.95583060601E+02  0.00000000000E+00 0. -1.
<mgrwt>
<rscale>  1 0.12844758E+03</rscale>
<asrwt>0</asrwt>
<pdfrwt beam="1">  1       21 0.19140555E-01 0.12844758E+03</pdfrwt>
<pdfrwt beam="2">  1       21 0.20716818E-01 0.12844758E+03</pdfrwt>
<totfact> 0.54526888E+05</totfact>
</mgrwt>
</event>
<event>
 6    1  0.4424270E-002  0.1268896E+03  0.7546771E-02  0.1232145E+00
         21   -1    0    0  503  502  0.00000000000E+00  0.00000000000E+00  0.19253729909E+03  0.19253729909E+03  0.00000000000E+00 0.  1.
         21   -1    0    0  504  503 -0.00000000000E+00 -0.00000000000E+00 -0.50697912034E+02  0.50697912034E+02  0.00000000000E+00 0.  1.
         25    2    1    2    0    0 -0.21801065043E+02  0.66695804936E+00  0.31473377235E+02  0.13073460049E+03  0.12500092408E+03 0.  0.
          5    1    3    3  501    0  0.18629073780E+02  0.44035156779E+02  0.49442967972E+02  0.68780480547E+02  0.10000000000E+00 0. -1.
         -5    1    3    3    0  501 -0.40430138823E+02 -0.43368198729E+02 -0.17969590737E+02  0.61954119940E+02  0.10000000000E+00 0. -1.
         21    1    1    2  504  502  0.21801065043E+02 -0.66695804936E+00  0.11036600982E+03  0.11250061063E+03  0.00000000000E+00 0.  1.
<mgrwt>
<rscale>  1 0.12688957E+03</rscale>
<asrwt>0</asrwt>
<pdfrwt beam="1">  1       21 0.29621123E-01 0.12688957E+03</pdfrwt>
<pdfrwt beam="2">  1       21 0.77996789E-02 0.12688957E+03</pdfrwt>
<totfact> 0.13670145E+06</totfact>
</mgrwt>
</event>
<event>
 6    1  0.4424270E-002  0.1379245E+03  0.7546771E-02  0.1216149E+00
         21   -1    0    0  503  502  0.00000000000E+00  0.00000000000E+00  0.81576378693E+01  0.81576378693E+01  0.00000000000E+00 0. -1.
         21   -1    0    0  504  503 -0.00000000000E+00 -0.00000000000E+00 -0.24687288269E+04  0.24687288269E+04  0.00000000000E+00 0. -1.
         25    2    1    2    0    0 -0.23637588781E+02 -0.53289287010E+02 -0.23277781629E+04  0.23318607033E+04  0.12499871994E+03 0.  0.
          5    1    3    3  501    0 -0.75074554023E+02 -0.25231639149E+02 -0.12873225016E+04  0.12897565884E+04  0.10000000000E+00 0.  1.
         -5    1    3    3    0  501  0.51436965242E+02 -0.28057647861E+02 -0.10404556613E+04  0.10421041149E+04  0.10000000000E+00 0.  1.
         21    1    1    2  504  502  0.23637588781E+02  0.53289287010E+02 -0.13279302609E+03  0.14502576147E+03  0.00000000000E+00 0. -1.
<mgrwt>
<rscale>  1 0.13792449E+03</rscale>
<asrwt>0</asrwt>
<pdfrwt beam="1">  1       21 0.12550206E-02 0.13792449E+03</pdfrwt>
<pdfrwt beam="2">  1       21 0.37980461E+00 0.13792449E+03</pdfrwt>
<totfact> 0.32492447E+04</totfact>
</mgrwt>
</event>
<event>
 6    1  0.4424270E-002  0.1900667E+03  0.7546771E-02  0.1158401E+00
         21   -1    0    0  503  502  0.00000000000E+00  0.00000000000E+00  0.48155870266E+03  0.48155870266E+03  0.00000000000E+00 0.  1.
         21   -1    0    0  504  503 -0.00000000000E+00 -0.00000000000E+00 -0.58453798919E+02  0.58453798919E+02  0.00000000000E+00 0.  1.
         25    2    1    2    0    0  0.14083242919E+03 -0.25825369591E+02  0.27219572973E+03  0.33198773953E+03  0.12499848435E+03 0.  0.
          5    1    3    3  501    0  0.81062892252E+02 -0.65696584155E+02  0.21901203467E+03  0.24259743403E+03  0.10000000000E+00 0.  1.
         -5    1    3    3    0  501  0.59769536934E+02  0.39871214564E+02  0.53183695063E+02  0.89390305496E+02  0.10000000000E+00 0.  1.
         21    1    1    2  504  502 -0.14083242919E+03  0.25825369591E+02  0.15090917401E+03  0.20802476205E+03  0.00000000000E+00 0.  1.
<mgrwt>
<rscale>  1 0.19006668E+03</rscale>
<asrwt>0</asrwt>
<pdfrwt beam="1">  1       21 0.74085951E-01 0.19006668E+03</pdfrwt>
<pdfrwt beam="2">  1       21 0.89928925E-02 0.19006668E+03</pdfrwt>
<totfact> 0.15997544E+05</totfact>
</mgrwt>
</event>
<event>
 6    1  0.4424270E-002  0.1261838E+03  0.7546771E-02  0.1233231E+00
         21   -1    0    0  503  502  0.00000000000E+00  0.00000000000E+00  0.54544474362E+03  0.54544474362E+03  0.00000000000E+00 0. -1.
         21   -1    0    0  504  503 -0.00000000000E+00 -0.00000000000E+00 -0.34944261912E+02  0.34944261912E+02  0.00000000000E+00 0.  1.
         25    2    1    2    0    0 -0.16475717922E+02  0.49768386579E+01  0.79703009190E+02  0.14924786793E+03  0.12500455273E+03 0.  0.
          5    1    3    3  501    0  0.19124710814E+02  0.26108940268E+02 -0.22206486939E+02  0.39250087743E+02  0.10000000000E+00 0.  1.
         -5    1    3    3    0  501 -0.35600428736E+02 -0.21132101610E+02  0.10190949613E+03  0.10999778019E+03  0.10000000000E+00 0.  1.
         21    1    1    2  504  502  0.16475717922E+02 -0.49768386579E+01  0.43079747252E+03  0.43114113760E+03  0.00000000000E+00 0. -1.
<mgrwt>
<rscale>  1 0.12618382E+03</rscale>
<asrwt>0</asrwt>
<pdfrwt beam="1">  1       21 0.83914570E-01 0.12618382E+03</pdfrwt>
<pdfrwt beam="2">  1       21 0.53760407E-02 0.12618382E+03</pdfrwt>
<totfact> 0.29822820E+05</totfact>
</mgrwt>
</event>
<event>
 6    1  0.4424270E-002  0.1288146E+03  0.7546771E-02  0.1229225E+00
         21   -1    0    0  504  502  0.00000000000E+00  0.00000000000E+00  0.79929551886E+02  0.79929551886E+02  0.00000000000E+00 0.  1.
         21   -1    0    0  502  503 -0.00000000000E+00 -0.00000000000E+00 -0.13965937629E+03  0.13965937629E+03  0.00000000000E+00 0.  1.
         25    2    1    2    0    0 -0.11528290632E+02  0.28893942637E+02 -0.10394765789E+03  0.16552435378E+03  0.12500173883E+03 0.  0.
          5    1    3    3  501    0 -0.91322622717E+01  0.46360387177E+02 -0.12757489959E+03  0.13604428955E+03  0.10000000000E+00 0.  1.
         -5    1    3    3    0  501 -0.23960283604E+01 -0.17466444540E+02  0.23627241703E+02  0.29480064235E+02  0.10000000000E+00 0.  1.
         21    1    1    2  504  503  0.11528290632E+02 -0.28893942637E+02  0.44217833485E+02  0.54064574391E+02  0.00000000000E+00 0.  1.
<mgrwt>
<rscale>  1 0.12881458E+03</rscale>
<asrwt>0</asrwt>
<pdfrwt beam="1">  1       21 0.12296854E-01 0.12881458E+03</pdfrwt>
<pdfrwt beam="2">  1       21 0.21486058E-01 0.12881458E+03</pdfrwt>
<totfact> 0.11332470E+06</totfact>
</mgrwt>
</event>
<event>
 6    1  0.4424270E-002  0.1271396E+03  0.7546771E-02  0.1231763E+00
         21   -1    0    0  503  502  0.00000000000E+00  0.00000000000E+00  0.17245485957E+03  0.17245485957E+03  0.00000000000E+00 0. -1.
         21   -1    0    0  504  503 -0.00000000000E+00 -0.00000000000E+00 -0.68677364862E+02  0.68677364862E+02  0.00000000000E+00 0. -1.
         25    2    1    2    0    0 -0.12719055989E+02  0.19428869298E+02 -0.75933878717E+01  0.12736610982E+03  0.12500084417E+03 0.  0.
          5    1    3    3  501    0  0.54423971846E+02 -0.72200477320E+01 -0.34450062515E+01  0.55008870820E+02  0.10000000000E+00 0.  1.
         -5    1    3    3    0  501 -0.67143027835E+02  0.26648917030E+02 -0.41483816201E+01  0.72357239001E+02  0.10000000000E+00 0.  1.
         21    1    1    2  504  502  0.12719055989E+02 -0.19428869298E+02  0.11137088258E+03  0.11376611461E+03  0.00000000000E+00 0. -1.
<mgrwt>
<rscale>  1 0.12713955E+03</rscale>
<asrwt>0</asrwt>
<pdfrwt beam="1">  1       21 0.26531517E-01 0.12713955E+03</pdfrwt>
<pdfrwt beam="2">  1       21 0.10565748E-01 0.12713955E+03</pdfrwt>
<totfact> 0.99600420E+05</totfact>
</mgrwt>
</event>
<event>
 6    1  0.4424270E-002  0.1269119E+03  0.7546771E-02  0.1232111E+00
         21   -1    0    0  504  502  0.00000000000E+00  0.00000000000E+00  0.13100093876E+04  0.13100093876E+04  0.00000000000E+00 0. -1.
         21   -1    0    0  502  503 -0.00000000000E+00 -0.00000000000E+00 -0.96495980802E+01  0.96495980802E+01  0.00000000000E+00 0. -1.
         25    2    1    2    0    0 -0.16900940390E+02 -0.14252944042E+02  0.41382210446E+03  0.43284567092E+03  0.12497140672E+03 0.  0.
          5    1    3    3  501    0 -0.28268565791E+02  0.77975404695E+00  0.12228679898E+02  0.30810232720E+02  0.10000000000E+00 0. -1.
         -5    1    3    3    0  501  0.11367625401E+02 -0.15032698089E+02  0.40159342456E+03  0.40203543820E+03  0.10000000000E+00 0. -1.
         21    1    1    2  504  503  0.16900940390E+02  0.14252944042E+02  0.88653768504E+03  0.88681331474E+03  0.00000000000E+00 0. -1.
<mgrwt>
<rscale>  1 0.12691194E+03</rscale>
<asrwt>0</asrwt>
<pdfrwt beam="1">  1       21 0.20153976E+00 0.12691194E+03</pdfrwt>
<pdfrwt beam="2">  1       21 0.14845546E-02 0.12691194E+03</pdfrwt>
<totfact> 0.27022668E+05</totfact>
</mgrwt>
</event>
<event>
 6    1  0.4424270E-002  0.1259469E+03  0.7546771E-02  0.1233597E+00
         21   -1    0    0  504  502  0.00000000000E+00  0.00000000000E+00  0.11722981143E+03  0.11722981143E+03  0.00000000000E+00 0.  1.
         21   -1    0    0  502  503 -0.00000000000E+00 -0.00000000000E+00 -0.94830145312E+02  0.94830145312E+02  0.00000000000E+00 0. -1.
         25    2    1    2    0    0  0.15314030852E+02 -0.17963192887E+01 -0.51867629159E+02  0.13620893531E+03  0.12499950720E+03 0.  0.
          5    1    3    3  501    0 -0.38386407202E+02  0.40084740216E+02 -0.36403239313E+02  0.66374004614E+02  0.10000000000E+00 0. -1.
         -5    1    3    3    0  501  0.53700438055E+02 -0.41881059505E+02 -0.15464389846E+02  0.69834930700E+02  0.10000000000E+00 0. -1.
         21    1    1    2  504  503 -0.15314030852E+02  0.17963192887E+01  0.74267295276E+02  0.75851021427E+02  0.00000000000E+00 0.  1.
<mgrwt>
<rscale>  1 0.12594691E+03</rscale>
<asrwt>0</asrwt>
<pdfrwt beam="1">  1       21 0.18035356E-01 0.12594691E+03</pdfrwt>
<pdfrwt beam="2">  1       21 0.14589253E-01 0.12594691E+03</pdfrwt>
<totfact> 0.11532131E+06</totfact>
</mgrwt>
</event>
<event>
 6    1  0.4424270E-002  0.1280922E+03  0.7546771E-02  0.1230314E+00
         21   -1    0    0  504  502  0.00000000000E+00  0.00000000000E+00  0.63395413507E+02  0.63395413507E+02  0.00000000000E+00 0.  1.
         21   -1    0    0  502  503 -0.00000000000E+00 -0.00000000000E+00 -0.41992387045E+03  0.41992387045E+03  0.00000000000E+00 0. -1.
         25    2    1    2    0    0 -0.98998261240E+01  0.26158450660E+02 -0.40641731131E+03  0.42612515062E+03  0.12500136785E+03 0.  0.
          5    1    3    3  501    0 -0.11279082914E+02 -0.30014281320E+02 -0.32849730902E+03  0.33005842941E+03  0.10000000000E+00 0.  1.
         -5    1    3    3    0  501  0.13792567904E+01  0.56172731979E+02 -0.77920002291E+02  0.96066721212E+02  0.10000000000E+00 0.  1.
         21    1    1    2  504  503  0.98998261240E+01 -0.26158450660E+02  0.49888854364E+02  0.57194133335E+02  0.00000000000E+00 0.  1.
<mgrwt>
<rscale>  1 0.12809221E+03</rscale>
<asrwt>0</asrwt>
<pdfrwt beam="1">  1       21 0.97531409E-02 0.12809221E+03</pdfrwt>
<pdfrwt beam="2">  1       21 0.64603670E-01 0.12809221E+03</pdfrwt>
<totfact> 0.19091032E+05</totfact>
</mgrwt>
</event>
<event>
 6    1  0.4424270E-002  0.1263022E+03  0.7546771E-02  0.1233048E+00
         21   -1    0    0  504  502  0.00000000000E+00  0.00000000000E+00  0.73275866836E+03  0.73275866836E+03  0.00000000000E+00 0. -1.
         21   -1    0    0  502  503 -0.00000000000E+00 -0.00000000000E+00 -0.48271846442E+02  0.48271846442E+02  0.00000000000E+00 0. -1.
         25    2    1    2    0    0 -0.69993894938E+01 -0.16690916586E+02  0.34687104305E+02  0.13097878520E+03  0.12499867526E+03 0.  0.
          5    1    3    3  501    0  0.26858966015E+02 -0.60342561660E+02  0.36960603987E+02  0.75688341573E+02  0.10000000000E+00 0. -1.
         -5    1    3    3    0  501 -0.33858355509E+02  0.43651645074E+02 -0.22734996815E+01  0.55290443625E+02  0.10000000000E+00 0. -1.
         21    1    1    2  504  503  0.69993894938E+01  0.16690916586E+02  0.64979971761E+03  0.65005172960E+03  0.00000000000E+00 0. -1.
<mgrwt>
<rscale>  1 0.12630220E+03</rscale>
<asrwt>0</asrwt>
<pdfrwt beam="1">  1       21 0.11273209E+00 0.12630220E+03</pdfrwt>
<pdfrwt beam="2">  1       21 0.74264385E-02 0.12630220E+03</pdfrwt>
<totfact> 0.86663407E+04</totfact>
</mgrwt>
</event>
<event>
 6    1  0.4424270E-002  0.1338216E+03  0.7546771E-02  0.1221893E+00
         21   -1    0    0  503  502  0.00000000000E+00  0.00000000000E+00  0.51600540849E+03  0.51600540849E+03  0.00000000000E+00 0. -1.
         21   -1    0    0  504  503 -0.00000000000E+00 -0.00000000000E+00 -0.16080596381E+02  0.16080596381E+02  0.00000000000E+00 0. -1.
         25    2    1    2    0    0  0.47205371858E+02 -0.74206352160E+01  0.38627524495E+03  0.40879919667E+03  0.12499922153E+03 0.  0.
          5    1    3    3  501    0 -0.16858042523E+02  0.13188644231E+02  0.54685943756E+01  0.22091841454E+02  0.10000000000E+00 0.  1.
         -5    1    3    3    0  501  0.64063414381E+02 -0.20609279447E+02  0.38080665057E+03  0.38670735522E+03  0.10000000000E+00 0.  1.
         21    1    1    2  504  502 -0.47205371858E+02  0.74206352160E+01  0.11364956716E+03  0.12328680820E+03  0.00000000000E+00 0. -1.
<mgrwt>
<rscale>  1 0.13382159E+03</rscale>
<asrwt>0</asrwt>
<pdfrwt beam="1">  1       21 0.79385435E-01 0.13382159E+03</pdfrwt>
<pdfrwt beam="2">  1       21 0.24739383E-02 0.13382159E+03</pdfrwt>
<totfact> 0.12196457E+06</totfact>
</mgrwt>
</event>
<event>
 6    1  0.4424270E-002  0.1260573E+03  0.7546771E-02  0.1233426E+00
         21   -1    0    0  503  502  0.00000000000E+00  0.00000000000E+00  0.14248652804E+03  0.14248652804E+03  0.00000000000E+00 0. -1.
         21   -1    0    0  504  503 -0.00000000000E+00 -0.00000000000E+00 -0.38313589113E+02  0.38313589113E+02  0.00000000000E+00 0. -1.
         25    2    1    2    0    0 -0.11262799319E+02  0.11621161481E+02  0.72979845370E+02  0.14565881484E+03  0.12501412107E+03 0.  0.
          5    1    3    3  501    0 -0.42547043732E+02  0.36719141447E+02  0.86654671415E+02  0.10328401792E+03  0.10000000000E+00 0.  1.
         -5    1    3    3    0  501  0.31284244412E+02 -0.25097979966E+02 -0.13674826045E+02  0.42374796922E+02  0.10000000000E+00 0.  1.
         21    1    1    2  504  502  0.11262799319E+02 -0.11621161481E+02  0.31193093559E+02  0.35141302316E+02  0.00000000000E+00 0. -1.
<mgrwt>
<rscale>  1 0.12605726E+03</rscale>
<asrwt>0</asrwt>
<pdfrwt beam="1">  1       21 0.21921004E-01 0.12605726E+03</pdfrwt>
<pdfrwt beam="2">  1       21 0.58943984E-02 0.12605726E+03</pdfrwt>
<totfact> 0.38978460E+06</totfact>
</mgrwt>
</event>
<event>
 6    1  0.4424270E-002  0.1273064E+03  0.7546771E-02  0.1231508E+00
         21   -1    0    0  504  502  0.00000000000E+00  0.00000000000E+00  0.99229143466E+01  0.99229143466E+01  0.00000000000E+00 0.  1.
         21   -1    0    0  502  503 -0.00000000000E+00 -0.00000000000E+00 -0.73385345994E+03  0.73385345994E+03  0.00000000000E+00 0.  1.
         25    2    1    2    0    0  0.20924712870E+02 -0.11926607377E+02 -0.69288773381E+03  0.70448586989E+03  0.12500736635E+03 0.  0.
          5    1    3    3  501    0 -0.16459338287E+02 -0.39701170108E+02 -0.58982662754E+03  0.59139035609E+03  0.10000000000E+00 0. -1.
         -5    1    3    3    0  501  0.37384051157E+02  0.27774562732E+02 -0.10306110627E+03  0.11309551380E+03  0.10000000000E+00 0. -1.
         21    1    1    2  504  503 -0.20924712870E+02  0.11926607377E+02 -0.31042811786E+02  0.39290504397E+02  0.00000000000E+00 0. -1.
<mgrwt>
<rscale>  1 0.12730644E+03</rscale>
<asrwt>0</asrwt>
<pdfrwt beam="1">  1       21 0.15266022E-02 0.12730644E+03</pdfrwt>
<pdfrwt beam="2">  1       21 0.11290053E+00 0.12730644E+03</pdfrwt>
<totfact> 0.11753152E+06</totfact>
</mgrwt>
</event>
<event>
 6    1  0.4424270E-002  0.1330216E+03  0.7546771E-02  0.1223040E+00
         21   -1    0    0  503  502  0.00000000000E+00  0.00000000000E+00  0.28260018699E+03  0.28260018699E+03  0.00000000000E+00 0. -1.
         21   -1    0    0  504  503 -0.00000000000E+00 -0.00000000000E+00 -0.82295021406E+02  0.82295021406E+02  0.00000000000E+00 0. -1.
         25    2    1    2    0    0 -0.38953437715E+02 -0.23412345493E+02  0.25870172587E+03  0.29089746191E+03  0.12501696743E+03 0.  0.
          5    1    3    3  501    0 -0.54310538228E+02  0.19559854538E+02  0.47308096805E+02  0.74634365379E+02  0.10000000000E+00 0. -1.
         -5    1    3    3    0  501  0.15357100513E+02 -0.42972200031E+02  0.21139362907E+03  0.21626309653E+03  0.10000000000E+00 0. -1.
         21    1    1    2  504  502  0.38953437715E+02  0.23412345493E+02 -0.58396560288E+02  0.73997746484E+02  0.00000000000E+00 0. -1.
<mgrwt>
<rscale>  1 0.13302162E+03</rscale>
<asrwt>0</asrwt>
<pdfrwt beam="1">  1       21 0.43476952E-01 0.13302162E+03</pdfrwt>
<pdfrwt beam="2">  1       21 0.12660773E-01 0.13302162E+03</pdfrwt>
<totfact> 0.27478103E+05</totfact>
</mgrwt>
</event>
<event>
 6    1  0.4424270E-002  0.1275838E+03  0.7546771E-02  0.1231086E+00
         21   -1    0    0  503  502  0.00000000000E+00  0.00000000000E+00  0.11582449320E+02  0.11582449320E+02  0.00000000000E+00 0. -1.
         21   -1    0    0  504  503 -0.00000000000E+00 -0.00000000000E+00 -0.89058171664E+03  0.89058171664E+03  0.00000000000E+00 0. -1.
         25    2    1    2    0    0 -0.13612033884E+02 -0.21641952701E+02 -0.86216265649E+03  0.87155153707E+03  0.12499589572E+03 0.  0.
          5    1    3    3  501    0  0.16426520782E+02  0.48393253806E+02 -0.37440190950E+03  0.37787370567E+03  0.10000000000E+00 0. -1.
         -5    1    3    3    0  501 -0.30038554667E+02 -0.70035206507E+02 -0.48776074699E+03  0.49367783141E+03  0.10000000000E+00 0. -1.
         21    1    1    2  504  502  0.13612033884E+02  0.21641952701E+02 -0.16836610834E+02  0.30612628890E+02  0.00000000000E+00 0. -1.
<mgrwt>
<rscale>  1 0.12758384E+03</rscale>
<asrwt>0</asrwt>
<pdfrwt beam="1">  1       21 0.17819143E-02 0.12758384E+03</pdfrwt>
<pdfrwt beam="2">  1       21 0.13701265E+00 0.12758384E+03</pdfrwt>
<totfact> 0.56999461E+05</totfact>
</mgrwt>
</event>
<event>
 6    1  0.4424270E-002  0.1268290E+03  0.7546771E-02  0.1232238E+00
         21   -1    0    0  504  502  0.00000000000E+00  0.00000000000E+00  0.12652347839E+03  0.12652347839E+03  0.00000000000E+00 0.  1.
         21   -1    0    0  502  503 -0.00000000000E+00 -0.00000000000E+00 -0.84671454006E+02  0.84671454006E+02  0.00000000000E+00 0.  1.
         25    2    1    2    0    0  0.18140143861E+01  0.21245273612E+02 -0.34894305683E+02  0.13154161183E+03  0.12502372085E+03 0.  0.
          5    1    3    3  501    0  0.27451534715E+01  0.48515303912E+02  0.32751570895E+02  0.58599880352E+02  0.10000000000E+00 0. -1.
         -5    1    3    3    0  501 -0.93113908537E+00 -0.27270030300E+02 -0.67645876578E+02  0.72941731475E+02  0.10000000000E+00 0. -1.
         21    1    1    2  504  503 -0.18140143861E+01 -0.21245273612E+02  0.76746330062E+02  0.79653320565E+02  0.00000000000E+00 0.  1.
<mgrwt>
<rscale>  1 0.12682895E+03</rscale>
<asrwt>0</asrwt>
<pdfrwt beam="1">  1       21 0.19465151E-01 0.12682895E+03</pdfrwt>
<pdfrwt beam="2">  1       21 0.13026378E-01 0.12682895E+03</pdfrwt>
<totfact> 0.12279698E+06</totfact>
</mgrwt>
</event>
<event>
 6    1  0.4424270E-002  0.1260793E+03  0.7546771E-02  0.1233392E+00
         21   -1    0    0  503  502  0.00000000000E+00  0.00000000000E+00  0.73867513151E+03  0.73867513151E+03  0.00000000000E+00 0. -1.
         21   -1    0    0  504  503 -0.00000000000E+00 -0.00000000000E+00 -0.90002872006E+02  0.90002872006E+02  0.00000000000E+00 0.  1.
         25    2    1    2    0    0  0.97538416998E+01  0.13243090464E+02 -0.45703562860E+02  0.13410741707E+03  0.12500186711E+03 0.  0.
          5    1    3    3  501    0 -0.13057289147E+02 -0.23110127129E+01 -0.85029478606E+02  0.86057282154E+02  0.10000000000E+00 0.  1.
         -5    1    3    3    0  501  0.22811130847E+02  0.15554103177E+02  0.39325915746E+02  0.48050134916E+02  0.10000000000E+00 0.  1.
         21    1    1    2  504  502 -0.97538416998E+01 -0.13243090464E+02  0.69437582236E+03  0.69457058645E+03  0.00000000000E+00 0. -1.
<mgrwt>
<rscale>  1 0.12607928E+03</rscale>
<asrwt>0</asrwt>
<pdfrwt beam="1">  1       21 0.11364232E+00 0.12607928E+03</pdfrwt>
<pdfrwt beam="2">  1       21 0.13846596E-01 0.12607928E+03</pdfrwt>
<totfact> 0.28564038E+04</totfact>
</mgrwt>
</event>
<event>
 6    1  0.4424270E-002  0.1277299E+03  0.7546771E-02  0.1230864E+00
         21   -1    0    0  504  502  0.00000000000E+00  0.00000000000E+00  0.26624718670E+02  0.26624718670E+02  0.00000000000E+00 0.  1.
         21   -1    0    0  502  503 -0.00000000000E+00 -0.00000000000E+00 -0.24972919643E+03  0.24972919643E+03  0.00000000000E+00 0.  1.
         25    2    1    2    0    0 -0.24139557343E+02 -0.10442425701E+02 -0.21262652356E+03  0.24804225660E+03  0.12499263999E+03 0.  0.
          5    1    3    3  501    0 -0.75557498198E+02 -0.93527060294E+01 -0.13305195892E+03  0.15329462619E+03  0.10000000000E+00 0.  1.
         -5    1    3    3    0  501  0.51417940856E+02 -0.10897196716E+01 -0.79574564639E+02  0.94747630410E+02  0.10000000000E+00 0.  1.
         21    1    1    2  504  503  0.24139557343E+02  0.10442425701E+02 -0.10477954200E+02  0.28311658507E+02  0.00000000000E+00 0.  1.
<mgrwt>
<rscale>  1 0.12772988E+03</rscale>
<asrwt>0</asrwt>
<pdfrwt beam="1">  1       21 0.40961105E-02 0.12772988E+03</pdfrwt>
<pdfrwt beam="2">  1       21 0.38419877E-01 0.12772988E+03</pdfrwt>
<totfact> 0.24423572E+06</totfact>
</mgrwt>
</event>
<event>
 6    1  0.4424270E-002  0.1263828E+03  0.7546771E-02  0.1232924E+00
         21   -1    0    0  503  502  0.00000000000E+00  0.00000000000E+00  0.18827531702E+03  0.18827531702E+03  0.00000000000E+00 0.  1.
         21   -1    0    0  504  503 -0.00000000000E+00 -0.00000000000E+00 -0.85192718335E+02  0.85192718335E+02  0.00000000000E+00 0.  1.
         25    2    1    2    0    0  0.16702324570E+02  0.83639502545E+01 -0.37359612341E+02  0.13178903921E+03  0.12499474754E+03 0.  0.
          5    1    3    3  501    0  0.13069259171E+01  0.65890273523E+02 -0.27575045891E+02  0.71439690343E+02  0.10000000000E+00 0. -1.
         -5    1    3    3    0  501  0.15395398653E+02 -0.57526323269E+02 -0.97845664494E+01  0.60349348871E+02  0.10000000000E+00 0. -1.
         21    1    1    2  504  502 -0.16702324570E+02 -0.83639502545E+01  0.14044221102E+03  0.14167899614E+03  0.00000000000E+00 0.  1.
<mgrwt>
<rscale>  1 0.12638279E+03</rscale>
<asrwt>0</asrwt>
<pdfrwt beam="1">  1       21 0.28965433E-01 0.12638279E+03</pdfrwt>
<pdfrwt beam="2">  1       21 0.13106572E-01 0.12638279E+03</pdfrwt>
<totfact> 0.57533360E+05</totfact>
</mgrwt>
</event>
<event>
 6    1  0.4424270E-002  0.1259513E+03  0.7546771E-02  0.1233590E+00
         21   -1    0    0  503  502  0.00000000000E+00  0.00000000000E+00  0.43750710213E+03  0.43750710213E+03  0.00000000000E+00 0. -1.
         21   -1    0    0  504  503 -0.00000000000E+00 -0.00000000000E+00 -0.11713678035E+02  0.11713678035E+02  0.00000000000E+00 0. -1.
         25    2    1    2    0    0  0.53331384185E+01 -0.14453424540E+02  0.35250859415E+03  0.37433413151E+03  0.12500555676E+03 0.  0.
          5    1    3    3  501    0  0.55852449100E+02  0.16160359057E+02  0.10655446133E+03  0.12138581674E+03  0.10000000000E+00 0. -1.
         -5    1    3    3    0  501 -0.50519310681E+02 -0.30613783597E+02  0.24595413282E+03  0.25294831477E+03  0.10000000000E+00 0. -1.
         21    1    1    2  504  502 -0.53331384185E+01  0.14453424540E+02  0.73284829945E+02  0.74886648652E+02  0.00000000000E+00 0.  1.
<mgrwt>
<rscale>  1 0.12595131E+03</rscale>
<asrwt>0</asrwt>
<pdfrwt beam="1">  1       21 0.67308772E-01 0.12595131E+03</pdfrwt>
<pdfrwt beam="2">  1       21 0.18021046E-02 0.12595131E+03</pdfrwt>
<totfact> 0.29230765E+06</totfact>
</mgrwt>
</event>
<event>
 6    1  0.4424270E-002  0.1324645E+03  0.7546771E-02  0.1223844E+00
         21   -1    0    0  504  502  0.00000000000E+00  0.00000000000E+00  0.28353818290E+03  0.28353818290E+03  0.00000000000E+00 0.  1.
         21   -1    0    0  502  503 -0.00000000000E+00 -0.00000000000E+00 -0.39675368344E+02  0.39675368344E+02  0.00000000000E+00 0.  1.
         25    2    1    2    0    0  0.31505374217E+02  0.30489718411E+02  0.82624287524E+02  0.15612054082E+03  0.12499855536E+03 0.  0.
          5    1    3    3  501    0  0.59712165777E+02  0.18037989076E+02 -0.56343002515E+01  0.62631199342E+02  0.10000000000E+00 0.  1.
         -5    1    3    3    0  501 -0.28206791560E+02  0.12451729335E+02  0.88258587775E+02  0.93489341476E+02  0.10000000000E+00 0.  1.
         21    1    1    2  504  503 -0.31505374217E+02 -0.30489718411E+02  0.16123852703E+03  0.16709301042E+03  0.00000000000E+00 0.  1.
<mgrwt>
<rscale>  1 0.13246452E+03</rscale>
<asrwt>0</asrwt>
<pdfrwt beam="1">  1       21 0.43621258E-01 0.13246452E+03</pdfrwt>
<pdfrwt beam="2">  1       21 0.61039030E-02 0.13246452E+03</pdfrwt>
<totfact> 0.96926806E+05</totfact>
</mgrwt>
</event>
<event>
 6    1  0.4424270E-002  0.1274211E+03  0.7546771E-02  0.1231333E+00
         21   -1    0    0  504  502  0.00000000000E+00  0.00000000000E+00  0.13223173599E+03  0.13223173599E+03  0.00000000000E+00 0.  1.
         21   -1    0    0  502  503 -0.00000000000E+00 -0.00000000000E+00 -0.55883428624E+02  0.55883428624E+02  0.00000000000E+00 0.  1.
         25    2    1    2    0    0 -0.23642976520E+02 -0.70929848982E+01  0.23202064233E+02  0.12951632561E+03  0.12500736795E+03 0.  0.
          5    1    3    3  501    0  0.49742063035E+02  0.36388524460E+01  0.23993819259E+02  0.55346431183E+02  0.10000000000E+00 0.  1.
         -5    1    3    3    0  501 -0.73385039555E+02 -0.10731837344E+02 -0.79175502587E+00  0.74169894427E+02  0.10000000000E+00 0.  1.
         21    1    1    2  504  503  0.23642976520E+02  0.70929848982E+01  0.53146243132E+02  0.58598839003E+02  0.00000000000E+00 0.  1.
<mgrwt>
<rscale>  1 0.12742112E+03</rscale>
<asrwt>0</asrwt>
<pdfrwt beam="1">  1       21 0.20343344E-01 0.12742112E+03</pdfrwt>
<pdfrwt beam="2">  1       21 0.85974506E-02 0.12742112E+03</pdfrwt>
<totfact> 0.23477988E+06</totfact>
</mgrwt>
</event>
<event>
 6    1  0.4424270E-002  0.1295805E+03  0.7546771E-02  0.1228079E+00
         21   -1    0    0  503  502  0.00000000000E+00  0.00000000000E+00  0.35167073605E+02  0.35167073605E+02  0.00000000000E+00 0. -1.
         21   -1    0    0  504  503 -0.00000000000E+00 -0.00000000000E+00 -0.19294775900E+03  0.19294775900E+03  0.00000000000E+00 0. -1.
         25    2    1    2    0    0 -0.26602999805E+02 -0.21252487839E+02 -0.13512761955E+03  0.18721802062E+03  0.12502690048E+03 0.  0.
          5    1    3    3  501    0  0.45365983461E+02 -0.12095807807E+02 -0.19770278001E+02  0.50943644491E+02  0.10000000000E+00 0. -1.
         -5    1    3    3    0  501 -0.71968983266E+02 -0.91566800319E+01 -0.11535734155E+03  0.13627437613E+03  0.10000000000E+00 0. -1.
         21    1    1    2  504  502  0.26602999805E+02  0.21252487839E+02 -0.22653065850E+02  0.40896811983E+02  0.00000000000E+00 0. -1.
<mgrwt>
<rscale>  1 0.12958053E+03</rscale>
<asrwt>0</asrwt>
<pdfrwt beam="1">  1       21 0.54103191E-02 0.12958053E+03</pdfrwt>
<pdfrwt beam="2">  1       21 0.29684270E-01 0.12958053E+03</pdfrwt>
<totfact> 0.25397349E+06</totfact>
</mgrwt>
</event>
<event>
 6    1  0.4424270E-002  0.1260980E+03  0.7546771E-02  0.1233363E+00
         21   -1    0    0  504  502  0.00000000000E+00  0.00000000000E+00  0.91100586091E+02  0.91100586091E+02  0.00000000000E+00 0. -1.
         21   -1    0    0  502  503 -0.00000000000E+00 -0.00000000000E+00 -0.56798710522E+02  0.56798710522E+02  0.00000000000E+00 0. -1.
         25    2    1    2    0    0 -0.11606086149E+02  0.11835842511E+02  0.23939854024E+02  0.12835038631E+03  0.12500366655E+03 0.  0.
          5    1    3    3  501    0  0.20588348990E+02 -0.50485648462E+02  0.20065569798E+02  0.58097486229E+02  0.10000000000E+00 0. -1.
         -5    1    3    3    0  501 -0.32194435139E+02  0.62321490973E+02  0.38742842252E+01  0.70252900078E+02  0.10000000000E+00 0. -1.
         21    1    1    2  504  503  0.11606086149E+02 -0.11835842511E+02  0.10362021546E+02  0.19548910306E+02  0.00000000000E+00 0. -1.
<mgrwt>
<rscale>  1 0.12609800E+03</rscale>
<asrwt>0</asrwt>
<pdfrwt beam="1">  1       21 0.14015475E-01 0.12609800E+03</pdfrwt>
<pdfrwt beam="2">  1       21 0.87382631E-02 0.12609800E+03</pdfrwt>
<totfact> 0.44957865E+06</totfact>
</mgrwt>
</event>
<event>
 6    1  0.4424270E-002  0.1259422E+03  0.7546771E-02  0.1233604E+00
         21   -1    0    0  503  502  0.00000000000E+00  0.00000000000E+00  0.46419546638E+02  0.46419546638E+02  0.00000000000E+00 0.  1.
         21   -1    0    0  504  503 -0.00000000000E+00 -0.00000000000E+00 -0.11055267013E+03  0.11055267013E+03  0.00000000000E+00 0.  1.
         25    2    1    2    0    0  0.15400240423E+02 -0.19512399435E+00 -0.64641020883E+02  0.14156236802E+03  0.12499694789E+03 0.  0.
          5    1    3    3  501    0  0.56385441541E+02 -0.20434112544E+02 -0.73642692235E+02  0.94974349657E+02  0.10000000000E+00 0.  1.
         -5    1    3    3    0  501 -0.40985201118E+02  0.20238988550E+02  0.90016713519E+01  0.46588018367E+02  0.10000000000E+00 0.  1.
         21    1    1    2  504  502 -0.15400240423E+02  0.19512399435E+00  0.50789739377E+00  0.15409848741E+02  0.00000000000E+00 0.  1.
<mgrwt>
<rscale>  1 0.12594222E+03</rscale>
<asrwt>0</asrwt>
<pdfrwt beam="1">  1       21 0.71414687E-02 0.12594222E+03</pdfrwt>
<pdfrwt beam="2">  1       21 0.17008103E-01 0.12594222E+03</pdfrwt>
<totfact> 0.44863077E+06</totfact>
</mgrwt>
</event>
<event>
 6    1  0.4424270E-002  0.1503801E+03  0.7546771E-02  0.1200007E+00
         21   -1    0    0  503  502  0.00000000000E+00  0.00000000000E+00  0.57089850732E+02  0.57089850732E+02  0.00000000000E+00 0. -1.
         21   -1    0    0  504  503 -0.00000000000E+00 -0.00000000000E+00 -0.36448782923E+03  0.36448782923E+03  0.00000000000E+00 0. -1.
         25    2    1    2    0    0  0.38446846259E+02  0.74233164416E+02 -0.30252223052E+03  0.33783703508E+03  0.12500175851E+03 0.  0.
          5    1    3    3  501    0  0.39750179303E+02  0.10903978165E+02 -0.15706199087E+02  0.44109728907E+02  0.10000000000E+00 0.  1.
         -5    1    3    3    0  501 -0.13033330444E+01  0.63329186251E+02 -0.28681603143E+03  0.29372730618E+03  0.10000000000E+00 0.  1.
         21    1    1    2  504  502 -0.38446846259E+02 -0.74233164416E+02 -0.48757479815E+01  0.83740644879E+02  0.00000000000E+00 0. -1.
<mgrwt>
<rscale>  1 0.15038006E+03</rscale>
<asrwt>0</asrwt>
<pdfrwt beam="1">  1       21 0.87830538E-02 0.15038006E+03</pdfrwt>
<pdfrwt beam="2">  1       21 0.56075051E-01 0.15038006E+03</pdfrwt>
<totfact> 0.30820062E+05</totfact>
</mgrwt>
</event>
<event>
 6    1  0.4424270E-002  0.1357490E+03  0.7546771E-02  0.1219166E+00
         21   -1    0    0  503  502  0.00000000000E+00  0.00000000000E+00  0.20154405531E+04  0.20154405531E+04  0.00000000000E+00 0.  1.
         21   -1    0    0  504  503 -0.00000000000E+00 -0.00000000000E+00 -0.18577580211E+03  0.18577580211E+03  0.00000000000E+00 0.  1.
         25    2    1    2    0    0 -0.44404870055E+02  0.28759796602E+02 -0.16057883622E+03  0.21026973241E+03  0.12501551640E+03 0.  0.
          5    1    3    3  501    0 -0.50561334029E+02  0.73719095915E+02 -0.94217691649E+02  0.12987662230E+03  0.10000000000E+00 0. -1.
         -5    1    3    3    0  501  0.61564639739E+01 -0.44959299313E+02 -0.66361144572E+02  0.80393110104E+02  0.10000000000E+00 0. -1.
         21    1    1    2  504  502  0.44404870055E+02 -0.28759796602E+02  0.19902435872E+04  0.19909466228E+04  0.00000000000E+00 0.  1.
<mgrwt>
<rscale>  1 0.13574902E+03</rscale>
<asrwt>0</asrwt>
<pdfrwt beam="1">  1       21 0.31006776E+00 0.13574902E+03</pdfrwt>
<pdfrwt beam="2">  1       21 0.28580894E-01 0.13574902E+03</pdfrwt>
<totfact> 0.38643576E+02</totfact>
</mgrwt>
</event>
<event>
 6    1  0.4424270E-002  0.1268700E+03  0.7546771E-02  0.1232175E+00
         21   -1    0    0  503  502  0.00000000000E+00  0.00000000000E+00  0.98258119274E+02  0.98258119274E+02  0.00000000000E+00 0. -1.
         21   -1    0    0  504  503 -0.00000000000E+00 -0.00000000000E+00 -0.17620580511E+03  0.17620580511E+03  0.00000000000E+00 0. -1.
         25    2    1    2    0    0 -0.87196893499E+01 -0.19873277814E+02 -0.15159876262E+03  0.19768201723E+03  0.12500005981E+03 0.  0.
          5    1    3    3  501    0  0.31114802693E+02 -0.44193396239E+02 -0.13929858577E+03  0.14941650918E+03  0.10000000000E+00 0. -1.
         -5    1    3    3    0  501 -0.39834492043E+02  0.24320118425E+02 -0.12300176851E+02  0.48265508047E+02  0.10000000000E+00 0. -1.
         21    1    1    2  504  502  0.87196893499E+01  0.19873277814E+02  0.73651076790E+02  0.76781907151E+02  0.00000000000E+00 0. -1.
<mgrwt>
<rscale>  1 0.12686999E+03</rscale>
<asrwt>0</asrwt>
<pdfrwt beam="1">  1       21 0.15116634E-01 0.12686999E+03</pdfrwt>
<pdfrwt beam="2">  1       21 0.27108586E-01 0.12686999E+03</pdfrwt>
<totfact> 0.50565980E+05</totfact>
</mgrwt>
</event>
<event>
 6    1  0.4424270E-002  0.1281413E+03  0.7546771E-02  0.1230240E+00
         21   -1    0    0  504  502  0.00000000000E+00  0.00000000000E+00  0.20498087467E+02  0.20498087467E+02  0.00000000000E+00 0.  1.
         21   -1    0    0  502  503 -0.00000000000E+00 -0.00000000000E+00 -0.33208733421E+03  0.33208733421E+03  0.00000000000E+00 0.  1.
         25    2    1    2    0    0  0.18438442140E+02  0.21355527818E+02 -0.29003167440E+03  0.31707818802E+03  0.12499668173E+03 0.  0.
          5    1    3    3  501    0  0.36075277922E+02  0.81209214003E+01 -0.13039725245E+02  0.39209941035E+02  0.10000000000E+00 0. -1.
         -5    1    3    3    0  501 -0.17636835782E+02  0.13234606418E+02 -0.27699194916E+03  0.27786824698E+03  0.10000000000E+00 0. -1.
         21    1    1    2  504  503 -0.18438442140E+02 -0.21355527818E+02 -0.21557572344E+02  0.35507233662E+02  0.00000000000E+00 0.  1.
<mgrwt>
<rscale>  1 0.12814135E+03</rscale>
<asrwt>0</asrwt>
<pdfrwt beam="1">  1       21 0.31535519E-02 0.12814135E+03</pdfrwt>
<pdfrwt beam="2">  1       21 0.51090359E-01 0.12814135E+03</pdfrwt>
<totfact> 0.21114580E+06</totfact>
</mgrwt>
</event>
<event>
 6    1  0.4424270E-002  0.1271494E+03  0.7546771E-02  0.1231748E+00
         21   -1    0    0  503  502  0.00000000000E+00  0.00000000000E+00  0.21685576316E+02  0.21685576316E+02  0.00000000000E+00 0.  1.
         21   -1    0    0  504  503 -0.00000000000E+00 -0.00000000000E+00 -0.39294612682E+03  0.39294612682E+03  0.00000000000E+00 0.  1.
         25    2    1    2    0    0  0.18582404160E+02  0.13963073549E+02 -0.37012973364E+03  0.39136043514E+03  0.12500678903E+03 0.  0.
          5    1    3    3  501    0 -0.12040566697E+02  0.64954646823E+02 -0.16354418077E+03  0.17638251176E+03  0.10000000000E+00 0. -1.
         -5    1    3    3    0  501  0.30622970857E+02 -0.50991573274E+02 -0.20658555286E+03  0.21497792338E+03  0.10000000000E+00 0. -1.
         21    1    1    2  504  502 -0.18582404160E+02 -0.13963073549E+02 -0.11308168678E+01  0.23271267995E+02  0.00000000000E+00 0.  1.
<mgrwt>
<rscale>  1 0.12714940E+03</rscale>
<asrwt>0</asrwt>
<pdfrwt beam="1">  1       21 0.33362428E-02 0.12714940E+03</pdfrwt>
<pdfrwt beam="2">  1       21 0.60453246E-01 0.12714940E+03</pdfrwt>
<totfact> 0.13522602E+06</totfact>
</mgrwt>
</event>
<event>
 6    1  0.4424270E-002  0.1773181E+03  0.7546771E-02  0.1170424E+00
         21   -1    0    0  503  502  0.00000000000E+00  0.00000000000E+00  0.79324762041E+02  0.79324762041E+02  0.00000000000E+00 0.  1.
         21   -1    0    0  504  503 -0.00000000000E+00 -0.00000000000E+00 -0.30724187576E+03  0.30724187576E+03  0.00000000000E+00 0. -1.
         25    2    1    2    0    0  0.98353930579E+02 -0.78373182039E+02 -0.17803787029E+03  0.25127513678E+03  0.12500343909E+03 0.  0.
          5    1    3    3  501    0  0.83734497429E+02 -0.61807015888E+01 -0.15107179410E+03  0.17283623493E+03  0.10000000000E+00 0. -1.
         -5    1    3    3    0  501  0.14619433150E+02 -0.72192480450E+02 -0.26966076189E+02  0.78438901855E+02  0.10000000000E+00 0. -1.
         21    1    1    2  504  502 -0.98353930579E+02  0.78373182039E+02 -0.49879243435E+02  0.13529150102E+03  0.00000000000E+00 0.  1.
<mgrwt>
<rscale>  1 0.17731811E+03</rscale>
<asrwt>0</asrwt>
<pdfrwt beam="1">  1       21 0.12203809E-01 0.17731811E+03</pdfrwt>
<pdfrwt beam="2">  1       21 0.47267982E-01 0.17731811E+03</pdfrwt>
<totfact> 0.24479495E+05</totfact>
</mgrwt>
</event>
<event>
 6    1  0.4424270E-002  0.1298127E+03  0.7546771E-02  0.1227734E+00
         21   -1    0    0  504  502  0.00000000000E+00  0.00000000000E+00  0.41347756255E+02  0.41347756255E+02  0.00000000000E+00 0. -1.
         21   -1    0    0  502  503 -0.00000000000E+00 -0.00000000000E+00 -0.39221092480E+03  0.39221092480E+03  0.00000000000E+00 0. -1.
         25    2    1    2    0    0 -0.34845168285E+02  0.34223608176E+01 -0.37107834968E+03  0.39312908973E+03  0.12500176513E+03 0.  0.
          5    1    3    3  501    0 -0.27979130133E+00  0.91429349581E+01 -0.35406116045E+03  0.35417931459E+03  0.10000000000E+00 0.  1.
         -5    1    3    3    0  501 -0.34565376983E+02 -0.57205741404E+01 -0.17017189234E+02  0.38949775146E+02  0.10000000000E+00 0.  1.
         21    1    1    2  504  503  0.34845168285E+02 -0.34223608176E+01  0.20215181135E+02  0.40429591325E+02  0.00000000000E+00 0. -1.
<mgrwt>
<rscale>  1 0.12981271E+03</rscale>
<asrwt>0</asrwt>
<pdfrwt beam="1">  1       21 0.63611933E-02 0.12981271E+03</pdfrwt>
<pdfrwt beam="2">  1       21 0.60340142E-01 0.12981271E+03</pdfrwt>
<totfact> 0.46118353E+05</totfact>
</mgrwt>
</event>
<event>
 6    1  0.4424270E-002  0.1344038E+03  0.7546771E-02  0.1221064E+00
         21   -1    0    0  504  502  0.00000000000E+00  0.00000000000E+00  0.26943303511E+03  0.26943303511E+03  0.00000000000E+00 0. -1.
         21   -1    0    0  502  503 -0.00000000000E+00 -0.00000000000E+00 -0.69874383161E+02  0.69874383161E+02  0.00000000000E+00 0. -1.
         25    2    1    2    0    0  0.35181698381E+02  0.34657090672E+02  0.69714800821E+00  0.13440557937E+03  0.12500203165E+03 0.  0.
          5    1    3    3  501    0 -0.18545705314E+02  0.45579861528E+02  0.42847951384E+02  0.65248937924E+02  0.10000000000E+00 0. -1.
         -5    1    3    3    0  501  0.53727403695E+02 -0.10922770855E+02 -0.42150803376E+02  0.69156641447E+02  0.10000000000E+00 0. -1.
         21    1    1    2  504  503 -0.35181698381E+02 -0.34657090672E+02  0.19886150394E+03  0.20490183890E+03  0.00000000000E+00 0. -1.
<mgrwt>
<rscale>  1 0.13440377E+03</rscale>
<asrwt>0</asrwt>
<pdfrwt beam="1">  1       21 0.41451236E-01 0.13440377E+03</pdfrwt>
<pdfrwt beam="2">  1       21 0.10749905E-01 0.13440377E+03</pdfrwt>
<totfact> 0.40404811E+05</totfact>
</mgrwt>
</event>
<event>
 6    1  0.4424270E-002  0.1488105E+03  0.7546771E-02  0.1201942E+00
         21   -1    0    0  503  502  0.00000000000E+00  0.00000000000E+00  0.84439209227E+02  0.84439209227E+02  0.00000000000E+00 0. -1.
         21   -1    0    0  504  503 -0.00000000000E+00 -0.00000000000E+00 -0.21341650097E+03  0.21341650097E+03  0.00000000000E+00 0. -1.
         25    2    1    2    0    0 -0.61264159048E+02  0.52604927751E+02 -0.15317468104E+03  0.21355808712E+03  0.12499599215E+03 0.  0.
          5    1    3    3  501    0 -0.44325119569E+02  0.93727248688E+02 -0.11611263430E+03  0.15566524087E+03  0.10000000000E+00 0.  1.
         -5    1    3    3    0  501 -0.16939039479E+02 -0.41122320937E+02 -0.37062046736E+02  0.57892846242E+02  0.10000000000E+00 0.  1.
         21    1    1    2  504  502  0.61264159048E+02 -0.52604927751E+02  0.24197389301E+02  0.84297623077E+02  0.00000000000E+00 0. -1.
<mgrwt>
<rscale>  1 0.14881053E+03</rscale>
<asrwt>0</asrwt>
<pdfrwt beam="1">  1       21 0.12990648E-01 0.14881053E+03</pdfrwt>
<pdfrwt beam="2">  1       21 0.32833307E-01 0.14881053E+03</pdfrwt>
<totfact> 0.45766373E+05</totfact>
</mgrwt>
</event>
<event>
 6    1  0.4424270E-002  0.1309260E+03  0.7546771E-02  0.1226088E+00
         21   -1    0    0  503  502  0.00000000000E+00  0.00000000000E+00  0.94178530141E+02  0.94178530141E+02  0.00000000000E+00 0.  1.
         21   -1    0    0  504  503 -0.00000000000E+00 -0.00000000000E+00 -0.11217744255E+03  0.11217744255E+03  0.00000000000E+00 0.  1.
         25    2    1    2    0    0  0.37678839283E+01 -0.38798594602E+02 -0.64272893817E+02  0.14585135098E+03  0.12498833470E+03 0.  0.
          5    1    3    3  501    0  0.45400747553E+01 -0.59095480697E+02  0.17335755238E+02  0.61752947519E+02  0.10000000000E+00 0.  1.
         -5    1    3    3    0  501 -0.77219082707E+00  0.20296886095E+02 -0.81608649055E+02  0.84098403459E+02  0.10000000000E+00 0.  1.
         21    1    1    2  504  502 -0.37678839283E+01  0.38798594602E+02  0.46273981412E+02  0.60504621708E+02  0.00000000000E+00 0.  1.
<mgrwt>
<rscale>  1 0.13092598E+03</rscale>
<asrwt>0</asrwt>
<pdfrwt beam="1">  1       21 0.14489005E-01 0.13092598E+03</pdfrwt>
<pdfrwt beam="2">  1       21 0.17258068E-01 0.13092598E+03</pdfrwt>
<totfact> 0.12662221E+06</totfact>
</mgrwt>
</event>
<event>
 6    1  0.4424270E-002  0.1267528E+03  0.7546771E-02  0.1232355E+00
         21   -1    0    0  503  502  0.00000000000E+00  0.00000000000E+00  0.49686351676E+02  0.49686351676E+02  0.00000000000E+00 0. -1.
         21   -1    0    0  504  503 -0.00000000000E+00 -0.00000000000E+00 -0.11910617374E+03  0.11910617374E+03  0.00000000000E+00 0. -1.
         25    2    1    2    0    0  0.20981159040E+02  0.85846052377E+00 -0.74717435705E+02  0.14713587056E+03  0.12500129287E+03 0.  0.
          5    1    3    3  501    0  0.39404982225E+01 -0.14156217361E+02  0.33489214021E+02  0.36571347691E+02  0.10000000000E+00 0.  1.
         -5    1    3    3    0  501  0.17040660817E+02  0.15014677885E+02 -0.10820664973E+03  0.11056452287E+03  0.10000000000E+00 0.  1.
         21    1    1    2  504  502 -0.20981159040E+02 -0.85846052377E+00  0.52976136414E+01  0.21656654853E+02  0.00000000000E+00 0. -1.
<mgrwt>
<rscale>  1 0.12675279E+03</rscale>
<asrwt>0</asrwt>
<pdfrwt beam="1">  1       21 0.76440542E-02 0.12675279E+03</pdfrwt>
<pdfrwt beam="2">  1       21 0.18324027E-01 0.12675279E+03</pdfrwt>
<totfact> 0.34853954E+06</totfact>
</mgrwt>
</event>
<event>
 6    1  0.4424270E-002  0.1453527E+03  0.7546771E-02  0.1206303E+00
         21   -1    0    0  504  502  0.00000000000E+00  0.00000000000E+00  0.13749003694E+03  0.13749003694E+03  0.00000000000E+00 0. -1.
         21   -1    0    0  502  503 -0.00000000000E+00 -0.00000000000E+00 -0.10649851040E+03  0.10649851040E+03  0.00000000000E+00 0. -1.
         25    2    1    2    0    0  0.58565299242E+02  0.45524422373E+02 -0.29447302981E+02  0.14830563653E+03  0.12500020346E+03 0.  0.
          5    1    3    3  501    0  0.63387874074E+02 -0.29679204151E+02 -0.14616412885E+02  0.71501938885E+02  0.10000000000E+00 0.  1.
         -5    1    3    3    0  501 -0.48225748325E+01  0.75203626524E+02 -0.14830890097E+02  0.76803697641E+02  0.10000000000E+00 0.  1.
         21    1    1    2  504  503 -0.58565299242E+02 -0.45524422373E+02  0.60438829520E+02  0.95682910812E+02  0.00000000000E+00 0. -1.
<mgrwt>
<rscale>  1 0.14535274E+03</rscale>
<asrwt>0</asrwt>
<pdfrwt beam="1">  1       21 0.21152313E-01 0.14535274E+03</pdfrwt>
<pdfrwt beam="2">  1       21 0.16384386E-01 0.14535274E+03</pdfrwt>
<totfact> 0.69682220E+05</totfact>
</mgrwt>
</event>
<event>
 6    1  0.4424270E-002  0.1579306E+03  0.7546771E-02  0.1191053E+00
         21   -1    0    0  503  502  0.00000000000E+00  0.00000000000E+00  0.54518095788E+02  0.54518095788E+02  0.00000000000E+00 0.  1.
         21   -1    0    0  504  503 -0.00000000000E+00 -0.00000000000E+00 -0.86667578629E+03  0.86667578629E+03  0.00000000000E+00 0.  1.
         25    2    1    2    0    0 -0.81568683964E+02 -0.51640673283E+02 -0.80934692226E+03  0.82461174212E+03  0.12498750071E+03 0.  0.
          5    1    3    3  501    0  0.22838590717E+02 -0.48018557362E+02 -0.24996298742E+03  0.25555603721E+03  0.10000000000E+00 0. -1.
         -5    1    3    3    0  501 -0.10440727468E+03 -0.36221159206E+01 -0.55938393484E+03  0.56905570491E+03  0.10000000000E+00 0. -1.
         21    1    1    2  504  502  0.81568683964E+02  0.51640673283E+02 -0.28107682451E+01  0.96582139958E+02  0.00000000000E+00 0.  1.
<mgrwt>
<rscale>  1 0.15793063E+03</rscale>
<asrwt>0</asrwt>
<pdfrwt beam="1">  1       21 0.83873998E-02 0.15793063E+03</pdfrwt>
<pdfrwt beam="2">  1       21 0.13333473E+00 0.15793063E+03</pdfrwt>
<totfact> 0.45702307E+04</totfact>
</mgrwt>
</event>
<event>
 6    1  0.4424270E-002  0.1483486E+03  0.7546771E-02  0.1202517E+00
         21   -1    0    0  503  502  0.00000000000E+00  0.00000000000E+00  0.12127719453E+03  0.12127719453E+03  0.00000000000E+00 0. -1.
         21   -1    0    0  504  503 -0.00000000000E+00 -0.00000000000E+00 -0.20921074097E+03  0.20921074097E+03  0.00000000000E+00 0. -1.
         25    2    1    2    0    0  0.75289658490E+02 -0.26723115586E+02 -0.16332456627E+03  0.22064048013E+03  0.12499859976E+03 0.  0.
          5    1    3    3  501    0  0.23892813080E+02  0.22907918775E+02  0.88216146287E+01  0.34255950492E+02  0.10000000000E+00 0. -1.
         -5    1    3    3    0  501  0.51396845409E+02 -0.49631034361E+02 -0.17214618090E+03  0.18638452964E+03  0.10000000000E+00 0. -1.
         21    1    1    2  504  502 -0.75289658490E+02  0.26723115586E+02  0.75391019826E+02  0.10984745538E+03  0.00000000000E+00 0. -1.
<mgrwt>
<rscale>  1 0.14834860E+03</rscale>
<asrwt>0</asrwt>
<pdfrwt beam="1">  1       21 0.18658030E-01 0.14834860E+03</pdfrwt>
<pdfrwt beam="2">  1       21 0.32186268E-01 0.14834860E+03</pdfrwt>
<totfact> 0.24664112E+05</totfact>
</mgrwt>
</event>
<event>
 6    1  0.4424270E-002  0.1361811E+03  0.7546771E-02  0.1218562E+00
         21   -1    0    0  504  502  0.00000000000E+00  0.00000000000E+00  0.62510102123E+02  0.62510102123E+02  0.00000000000E+00 0.  1.
         21   -1    0    0  502  503 -0.00000000000E+00 -0.00000000000E+00 -0.17420417456E+03  0.17420417456E+03  0.00000000000E+00 0.  1.
         25    2    1    2    0    0 -0.20662769246E+02 -0.49933710642E+02 -0.12064799686E+03  0.18193747271E+03  0.12499991736E+03 0.  0.
          5    1    3    3  501    0  0.19593112825E+02  0.31860499855E+02 -0.10285220789E+02  0.38791458955E+02  0.10000000000E+00 0. -1.
         -5    1    3    3    0  501 -0.40255882071E+02 -0.81794210497E+02 -0.11036277607E+03  0.14314601376E+03  0.10000000000E+00 0. -1.
         21    1    1    2  504  503  0.20662769246E+02  0.49933710642E+02  0.89539244191E+01  0.54776803976E+02  0.00000000000E+00 0.  1.
<mgrwt>
<rscale>  1 0.13618115E+03</rscale>
<asrwt>0</asrwt>
<pdfrwt beam="1">  1       21 0.96169389E-02 0.13618115E+03</pdfrwt>
<pdfrwt beam="2">  1       21 0.26800642E-01 0.13618115E+03</pdfrwt>
<totfact> 0.11528464E+06</totfact>
</mgrwt>
</event>
<event>
 6    1  0.4424270E-002  0.1477366E+03  0.7546771E-02  0.1203282E+00
         21   -1    0    0  504  502  0.00000000000E+00  0.00000000000E+00  0.22759224571E+03  0.22759224571E+03  0.00000000000E+00 0.  1.
         21   -1    0    0  502  503 -0.00000000000E+00 -0.00000000000E+00 -0.71786432595E+02  0.71786432595E+02  0.00000000000E+00 0. -1.
         25    2    1    2    0    0 -0.33875792905E+02  0.71087655982E+02  0.29679797357E+02  0.15068840953E+03  0.12500032887E+03 0.  0.
          5    1    3    3  501    0 -0.69927236998E+02  0.32088963205E+02 -0.18333975358E+02  0.79092760011E+02  0.10000000000E+00 0. -1.
         -5    1    3    3    0  501  0.36051444092E+02  0.38998692777E+02  0.48013772715E+02  0.71595649517E+02  0.10000000000E+00 0. -1.
         21    1    1    2  504  503  0.33875792905E+02 -0.71087655982E+02  0.12612601576E+03  0.14869026878E+03  0.00000000000E+00 0.  1.
<mgrwt>
<rscale>  1 0.14773661E+03</rscale>
<asrwt>0</asrwt>
<pdfrwt beam="1">  1       21 0.35014191E-01 0.14773661E+03</pdfrwt>
<pdfrwt beam="2">  1       21 0.11044067E-01 0.14773661E+03</pdfrwt>
<totfact> 0.53833982E+05</totfact>
</mgrwt>
</event>
<event>
 6    1  0.4424270E-002  0.1345315E+03  0.7546771E-02  0.1220883E+00
         21   -1    0    0  504  502  0.00000000000E+00  0.00000000000E+00  0.34601393172E+02  0.34601393172E+02  0.00000000000E+00 0. -1.
         21   -1    0    0  502  503 -0.00000000000E+00 -0.00000000000E+00 -0.30028474290E+03  0.30028474290E+03  0.00000000000E+00 0. -1.
         25    2    1    2    0    0 -0.25057510164E+02 -0.42967740866E+02 -0.24791967881E+03  0.28206896486E+03  0.12499851289E+03 0.  0.
          5    1    3    3  501    0 -0.61926989873E+02 -0.66022792929E+02 -0.17880815622E+03  0.20041538861E+03  0.10000000000E+00 0. -1.
         -5    1    3    3    0  501  0.36869479709E+02  0.23055052063E+02 -0.69111522581E+02  0.81653576242E+02  0.10000000000E+00 0. -1.
         21    1    1    2  504  503  0.25057510164E+02  0.42967740866E+02 -0.17763670924E+02  0.52817171218E+02  0.00000000000E+00 0. -1.
<mgrwt>
<rscale>  1 0.13453153E+03</rscale>
<asrwt>0</asrwt>
<pdfrwt beam="1">  1       21 0.53232914E-02 0.13453153E+03</pdfrwt>
<pdfrwt beam="2">  1       21 0.46197652E-01 0.13453153E+03</pdfrwt>
<totfact> 0.10873503E+06</totfact>
</mgrwt>
</event>
<event>
 6    1  0.4424270E-002  0.1327647E+03  0.7546771E-02  0.1223410E+00
         21   -1    0    0  503  502  0.00000000000E+00  0.00000000000E+00  0.57891077610E+02  0.57891077610E+02  0.00000000000E+00 0.  1.
         21   -1    0    0  504  503 -0.00000000000E+00 -0.00000000000E+00 -0.41313131372E+03  0.41313131372E+03  0.00000000000E+00 0. -1.
         25    2    1    2    0    0  0.39774794684E+02 -0.20473001656E+02 -0.39152481314E+03  0.41342249012E+03  0.12500119179E+03 0.  0.
          5    1    3    3  501    0 -0.63567879312E+01 -0.42664987728E+02 -0.33251903561E+03  0.33530527728E+03  0.10000000000E+00 0.  1.
         -5    1    3    3    0  501  0.46131582615E+02  0.22191986072E+02 -0.59005777531E+02  0.78117212843E+02  0.10000000000E+00 0.  1.
         21    1    1    2  504  502 -0.39774794684E+02  0.20473001656E+02  0.36284577028E+02  0.57599901206E+02  0.00000000000E+00 0.  1.
<mgrwt>
<rscale>  1 0.13276474E+03</rscale>
<asrwt>0</asrwt>
<pdfrwt beam="1">  1       21 0.89063195E-02 0.13276474E+03</pdfrwt>
<pdfrwt beam="2">  1       21 0.63558665E-01 0.13276474E+03</pdfrwt>
<totfact> 0.23132232E+05</totfact>
</mgrwt>
</event>
<event>
 6    1  0.4424270E-002  0.2352104E+03  0.7546771E-02  0.1123025E+00
         21   -1    0    0  503  502  0.00000000000E+00  0.00000000000E+00  0.46722118118E+03  0.46722118118E+03  0.00000000000E+00 0.  1.
         21   -1    0    0  504  503 -0.00000000000E+00 -0.00000000000E+00 -0.12535024471E+03  0.12535024471E+03  0.00000000000E+00 0. -1.
         25    2    1    2    0    0  0.19033075414E+03  0.58933955135E+02  0.52103434725E+02  0.24091219865E+03  0.12499965005E+03 0.  0.
          5    1    3    3  501    0  0.20813108249E+03  0.58200659531E+02  0.54642937559E+02  0.22291640786E+03  0.10000000000E+00 0.  1.
         -5    1    3    3    0  501 -0.17800328349E+02  0.73329560432E+00 -0.25395028342E+01  0.17995790797E+02  0.10000000000E+00 0.  1.
         21    1    1    2  504  502 -0.19033075414E+03 -0.58933955135E+02  0.28976750174E+03  0.35165922724E+03  0.00000000000E+00 0.  1.
<mgrwt>
<rscale>  1 0.23521037E+03</rscale>
<asrwt>0</asrwt>
<pdfrwt beam="1">  1       21 0.71880181E-01 0.23521037E+03</pdfrwt>
<pdfrwt beam="2">  1       21 0.19284653E-01 0.23521037E+03</pdfrwt>
<totfact> 0.42290566E+04</totfact>
</mgrwt>
</event>
<event>
 6    1  0.4424270E-002  0.1270841E+03  0.7546771E-02  0.1231848E+00
         21   -1    0    0  503  502  0.00000000000E+00  0.00000000000E+00  0.16886676913E+03  0.16886676913E+03  0.00000000000E+00 0.  1.
         21   -1    0    0  504  503 -0.00000000000E+00 -0.00000000000E+00 -0.33568718417E+02  0.33568718417E+02  0.00000000000E+00 0.  1.
         25    2    1    2    0    0 -0.73464890353E+01  0.21644484754E+02  0.12099943727E+03  0.17547431236E+03  0.12501166287E+03 0.  0.
          5    1    3    3  501    0 -0.40439415731E+02 -0.79661403466E+01 -0.53369827238E+01  0.41560788266E+02  0.10000000000E+00 0. -1.
         -5    1    3    3    0  501  0.33092926696E+02  0.29610625100E+02  0.12633642000E+03  0.13391352409E+03  0.10000000000E+00 0. -1.
         21    1    1    2  504  502  0.73464890353E+01 -0.21644484754E+02  0.14298613437E+02  0.26961175190E+02  0.00000000000E+00 0.  1.
<mgrwt>
<rscale>  1 0.12708411E+03</rscale>
<asrwt>0</asrwt>
<pdfrwt beam="1">  1       21 0.25979502E-01 0.12708411E+03</pdfrwt>
<pdfrwt beam="2">  1       21 0.51644183E-02 0.12708411E+03</pdfrwt>
<totfact> 0.35413453E+06</totfact>
</mgrwt>
</event>
<event>
 6    1  0.4424270E-002  0.1275465E+03  0.7546771E-02  0.1231142E+00
         21   -1    0    0  503  502  0.00000000000E+00  0.00000000000E+00  0.14750917249E+02  0.14750917249E+02  0.00000000000E+00 0.  1.
         21   -1    0    0  504  503 -0.00000000000E+00 -0.00000000000E+00 -0.39737954026E+03  0.39737954026E+03  0.00000000000E+00 0.  1.
         25    2    1    2    0    0 -0.19566502901E+02 -0.16105211435E+02 -0.31031537153E+03  0.33550518615E+03  0.12500349697E+03 0.  0.
          5    1    3    3  501    0 -0.42103956294E+02 -0.52446386698E+02 -0.97567931895E+02  0.11850264954E+03  0.10000000000E+00 0. -1.
         -5    1    3    3    0  501  0.22537453393E+02  0.36341175262E+02 -0.21274743964E+03  0.21700253661E+03  0.10000000000E+00 0. -1.
         21    1    1    2  504  502  0.19566502901E+02  0.16105211435E+02 -0.72313251474E+02  0.76625271353E+02  0.00000000000E+00 0.  1.
<mgrwt>
<rscale>  1 0.12754646E+03</rscale>
<asrwt>0</asrwt>
<pdfrwt beam="1">  1       21 0.22693715E-02 0.12754646E+03</pdfrwt>
<pdfrwt beam="2">  1       21 0.61135325E-01 0.12754646E+03</pdfrwt>
<totfact> 0.24780911E+06</totfact>
</mgrwt>
</event>
<event>
 6    1  0.4424270E-002  0.1275820E+03  0.7546771E-02  0.1231088E+00
         21   -1    0    0  504  502  0.00000000000E+00  0.00000000000E+00  0.35940466864E+03  0.35940466864E+03  0.00000000000E+00 0.  1.
         21   -1    0    0  502  503 -0.00000000000E+00 -0.00000000000E+00 -0.16321279615E+02  0.16321279615E+02  0.00000000000E+00 0.  1.
         25    2    1    2    0    0  0.20990938619E+02  0.14566960936E+02  0.28922803771E+03  0.31611710059E+03  0.12499739050E+03 0.  0.
          5    1    3    3  501    0  0.25321416617E+01 -0.22857134217E+02  0.26857347609E+03  0.26955626942E+03  0.10000000000E+00 0. -1.
         -5    1    3    3    0  501  0.18458796957E+02  0.37424095154E+02  0.20654561624E+02  0.46560831168E+02  0.10000000000E+00 0. -1.
         21    1    1    2  504  503 -0.20990938619E+02 -0.14566960936E+02  0.53855351314E+02  0.59608847667E+02  0.00000000000E+00 0.  1.
<mgrwt>
<rscale>  1 0.12758199E+03</rscale>
<asrwt>0</asrwt>
<pdfrwt beam="1">  1       21 0.55293020E-01 0.12758199E+03</pdfrwt>
<pdfrwt beam="2">  1       21 0.25109664E-02 0.12758199E+03</pdfrwt>
<totfact> 0.25994843E+06</totfact>
</mgrwt>
</event>
<event>
 6    1  0.4424270E-002  0.1264138E+03  0.7546771E-02  0.1232876E+00
         21   -1    0    0  503  502  0.00000000000E+00  0.00000000000E+00  0.69920545617E+03  0.69920545617E+03  0.00000000000E+00 0. -1.
         21   -1    0    0  504  503 -0.00000000000E+00 -0.00000000000E+00 -0.84624549109E+01  0.84624549109E+01  0.00000000000E+00 0. -1.
         25    2    1    2    0    0 -0.76298466402E+01 -0.17197815733E+02  0.48995423542E+03  0.50599959946E+03  0.12500584954E+03 0.  0.
          5    1    3    3  501    0  0.14353200728E+02  0.50537268251E+01  0.46688605846E+03  0.46713398090E+03  0.10000000000E+00 0.  1.
         -5    1    3    3    0  501 -0.21983047368E+02 -0.22251542558E+02  0.23068176963E+02  0.38865618562E+02  0.10000000000E+00 0.  1.
         21    1    1    2  504  502  0.76298466402E+01  0.17197815733E+02  0.20078876584E+03  0.20166831162E+03  0.00000000000E+00 0. -1.
<mgrwt>
<rscale>  1 0.12641377E+03</rscale>
<asrwt>0</asrwt>
<pdfrwt beam="1">  1       21 0.10757002E+00 0.12641377E+03</pdfrwt>
<pdfrwt beam="2">  1       21 0.13019167E-02 0.12641377E+03</pdfrwt>
<totfact> 0.16999624E+06</totfact>
</mgrwt>
</event>
<event>
 6    1  0.4424270E-002  0.1730692E+03  0.7546771E-02  0.1174684E+00
         21   -1    0    0  504  502  0.00000000000E+00  0.00000000000E+00  0.28790510072E+02  0.28790510072E+02  0.00000000000E+00 0.  1.
         21   -1    0    0  502  503 -0.00000000000E+00 -0.00000000000E+00 -0.83716478937E+03  0.83716478937E+03  0.00000000000E+00 0.  1.
         25    2    1    2    0    0 -0.53905746769E+02 -0.10686915876E+03 -0.61178692221E+03  0.63579571221E+03  0.12500441131E+03 0.  0.
          5    1    3    3  501    0 -0.76223270135E+02 -0.58391557411E+02 -0.52652612056E+03  0.53520960989E+03  0.10000000000E+00 0.  1.
         -5    1    3    3    0  501  0.22317523366E+02 -0.48477601347E+02 -0.85260801655E+02  0.10058610232E+03  0.10000000000E+00 0.  1.
         21    1    1    2  504  503  0.53905746769E+02  0.10686915876E+03 -0.19658735708E+03  0.23015958723E+03  0.00000000000E+00 0.  1.
<mgrwt>
<rscale>  1 0.17306920E+03</rscale>
<asrwt>0</asrwt>
<pdfrwt beam="1">  1       21 0.44293094E-02 0.17306920E+03</pdfrwt>
<pdfrwt beam="2">  1       21 0.12879458E+00 0.17306920E+03</pdfrwt>
<totfact> 0.14725191E+05</totfact>
</mgrwt>
</event>
<event>
 6    1  0.4424270E-002  0.1264232E+03  0.7546771E-02  0.1232862E+00
         21   -1    0    0  504  502  0.00000000000E+00  0.00000000000E+00  0.13725228254E+04  0.13725228254E+04  0.00000000000E+00 0. -1.
         21   -1    0    0  502  503 -0.00000000000E+00 -0.00000000000E+00 -0.49705513021E+01  0.49705513021E+01  0.00000000000E+00 0. -1.
         25    2    1    2    0    0  0.14297092418E+02 -0.12405661111E+02  0.82677485795E+03  0.83638477291E+03  0.12499806136E+03 0.  0.
          5    1    3    3  501    0 -0.39257498023E+02 -0.10403519526E+02  0.10434711862E+03  0.11197194083E+03  0.10000000000E+00 0.  1.
         -5    1    3    3    0  501  0.53554590442E+02 -0.20021415850E+01  0.72242773933E+03  0.72441283208E+03  0.10000000000E+00 0.  1.
         21    1    1    2  504  503 -0.14297092418E+02  0.12405661111E+02  0.54077741614E+03  0.54110860378E+03  0.00000000000E+00 0. -1.
<mgrwt>
<rscale>  1 0.12642319E+03</rscale>
<asrwt>0</asrwt>
<pdfrwt beam="1">  1       21 0.21115706E+00 0.12642319E+03</pdfrwt>
<pdfrwt beam="2">  1       21 0.76470129E-03 0.12642319E+03</pdfrwt>
<totfact> 0.67175464E+05</totfact>
</mgrwt>
</event>
<event>
 6    1  0.4424270E-002  0.1268025E+03  0.7546771E-02  0.1232279E+00
         21   -1    0    0  504  502  0.00000000000E+00  0.00000000000E+00  0.94077095832E+01  0.94077095832E+01  0.00000000000E+00 0. -1.
         21   -1    0    0  502  503 -0.00000000000E+00 -0.00000000000E+00 -0.13002034857E+04  0.13002034857E+04  0.00000000000E+00 0. -1.
         25    2    1    2    0    0  0.12082904041E+02 -0.17544779057E+02 -0.12789807068E+04  0.12852511521E+04  0.12500023886E+03 0.  0.
          5    1    3    3  501    0  0.47173850174E+02 -0.47925350243E+02 -0.45266198297E+03  0.45762986372E+03  0.10000000000E+00 0.  1.
         -5    1    3    3    0  501 -0.35090946133E+02  0.30380571187E+02 -0.82631872383E+03  0.82762128837E+03  0.10000000000E+00 0.  1.
         21    1    1    2  504  503 -0.12082904041E+02  0.17544779057E+02 -0.11815069330E+02  0.24360043216E+02  0.00000000000E+00 0. -1.
<mgrwt>
<rscale>  1 0.12680251E+03</rscale>
<asrwt>0</asrwt>
<pdfrwt beam="1">  1       21 0.14473405E-02 0.12680251E+03</pdfrwt>
<pdfrwt beam="2">  1       21 0.20003122E+00 0.12680251E+03</pdfrwt>
<totfact> 0.28760461E+05</totfact>
</mgrwt>
</event>
<event>
 6    1  0.4424270E-002  0.1261817E+03  0.7546771E-02  0.1233234E+00
         21   -1    0    0  504  502  0.00000000000E+00  0.00000000000E+00  0.20147465888E+02  0.20147465888E+02  0.00000000000E+00 0.  1.
         21   -1    0    0  502  503 -0.00000000000E+00 -0.00000000000E+00 -0.11433541428E+04  0.11433541428E+04  0.00000000000E+00 0.  1.
         25    2    1    2    0    0 -0.76684606264E+01 -0.15483418959E+02 -0.11353770908E+04  0.11423672640E+04  0.12499314362E+03 0.  0.
          5    1    3    3  501    0 -0.74149687073E+01 -0.61780538496E+02 -0.91840961315E+03  0.92051509723E+03  0.10000000000E+00 0. -1.
         -5    1    3    3    0  501 -0.25349191906E+00  0.46297119537E+02 -0.21696747765E+03  0.22185216675E+03  0.10000000000E+00 0. -1.
         21    1    1    2  504  503  0.76684606264E+01  0.15483418959E+02  0.12170413902E+02  0.21134344693E+02  0.00000000000E+00 0.  1.
<mgrwt>
<rscale>  1 0.12618172E+03</rscale>
<asrwt>0</asrwt>
<pdfrwt beam="1">  1       21 0.30996096E-02 0.12618172E+03</pdfrwt>
<pdfrwt beam="2">  1       21 0.17590067E+00 0.12618172E+03</pdfrwt>
<totfact> 0.12055981E+05</totfact>
</mgrwt>
</event>
<event>
 6    1  0.4424270E-002  0.1374955E+03  0.7546771E-02  0.1216739E+00
         21   -1    0    0  504  502  0.00000000000E+00  0.00000000000E+00  0.68100098476E+02  0.68100098476E+02  0.00000000000E+00 0. -1.
         21   -1    0    0  502  503 -0.00000000000E+00 -0.00000000000E+00 -0.27360319187E+03  0.27360319187E+03  0.00000000000E+00 0. -1.
         25    2    1    2    0    0 -0.49066426351E+01  0.57054977450E+02 -0.23873152261E+03  0.27549548037E+03  0.12500269685E+03 0.  0.
          5    1    3    3  501    0 -0.29939595512E+02  0.90725933638E+02 -0.16604122010E+03  0.19156531832E+03  0.10000000000E+00 0. -1.
         -5    1    3    3    0  501  0.25032952877E+02 -0.33670956188E+02 -0.72690302519E+02  0.83930162043E+02  0.10000000000E+00 0. -1.
         21    1    1    2  504  503  0.49066426351E+01 -0.57054977450E+02  0.33228429220E+02  0.66207809979E+02  0.00000000000E+00 0. -1.
<mgrwt>
<rscale>  1 0.13749553E+03</rscale>
<asrwt>0</asrwt>
<pdfrwt beam="1">  1       21 0.10476938E-01 0.13749553E+03</pdfrwt>
<pdfrwt beam="2">  1       21 0.42092799E-01 0.13749553E+03</pdfrwt>
<totfact> 0.40969610E+05</totfact>
</mgrwt>
</event>
<event>
 6    1  0.4424270E-002  0.1261167E+03  0.7546771E-02  0.1233334E+00
         21   -1    0    0  504  502  0.00000000000E+00  0.00000000000E+00  0.30321146827E+03  0.30321146827E+03  0.00000000000E+00 0.  1.
         21   -1    0    0  502  503 -0.00000000000E+00 -0.00000000000E+00 -0.19951994189E+03  0.19951994189E+03  0.00000000000E+00 0. -1.
         25    2    1    2    0    0  0.15942705474E+02  0.48780055281E+01 -0.17932045107E+03  0.21922877494E+03  0.12500986679E+03 0.  0.
          5    1    3    3  501    0  0.21322221456E+02 -0.58486507990E+02 -0.81512557509E+02  0.10256517819E+03  0.10000000000E+00 0. -1.
         -5    1    3    3    0  501 -0.53795159819E+01  0.63364513518E+02 -0.97807893559E+02  0.11666359676E+03  0.10000000000E+00 0. -1.
         21    1    1    2  504  503 -0.15942705474E+02 -0.48780055281E+01  0.28301197745E+03  0.28350263522E+03  0.00000000000E+00 0.  1.
<mgrwt>
<rscale>  1 0.12611674E+03</rscale>
<asrwt>0</asrwt>
<pdfrwt beam="1">  1       21 0.46647918E-01 0.12611674E+03</pdfrwt>
<pdfrwt beam="2">  1       21 0.30695376E-01 0.12611674E+03</pdfrwt>
<totfact> 0.46404600E+04</totfact>
</mgrwt>
</event>
<event>
 6    1  0.4424270E-002  0.1259099E+03  0.7546771E-02  0.1233654E+00
         21   -1    0    0  504  502  0.00000000000E+00  0.00000000000E+00  0.49218245950E+02  0.49218245950E+02  0.00000000000E+00 0. -1.
         21   -1    0    0  502  503 -0.00000000000E+00 -0.00000000000E+00 -0.10388357217E+03  0.10388357217E+03  0.00000000000E+00 0. -1.
         25    2    1    2    0    0  0.60783756206E+01  0.13824592212E+02 -0.56276488539E+02  0.13791426255E+03  0.12500093861E+03 0.  0.
          5    1    3    3  501    0  0.34224084383E+02  0.63703997156E+01 -0.88131377317E+02  0.94757688934E+02  0.10000000000E+00 0. -1.
         -5    1    3    3    0  501 -0.28145708762E+02  0.74541924960E+01  0.31854888778E+02  0.43156573619E+02  0.10000000000E+00 0. -1.
         21    1    1    2  504  503 -0.60783756206E+01 -0.13824592212E+02  0.16111623217E+01  0.15187555565E+02  0.00000000000E+00 0.  1.
<mgrwt>
<rscale>  1 0.12590989E+03</rscale>
<asrwt>0</asrwt>
<pdfrwt beam="1">  1       21 0.75720379E-02 0.12590989E+03</pdfrwt>
<pdfrwt beam="2">  1       21 0.15982088E-01 0.12590989E+03</pdfrwt>
<totfact> 0.45431088E+06</totfact>
</mgrwt>
</event>
<event>
 6    1  0.4424270E-002  0.1461853E+03  0.7546771E-02  0.1205240E+00
         21   -1    0    0  503  502  0.00000000000E+00  0.00000000000E+00  0.61050456119E+02  0.61050456119E+02  0.00000000000E+00 0. -1.
         21   -1    0    0  504  503 -0.00000000000E+00 -0.00000000000E+00 -0.20191525978E+03  0.20191525978E+03  0.00000000000E+00 0. -1.
         25    2    1    2    0    0 -0.64701485333E+02  0.39553234073E+02 -0.90519610886E+02  0.17194165883E+03  0.12497757221E+03 0.  0.
          5    1    3    3  501    0 -0.29248482309E+02  0.83381796695E+02 -0.43281066472E+02  0.98393386223E+02  0.10000000000E+00 0. -1.
         -5    1    3    3    0  501 -0.35453003024E+02 -0.43828562622E+02 -0.47238544414E+02  0.73548272606E+02  0.10000000000E+00 0. -1.
         21    1    1    2  504  502  0.64701485333E+02 -0.39553234073E+02 -0.50345192777E+02  0.91024057071E+02  0.00000000000E+00 0. -1.
<mgrwt>
<rscale>  1 0.14618527E+03</rscale>
<asrwt>0</asrwt>
<pdfrwt beam="1">  1       21 0.93923778E-02 0.14618527E+03</pdfrwt>
<pdfrwt beam="2">  1       21 0.31063886E-01 0.14618527E+03</pdfrwt>
<totfact> 0.90460303E+05</totfact>
</mgrwt>
</event>
<event>
 6    1  0.4424270E-002  0.1623612E+03  0.7546771E-02  0.1186056E+00
         21   -1    0    0  504  502  0.00000000000E+00  0.00000000000E+00  0.23422169052E+02  0.23422169052E+02  0.00000000000E+00 0.  1.
         21   -1    0    0  502  503 -0.00000000000E+00 -0.00000000000E+00 -0.97081870016E+03  0.97081870016E+03  0.00000000000E+00 0.  1.
         25    2    1    2    0    0 -0.29479154080E+02 -0.99338407448E+02 -0.78490581961E+03  0.80152249686E+03  0.12499611031E+03 0.  0.
          5    1    3    3  501    0 -0.22923727447E+02 -0.72977518495E+02 -0.17470350557E+03  0.19071586286E+03  0.10000000000E+00 0. -1.
         -5    1    3    3    0  501 -0.65554266335E+01 -0.26360888953E+02 -0.61020231404E+03  0.61080663401E+03  0.10000000000E+00 0. -1.
         21    1    1    2  504  503  0.29479154080E+02  0.99338407448E+02 -0.16249071150E+03  0.19271837235E+03  0.00000000000E+00 0.  1.
<mgrwt>
<rscale>  1 0.16236122E+03</rscale>
<asrwt>0</asrwt>
<pdfrwt beam="1">  1       21 0.36034115E-02 0.16236122E+03</pdfrwt>
<pdfrwt beam="2">  1       21 0.14935669E+00 0.16236122E+03</pdfrwt>
<totfact> 0.14298628E+05</totfact>
</mgrwt>
</event>
<event>
 6    1  0.4424270E-002  0.2011925E+03  0.7546771E-02  0.1148737E+00
         21   -1    0    0  504  502  0.00000000000E+00  0.00000000000E+00  0.50642259031E+03  0.50642259031E+03  0.00000000000E+00 0.  1.
         21   -1    0    0  502  503 -0.00000000000E+00 -0.00000000000E+00 -0.10169540939E+03  0.10169540939E+03  0.00000000000E+00 0.  1.
         25    2    1    2    0    0 -0.15303331505E+03  0.37871829131E+02  0.32392747571E+02  0.20378348322E+03  0.12499978793E+03 0.  0.
          5    1    3    3  501    0  0.94642109646E+00 -0.97924039761E+01  0.41196474196E+02  0.42355004128E+02  0.10000000000E+00 0. -1.
         -5    1    3    3    0  501 -0.15397973614E+03  0.47664233107E+02 -0.88037266252E+01  0.16142847909E+03  0.10000000000E+00 0. -1.
         21    1    1    2  504  503  0.15303331505E+03 -0.37871829131E+02  0.37233443335E+03  0.40433451648E+03  0.00000000000E+00 0.  1.
<mgrwt>
<rscale>  1 0.20119249E+03</rscale>
<asrwt>0</asrwt>
<pdfrwt beam="1">  1       21 0.77911166E-01 0.20119249E+03</pdfrwt>
<pdfrwt beam="2">  1       21 0.15645448E-01 0.20119249E+03</pdfrwt>
<totfact> 0.52810193E+04</totfact>
</mgrwt>
</event>
<event>
 6    1  0.4424270E-002  0.1262064E+03  0.7546771E-02  0.1233196E+00
         21   -1    0    0  503  502  0.00000000000E+00  0.00000000000E+00  0.18350903757E+02  0.18350903757E+02  0.00000000000E+00 0. -1.
         21   -1    0    0  504  503 -0.00000000000E+00 -0.00000000000E+00 -0.64692880161E+03  0.64692880161E+03  0.00000000000E+00 0.  1.
         25    2    1    2    0    0 -0.11197298093E+02  0.13351542289E+02 -0.63445820906E+03  0.64688891349E+03  0.12499761671E+03 0.  0.
          5    1    3    3  501    0 -0.50581037380E+02 -0.36213874956E+02 -0.28069464107E+03  0.28750543927E+03  0.10000000000E+00 0. -1.
         -5    1    3    3    0  501  0.39383739287E+02  0.49565417245E+02 -0.35376356799E+03  0.35938347422E+03  0.10000000000E+00 0. -1.
         21    1    1    2  504  502  0.11197298093E+02 -0.13351542289E+02  0.58803112069E+01  0.18390791879E+02  0.00000000000E+00 0. -1.
<mgrwt>
<rscale>  1 0.12620637E+03</rscale>
<asrwt>0</asrwt>
<pdfrwt beam="1">  1       21 0.28232162E-02 0.12620637E+03</pdfrwt>
<pdfrwt beam="2">  1       21 0.99527498E-01 0.12620637E+03</pdfrwt>
<totfact> 0.58704021E+05</totfact>
</mgrwt>
</event>
<event>
 6    1  0.4424270E-002  0.1266233E+03  0.7546771E-02  0.1232554E+00
         21   -1    0    0  503  502  0.00000000000E+00  0.00000000000E+00  0.60092342324E+01  0.60092342324E+01  0.00000000000E+00 0. -1.
         21   -1    0    0  504  503 -0.00000000000E+00 -0.00000000000E+00 -0.90119883285E+03  0.90119883285E+03  0.00000000000E+00 0. -1.
         25    2    1    2    0    0 -0.19459028425E+02 -0.55726483027E+01 -0.79094769139E+03  0.80101916267E+03  0.12499496096E+03 0.  0.
          5    1    3    3  501    0  0.26879420967E+01 -0.38334951227E+02 -0.77777030699E+02  0.86752925153E+02  0.10000000000E+00 0.  1.
         -5    1    3    3    0  501 -0.22146970522E+02  0.32762302924E+02 -0.71317066069E+03  0.71426623752E+03  0.10000000000E+00 0.  1.
         21    1    1    2  504  502  0.19459028425E+02  0.55726483027E+01 -0.10424190724E+03  0.10618890441E+03  0.00000000000E+00 0. -1.
<mgrwt>
<rscale>  1 0.12662325E+03</rscale>
<asrwt>0</asrwt>
<pdfrwt beam="1">  1       21 0.92449785E-03 0.12662325E+03</pdfrwt>
<pdfrwt beam="2">  1       21 0.13864593E+00 0.12662325E+03</pdfrwt>
<totfact> 0.15685775E+06</totfact>
</mgrwt>
</event>
<event>
 6    1  0.4424270E-002  0.1306532E+03  0.7546771E-02  0.1226490E+00
         21   -1    0    0  503  502  0.00000000000E+00  0.00000000000E+00  0.19992750119E+03  0.19992750119E+03  0.00000000000E+00 0.  1.
         21   -1    0    0  504  503 -0.00000000000E+00 -0.00000000000E+00 -0.67422610694E+02  0.67422610694E+02  0.00000000000E+00 0.  1.
         25    2    1    2    0    0 -0.36491807790E+02  0.10521831306E+02  0.11953798061E+01  0.13065867628E+03  0.12501159860E+03 0.  0.
          5    1    3    3  501    0 -0.67712894959E+02 -0.31818560831E+02  0.14923639883E+02  0.76290117213E+02  0.10000000000E+00 0. -1.
         -5    1    3    3    0  501  0.31221087168E+02  0.42340392137E+02 -0.13728260076E+02  0.54368559067E+02  0.10000000000E+00 0. -1.
         21    1    1    2  504  502  0.36491807790E+02 -0.10521831306E+02  0.13130951069E+03  0.13669143561E+03  0.00000000000E+00 0.  1.
<mgrwt>
<rscale>  1 0.13065321E+03</rscale>
<asrwt>0</asrwt>
<pdfrwt beam="1">  1       21 0.30758077E-01 0.13065321E+03</pdfrwt>
<pdfrwt beam="2">  1       21 0.10372709E-01 0.13065321E+03</pdfrwt>
<totfact> 0.77490687E+05</totfact>
</mgrwt>
</event>
<event>
 6    1  0.4424270E-002  0.1289457E+03  0.7546771E-02  0.1229029E+00
         21   -1    0    0  504  502  0.00000000000E+00  0.00000000000E+00  0.48300189745E+03  0.48300189745E+03  0.00000000000E+00 0.  1.
         21   -1    0    0  502  503 -0.00000000000E+00 -0.00000000000E+00 -0.17293472345E+02  0.17293472345E+02  0.00000000000E+00 0.  1.
         25    2    1    2    0    0  0.21418954045E+02  0.23393409795E+02  0.24070657111E+03  0.27306892433E+03  0.12498384235E+03 0.  0.
          5    1    3    3  501    0  0.62164258887E+02 -0.22944528644E+02  0.14135057109E+03  0.15611162809E+03  0.10000000000E+00 0.  1.
         -5    1    3    3    0  501 -0.40745304842E+02  0.46337938439E+02  0.99356000019E+02  0.11695729625E+03  0.10000000000E+00 0.  1.
         21    1    1    2  504  503 -0.21418954045E+02 -0.23393409795E+02  0.22500185400E+03  0.22722644546E+03  0.00000000000E+00 0.  1.
<mgrwt>
<rscale>  1 0.12894566E+03</rscale>
<asrwt>0</asrwt>
<pdfrwt beam="1">  1       21 0.74307974E-01 0.12894566E+03</pdfrwt>
<pdfrwt beam="2">  1       21 0.26605346E-02 0.12894566E+03</pdfrwt>
<totfact> 0.12541084E+06</totfact>
</mgrwt>
</event>
<event>
 6    1  0.4424270E-002  0.1283112E+03  0.7546771E-02  0.1229983E+00
         21   -1    0    0  504  502  0.00000000000E+00  0.00000000000E+00  0.15995431903E+03  0.15995431903E+03  0.00000000000E+00 0.  1.
         21   -1    0    0  502  503 -0.00000000000E+00 -0.00000000000E+00 -0.43959452936E+02  0.43959452936E+02  0.00000000000E+00 0.  1.
         25    2    1    2    0    0  0.16379394859E+02  0.23910884591E+02  0.61716812181E+02  0.14238229941E+03  0.12499495711E+03 0.  0.
          5    1    3    3  501    0  0.33233387690E+01 -0.25292901956E+02 -0.28836300636E+02  0.38500879266E+02  0.10000000000E+00 0.  1.
         -5    1    3    3    0  501  0.13056056090E+02  0.49203786547E+02  0.90553112816E+02  0.10388142015E+03  0.10000000000E+00 0.  1.
         21    1    1    2  504  503 -0.16379394859E+02 -0.23910884591E+02  0.54278053913E+02  0.61531472552E+02  0.00000000000E+00 0.  1.
<mgrwt>
<rscale>  1 0.12831116E+03</rscale>
<asrwt>0</asrwt>
<pdfrwt beam="1">  1       21 0.24608356E-01 0.12831116E+03</pdfrwt>
<pdfrwt beam="2">  1       21 0.67629928E-02 0.12831116E+03</pdfrwt>
<totfact> 0.24858033E+06</totfact>
</mgrwt>
</event>
<event>
 6    1  0.4424270E-002  0.1595587E+03  0.7546771E-02  0.1189196E+00
         21   -1    0    0  504  502  0.00000000000E+00  0.00000000000E+00  0.23696834735E+03  0.23696834735E+03  0.00000000000E+00 0.  1.
         21   -1    0    0  502  503 -0.00000000000E+00 -0.00000000000E+00 -0.47238630448E+03  0.47238630448E+03  0.00000000000E+00 0. -1.
         25    2    1    2    0    0 -0.99165142307E+02 -0.11316969330E+01 -0.44757372550E+03  0.47516439533E+03  0.12499582648E+03 0.  0.
          5    1    3    3  501    0  0.19614834124E+02  0.16232768698E+01 -0.10658582862E+02  0.22382853575E+02  0.10000000000E+00 0.  1.
         -5    1    3    3    0  501 -0.11877997643E+03 -0.27549738027E+01 -0.43691514264E+03  0.45278154175E+03  0.10000000000E+00 0.  1.
         21    1    1    2  504  503  0.99165142307E+02  0.11316969330E+01  0.21215576837E+03  0.23419025650E+03  0.00000000000E+00 0.  1.
<mgrwt>
<rscale>  1 0.15955865E+03</rscale>
<asrwt>0</asrwt>
<pdfrwt beam="1">  1       21 0.36456670E-01 0.15955865E+03</pdfrwt>
<pdfrwt beam="2">  1       21 0.72674815E-01 0.15955865E+03</pdfrwt>
<totfact> 0.12664250E+04</totfact>
</mgrwt>
</event>
<event>
 6    1  0.4424270E-002  0.1633983E+03  0.7546771E-02  0.1184913E+00
         21   -1    0    0  503  502  0.00000000000E+00  0.00000000000E+00  0.21969061353E+03  0.21969061353E+03  0.00000000000E+00 0.  1.
         21   -1    0    0  504  503 -0.00000000000E+00 -0.00000000000E+00 -0.82473691296E+02  0.82473691296E+02  0.00000000000E+00 0.  1.
         25    2    1    2    0    0  0.17048939164E+01  0.10521088580E+03  0.93149228592E+02  0.18808451355E+03  0.12500707299E+03 0.  0.
          5    1    3    3  501    0  0.38485870176E+02  0.35865427940E+02 -0.14766290173E+02  0.54640135889E+02  0.10000000000E+00 0.  1.
         -5    1    3    3    0  501 -0.36780976260E+02  0.69345457856E+02  0.10791551876E+03  0.13344437766E+03  0.10000000000E+00 0.  1.
         21    1    1    2  504  502 -0.17048939164E+01 -0.10521088580E+03  0.44067693638E+02  0.11407979127E+03  0.00000000000E+00 0.  1.
<mgrwt>
<rscale>  1 0.16339830E+03</rscale>
<asrwt>0</asrwt>
<pdfrwt beam="1">  1       21 0.33798556E-01 0.16339830E+03</pdfrwt>
<pdfrwt beam="2">  1       21 0.12688260E-01 0.16339830E+03</pdfrwt>
<totfact> 0.45017722E+05</totfact>
</mgrwt>
</event>
<event>
 6    1  0.4424270E-002  0.1603699E+03  0.7546771E-02  0.1188280E+00
         21   -1    0    0  503  502  0.00000000000E+00  0.00000000000E+00  0.36406028533E+03  0.36406028533E+03  0.00000000000E+00 0. -1.
         21   -1    0    0  504  503 -0.00000000000E+00 -0.00000000000E+00 -0.15770323742E+03  0.15770323742E+03  0.00000000000E+00 0. -1.
         25    2    1    2    0    0 -0.15186770166E+02 -0.99298146379E+02 -0.10694050076E+03  0.19275575101E+03  0.12501099544E+03 0.  0.
          5    1    3    3  501    0 -0.64374091416E+02 -0.22514382951E+02 -0.56406076661E+02  0.88501845006E+02  0.10000000000E+00 0. -1.
         -5    1    3    3    0  501  0.49187321250E+02 -0.76783763428E+02 -0.50534424098E+02  0.10425390600E+03  0.10000000000E+00 0. -1.
         21    1    1    2  504  502  0.15186770166E+02  0.99298146379E+02  0.31329754867E+03  0.32900777174E+03  0.00000000000E+00 0. -1.
<mgrwt>
<rscale>  1 0.16036991E+03</rscale>
<asrwt>0</asrwt>
<pdfrwt beam="1">  1       21 0.56009274E-01 0.16036991E+03</pdfrwt>
<pdfrwt beam="2">  1       21 0.24262037E-01 0.16036991E+03</pdfrwt>
<totfact> 0.48915203E+04</totfact>
</mgrwt>
</event>
<event>
 6    1  0.4424270E-002  0.1263776E+03  0.7546771E-02  0.1232932E+00
         21   -1    0    0  504  502  0.00000000000E+00  0.00000000000E+00  0.48433771550E+02  0.48433771550E+02  0.00000000000E+00 0. -1.
         21   -1    0    0  502  503 -0.00000000000E+00 -0.00000000000E+00 -0.11341573537E+03  0.11341573537E+03  0.00000000000E+00 0. -1.
         25    2    1    2    0    0 -0.15301938633E+02 -0.10614222668E+02 -0.67134628053E+02  0.14310264019E+03  0.12499798517E+03 0.  0.
          5    1    3    3  501    0  0.38099871582E+02 -0.94758941168E+01 -0.79151422388E+02  0.88353553692E+02  0.10000000000E+00 0. -1.
         -5    1    3    3    0  501 -0.53401810215E+02 -0.11383285511E+01  0.12016794336E+02  0.54749086497E+02  0.10000000000E+00 0. -1.
         21    1    1    2  504  503  0.15301938633E+02  0.10614222668E+02  0.21526642359E+01  0.18746866727E+02  0.00000000000E+00 0. -1.
<mgrwt>
<rscale>  1 0.12637764E+03</rscale>
<asrwt>0</asrwt>
<pdfrwt beam="1">  1       21 0.74513495E-02 0.12637764E+03</pdfrwt>
<pdfrwt beam="2">  1       21 0.17448575E-01 0.12637764E+03</pdfrwt>
<totfact> 0.39820872E+06</totfact>
</mgrwt>
</event>
<event>
 6    1  0.4424270E-002  0.1349788E+03  0.7546771E-02  0.1220250E+00
         21   -1    0    0  504  502  0.00000000000E+00  0.00000000000E+00  0.47893858128E+03  0.47893858128E+03  0.00000000000E+00 0. -1.
         21   -1    0    0  502  503 -0.00000000000E+00 -0.00000000000E+00 -0.52851644421E+02  0.52851644421E+02  0.00000000000E+00 0. -1.
         25    2    1    2    0    0  0.50113156285E+02  0.89559932839E+01  0.37788020778E+02  0.14016848667E+03  0.12501092710E+03 0.  0.
          5    1    3    3  501    0  0.31778255663E+02 -0.56750186328E+02  0.73043327552E+01  0.65450778897E+02  0.10000000000E+00 0. -1.
         -5    1    3    3    0  501  0.18334900621E+02  0.65706179611E+02  0.30483688023E+02  0.74717707777E+02  0.10000000000E+00 0. -1.
         21    1    1    2  504  503 -0.50113156285E+02 -0.89559932839E+01  0.38829891608E+03  0.39162173902E+03  0.00000000000E+00 0. -1.
<mgrwt>
<rscale>  1 0.13497878E+03</rscale>
<asrwt>0</asrwt>
<pdfrwt beam="1">  1       21 0.73682856E-01 0.13497878E+03</pdfrwt>
<pdfrwt beam="2">  1       21 0.81310225E-02 0.13497878E+03</pdfrwt>
<totfact> 0.19629009E+05</totfact>
</mgrwt>
</event>
<event>
 6    1  0.4424270E-002  0.1409520E+03  0.7546771E-02  0.1212054E+00
         21   -1    0    0  504  502  0.00000000000E+00  0.00000000000E+00  0.14903143870E+03  0.14903143870E+03  0.00000000000E+00 0.  1.
         21   -1    0    0  502  503 -0.00000000000E+00 -0.00000000000E+00 -0.11069985084E+03  0.11069985084E+03  0.00000000000E+00 0.  1.
         25    2    1    2    0    0  0.52771219499E+02  0.38175385237E+02 -0.50373113210E+02  0.14968272919E+03  0.12500122894E+03 0.  0.
          5    1    3    3  501    0  0.99182508900E+01  0.80195502744E+02 -0.32053641515E+02  0.86931791052E+02  0.10000000000E+00 0.  1.
         -5    1    3    3    0  501  0.42852968609E+02 -0.42020117507E+02 -0.18319471695E+02  0.62750938137E+02  0.10000000000E+00 0.  1.
         21    1    1    2  504  503 -0.52771219499E+02 -0.38175385237E+02  0.88704701066E+02  0.11004856036E+03  0.00000000000E+00 0.  1.
<mgrwt>
<rscale>  1 0.14095201E+03</rscale>
<asrwt>0</asrwt>
<pdfrwt beam="1">  1       21 0.22927913E-01 0.14095201E+03</pdfrwt>
<pdfrwt beam="2">  1       21 0.17030746E-01 0.14095201E+03</pdfrwt>
<totfact> 0.55855700E+05</totfact>
</mgrwt>
</event>
<event>
 6    1  0.4424270E-002  0.1438751E+03  0.7546771E-02  0.1208208E+00
         21   -1    0    0  503  502  0.00000000000E+00  0.00000000000E+00  0.41808752194E+03  0.41808752194E+03  0.00000000000E+00 0. -1.
         21   -1    0    0  504  503 -0.00000000000E+00 -0.00000000000E+00 -0.38819398093E+02  0.38819398093E+02  0.00000000000E+00 0. -1.
         25    2    1    2    0    0  0.71169397232E+02 -0.32002803020E+01  0.11792533425E+03  0.18602801984E+03  0.12499885924E+03 0.  0.
          5    1    3    3  501    0 -0.24775265939E+01  0.42932499237E+02  0.46458989183E+01  0.43254271529E+02  0.10000000000E+00 0. -1.
         -5    1    3    3    0  501  0.73646923826E+02 -0.46132779539E+02  0.11327943534E+03  0.14277374831E+03  0.10000000000E+00 0. -1.
         21    1    1    2  504  502 -0.71169397232E+02  0.32002803020E+01  0.26134278960E+03  0.27087890019E+03  0.00000000000E+00 0. -1.
<mgrwt>
<rscale>  1 0.14387508E+03</rscale>
<asrwt>0</asrwt>
<pdfrwt beam="1">  1       21 0.64321154E-01 0.14387508E+03</pdfrwt>
<pdfrwt beam="2">  1       21 0.59722154E-02 0.14387508E+03</pdfrwt>
<totfact> 0.44701095E+05</totfact>
</mgrwt>
</event>
<event>
 6    1  0.4424270E-002  0.1393820E+03  0.7546771E-02  0.1214163E+00
         21   -1    0    0  504  502  0.00000000000E+00  0.00000000000E+00  0.61666190344E+02  0.61666190344E+02  0.00000000000E+00 0.  1.
         21   -1    0    0  502  503 -0.00000000000E+00 -0.00000000000E+00 -0.23531494726E+03  0.23531494726E+03  0.00000000000E+00 0.  1.
         25    2    1    2    0    0 -0.43322744120E+02 -0.43883536191E+02 -0.18764458062E+03  0.23374738089E+03  0.12499889812E+03 0.  0.
          5    1    3    3  501    0  0.30322804760E+02 -0.44655723399E+02 -0.35191734161E+02  0.64436591111E+02  0.10000000000E+00 0.  1.
         -5    1    3    3    0  501 -0.73645548880E+02  0.77218720808E+00 -0.15245284645E+03  0.16931078978E+03  0.10000000000E+00 0.  1.
         21    1    1    2  504  503  0.43322744120E+02  0.43883536191E+02  0.13995823703E+02  0.63233756711E+02  0.00000000000E+00 0.  1.
<mgrwt>
<rscale>  1 0.13938203E+03</rscale>
<asrwt>0</asrwt>
<pdfrwt beam="1">  1       21 0.94871062E-02 0.13938203E+03</pdfrwt>
<pdfrwt beam="2">  1       21 0.36202300E-01 0.13938203E+03</pdfrwt>
<totfact> 0.65857936E+05</totfact>
</mgrwt>
</event>
<event>
 6    1  0.4424270E-002  0.1447457E+03  0.7546771E-02  0.1207082E+00
         21   -1    0    0  504  502  0.00000000000E+00  0.00000000000E+00  0.12795815072E+02  0.12795815072E+02  0.00000000000E+00 0. -1.
         21   -1    0    0  502  503 -0.00000000000E+00 -0.00000000000E+00 -0.33159258766E+04  0.33159258766E+04  0.00000000000E+00 0. -1.
         25    2    1    2    0    0 -0.12249814611E+02 -0.71933748300E+02 -0.31949811283E+04  0.31982582337E+04  0.12500718904E+03 0.  0.
          5    1    3    3  501    0 -0.49276401052E+02  0.13949811941E+02 -0.11149620760E+04  0.11161376267E+04  0.10000000000E+00 0. -1.
         -5    1    3    3    0  501  0.37026586442E+02 -0.85883560242E+02 -0.20800190523E+04  0.20821206070E+04  0.10000000000E+00 0. -1.
         21    1    1    2  504  503  0.12249814611E+02  0.71933748300E+02 -0.10814893328E+03  0.13046345799E+03  0.00000000000E+00 0. -1.
<mgrwt>
<rscale>  1 0.14474571E+03</rscale>
<asrwt>0</asrwt>
<pdfrwt beam="1">  1       21 0.19685875E-02 0.14474571E+03</pdfrwt>
<pdfrwt beam="2">  1       21 0.51014230E+00 0.14474571E+03</pdfrwt>
<totfact> 0.22025502E+03</totfact>
</mgrwt>
</event>
<event>
 6    1  0.4424270E-002  0.1267402E+03  0.7546771E-02  0.1232374E+00
         21   -1    0    0  504  502  0.00000000000E+00  0.00000000000E+00  0.13401453731E+03  0.13401453731E+03  0.00000000000E+00 0. -1.
         21   -1    0    0  502  503 -0.00000000000E+00 -0.00000000000E+00 -0.46510444613E+02  0.46510444613E+02  0.00000000000E+00 0. -1.
         25    2    1    2    0    0  0.20793501792E+02 -0.24787177752E+01  0.47457919238E+02  0.13533416685E+03  0.12499827542E+03 0.  0.
          5    1    3    3  501    0  0.34962491837E+02  0.43737783792E+01 -0.36018445882E+02  0.50386944902E+02  0.10000000000E+00 0.  1.
         -5    1    3    3    0  501 -0.14168990046E+02 -0.68524961544E+01  0.83476365120E+02  0.84947221945E+02  0.10000000000E+00 0.  1.
         21    1    1    2  504  503 -0.20793501792E+02  0.24787177752E+01  0.40046173458E+02  0.45190815076E+02  0.00000000000E+00 0. -1.
<mgrwt>
<rscale>  1 0.12674022E+03</rscale>
<asrwt>0</asrwt>
<pdfrwt beam="1">  1       21 0.20617621E-01 0.12674022E+03</pdfrwt>
<pdfrwt beam="2">  1       21 0.71554531E-02 0.12674022E+03</pdfrwt>
<totfact> 0.31409226E+06</totfact>
</mgrwt>
</event>
<event>
 6    1  0.4424270E-002  0.1291910E+03  0.7546771E-02  0.1228661E+00
         21   -1    0    0  503  502  0.00000000000E+00  0.00000000000E+00  0.56756498111E+02  0.56756498111E+02  0.00000000000E+00 0. -1.
         21   -1    0    0  504  503 -0.00000000000E+00 -0.00000000000E+00 -0.13043770034E+03  0.13043770034E+03  0.00000000000E+00 0. -1.
         25    2    1    2    0    0  0.26077335098E+02  0.19641673160E+02 -0.82613974710E+02  0.15334723176E+03  0.12499792774E+03 0.  0.
          5    1    3    3  501    0 -0.23939757224E+02 -0.17974711842E+02 -0.85608554567E+02  0.90691988934E+02  0.10000000000E+00 0.  1.
         -5    1    3    3    0  501  0.50017092322E+02  0.37616385002E+02  0.29945798573E+01  0.62655242825E+02  0.10000000000E+00 0.  1.
         21    1    1    2  504  502 -0.26077335098E+02 -0.19641673160E+02  0.89327724773E+01  0.33846966695E+02  0.00000000000E+00 0. -1.
<mgrwt>
<rscale>  1 0.12919096E+03</rscale>
<asrwt>0</asrwt>
<pdfrwt beam="1">  1       21 0.87317691E-02 0.12919096E+03</pdfrwt>
<pdfrwt beam="2">  1       21 0.20067338E-01 0.12919096E+03</pdfrwt>
<totfact> 0.23451563E+06</totfact>
</mgrwt>
</event>
<event>
 6    1  0.4424270E-002  0.1264280E+03  0.7546771E-02  0.1232854E+00
         21   -1    0    0  503  502  0.00000000000E+00  0.00000000000E+00  0.39189222192E+02  0.39189222192E+02  0.00000000000E+00 0.  1.
         21   -1    0    0  504  503 -0.00000000000E+00 -0.00000000000E+00 -0.26975614105E+03  0.26975614105E+03  0.00000000000E+00 0.  1.
         25    2    1    2    0    0  0.33058427457E+01  0.18702610991E+02 -0.25100361573E+03  0.28104599348E+03  0.12499327619E+03 0.  0.
          5    1    3    3  501    0 -0.48887584041E+02 -0.16705286282E+02 -0.17401132237E+03  0.18151862928E+03  0.10000000000E+00 0. -1.
         -5    1    3    3    0  501  0.52193426787E+02  0.35407897274E+02 -0.76992293362E+02  0.99527364208E+02  0.10000000000E+00 0. -1.
         21    1    1    2  504  502 -0.33058427457E+01 -0.18702610991E+02  0.20436696867E+02  0.27899369760E+02  0.00000000000E+00 0.  1.
<mgrwt>
<rscale>  1 0.12642798E+03</rscale>
<asrwt>0</asrwt>
<pdfrwt beam="1">  1       21 0.60291110E-02 0.12642798E+03</pdfrwt>
<pdfrwt beam="2">  1       21 0.41500945E-01 0.12642798E+03</pdfrwt>
<totfact> 0.10939239E+06</totfact>
</mgrwt>
</event>
<event>
 6    1  0.4424270E-002  0.1270499E+03  0.7546771E-02  0.1231900E+00
         21   -1    0    0  503  502  0.00000000000E+00  0.00000000000E+00  0.99497958375E+02  0.99497958375E+02  0.00000000000E+00 0.  1.
         21   -1    0    0  504  503 -0.00000000000E+00 -0.00000000000E+00 -0.57161309488E+02  0.57161309488E+02  0.00000000000E+00 0.  1.
         25    2    1    2    0    0 -0.10699974395E+02 -0.20078692384E+02  0.29109691592E+02  0.13034205412E+03  0.12499613429E+03 0.  0.
          5    1    3    3  501    0  0.16132424450E+01 -0.22226852133E+02  0.77356363090E+02  0.80502499448E+02  0.10000000000E+00 0. -1.
         -5    1    3    3    0  501 -0.12313216840E+02  0.21481597490E+01 -0.48246671498E+02  0.49839554672E+02  0.10000000000E+00 0. -1.
         21    1    1    2  504  502  0.10699974395E+02  0.20078692384E+02  0.13226957295E+02  0.26317213743E+02  0.00000000000E+00 0. -1.
<mgrwt>
<rscale>  1 0.12704990E+03</rscale>
<asrwt>0</asrwt>
<pdfrwt beam="1">  1       21 0.15307378E-01 0.12704990E+03</pdfrwt>
<pdfrwt beam="2">  1       21 0.87940476E-02 0.12704990E+03</pdfrwt>
<totfact> 0.37958022E+06</totfact>
</mgrwt>
</event>
<event>
 6    1  0.4424270E-002  0.1275486E+03  0.7546771E-02  0.1231139E+00
         21   -1    0    0  503  502  0.00000000000E+00  0.00000000000E+00  0.19321781571E+02  0.19321781571E+02  0.00000000000E+00 0.  1.
         21   -1    0    0  504  503 -0.00000000000E+00 -0.00000000000E+00 -0.32084481934E+03  0.32084481934E+03  0.00000000000E+00 0.  1.
         25    2    1    2    0    0 -0.24419526355E+02  0.68137389709E+01 -0.27671248528E+03  0.30469402247E+03  0.12500363001E+03 0.  0.
          5    1    3    3  501    0 -0.28541069102E+01 -0.99913008261E+01  0.11320307615E+02  0.15366567051E+02  0.10000000000E+00 0. -1.
         -5    1    3    3    0  501 -0.21565419444E+02  0.16805039797E+02 -0.28803279289E+03  0.28932745542E+03  0.10000000000E+00 0. -1.
         21    1    1    2  504  502  0.24419526355E+02 -0.68137389709E+01 -0.24810552489E+02  0.35472578437E+02  0.00000000000E+00 0.  1.
<mgrwt>
<rscale>  1 0.12754861E+03</rscale>
<asrwt>0</asrwt>
<pdfrwt beam="1">  1       21 0.29725819E-02 0.12754861E+03</pdfrwt>
<pdfrwt beam="2">  1       21 0.49360739E-01 0.12754861E+03</pdfrwt>
<totfact> 0.24975933E+06</totfact>
</mgrwt>
</event>
<event>
 6    1  0.4424270E-002  0.1269658E+03  0.7546771E-02  0.1232029E+00
         21   -1    0    0  503  502  0.00000000000E+00  0.00000000000E+00  0.12274695336E+03  0.12274695336E+03  0.00000000000E+00 0. -1.
         21   -1    0    0  504  503 -0.00000000000E+00 -0.00000000000E+00 -0.49549619086E+02  0.49549619086E+02  0.00000000000E+00 0. -1.
         25    2    1    2    0    0 -0.18362046266E+02  0.12444452543E+02  0.41435834582E+02  0.13355612840E+03  0.12501312693E+03 0.  0.
          5    1    3    3  501    0 -0.15305428924E+02  0.58669929293E+02 -0.13066367495E+02  0.62025452173E+02  0.10000000000E+00 0. -1.
         -5    1    3    3    0  501 -0.30566173412E+01 -0.46225476749E+02  0.54502202077E+02  0.71530676227E+02  0.10000000000E+00 0. -1.
         21    1    1    2  504  502  0.18362046266E+02 -0.12444452543E+02  0.31761499689E+02  0.38740444043E+02  0.00000000000E+00 0. -1.
<mgrwt>
<rscale>  1 0.12696579E+03</rscale>
<asrwt>0</asrwt>
<pdfrwt beam="1">  1       21 0.18884147E-01 0.12696579E+03</pdfrwt>
<pdfrwt beam="2">  1       21 0.76230183E-02 0.12696579E+03</pdfrwt>
<totfact> 0.33139201E+06</totfact>
</mgrwt>
</event>
<event>
 6    1  0.4424270E-002  0.1266203E+03  0.7546771E-02  0.1232559E+00
         21   -1    0    0  504  502  0.00000000000E+00  0.00000000000E+00  0.19805071263E+03  0.19805071263E+03  0.00000000000E+00 0. -1.
         21   -1    0    0  502  503 -0.00000000000E+00 -0.00000000000E+00 -0.30252654702E+02  0.30252654702E+02  0.00000000000E+00 0. -1.
         25    2    1    2    0    0  0.10204933752E+02 -0.17434993505E+02  0.11230934409E+03  0.16925155081E+03  0.12499831603E+03 0.  0.
          5    1    3    3  501    0 -0.10443610428E+01  0.43362170806E+02  0.27651514076E+01  0.43462910732E+02  0.10000000000E+00 0.  1.
         -5    1    3    3    0  501  0.11249294795E+02 -0.60797164310E+02  0.10954419268E+03  0.12578864007E+03  0.10000000000E+00 0.  1.
         21    1    1    2  504  503 -0.10204933752E+02  0.17434993505E+02  0.55488713840E+02  0.59051816526E+02  0.00000000000E+00 0. -1.
<mgrwt>
<rscale>  1 0.12662029E+03</rscale>
<asrwt>0</asrwt>
<pdfrwt beam="1">  1       21 0.30469340E-01 0.12662029E+03</pdfrwt>
<pdfrwt beam="2">  1       21 0.46542547E-02 0.12662029E+03</pdfrwt>
<totfact> 0.31071422E+06</totfact>
</mgrwt>
</event>
<event>
 6    1  0.4424270E-002  0.1281025E+03  0.7546771E-02  0.1230299E+00
         21   -1    0    0  504  502  0.00000000000E+00  0.00000000000E+00  0.58556104894E+02  0.58556104894E+02  0.00000000000E+00 0.  1.
         21   -1    0    0  502  503 -0.00000000000E+00 -0.00000000000E+00 -0.22233750698E+03  0.22233750698E+03  0.00000000000E+00 0. -1.
         25    2    1    2    0    0  0.27478402225E+02 -0.54530458507E+01 -0.19852192943E+03  0.23626511719E+03  0.12500180334E+03 0.  0.
          5    1    3    3  501    0  0.28785306961E+02 -0.63594943947E+02 -0.11376694509E+03  0.13347598506E+03  0.10000000000E+00 0. -1.
         -5    1    3    3    0  501 -0.13069047356E+01  0.58141898096E+02 -0.84754984341E+02  0.10278913213E+03  0.10000000000E+00 0. -1.
         21    1    1    2  504  503 -0.27478402225E+02  0.54530458507E+01  0.34740527341E+02  0.44628494685E+02  0.00000000000E+00 0.  1.
<mgrwt>
<rscale>  1 0.12810249E+03</rscale>
<asrwt>0</asrwt>
<pdfrwt beam="1">  1       21 0.90086316E-02 0.12810249E+03</pdfrwt>
<pdfrwt beam="2">  1       21 0.34205770E-01 0.12810249E+03</pdfrwt>
<totfact> 0.80592086E+05</totfact>
</mgrwt>
</event>
<event>
 6    1  0.4424270E-002  0.1260661E+03  0.7546771E-02  0.1233412E+00
         21   -1    0    0  503  502  0.00000000000E+00  0.00000000000E+00  0.20785729280E+03  0.20785729280E+03  0.00000000000E+00 0.  1.
         21   -1    0    0  504  503 -0.00000000000E+00 -0.00000000000E+00 -0.28459729653E+02  0.28459729653E+02  0.00000000000E+00 0.  1.
         25    2    1    2    0    0 -0.11507715475E+02 -0.11584590311E+02  0.11761186337E+03  0.17241003578E+03  0.12500415907E+03 0.  0.
          5    1    3    3  501    0 -0.61910880700E+02  0.18400807594E+02  0.43370275130E+02  0.77798056750E+02  0.10000000000E+00 0.  1.
         -5    1    3    3    0  501  0.50403165225E+02 -0.29985397904E+02  0.74241588237E+02  0.94611979031E+02  0.10000000000E+00 0.  1.
         21    1    1    2  504  502  0.11507715475E+02  0.11584590311E+02  0.61785699780E+02  0.63906986671E+02  0.00000000000E+00 0.  1.
<mgrwt>
<rscale>  1 0.12606613E+03</rscale>
<asrwt>0</asrwt>
<pdfrwt beam="1">  1       21 0.31978044E-01 0.12606613E+03</pdfrwt>
<pdfrwt beam="2">  1       21 0.43784201E-02 0.12606613E+03</pdfrwt>
<totfact> 0.31329833E+06</totfact>
</mgrwt>
</event>
<event>
 6    1  0.4424270E-002  0.1412567E+03  0.7546771E-02  0.1211648E+00
         21   -1    0    0  504  502  0.00000000000E+00  0.00000000000E+00  0.21851901637E+04  0.21851901637E+04  0.00000000000E+00 0.  1.
         21   -1    0    0  502  503 -0.00000000000E+00 -0.00000000000E+00 -0.11270043215E+02  0.11270043215E+02  0.00000000000E+00 0. -1.
         25    2    1    2    0    0  0.87903944946E+01  0.65183142894E+02  0.45819507917E+03  0.47947490396E+03  0.12500935886E+03 0.  0.
          5    1    3    3  501    0  0.63325797093E+02  0.42367102589E+02  0.18728723256E+03  0.20219210034E+03  0.10000000000E+00 0.  1.
         -5    1    3    3    0  501 -0.54535402598E+02  0.22816040306E+02  0.27090784660E+03  0.27728280362E+03  0.10000000000E+00 0.  1.
         21    1    1    2  504  503 -0.87903944946E+01 -0.65183142894E+02  0.17157250413E+04  0.17169853030E+04  0.00000000000E+00 0.  1.
<mgrwt>
<rscale>  1 0.14125669E+03</rscale>
<asrwt>0</asrwt>
<pdfrwt beam="1">  1       21 0.33618277E+00 0.14125669E+03</pdfrwt>
<pdfrwt beam="2">  1       21 0.17338545E-02 0.14125669E+03</pdfrwt>
<totfact> 0.34710734E+04</totfact>
</mgrwt>
</event>
<event>
 6    1  0.4424270E-002  0.1331289E+03  0.7546771E-02  0.1222886E+00
         21   -1    0    0  503  502  0.00000000000E+00  0.00000000000E+00  0.28312599345E+03  0.28312599345E+03  0.00000000000E+00 0.  1.
         21   -1    0    0  504  503 -0.00000000000E+00 -0.00000000000E+00 -0.33525865635E+02  0.33525865635E+02  0.00000000000E+00 0.  1.
         25    2    1    2    0    0 -0.80952333564E+01 -0.45074432038E+02  0.12011448113E+03  0.17930641896E+03  0.12500426423E+03 0.  0.
          5    1    3    3  501    0 -0.66645356027E+02 -0.24204203473E+02  0.61190141929E+02  0.93657303052E+02  0.10000000000E+00 0. -1.
         -5    1    3    3    0  501  0.58550122671E+02 -0.20870228564E+02  0.58924339204E+02  0.85649115907E+02  0.10000000000E+00 0. -1.
         21    1    1    2  504  502  0.80952333564E+01  0.45074432038E+02  0.12948564669E+03  0.13734544013E+03  0.00000000000E+00 0.  1.
<mgrwt>
<rscale>  1 0.13312890E+03</rscale>
<asrwt>0</asrwt>
<pdfrwt beam="1">  1       21 0.43557844E-01 0.13312890E+03</pdfrwt>
<pdfrwt beam="2">  1       21 0.51578257E-02 0.13312890E+03</pdfrwt>
<totfact> 0.12924016E+06</totfact>
</mgrwt>
</event>
<event>
 6    1  0.4424270E-002  0.1267233E+03  0.7546771E-02  0.1232400E+00
         21   -1    0    0  503  502  0.00000000000E+00  0.00000000000E+00  0.43860099412E+02  0.43860099412E+02  0.00000000000E+00 0.  1.
         21   -1    0    0  504  503 -0.00000000000E+00 -0.00000000000E+00 -0.10934029541E+04  0.10934029541E+04  0.00000000000E+00 0. -1.
         25    2    1    2    0    0 -0.20653461658E+02 -0.22315519632E+01 -0.10870370500E+04  0.10943986162E+04  0.12500895003E+03 0.  0.
          5    1    3    3  501    0 -0.47144194713E+00 -0.62538160343E+02 -0.48631788884E+03  0.49032269248E+03  0.10000000000E+00 0.  1.
         -5    1    3    3    0  501 -0.20182019711E+02  0.60306608380E+02 -0.60071916120E+03  0.60407592367E+03  0.10000000000E+00 0.  1.
         21    1    1    2  504  502  0.20653461658E+02  0.22315519632E+01  0.37494195363E+02  0.42864437341E+02  0.00000000000E+00 0.  1.
<mgrwt>
<rscale>  1 0.12672325E+03</rscale>
<asrwt>0</asrwt>
<pdfrwt beam="1">  1       21 0.67477079E-02 0.12672325E+03</pdfrwt>
<pdfrwt beam="2">  1       21 0.16821583E+00 0.12672325E+03</pdfrwt>
<totfact> 0.37048883E+04</totfact>
</mgrwt>
</event>
<event>
 6    1  0.4424270E-002  0.1330146E+03  0.7546771E-02  0.1223050E+00
         21   -1    0    0  503  502  0.00000000000E+00  0.00000000000E+00  0.15293653812E+03  0.15293653812E+03  0.00000000000E+00 0. -1.
         21   -1    0    0  504  503 -0.00000000000E+00 -0.00000000000E+00 -0.93131710365E+02  0.93131710365E+02  0.00000000000E+00 0. -1.
         25    2    1    2    0    0  0.14409171934E+01 -0.45462451751E+02 -0.37888093201E+02  0.13830546471E+03  0.12499593274E+03 0.  0.
          5    1    3    3  501    0 -0.49664771496E+02 -0.58317790283E+02 -0.62841792493E+01  0.76857368548E+02  0.10000000000E+00 0. -1.
         -5    1    3    3    0  501  0.51105688689E+02  0.12855338533E+02 -0.31603913951E+02  0.61448096164E+02  0.10000000000E+00 0. -1.
         21    1    1    2  504  502 -0.14409171934E+01  0.45462451751E+02  0.97692920958E+02  0.10776278377E+03  0.00000000000E+00 0. -1.
<mgrwt>
<rscale>  1 0.13301464E+03</rscale>
<asrwt>0</asrwt>
<pdfrwt beam="1">  1       21 0.23528698E-01 0.13301464E+03</pdfrwt>
<pdfrwt beam="2">  1       21 0.14327955E-01 0.13301464E+03</pdfrwt>
<totfact> 0.72789943E+05</totfact>
</mgrwt>
</event>
<event>
 6    1  0.4424270E-002  0.1267306E+03  0.7546771E-02  0.1232389E+00
         21   -1    0    0  504  502  0.00000000000E+00  0.00000000000E+00  0.40334741121E+03  0.40334741121E+03  0.00000000000E+00 0.  1.
         21   -1    0    0  502  503 -0.00000000000E+00 -0.00000000000E+00 -0.27460343863E+03  0.27460343863E+03  0.00000000000E+00 0.  1.
         25    2    1    2    0    0  0.16637845255E+02 -0.12612132690E+02 -0.25968649388E+03  0.28895970461E+03  0.12499900799E+03 0.  0.
          5    1    3    3  501    0  0.18439404261E+02  0.36444890602E+02 -0.22269666945E+02  0.46520852812E+02  0.10000000000E+00 0.  1.
         -5    1    3    3    0  501 -0.18015590060E+01 -0.49057023292E+02 -0.23741682694E+03  0.24243885180E+03  0.10000000000E+00 0.  1.
         21    1    1    2  504  503 -0.16637845255E+02  0.12612132690E+02  0.38843046646E+03  0.38899114522E+03  0.00000000000E+00 0.  1.
<mgrwt>
<rscale>  1 0.12673056E+03</rscale>
<asrwt>0</asrwt>
<pdfrwt beam="1">  1       21 0.62053448E-01 0.12673056E+03</pdfrwt>
<pdfrwt beam="2">  1       21 0.42246683E-01 0.12673056E+03</pdfrwt>
<totfact> 0.13627234E+04</totfact>
</mgrwt>
</event>
<event>
 6    1  0.4424270E-002  0.1527516E+03  0.7546771E-02  0.1197132E+00
         21   -1    0    0  503  502  0.00000000000E+00  0.00000000000E+00  0.22938283287E+03  0.22938283287E+03  0.00000000000E+00 0.  1.
         21   -1    0    0  504  503 -0.00000000000E+00 -0.00000000000E+00 -0.63223055221E+02  0.63223055221E+02  0.00000000000E+00 0.  1.
         25    2    1    2    0    0  0.85999230714E+02  0.17631152920E+02  0.11262036951E+03  0.18977985316E+03  0.12500527908E+03 0.  0.
          5    1    3    3  501    0 -0.30057373608E+02  0.10393945286E+02  0.45509415598E+02  0.55521137550E+02  0.10000000000E+00 0.  1.
         -5    1    3    3    0  501  0.11605660432E+03  0.72372076335E+01  0.67110953914E+02  0.13425871561E+03  0.10000000000E+00 0.  1.
         21    1    1    2  504  502 -0.85999230714E+02 -0.17631152920E+02  0.53539408141E+02  0.10282603494E+03  0.00000000000E+00 0.  1.
<mgrwt>
<rscale>  1 0.15275158E+03</rscale>
<asrwt>0</asrwt>
<pdfrwt beam="1">  1       21 0.35289666E-01 0.15275158E+03</pdfrwt>
<pdfrwt beam="2">  1       21 0.97266240E-02 0.15275158E+03</pdfrwt>
<totfact> 0.66271694E+05</totfact>
</mgrwt>
</event>
<event>
 6    1  0.4424270E-002  0.1439086E+03  0.7546771E-02  0.1208164E+00
         21   -1    0    0  503  502  0.00000000000E+00  0.00000000000E+00  0.15968504966E+03  0.15968504966E+03  0.00000000000E+00 0. -1.
         21   -1    0    0  504  503 -0.00000000000E+00 -0.00000000000E+00 -0.10562378026E+03  0.10562378026E+03  0.00000000000E+00 0. -1.
         25    2    1    2    0    0  0.68752105340E+02  0.18953626826E+02 -0.38013726335E+02  0.14884468609E+03  0.12499442079E+03 0.  0.
          5    1    3    3  501    0  0.77635676856E+02 -0.45902271911E+01 -0.72385956274E+02  0.10624549483E+03  0.10000000000E+00 0.  1.
         -5    1    3    3    0  501 -0.88835715160E+01  0.23543854017E+02  0.34372229939E+02  0.42599191258E+02  0.10000000000E+00 0.  1.
         21    1    1    2  504  502 -0.68752105340E+02 -0.18953626826E+02  0.92074995735E+02  0.11646414383E+03  0.00000000000E+00 0. -1.
<mgrwt>
<rscale>  1 0.14390864E+03</rscale>
<asrwt>0</asrwt>
<pdfrwt beam="1">  1       21 0.24566931E-01 0.14390864E+03</pdfrwt>
<pdfrwt beam="2">  1       21 0.16249812E-01 0.14390864E+03</pdfrwt>
<totfact> 0.53409724E+05</totfact>
</mgrwt>
</event>
<event>
 6    1  0.4424270E-002  0.1293640E+03  0.7546771E-02  0.1228403E+00
         21   -1    0    0  503  502  0.00000000000E+00  0.00000000000E+00  0.16857016934E+03  0.16857016934E+03  0.00000000000E+00 0.  1.
         21   -1    0    0  504  503 -0.00000000000E+00 -0.00000000000E+00 -0.40473102037E+02  0.40473102037E+02  0.00000000000E+00 0.  1.
         25    2    1    2    0    0 -0.32036024369E+02  0.91256041984E+01  0.85914876270E+02  0.15529459000E+03  0.12500184082E+03 0.  0.
          5    1    3    3  501    0 -0.75797637465E+02  0.19687527115E+02  0.76143987114E+02  0.10922818932E+03  0.10000000000E+00 0.  1.
         -5    1    3    3    0  501  0.43761613095E+02 -0.10561922917E+02  0.97708891560E+01  0.46066400677E+02  0.10000000000E+00 0.  1.
         21    1    1    2  504  502  0.32036024369E+02 -0.91256041984E+01  0.42182191028E+02  0.53748681373E+02  0.00000000000E+00 0.  1.
<mgrwt>
<rscale>  1 0.12936400E+03</rscale>
<asrwt>0</asrwt>
<pdfrwt beam="1">  1       21 0.25933872E-01 0.12936400E+03</pdfrwt>
<pdfrwt beam="2">  1       21 0.62266312E-02 0.12936400E+03</pdfrwt>
<totfact> 0.25918571E+06</totfact>
</mgrwt>
</event>
<event>
 6    1  0.4424270E-002  0.1295526E+03  0.7546771E-02  0.1228121E+00
         21   -1    0    0  504  502  0.00000000000E+00  0.00000000000E+00  0.52726066074E+02  0.52726066074E+02  0.00000000000E+00 0.  1.
         21   -1    0    0  502  503 -0.00000000000E+00 -0.00000000000E+00 -0.16851787863E+03  0.16851787863E+03  0.00000000000E+00 0.  1.
         25    2    1    2    0    0  0.23175877084E+02  0.24993097739E+02 -0.13071192343E+03  0.18403660776E+03  0.12498835888E+03 0.  0.
          5    1    3    3  501    0 -0.12190458593E+02  0.65650278115E+02 -0.38071396714E+02  0.76863564483E+02  0.10000000000E+00 0.  1.
         -5    1    3    3    0  501  0.35366335677E+02 -0.40657180376E+02 -0.92640526718E+02  0.10717304328E+03  0.10000000000E+00 0.  1.
         21    1    1    2  504  503 -0.23175877084E+02 -0.24993097739E+02  0.14920110881E+02  0.37207336936E+02  0.00000000000E+00 0.  1.
<mgrwt>
<rscale>  1 0.12955256E+03</rscale>
<asrwt>0</asrwt>
<pdfrwt beam="1">  1       21 0.81117026E-02 0.12955256E+03</pdfrwt>
<pdfrwt beam="2">  1       21 0.25925827E-01 0.12955256E+03</pdfrwt>
<totfact> 0.16489135E+06</totfact>
</mgrwt>
</event>
<event>
 6    1  0.4424270E-002  0.1394979E+03  0.7546771E-02  0.1214006E+00
         21   -1    0    0  503  502  0.00000000000E+00  0.00000000000E+00  0.62385211433E+02  0.62385211433E+02  0.00000000000E+00 0.  1.
         21   -1    0    0  504  503 -0.00000000000E+00 -0.00000000000E+00 -0.33145381260E+03  0.33145381260E+03  0.00000000000E+00 0.  1.
         25    2    1    2    0    0  0.60875938884E+02  0.11341088340E+02 -0.29529824088E+03  0.32658953170E+03  0.12500068371E+03 0.  0.
          5    1    3    3  501    0 -0.32570385483E+02 -0.17221353572E+02 -0.46745997591E+02  0.59519772514E+02  0.10000000000E+00 0. -1.
         -5    1    3    3    0  501  0.93446324367E+02  0.28562441912E+02 -0.24855224329E+03  0.26706975918E+03  0.10000000000E+00 0. -1.
         21    1    1    2  504  502 -0.60875938884E+02 -0.11341088340E+02  0.26229639715E+02  0.67249492335E+02  0.00000000000E+00 0.  1.
<mgrwt>
<rscale>  1 0.13949793E+03</rscale>
<asrwt>0</asrwt>
<pdfrwt beam="1">  1       21 0.95977250E-02 0.13949793E+03</pdfrwt>
<pdfrwt beam="2">  1       21 0.50992893E-01 0.13949793E+03</pdfrwt>
<totfact> 0.32265084E+05</totfact>
</mgrwt>
</event>
<event>
 6    1  0.4424270E-002  0.1268603E+03  0.7546771E-02  0.1232190E+00
         21   -1    0    0  504  502  0.00000000000E+00  0.00000000000E+00  0.23065356375E+03  0.23065356375E+03  0.00000000000E+00 0.  1.
         21   -1    0    0  502  503 -0.00000000000E+00 -0.00000000000E+00 -0.24642976263E+02  0.24642976263E+02  0.00000000000E+00 0.  1.
         25    2    1    2    0    0 -0.14351593788E+02  0.15947218510E+02  0.15737827182E+03  0.20214219729E+03  0.12503305749E+03 0.  0.
          5    1    3    3  501    0 -0.33370165439E+02 -0.12876596365E+02 -0.50145043676E+01  0.36118276944E+02  0.10000000000E+00 0.  1.
         -5    1    3    3    0  501  0.19018571650E+02  0.28823814875E+02  0.16239277618E+03  0.16602392035E+03  0.10000000000E+00 0.  1.
         21    1    1    2  504  503  0.14351593788E+02 -0.15947218510E+02  0.48632315673E+02  0.53154342722E+02  0.00000000000E+00 0. -1.
<mgrwt>
<rscale>  1 0.12686035E+03</rscale>
<asrwt>0</asrwt>
<pdfrwt beam="1">  1       21 0.35485162E-01 0.12686035E+03</pdfrwt>
<pdfrwt beam="2">  1       21 0.37912273E-02 0.12686035E+03</pdfrwt>
<totfact> 0.32483646E+06</totfact>
</mgrwt>
</event>
<event>
 6    1  0.4424270E-002  0.1270492E+03  0.7546771E-02  0.1231901E+00
         21   -1    0    0  503  502  0.00000000000E+00  0.00000000000E+00  0.83151242532E+03  0.83151242532E+03  0.00000000000E+00 0.  1.
         21   -1    0    0  504  503 -0.00000000000E+00 -0.00000000000E+00 -0.69683324792E+01  0.69683324792E+01  0.00000000000E+00 0.  1.
         25    2    1    2    0    0 -0.21440496600E+02 -0.73689419972E+01  0.63496188143E+03  0.64754775624E+03  0.12501003777E+03 0.  0.
          5    1    3    3  501    0  0.41307473626E+02 -0.87811146140E+01  0.95166656609E+02  0.10411588679E+03  0.10000000000E+00 0.  1.
         -5    1    3    3    0  501 -0.62747970227E+02  0.14121726168E+01  0.53979522482E+03  0.54343186946E+03  0.10000000000E+00 0.  1.
         21    1    1    2  504  502  0.21440496600E+02  0.73689419972E+01  0.18958221141E+03  0.19093300155E+03  0.00000000000E+00 0.  1.
<mgrwt>
<rscale>  1 0.12704923E+03</rscale>
<asrwt>0</asrwt>
<pdfrwt beam="1">  1       21 0.12792491E+00 0.12704923E+03</pdfrwt>
<pdfrwt beam="2">  1       21 0.10720518E-02 0.12704923E+03</pdfrwt>
<totfact> 0.15191702E+06</totfact>
</mgrwt>
</event>
<event>
 6    1  0.4424270E-002  0.1266921E+03  0.7546771E-02  0.1232448E+00
         21   -1    0    0  504  502  0.00000000000E+00  0.00000000000E+00  0.99441515451E+02  0.99441515451E+02  0.00000000000E+00 0. -1.
         21   -1    0    0  502  503 -0.00000000000E+00 -0.00000000000E+00 -0.56272327171E+02  0.56272327171E+02  0.00000000000E+00 0. -1.
         25    2    1    2    0    0  0.54949369943E+01  0.19511297324E+02  0.46916466934E+02  0.13510008137E+03  0.12505995386E+03 0.  0.
          5    1    3    3  501    0 -0.34692177727E+02  0.35970006182E+02  0.69930711116E+02  0.85951747495E+02  0.10000000000E+00 0.  1.
         -5    1    3    3    0  501  0.40187114722E+02 -0.16458708858E+02 -0.23014244182E+02  0.49148333870E+02  0.10000000000E+00 0.  1.
         21    1    1    2  504  503 -0.54949369943E+01 -0.19511297324E+02 -0.37472786539E+01  0.20613761257E+02  0.00000000000E+00 0. -1.
<mgrwt>
<rscale>  1 0.12669206E+03</rscale>
<asrwt>0</asrwt>
<pdfrwt beam="1">  1       21 0.15298695E-01 0.12669206E+03</pdfrwt>
<pdfrwt beam="2">  1       21 0.86572811E-02 0.12669206E+03</pdfrwt>
<totfact> 0.39037854E+06</totfact>
</mgrwt>
</event>
<event>
 6    1  0.4424270E-002  0.1263282E+03  0.7546771E-02  0.1233008E+00
         21   -1    0    0  503  502  0.00000000000E+00  0.00000000000E+00  0.10218618643E+03  0.10218618643E+03  0.00000000000E+00 0. -1.
         21   -1    0    0  504  503 -0.00000000000E+00 -0.00000000000E+00 -0.52421946796E+02  0.52421946796E+02  0.00000000000E+00 0. -1.
         25    2    1    2    0    0  0.13590288977E+02 -0.12200367012E+02  0.51153935999E+02  0.13629212477E+03  0.12500109278E+03 0.  0.
          5    1    3    3  501    0 -0.17323701219E+02  0.50505666911E+02  0.76243030001E+01  0.53935823071E+02  0.10000000000E+00 0.  1.
         -5    1    3    3    0  501  0.30913990196E+02 -0.62706033923E+02  0.43529632999E+02  0.82356301697E+02  0.10000000000E+00 0.  1.
         21    1    1    2  504  502 -0.13590288977E+02  0.12200367012E+02 -0.13896963677E+01  0.18316008454E+02  0.00000000000E+00 0. -1.
<mgrwt>
<rscale>  1 0.12632822E+03</rscale>
<asrwt>0</asrwt>
<pdfrwt beam="1">  1       21 0.15720952E-01 0.12632822E+03</pdfrwt>
<pdfrwt beam="2">  1       21 0.80649149E-02 0.12632822E+03</pdfrwt>
<totfact> 0.41999855E+06</totfact>
</mgrwt>
</event>
<event>
 6    1  0.4424270E-002  0.1259597E+03  0.7546771E-02  0.1233577E+00
         21   -1    0    0  503  502  0.00000000000E+00  0.00000000000E+00  0.86916077196E+03  0.86916077196E+03  0.00000000000E+00 0.  1.
         21   -1    0    0  504  503 -0.00000000000E+00 -0.00000000000E+00 -0.75244656693E+01  0.75244656693E+01  0.00000000000E+00 0.  1.
         25    2    1    2    0    0 -0.75338252961E+01  0.13535432141E+02  0.53289510745E+03  0.54757926342E+03  0.12500355088E+03 0.  0.
          5    1    3    3  501    0 -0.22325675767E+02  0.58357808740E+02  0.42821979541E+03  0.43275428689E+03  0.10000000000E+00 0.  1.
         -5    1    3    3    0  501  0.14791850471E+02 -0.44822376598E+02  0.10467531204E+03  0.11482497653E+03  0.10000000000E+00 0.  1.
         21    1    1    2  504  502  0.75338252961E+01 -0.13535432141E+02  0.32874119884E+03  0.32910597421E+03  0.00000000000E+00 0.  1.
<mgrwt>
<rscale>  1 0.12595973E+03</rscale>
<asrwt>0</asrwt>
<pdfrwt beam="1">  1       21 0.13371696E+00 0.12595973E+03</pdfrwt>
<pdfrwt beam="2">  1       21 0.11576108E-02 0.12595973E+03</pdfrwt>
<totfact> 0.12052387E+06</totfact>
</mgrwt>
</event>
<event>
 6    1  0.4424270E-002  0.1274048E+03  0.7546771E-02  0.1231358E+00
         21   -1    0    0  504  502  0.00000000000E+00  0.00000000000E+00  0.10842315124E+03  0.10842315124E+03  0.00000000000E+00 0.  1.
         21   -1    0    0  502  503 -0.00000000000E+00 -0.00000000000E+00 -0.59959999757E+02  0.59959999757E+02  0.00000000000E+00 0.  1.
         25    2    1    2    0    0 -0.74174705942E+01  0.23569416883E+02  0.17240242951E+02  0.12856599013E+03  0.12498580543E+03 0.  0.
          5    1    3    3  501    0  0.50832964035E+02 -0.15791054733E+02  0.23088848180E+02  0.58021138841E+02  0.10000000000E+00 0. -1.
         -5    1    3    3    0  501 -0.58250434629E+02  0.39360471616E+02 -0.58486052298E+01  0.70544851289E+02  0.10000000000E+00 0. -1.
         21    1    1    2  504  503  0.74174705942E+01 -0.23569416883E+02  0.31222908528E+02  0.39817160862E+02  0.00000000000E+00 0.  1.
<mgrwt>
<rscale>  1 0.12740482E+03</rscale>
<asrwt>0</asrwt>
<pdfrwt beam="1">  1       21 0.16680485E-01 0.12740482E+03</pdfrwt>
<pdfrwt beam="2">  1       21 0.92246153E-02 0.12740482E+03</pdfrwt>
<totfact> 0.29903631E+06</totfact>
</mgrwt>
</event>
<event>
 6    1  0.4424270E-002  0.1271653E+03  0.7546771E-02  0.1231724E+00
         21   -1    0    0  504  502  0.00000000000E+00  0.00000000000E+00  0.70965345987E+02  0.70965345987E+02  0.00000000000E+00 0.  1.
         21   -1    0    0  502  503 -0.00000000000E+00 -0.00000000000E+00 -0.55131314394E+03  0.55131314394E+03  0.00000000000E+00 0.  1.
         25    2    1    2    0    0  0.18154610128E+02  0.14374400836E+02 -0.54184443243E+03  0.55656662402E+03  0.12503921283E+03 0.  0.
          5    1    3    3  501    0 -0.25701475938E+02  0.38839004516E+02 -0.84595875144E+02  0.96568660695E+02  0.10000000000E+00 0. -1.
         -5    1    3    3    0  501  0.43856086066E+02 -0.24464603680E+02 -0.45724855729E+03  0.45999796332E+03  0.10000000000E+00 0. -1.
         21    1    1    2  504  503 -0.18154610128E+02 -0.14374400836E+02  0.61496634482E+02  0.65711865906E+02  0.00000000000E+00 0.  1.
<mgrwt>
<rscale>  1 0.12716532E+03</rscale>
<asrwt>0</asrwt>
<pdfrwt beam="1">  1       21 0.10917745E-01 0.12716532E+03</pdfrwt>
<pdfrwt beam="2">  1       21 0.84817408E-01 0.12716532E+03</pdfrwt>
<totfact> 0.86047654E+04</totfact>
</mgrwt>
</event>
<event>
 6    1  0.4424270E-002  0.1260259E+03  0.7546771E-02  0.1233475E+00
         21   -1    0    0  504  502  0.00000000000E+00  0.00000000000E+00  0.79665956464E+02  0.79665956464E+02  0.00000000000E+00 0.  1.
         21   -1    0    0  502  503 -0.00000000000E+00 -0.00000000000E+00 -0.75732110291E+02  0.75732110291E+02  0.00000000000E+00 0.  1.
         25    2    1    2    0    0 -0.15011112600E+02 -0.56493435287E+01 -0.18960824935E+02  0.12744427365E+03  0.12500112568E+03 0.  0.
          5    1    3    3  501    0  0.19393884452E+02  0.44832507502E+02 -0.39682134129E+02  0.62934555310E+02  0.10000000000E+00 0.  1.
         -5    1    3    3    0  501 -0.34404997052E+02 -0.50481851031E+02  0.20721309194E+02  0.64509718340E+02  0.10000000000E+00 0.  1.
         21    1    1    2  504  503  0.15011112600E+02  0.56493435287E+01  0.22894671107E+02  0.27953793104E+02  0.00000000000E+00 0.  1.
<mgrwt>
<rscale>  1 0.12602591E+03</rscale>
<asrwt>0</asrwt>
<pdfrwt beam="1">  1       21 0.12256301E-01 0.12602591E+03</pdfrwt>
<pdfrwt beam="2">  1       21 0.11651094E-01 0.12602591E+03</pdfrwt>
<totfact> 0.34517468E+06</totfact>
</mgrwt>
</event>
<event>
 6    1  0.4424270E-002  0.1259909E+03  0.7546771E-02  0.1233529E+00
         21   -1    0    0  503  502  0.00000000000E+00  0.00000000000E+00  0.10649132421E+03  0.10649132421E+03  0.00000000000E+00 0.  1.
         21   -1    0    0  504  503 -0.00000000000E+00 -0.00000000000E+00 -0.52387644976E+02  0.52387644976E+02  0.00000000000E+00 0.  1.
         25    2    1    2    0    0 -0.40736413983E+01  0.15248506802E+02  0.29095664477E+02  0.12930681478E+03  0.12499833256E+03 0.  0.
          5    1    3    3  501    0 -0.22966901901E+02 -0.16644401259E+02 -0.41092489842E+02  0.49931126541E+02  0.10000000000E+00 0. -1.
         -5    1    3    3    0  501  0.18893260503E+02  0.31892908061E+02  0.70188154320E+02  0.79375688242E+02  0.10000000000E+00 0. -1.
         21    1    1    2  504  502  0.40736413983E+01 -0.15248506802E+02  0.25008014754E+02  0.29572154400E+02  0.00000000000E+00 0.  1.
<mgrwt>
<rscale>  1 0.12599085E+03</rscale>
<asrwt>0</asrwt>
<pdfrwt beam="1">  1       21 0.16383281E-01 0.12599085E+03</pdfrwt>
<pdfrwt beam="2">  1       21 0.80596377E-02 0.12599085E+03</pdfrwt>
<totfact> 0.39013588E+06</totfact>
</mgrwt>
</event>
<event>
 6    1  0.4424270E-002  0.1332928E+03  0.7546771E-02  0.1222650E+00
         21   -1    0    0  503  502  0.00000000000E+00  0.00000000000E+00  0.16461464220E+03  0.16461464220E+03  0.00000000000E+00 0.  1.
         21   -1    0    0  504  503 -0.00000000000E+00 -0.00000000000E+00 -0.67931396633E+02  0.67931396633E+02  0.00000000000E+00 0. -1.
         25    2    1    2    0    0  0.13098484825E+02  0.44376667820E+02  0.92361361378E+01  0.13361244545E+03  0.12500448159E+03 0.  0.
          5    1    3    3  501    0 -0.40327006334E+02 -0.17722408217E+02  0.24319834558E+02  0.50317149619E+02  0.10000000000E+00 0.  1.
         -5    1    3    3    0  501  0.53425491158E+02  0.62099076037E+02 -0.15083698420E+02  0.83295295835E+02  0.10000000000E+00 0.  1.
         21    1    1    2  504  502 -0.13098484825E+02 -0.44376667820E+02  0.87447109432E+02  0.98933593382E+02  0.00000000000E+00 0.  1.
<mgrwt>
<rscale>  1 0.13329283E+03</rscale>
<asrwt>0</asrwt>
<pdfrwt beam="1">  1       21 0.25325329E-01 0.13329283E+03</pdfrwt>
<pdfrwt beam="2">  1       21 0.10450984E-01 0.13329283E+03</pdfrwt>
<totfact> 0.11095530E+06</totfact>
</mgrwt>
</event>
<event>
 6    1  0.4424270E-002  0.1279864E+03  0.7546771E-02  0.1230475E+00
         21   -1    0    0  503  502  0.00000000000E+00  0.00000000000E+00  0.28743038149E+03  0.28743038149E+03  0.00000000000E+00 0. -1.
         21   -1    0    0  504  503 -0.00000000000E+00 -0.00000000000E+00 -0.68535660758E+03  0.68535660758E+03  0.00000000000E+00 0.  1.
         25    2    1    2    0    0  0.10090909190E+02  0.25569905817E+02 -0.67870436317E+03  0.69066643187E+03  0.12499944398E+03 0.  0.
          5    1    3    3  501    0  0.37896604849E+02 -0.10783304398E+02 -0.70667257285E+02  0.80909230407E+02  0.10000000000E+00 0.  1.
         -5    1    3    3    0  501 -0.27805695659E+02  0.36353210215E+02 -0.60803710588E+03  0.60975720146E+03  0.10000000000E+00 0.  1.
         21    1    1    2  504  502 -0.10090909190E+02 -0.25569905817E+02  0.28077813708E+03  0.28212055720E+03  0.00000000000E+00 0. -1.
<mgrwt>
<rscale>  1 0.12798636E+03</rscale>
<asrwt>0</asrwt>
<pdfrwt beam="1">  1       21 0.44220059E-01 0.12798636E+03</pdfrwt>
<pdfrwt beam="2">  1       21 0.10543948E+00 0.12798636E+03</pdfrwt>
<totfact> 0.37795879E+03</totfact>
</mgrwt>
</event>
<event>
 6    1  0.4424270E-002  0.1266919E+03  0.7546771E-02  0.1232449E+00
         21   -1    0    0  504  502  0.00000000000E+00  0.00000000000E+00  0.53441182381E+01  0.53441182381E+01  0.00000000000E+00 0.  1.
         21   -1    0    0  502  503 -0.00000000000E+00 -0.00000000000E+00 -0.14114979315E+04  0.14114979315E+04  0.00000000000E+00 0.  1.
         25    2    1    2    0    0  0.85832474597E+01 -0.18801537629E+02 -0.13642335316E+04  0.13701036290E+04  0.12499462237E+03 0.  0.
          5    1    3    3  501    0  0.70528122094E+01 -0.55042086490E+02 -0.29021365682E+03  0.29547140310E+03  0.10000000000E+00 0.  1.
         -5    1    3    3    0  501  0.15304352503E+01  0.36240548861E+02 -0.10740198748E+04  0.10746322259E+04  0.10000000000E+00 0.  1.
         21    1    1    2  504  503 -0.85832474597E+01  0.18801537629E+02 -0.41920281638E+02  0.46738420671E+02  0.00000000000E+00 0.  1.
<mgrwt>
<rscale>  1 0.12669185E+03</rscale>
<asrwt>0</asrwt>
<pdfrwt beam="1">  1       21 0.82217186E-03 0.12669185E+03</pdfrwt>
<pdfrwt beam="2">  1       21 0.21715357E+00 0.12669185E+03</pdfrwt>
<totfact> 0.55147903E+05</totfact>
</mgrwt>
</event>
<event>
 6    1  0.4424270E-002  0.1374417E+03  0.7546771E-02  0.1216813E+00
         21   -1    0    0  503  502  0.00000000000E+00  0.00000000000E+00  0.44351112102E+03  0.44351112102E+03  0.00000000000E+00 0.  1.
         21   -1    0    0  504  503 -0.00000000000E+00 -0.00000000000E+00 -0.25302413186E+02  0.25302413186E+02  0.00000000000E+00 0.  1.
         25    2    1    2    0    0 -0.34594476503E+02  0.45469107417E+02  0.19606495453E+03  0.23944033467E+03  0.12500395969E+03 0.  0.
          5    1    3    3  501    0 -0.30816526756E+02 -0.37602462871E+02  0.10734354708E+03  0.11783993651E+03  0.10000000000E+00 0.  1.
         -5    1    3    3    0  501 -0.37779497466E+01  0.83071570288E+02  0.88721407447E+02  0.12160039816E+03  0.10000000000E+00 0.  1.
         21    1    1    2  504  502  0.34594476503E+02 -0.45469107417E+02  0.22214375331E+03  0.22937319954E+03  0.00000000000E+00 0.  1.
<mgrwt>
<rscale>  1 0.13744165E+03</rscale>
<asrwt>0</asrwt>
<pdfrwt beam="1">  1       21 0.68232475E-01 0.13744165E+03</pdfrwt>
<pdfrwt beam="2">  1       21 0.38926793E-02 0.13744165E+03</pdfrwt>
<totfact> 0.80791446E+05</totfact>
</mgrwt>
</event>
<event>
 6    1  0.4424270E-002  0.1414500E+03  0.7546771E-02  0.1211391E+00
         21   -1    0    0  503  502  0.00000000000E+00  0.00000000000E+00  0.10439536592E+02  0.10439536592E+02  0.00000000000E+00 0.  1.
         21   -1    0    0  504  503 -0.00000000000E+00 -0.00000000000E+00 -0.10882669510E+04  0.10882669510E+04  0.00000000000E+00 0.  1.
         25    2    1    2    0    0  0.56378792375E+02 -0.34708447493E+02 -0.84041628181E+03  0.85223683340E+03  0.12499939565E+03 0.  0.
          5    1    3    3  501    0 -0.32702484462E+02 -0.39877287946E+02 -0.26960705658E+03  0.27449521952E+03  0.10000000000E+00 0.  1.
         -5    1    3    3    0  501  0.89081276837E+02  0.51688404532E+01 -0.57080922523E+03  0.57774161387E+03  0.10000000000E+00 0.  1.
         21    1    1    2  504  502 -0.56378792375E+02  0.34708447493E+02 -0.23741113259E+03  0.24646965418E+03  0.00000000000E+00 0.  1.
<mgrwt>
<rscale>  1 0.14144997E+03</rscale>
<asrwt>0</asrwt>
<pdfrwt beam="1">  1       21 0.16060831E-02 0.14144997E+03</pdfrwt>
<pdfrwt beam="2">  1       21 0.16742562E+00 0.14144997E+03</pdfrwt>
<totfact> 0.39776986E+05</totfact>
</mgrwt>
</event>
<event>
 6    1  0.4424270E-002  0.1271672E+03  0.7546771E-02  0.1231721E+00
         21   -1    0    0  503  502  0.00000000000E+00  0.00000000000E+00  0.59444600127E+03  0.59444600127E+03  0.00000000000E+00 0.  1.
         21   -1    0    0  504  503 -0.00000000000E+00 -0.00000000000E+00 -0.95482076346E+01  0.95482076346E+01  0.00000000000E+00 0.  1.
         25    2    1    2    0    0 -0.22666436042E+02  0.59015278275E+01  0.50116412005E+03  0.51704638865E+03  0.12499158950E+03 0.  0.
          5    1    3    3  501    0 -0.44198851051E+02 -0.27417589912E+01  0.56543861125E+02  0.71821124382E+02  0.10000000000E+00 0.  1.
         -5    1    3    3    0  501  0.21532415008E+02  0.86432868187E+01  0.44462025892E+03  0.44522526427E+03  0.10000000000E+00 0.  1.
         21    1    1    2  504  502  0.22666436042E+02 -0.59015278275E+01  0.83733673585E+02  0.86947820247E+02  0.00000000000E+00 0.  1.
<mgrwt>
<rscale>  1 0.12716718E+03</rscale>
<asrwt>0</asrwt>
<pdfrwt beam="1">  1       21 0.91453202E-01 0.12716718E+03</pdfrwt>
<pdfrwt beam="2">  1       21 0.14689555E-02 0.12716718E+03</pdfrwt>
<totfact> 0.20497928E+06</totfact>
</mgrwt>
</event>
<event>
 6    1  0.4424270E-002  0.1290468E+03  0.7546771E-02  0.1228877E+00
         21   -1    0    0  504  502  0.00000000000E+00  0.00000000000E+00  0.19762665997E+02  0.19762665997E+02  0.00000000000E+00 0.  1.
         21   -1    0    0  502  503 -0.00000000000E+00 -0.00000000000E+00 -0.38400422437E+03  0.38400422437E+03  0.00000000000E+00 0.  1.
         25    2    1    2    0    0  0.52336308351E+01 -0.31638702552E+02 -0.33969824854E+03  0.36338406669E+03  0.12499872587E+03 0.  0.
          5    1    3    3  501    0  0.49310132971E+02  0.15661097843E+02 -0.23259446618E+03  0.23827915330E+03  0.10000000000E+00 0. -1.
         -5    1    3    3    0  501 -0.44076502136E+02 -0.47299800395E+02 -0.10710378236E+03  0.12510491338E+03  0.10000000000E+00 0. -1.
         21    1    1    2  504  503 -0.52336308351E+01  0.31638702552E+02 -0.24543309837E+02  0.40382823683E+02  0.00000000000E+00 0.  1.
<mgrwt>
<rscale>  1 0.12904681E+03</rscale>
<asrwt>0</asrwt>
<pdfrwt beam="1">  1       21 0.30404103E-02 0.12904681E+03</pdfrwt>
<pdfrwt beam="2">  1       21 0.59077571E-01 0.12904681E+03</pdfrwt>
<totfact> 0.16545185E+06</totfact>
</mgrwt>
</event>
<event>
 6    1  0.4424270E-002  0.1338844E+03  0.7546771E-02  0.1221803E+00
         21   -1    0    0  503  502  0.00000000000E+00  0.00000000000E+00  0.85191635724E+02  0.85191635724E+02  0.00000000000E+00 0. -1.
         21   -1    0    0  504  503 -0.00000000000E+00 -0.00000000000E+00 -0.98659136694E+02  0.98659136694E+02  0.00000000000E+00 0. -1.
         25    2    1    2    0    0  0.46079719977E+02  0.13351383810E+02  0.49479666896E+00  0.13388532638E+03  0.12499374285E+03 0.  0.
          5    1    3    3  501    0 -0.10886508308E+02 -0.48482046372E+02  0.29276751748E+01  0.49775557912E+02  0.10000000000E+00 0.  1.
         -5    1    3    3    0  501  0.56966228286E+02  0.61833430182E+02 -0.24328785058E+01  0.84109768463E+02  0.10000000000E+00 0.  1.
         21    1    1    2  504  502 -0.46079719977E+02 -0.13351383810E+02 -0.13962297639E+02  0.49965446042E+02  0.00000000000E+00 0. -1.
<mgrwt>
<rscale>  1 0.13388441E+03</rscale>
<asrwt>0</asrwt>
<pdfrwt beam="1">  1       21 0.13106405E-01 0.13388441E+03</pdfrwt>
<pdfrwt beam="2">  1       21 0.15178329E-01 0.13388441E+03</pdfrwt>
<totfact> 0.19141912E+06</totfact>
</mgrwt>
</event>
<event>
 6    1  0.4424270E-002  0.1381692E+03  0.7546771E-02  0.1215814E+00
         21   -1    0    0  503  502  0.00000000000E+00  0.00000000000E+00  0.58828067320E+02  0.58828067320E+02  0.00000000000E+00 0. -1.
         21   -1    0    0  504  503 -0.00000000000E+00 -0.00000000000E+00 -0.51056346764E+03  0.51056346764E+03  0.00000000000E+00 0.  1.
         25    2    1    2    0    0  0.38307834192E+02  0.44692780517E+02 -0.48325561234E+03  0.50261984517E+03  0.12500314843E+03 0.  0.
          5    1    3    3  501    0 -0.41026688044E+02  0.28995117209E+02 -0.11347182842E+03  0.12409581700E+03  0.10000000000E+00 0.  1.
         -5    1    3    3    0  501  0.79334522236E+02  0.15697663309E+02 -0.36978378392E+03  0.37852402817E+03  0.10000000000E+00 0.  1.
         21    1    1    2  504  502 -0.38307834192E+02 -0.44692780517E+02  0.31520212019E+02  0.66771689784E+02  0.00000000000E+00 0. -1.
<mgrwt>
<rscale>  1 0.13816918E+03</rscale>
<asrwt>0</asrwt>
<pdfrwt beam="1">  1       21 0.90504722E-02 0.13816918E+03</pdfrwt>
<pdfrwt beam="2">  1       21 0.78548223E-01 0.13816918E+03</pdfrwt>
<totfact> 0.14132214E+05</totfact>
</mgrwt>
</event>
<event>
 6    1  0.4424270E-002  0.1325592E+03  0.7546771E-02  0.1223707E+00
         21   -1    0    0  504  502  0.00000000000E+00  0.00000000000E+00  0.94857382484E+03  0.94857382484E+03  0.00000000000E+00 0.  1.
         21   -1    0    0  502  503 -0.00000000000E+00 -0.00000000000E+00 -0.12204738851E+02  0.12204738851E+02  0.00000000000E+00 0.  1.
         25    2    1    2    0    0 -0.37263259964E+02 -0.23636361563E+02  0.37614947128E+03  0.39882372134E+03  0.12499883133E+03 0.  0.
          5    1    3    3  501    0 -0.41981059815E+02  0.12940385597E+02  0.35202221635E+03  0.35475275019E+03  0.10000000000E+00 0. -1.
         -5    1    3    3    0  501  0.47177998513E+01 -0.36576747160E+02  0.24127254929E+02  0.44070971156E+02  0.10000000000E+00 0. -1.
         21    1    1    2  504  503  0.37263259964E+02  0.23636361563E+02  0.56021961472E+03  0.56195484235E+03  0.00000000000E+00 0.  1.
<mgrwt>
<rscale>  1 0.13255918E+03</rscale>
<asrwt>0</asrwt>
<pdfrwt beam="1">  1       21 0.14593438E+00 0.13255918E+03</pdfrwt>
<pdfrwt beam="2">  1       21 0.18776529E-02 0.13255918E+03</pdfrwt>
<totfact> 0.44555766E+05</totfact>
</mgrwt>
</event>
<event>
 6    1  0.4424270E-002  0.1266366E+03  0.7546771E-02  0.1232533E+00
         21   -1    0    0  504  502  0.00000000000E+00  0.00000000000E+00  0.73292891141E+02  0.73292891141E+02  0.00000000000E+00 0.  1.
         21   -1    0    0  502  503 -0.00000000000E+00 -0.00000000000E+00 -0.12106278606E+03  0.12106278606E+03  0.00000000000E+00 0.  1.
         25    2    1    2    0    0 -0.17867236443E+02 -0.95943928659E+01 -0.84610724328E+02  0.15230169732E+03  0.12500216727E+03 0.  0.
          5    1    3    3  501    0  0.51514866408E+02  0.94175296381E+01 -0.50247446520E+02  0.72576078754E+02  0.10000000000E+00 0. -1.
         -5    1    3    3    0  501 -0.69382102851E+02 -0.19011922504E+02 -0.34363277808E+02  0.79725618562E+02  0.10000000000E+00 0. -1.
         21    1    1    2  504  503  0.17867236443E+02  0.95943928659E+01  0.36840829409E+02  0.42053979884E+02  0.00000000000E+00 0.  1.
<mgrwt>
<rscale>  1 0.12663662E+03</rscale>
<asrwt>0</asrwt>
<pdfrwt beam="1">  1       21 0.11275829E-01 0.12663662E+03</pdfrwt>
<pdfrwt beam="2">  1       21 0.18625044E-01 0.12663662E+03</pdfrwt>
<totfact> 0.17198329E+06</totfact>
</mgrwt>
</event>
<event>
 6    1  0.4424270E-002  0.1290935E+03  0.7546771E-02  0.1228807E+00
         21   -1    0    0  503  502  0.00000000000E+00  0.00000000000E+00  0.10970168362E+04  0.10970168362E+04  0.00000000000E+00 0. -1.
         21   -1    0    0  504  503 -0.00000000000E+00 -0.00000000000E+00 -0.60882015133E+01  0.60882015133E+01  0.00000000000E+00 0. -1.
         25    2    1    2    0    0  0.29678783206E+02 -0.12884258845E+02  0.93369108183E+03  0.94257316447E+03  0.12497319630E+03 0.  0.
          5    1    3    3  501    0  0.43152103824E+02 -0.60163665044E+02  0.69082857613E+03  0.69478478845E+03  0.10000000000E+00 0.  1.
         -5    1    3    3    0  501 -0.13473320618E+02  0.47279406200E+02  0.24286250570E+03  0.24778837602E+03  0.10000000000E+00 0.  1.
         21    1    1    2  504  502 -0.29678783206E+02  0.12884258845E+02  0.15723755290E+03  0.16053187328E+03  0.00000000000E+00 0.  1.
<mgrwt>
<rscale>  1 0.12909351E+03</rscale>
<asrwt>0</asrwt>
<pdfrwt beam="1">  1       21 0.16877166E+00 0.12909351E+03</pdfrwt>
<pdfrwt beam="2">  1       21 0.93664726E-03 0.12909351E+03</pdfrwt>
<totfact> 0.91953444E+05</totfact>
</mgrwt>
</event>
<event>
 6    1  0.4424270E-002  0.1301843E+03  0.7546771E-02  0.1227183E+00
         21   -1    0    0  503  502  0.00000000000E+00  0.00000000000E+00  0.35275927992E+03  0.35275927992E+03  0.00000000000E+00 0. -1.
         21   -1    0    0  504  503 -0.00000000000E+00 -0.00000000000E+00 -0.15920807883E+03  0.15920807883E+03  0.00000000000E+00 0. -1.
         25    2    1    2    0    0 -0.30435248848E+02 -0.19668089469E+02 -0.13141871137E+03  0.18498328862E+03  0.12503919888E+03 0.  0.
          5    1    3    3  501    0  0.20888920419E+02  0.22576139466E+02 -0.11138887203E+03  0.11555743110E+03  0.10000000000E+00 0.  1.
         -5    1    3    3    0  501 -0.51324169267E+02 -0.42244228936E+02 -0.20029839334E+02  0.69425857525E+02  0.10000000000E+00 0.  1.
         21    1    1    2  504  502  0.30435248848E+02  0.19668089469E+02  0.32496991245E+03  0.32698407012E+03  0.00000000000E+00 0. -1.
<mgrwt>
<rscale>  1 0.13018425E+03</rscale>
<asrwt>0</asrwt>
<pdfrwt beam="1">  1       21 0.54270658E-01 0.13018425E+03</pdfrwt>
<pdfrwt beam="2">  1       21 0.24493551E-01 0.13018425E+03</pdfrwt>
<totfact> 0.52116486E+04</totfact>
</mgrwt>
</event>
<event>
 6    1  0.4424270E-002  0.1327566E+03  0.7546771E-02  0.1223422E+00
         21   -1    0    0  504  502  0.00000000000E+00  0.00000000000E+00  0.51533105878E+02  0.51533105878E+02  0.00000000000E+00 0. -1.
         21   -1    0    0  502  503 -0.00000000000E+00 -0.00000000000E+00 -0.15393658981E+03  0.15393658981E+03  0.00000000000E+00 0. -1.
         25    2    1    2    0    0 -0.17995317240E+02  0.40925721892E+02 -0.84147720786E+02  0.15717871265E+03  0.12500225055E+03 0.  0.
          5    1    3    3  501    0  0.18381474867E+02  0.69669496359E+02 -0.14479808076E+02  0.73494164279E+02  0.10000000000E+00 0.  1.
         -5    1    3    3    0  501 -0.36376792107E+02 -0.28743774467E+02 -0.69667912709E+02  0.83684548370E+02  0.10000000000E+00 0.  1.
         21    1    1    2  504  503  0.17995317240E+02 -0.40925721892E+02 -0.18255763150E+02  0.48290983042E+02  0.00000000000E+00 0. -1.
<mgrwt>
<rscale>  1 0.13275658E+03</rscale>
<asrwt>0</asrwt>
<pdfrwt beam="1">  1       21 0.79281702E-02 0.13275658E+03</pdfrwt>
<pdfrwt beam="2">  1       21 0.23682552E-01 0.13275658E+03</pdfrwt>
<totfact> 0.20363491E+06</totfact>
</mgrwt>
</event>
<event>
 6    1  0.4424270E-002  0.1319187E+03  0.7546771E-02  0.1224636E+00
         21   -1    0    0  503  502  0.00000000000E+00  0.00000000000E+00  0.16931172934E+03  0.16931172934E+03  0.00000000000E+00 0. -1.
         21   -1    0    0  504  503 -0.00000000000E+00 -0.00000000000E+00 -0.92815190452E+02  0.92815190452E+02  0.00000000000E+00 0. -1.
         25    2    1    2    0    0  0.32958219881E+02  0.26272147755E+02 -0.40317017801E+02  0.13794206954E+03  0.12500433040E+03 0.  0.
          5    1    3    3  501    0 -0.39072365426E+02  0.31901768793E+02  0.79329686518E+01  0.51061870155E+02  0.10000000000E+00 0.  1.
         -5    1    3    3    0  501  0.72030585307E+02 -0.56296210385E+01 -0.48249986453E+02  0.86880199386E+02  0.10000000000E+00 0.  1.
         21    1    1    2  504  502 -0.32958219881E+02 -0.26272147755E+02  0.11681355669E+03  0.12418485025E+03  0.00000000000E+00 0. -1.
<mgrwt>
<rscale>  1 0.13191873E+03</rscale>
<asrwt>0</asrwt>
<pdfrwt beam="1">  1       21 0.26047958E-01 0.13191873E+03</pdfrwt>
<pdfrwt beam="2">  1       21 0.14279260E-01 0.13191873E+03</pdfrwt>
<totfact> 0.60433791E+05</totfact>
</mgrwt>
</event>
<event>
 6    1  0.4424270E-002  0.1267342E+03  0.7546771E-02  0.1232384E+00
         21   -1    0    0  504  502  0.00000000000E+00  0.00000000000E+00  0.97951087654E+02  0.97951087654E+02  0.00000000000E+00 0. -1.
         21   -1    0    0  502  503 -0.00000000000E+00 -0.00000000000E+00 -0.12446381463E+03  0.12446381463E+03  0.00000000000E+00 0. -1.
         25    2    1    2    0    0 -0.16080522047E+02 -0.13276310595E+02 -0.90098614335E+02  0.15549697731E+03  0.12500682395E+03 0.  0.
          5    1    3    3  501    0 -0.51858386168E+02  0.58919251747E+00 -0.10274815898E+03  0.11509488928E+03  0.10000000000E+00 0. -1.
         -5    1    3    3    0  501  0.35777864120E+02 -0.13865503112E+02  0.12649544645E+02  0.40402088031E+02  0.10000000000E+00 0. -1.
         21    1    1    2  504  503  0.16080522047E+02  0.13276310595E+02  0.63585887358E+02  0.66917924978E+02  0.00000000000E+00 0. -1.
<mgrwt>
<rscale>  1 0.12673417E+03</rscale>
<asrwt>0</asrwt>
<pdfrwt beam="1">  1       21 0.15069398E-01 0.12673417E+03</pdfrwt>
<pdfrwt beam="2">  1       21 0.19148279E-01 0.12673417E+03</pdfrwt>
<totfact> 0.97478760E+05</totfact>
</mgrwt>
</event>
<event>
 6    1  0.4424270E-002  0.1263873E+03  0.7546771E-02  0.1232917E+00
         21   -1    0    0  503  502  0.00000000000E+00  0.00000000000E+00  0.17285197585E+02  0.17285197585E+02  0.00000000000E+00 0.  1.
         21   -1    0    0  504  503 -0.00000000000E+00 -0.00000000000E+00 -0.39206237320E+03  0.39206237320E+03  0.00000000000E+00 0.  1.
         25    2    1    2    0    0 -0.15141960188E+02 -0.11064350770E+02 -0.36849954903E+03  0.38957113501E+03  0.12498821056E+03 0.  0.
          5    1    3    3  501    0  0.31229281187E+02  0.34429596597E+02 -0.25138533425E+03  0.25564675121E+03  0.10000000000E+00 0.  1.
         -5    1    3    3    0  501 -0.46371241375E+02 -0.45493947368E+02 -0.11711421478E+03  0.13392438380E+03  0.10000000000E+00 0.  1.
         21    1    1    2  504  502  0.15141960188E+02  0.11064350770E+02 -0.62776265794E+01  0.19776435770E+02  0.00000000000E+00 0.  1.
<mgrwt>
<rscale>  1 0.12638731E+03</rscale>
<asrwt>0</asrwt>
<pdfrwt beam="1">  1       21 0.26592614E-02 0.12638731E+03</pdfrwt>
<pdfrwt beam="2">  1       21 0.60317282E-01 0.12638731E+03</pdfrwt>
<totfact> 0.19702213E+06</totfact>
</mgrwt>
</event>
<event>
 6    1  0.4424270E-002  0.1271321E+03  0.7546771E-02  0.1231774E+00
         21   -1    0    0  503  502  0.00000000000E+00  0.00000000000E+00  0.34104621686E+02  0.34104621686E+02  0.00000000000E+00 0. -1.
         21   -1    0    0  504  503 -0.00000000000E+00 -0.00000000000E+00 -0.85632155477E+03  0.85632155477E+03  0.00000000000E+00 0.  1.
         25    2    1    2    0    0  0.87236298567E+01  0.21494924052E+02 -0.84699546755E+03  0.85648344162E+03  0.12499772096E+03 0.  0.
          5    1    3    3  501    0  0.31754375080E+02  0.43680360902E+02 -0.16243917359E+03  0.17118063378E+03  0.10000000000E+00 0.  1.
         -5    1    3    3    0  501 -0.23030745223E+02 -0.22185436849E+02 -0.68455629396E+03  0.68530280784E+03  0.10000000000E+00 0.  1.
         21    1    1    2  504  502 -0.87236298567E+01 -0.21494924052E+02  0.24778534465E+02  0.33942734836E+02  0.00000000000E+00 0. -1.
<mgrwt>
<rscale>  1 0.12713207E+03</rscale>
<asrwt>0</asrwt>
<pdfrwt beam="1">  1       21 0.52468652E-02 0.12713207E+03</pdfrwt>
<pdfrwt beam="2">  1       21 0.13174177E+00 0.12713207E+03</pdfrwt>
<totfact> 0.10676452E+05</totfact>
</mgrwt>
</event>
<event>
 6    1  0.4424270E-002  0.1262733E+03  0.7546771E-02  0.1233093E+00
         21   -1    0    0  504  502  0.00000000000E+00  0.00000000000E+00  0.41192996500E+02  0.41192996500E+02  0.00000000000E+00 0.  1.
         21   -1    0    0  502  503 -0.00000000000E+00 -0.00000000000E+00 -0.25885833026E+03  0.25885833026E+03  0.00000000000E+00 0.  1.
         25    2    1    2    0    0  0.89586629728E+01 -0.15437124711E+02 -0.24016158270E+03  0.27133471696E+03  0.12500552132E+03 0.  0.
          5    1    3    3  501    0  0.55223269331E+02 -0.42029640386E+02 -0.10338760747E+03  0.12451950661E+03  0.10000000000E+00 0.  1.
         -5    1    3    3    0  501 -0.46264606358E+02  0.26592515675E+02 -0.13677397523E+03  0.14681521035E+03  0.10000000000E+00 0.  1.
         21    1    1    2  504  503 -0.89586629728E+01  0.15437124711E+02  0.22496248946E+02  0.28716609797E+02  0.00000000000E+00 0.  1.
<mgrwt>
<rscale>  1 0.12627329E+03</rscale>
<asrwt>0</asrwt>
<pdfrwt beam="1">  1       21 0.63373842E-02 0.12627329E+03</pdfrwt>
<pdfrwt beam="2">  1       21 0.39824358E-01 0.12627329E+03</pdfrwt>
<totfact> 0.10916448E+06</totfact>
</mgrwt>
</event>
<event>
 6    1  0.4424270E-002  0.1305849E+03  0.7546771E-02  0.1226590E+00
         21   -1    0    0  503  502  0.00000000000E+00  0.00000000000E+00  0.12213188975E+04  0.12213188975E+04  0.00000000000E+00 0. -1.
         21   -1    0    0  504  503 -0.00000000000E+00 -0.00000000000E+00 -0.61651370449E+01  0.61651370449E+01  0.00000000000E+00 0. -1.
         25    2    1    2    0    0  0.21691147588E+02  0.30977104752E+02  0.10480901769E+04  0.10561938485E+04  0.12498935828E+03 0.  0.
          5    1    3    3  501    0 -0.51235175501E+02  0.20197959668E+02  0.53657467274E+03  0.53939353928E+03  0.10000000000E+00 0. -1.
         -5    1    3    3    0  501  0.72926323089E+02  0.10779145083E+02  0.51151550417E+03  0.51680030919E+03  0.10000000000E+00 0. -1.
         21    1    1    2  504  502 -0.21691147588E+02 -0.30977104752E+02  0.16706358353E+03  0.17129018607E+03  0.00000000000E+00 0. -1.
<mgrwt>
<rscale>  1 0.13058494E+03</rscale>
<asrwt>0</asrwt>
<pdfrwt beam="1">  1       21 0.18789502E+00 0.13058494E+03</pdfrwt>
<pdfrwt beam="2">  1       21 0.94848360E-03 0.13058494E+03</pdfrwt>
<totfact> 0.67044535E+05</totfact>
</mgrwt>
</event>
<event>
 6    1  0.4424270E-002  0.1267304E+03  0.7546771E-02  0.1232389E+00
         21   -1    0    0  503  502  0.00000000000E+00  0.00000000000E+00  0.12226971741E+03  0.12226971741E+03  0.00000000000E+00 0. -1.
         21   -1    0    0  504  503 -0.00000000000E+00 -0.00000000000E+00 -0.53106813595E+02  0.53106813595E+02  0.00000000000E+00 0. -1.
         25    2    1    2    0    0 -0.62644188953E+01 -0.19893492584E+02  0.28827248839E+02  0.12996773171E+03  0.12500242805E+03 0.  0.
          5    1    3    3  501    0  0.17150394341E+02 -0.65420047085E+02  0.38566759080E+02  0.77854502070E+02  0.10000000000E+00 0. -1.
         -5    1    3    3    0  501 -0.23414813237E+02  0.45526554501E+02 -0.97395102401E+01  0.52113229639E+02  0.10000000000E+00 0. -1.
         21    1    1    2  504  502  0.62644188953E+01  0.19893492584E+02  0.40335654980E+02  0.45408799301E+02  0.00000000000E+00 0. -1.
<mgrwt>
<rscale>  1 0.12673043E+03</rscale>
<asrwt>0</asrwt>
<pdfrwt beam="1">  1       21 0.18810726E-01 0.12673043E+03</pdfrwt>
<pdfrwt beam="2">  1       21 0.81702791E-02 0.12673043E+03</pdfrwt>
<totfact> 0.29619136E+06</totfact>
</mgrwt>
</event>
<event>
 6    1  0.4424270E-002  0.1263108E+03  0.7546771E-02  0.1233035E+00
         21   -1    0    0  504  502  0.00000000000E+00  0.00000000000E+00  0.39701952633E+03  0.39701952633E+03  0.00000000000E+00 0.  1.
         21   -1    0    0  502  503 -0.00000000000E+00 -0.00000000000E+00 -0.26689419455E+02  0.26689419455E+02  0.00000000000E+00 0.  1.
         25    2    1    2    0    0  0.10238003891E+01  0.18046904743E+02  0.12497336772E+03  0.17768726302E+03  0.12501072700E+03 0.  0.
          5    1    3    3  501    0  0.54168414996E+02  0.40456668661E+02  0.78623904948E+02  0.10369516696E+03  0.10000000000E+00 0. -1.
         -5    1    3    3    0  501 -0.53144614607E+02 -0.22409763918E+02  0.46349462770E+02  0.73992096062E+02  0.10000000000E+00 0. -1.
         21    1    1    2  504  503 -0.10238003891E+01 -0.18046904743E+02  0.24535673915E+03  0.24602168276E+03  0.00000000000E+00 0.  1.
<mgrwt>
<rscale>  1 0.12631081E+03</rscale>
<asrwt>0</asrwt>
<pdfrwt beam="1">  1       21 0.61079923E-01 0.12631081E+03</pdfrwt>
<pdfrwt beam="2">  1       21 0.41060648E-02 0.12631081E+03</pdfrwt>
<totfact> 0.93826107E+05</totfact>
</mgrwt>
</event>
<event>
 6    1  0.4424270E-002  0.1260056E+03  0.7546771E-02  0.1233506E+00
         21   -1    0    0  503  502  0.00000000000E+00  0.00000000000E+00  0.68365413027E+03  0.68365413027E+03  0.00000000000E+00 0.  1.
         21   -1    0    0  504  503 -0.00000000000E+00 -0.00000000000E+00 -0.78832720856E+01  0.78832720856E+01  0.00000000000E+00 0.  1.
         25    2    1    2    0    0  0.18150157568E+01  0.15776682902E+02  0.52397007463E+03  0.53890819187E+03  0.12500080860E+03 0.  0.
          5    1    3    3  501    0 -0.45784538273E+02 -0.21564440208E+02  0.37055928862E+03  0.37399925857E+03  0.10000000000E+00 0.  1.
         -5    1    3    3    0  501  0.47599554030E+02  0.37341123110E+02  0.15341078601E+03  0.16490893330E+03  0.10000000000E+00 0.  1.
         21    1    1    2  504  502 -0.18150157568E+01 -0.15776682902E+02  0.15180078355E+03  0.15262921048E+03  0.00000000000E+00 0.  1.
<mgrwt>
<rscale>  1 0.12600556E+03</rscale>
<asrwt>0</asrwt>
<pdfrwt beam="1">  1       21 0.10517751E+00 0.12600556E+03</pdfrwt>
<pdfrwt beam="2">  1       21 0.12128116E-02 0.12600556E+03</pdfrwt>
<totfact> 0.20065872E+06</totfact>
</mgrwt>
</event>
<event>
 6    1  0.4424270E-002  0.1259134E+03  0.7546771E-02  0.1233649E+00
         21   -1    0    0  503  502  0.00000000000E+00  0.00000000000E+00  0.12936241830E+02  0.12936241830E+02  0.00000000000E+00 0.  1.
         21   -1    0    0  504  503 -0.00000000000E+00 -0.00000000000E+00 -0.41792302319E+03  0.41792302319E+03  0.00000000000E+00 0.  1.
         25    2    1    2    0    0 -0.14954531534E+02 -0.25285564524E+01 -0.38878586560E+03  0.40866689510E+03  0.12499660095E+03 0.  0.
          5    1    3    3  501    0 -0.40399255125E+02 -0.25901596831E+02 -0.54569283015E+02  0.72669176285E+02  0.10000000000E+00 0.  1.
         -5    1    3    3    0  501  0.25444723591E+02  0.23373040379E+02 -0.33421658259E+03  0.33599771882E+03  0.10000000000E+00 0.  1.
         21    1    1    2  504  502  0.14954531534E+02  0.25285564524E+01 -0.16200915755E+02  0.22192369915E+02  0.00000000000E+00 0.  1.
<mgrwt>
<rscale>  1 0.12591339E+03</rscale>
<asrwt>0</asrwt>
<pdfrwt beam="1">  1       21 0.19901911E-02 0.12591339E+03</pdfrwt>
<pdfrwt beam="2">  1       21 0.64295848E-01 0.12591339E+03</pdfrwt>
<totfact> 0.27499430E+06</totfact>
</mgrwt>
</event>
<event>
 6    1  0.4424270E-002  0.1795972E+03  0.7546771E-02  0.1168193E+00
         21   -1    0    0  503  502  0.00000000000E+00  0.00000000000E+00  0.22267448995E+03  0.22267448995E+03  0.00000000000E+00 0.  1.
         21   -1    0    0  504  503 -0.00000000000E+00 -0.00000000000E+00 -0.10731708185E+03  0.10731708185E+03  0.00000000000E+00 0.  1.
         25    2    1    2    0    0  0.77499094594E+02  0.10312891656E+03  0.76995290944E+02  0.19540578085E+03  0.12495383655E+03 0.  0.
          5    1    3    3  501    0 -0.57202743687E+01  0.55717128605E+02  0.82220912588E+02  0.99485719708E+02  0.10000000000E+00 0.  1.
         -5    1    3    3    0  501  0.83219368963E+02  0.47411787956E+02 -0.52256216440E+01  0.95920061141E+02  0.10000000000E+00 0.  1.
         21    1    1    2  504  502 -0.77499094594E+02 -0.10312891656E+03  0.38362117160E+02  0.13458579095E+03  0.00000000000E+00 0.  1.
<mgrwt>
<rscale>  1 0.17959717E+03</rscale>
<asrwt>0</asrwt>
<pdfrwt beam="1">  1       21 0.34257614E-01 0.17959717E+03</pdfrwt>
<pdfrwt beam="2">  1       21 0.16510320E-01 0.17959717E+03</pdfrwt>
<totfact> 0.27115116E+05</totfact>
</mgrwt>
</event>
<event>
 6    1  0.4424270E-002  0.1301564E+03  0.7546771E-02  0.1227224E+00
         21   -1    0    0  504  502  0.00000000000E+00  0.00000000000E+00  0.83897244207E+02  0.83897244207E+02  0.00000000000E+00 0.  1.
         21   -1    0    0  502  503 -0.00000000000E+00 -0.00000000000E+00 -0.87359050104E+02  0.87359050104E+02  0.00000000000E+00 0.  1.
         25    2    1    2    0    0  0.19426780903E+02 -0.30684072803E+02  0.14096799169E+02  0.13091751952E+03  0.12498705945E+03 0.  0.
          5    1    3    3  501    0 -0.38216326600E+02 -0.26924417944E+02 -0.32303651319E+02  0.56823831171E+02  0.10000000000E+00 0.  1.
         -5    1    3    3    0  501  0.57643107502E+02 -0.37596548591E+01  0.46400450488E+02  0.74093688346E+02  0.10000000000E+00 0.  1.
         21    1    1    2  504  503 -0.19426780903E+02  0.30684072803E+02 -0.17558605066E+02  0.40338774794E+02  0.00000000000E+00 0. -1.
<mgrwt>
<rscale>  1 0.13015636E+03</rscale>
<asrwt>0</asrwt>
<pdfrwt beam="1">  1       21 0.12907268E-01 0.13015636E+03</pdfrwt>
<pdfrwt beam="2">  1       21 0.13439854E-01 0.13015636E+03</pdfrwt>
<totfact> 0.24458049E+06</totfact>
</mgrwt>
</event>
