<event>
 6    1  0.4261782E-002  0.1269422E+03  0.7546771E-02  0.1232065E+00
         21   -1    0    0  504  502  0.00000000000E+00  0.00000000000E+00  0.25751421098E+03  0.25751421098E+03  0.00000000000E+00 0.  1.
         21   -1    0    0  502  503 -0.00000000000E+00 -0.00000000000E+00 -0.26099759908E+02  0.26099759908E+02  0.00000000000E+00 0.  1.
         25    2    1    2    0    0  0.19068179579E+01 -0.22037973788E+02  0.13753461602E+03  0.18716330126E+03  0.12500008996E+03 0.  0.
          5    1    3    3  501    0 -0.32941018504E+02 -0.33791889050E+02  0.14244635812E+03  0.15005991273E+03  0.10000000000E+00 0.  1.
         -5    1    3    3    0  501  0.34847836462E+02  0.11753915262E+02 -0.49117420978E+01  0.37103388531E+02  0.10000000000E+00 0.  1.
         21    1    1    2  504  503 -0.19068179579E+01  0.22037973788E+02  0.93879835052E+02  0.96450669633E+02  0.00000000000E+00 0.  1.
<mgrwt>
<rscale>  1 0.12694223E+03</rscale>
<asrwt>0</asrwt>
<pdfrwt beam="1">  1       21 0.39617569E-01 0.12694223E+03</pdfrwt>
<pdfrwt beam="2">  1       21 0.40153478E-02 0.12694223E+03</pdfrwt>
<totfact> 0.23744000E+06</totfact>
</mgrwt>
</event>
<event>
 6    1  0.4261782E-002  0.1535140E+03  0.7546771E-02  0.1196220E+00
         21   -1    0    0  504  502  0.00000000000E+00  0.00000000000E+00  0.77579637489E+02  0.77579637489E+02  0.00000000000E+00 0.  1.
         21   -1    0    0  502  503 -0.00000000000E+00 -0.00000000000E+00 -0.10667746011E+04  0.10667746011E+04  0.00000000000E+00 0.  1.
         25    2    1    2    0    0 -0.46903550465E+02 -0.75780247926E+02 -0.10334920614E+04  0.10448312669E+04  0.12499578544E+03 0.  0.
          5    1    3    3  501    0 -0.83873955837E+02 -0.27363729886E+02 -0.72785274672E+03  0.73318022688E+03  0.10000000000E+00 0. -1.
         -5    1    3    3    0  501  0.36970405372E+02 -0.48416518040E+02 -0.30563931465E+03  0.31165104003E+03  0.10000000000E+00 0. -1.
         21    1    1    2  504  503  0.46903550465E+02  0.75780247926E+02  0.44297097757E+02  0.99522971678E+02  0.00000000000E+00 0.  1.
<mgrwt>
<rscale>  1 0.15351396E+03</rscale>
<asrwt>0</asrwt>
<pdfrwt beam="1">  1       21 0.11935329E-01 0.15351396E+03</pdfrwt>
<pdfrwt beam="2">  1       21 0.16411916E+00 0.15351396E+03</pdfrwt>
<totfact> 0.14355439E+04</totfact>
</mgrwt>
</event>
<event>
 6    1  0.4261782E-002  0.1276863E+03  0.7546771E-02  0.1230930E+00
         21   -1    0    0  503  502  0.00000000000E+00  0.00000000000E+00  0.42749351440E+03  0.42749351440E+03  0.00000000000E+00 0. -1.
         21   -1    0    0  504  503 -0.00000000000E+00 -0.00000000000E+00 -0.13921035335E+02  0.13921035335E+02  0.00000000000E+00 0. -1.
         25    2    1    2    0    0  0.25061677565E+02 -0.69324238975E+01  0.35714459516E+03  0.37928362132E+03  0.12501062902E+03 0.  0.
          5    1    3    3  501    0  0.33530874791E+02 -0.55979451815E+02  0.11635465189E+03  0.13340327435E+03  0.10000000000E+00 0. -1.
         -5    1    3    3    0  501 -0.84691972260E+01  0.49047027917E+02  0.24078994327E+03  0.24588034697E+03  0.10000000000E+00 0. -1.
         21    1    1    2  504  502 -0.25061677565E+02  0.69324238975E+01  0.56427883901E+02  0.62130928409E+02  0.00000000000E+00 0. -1.
<mgrwt>
<rscale>  1 0.12768635E+03</rscale>
<asrwt>0</asrwt>
<pdfrwt beam="1">  1       21 0.65768223E-01 0.12768635E+03</pdfrwt>
<pdfrwt beam="2">  1       21 0.21416981E-02 0.12768635E+03</pdfrwt>
<totfact> 0.23273955E+06</totfact>
</mgrwt>
</event>
<event>
 6    1  0.4261782E-002  0.1854251E+03  0.7546771E-02  0.1162654E+00
         21   -1    0    0  503  502  0.00000000000E+00  0.00000000000E+00  0.15299787267E+02  0.15299787267E+02  0.00000000000E+00 0.  1.
         21   -1    0    0  504  503 -0.00000000000E+00 -0.00000000000E+00 -0.23741934110E+04  0.23741934110E+04  0.00000000000E+00 0.  1.
         25    2    1    2    0    0  0.12529883636E+03 -0.55295765044E+02 -0.19386025756E+04  0.19474502307E+04  0.12500013974E+03 0.  0.
          5    1    3    3  501    0 -0.25502726913E+02 -0.10396609805E+02 -0.23967911858E+03  0.24125622989E+03  0.10000000000E+00 0. -1.
         -5    1    3    3    0  501  0.15080156328E+03 -0.44899155239E+02 -0.16989234570E+04  0.17061940008E+04  0.10000000000E+00 0. -1.
         21    1    1    2  504  502 -0.12529883636E+03  0.55295765044E+02 -0.42029104810E+03  0.44204296752E+03  0.00000000000E+00 0.  1.
<mgrwt>
<rscale>  1 0.18542507E+03</rscale>
<asrwt>0</asrwt>
<pdfrwt beam="1">  1       21 0.23538151E-02 0.18542507E+03</pdfrwt>
<pdfrwt beam="2">  1       21 0.36526027E+00 0.18542507E+03</pdfrwt>
<totfact> 0.13506328E+04</totfact>
</mgrwt>
</event>
<event>
 6    1  0.4261782E-002  0.1272781E+03  0.7546771E-02  0.1231551E+00
         21   -1    0    0  503  502  0.00000000000E+00  0.00000000000E+00  0.38136495054E+02  0.38136495054E+02  0.00000000000E+00 0.  1.
         21   -1    0    0  504  503 -0.00000000000E+00 -0.00000000000E+00 -0.14997469764E+03  0.14997469764E+03  0.00000000000E+00 0.  1.
         25    2    1    2    0    0  0.12609132154E+02 -0.20360078674E+02 -0.92780172368E+02  0.15750512249E+03  0.12500472075E+03 0.  0.
          5    1    3    3  501    0 -0.56754377150E+01 -0.12301307941E+02  0.30101320350E+02  0.33009578263E+02  0.10000000000E+00 0.  1.
         -5    1    3    3    0  501  0.18284569869E+02 -0.80587707330E+01 -0.12288149272E+03  0.12449554423E+03  0.10000000000E+00 0.  1.
         21    1    1    2  504  502 -0.12609132154E+02  0.20360078674E+02 -0.19058030220E+02  0.30606070201E+02  0.00000000000E+00 0.  1.
<mgrwt>
<rscale>  1 0.12727805E+03</rscale>
<asrwt>0</asrwt>
<pdfrwt beam="1">  1       21 0.58671531E-02 0.12727805E+03</pdfrwt>
<pdfrwt beam="2">  1       21 0.23073030E-01 0.12727805E+03</pdfrwt>
<totfact> 0.35714423E+06</totfact>
</mgrwt>
</event>
<event>
 6    1  0.4261782E-002  0.1268022E+03  0.7546771E-02  0.1232279E+00
         21   -1    0    0  504  502  0.00000000000E+00  0.00000000000E+00  0.36265166340E+03  0.36265166340E+03  0.00000000000E+00 0. -1.
         21   -1    0    0  502  503 -0.00000000000E+00 -0.00000000000E+00 -0.19083925603E+02  0.19083925603E+02  0.00000000000E+00 0. -1.
         25    2    1    2    0    0 -0.20577784138E+01 -0.21194803646E+02  0.20147887170E+03  0.23805991248E+03  0.12500132814E+03 0.  0.
          5    1    3    3  501    0 -0.49214978590E+02  0.46999020714E+01  0.28847588704E+02  0.57239816310E+02  0.10000000000E+00 0. -1.
         -5    1    3    3    0  501  0.47157200177E+02 -0.25894705718E+02  0.17263128299E+03  0.18082009617E+03  0.10000000000E+00 0. -1.
         21    1    1    2  504  503  0.20577784138E+01  0.21194803646E+02  0.14208886611E+03  0.14367567652E+03  0.00000000000E+00 0. -1.
<mgrwt>
<rscale>  1 0.12680215E+03</rscale>
<asrwt>0</asrwt>
<pdfrwt beam="1">  1       21 0.55792558E-01 0.12680215E+03</pdfrwt>
<pdfrwt beam="2">  1       21 0.29359888E-02 0.12680215E+03</pdfrwt>
<totfact> 0.19759204E+06</totfact>
</mgrwt>
</event>
<event>
 6    1  0.4261782E-002  0.1850728E+03  0.7546771E-02  0.1162982E+00
         21   -1    0    0  504  502  0.00000000000E+00  0.00000000000E+00  0.82337493201E+03  0.82337493201E+03  0.00000000000E+00 0.  1.
         21   -1    0    0  502  503 -0.00000000000E+00 -0.00000000000E+00 -0.87452420594E+02  0.87452420594E+02  0.00000000000E+00 0.  1.
         25    2    1    2    0    0 -0.91339631919E+02  0.10141340827E+03  0.24801282591E+02  0.18672721462E+03  0.12499736527E+03 0.  0.
          5    1    3    3  501    0 -0.63435767570E+02  0.12814898193E+03  0.34055043747E+02  0.14698984380E+03  0.10000000000E+00 0.  1.
         -5    1    3    3    0  501 -0.27903864349E+02 -0.26735573653E+02 -0.92537611564E+01  0.39737370821E+02  0.10000000000E+00 0.  1.
         21    1    1    2  504  503  0.91339631919E+02 -0.10141340827E+03  0.71112122883E+03  0.72410013798E+03  0.00000000000E+00 0.  1.
<mgrwt>
<rscale>  1 0.18507282E+03</rscale>
<asrwt>0</asrwt>
<pdfrwt beam="1">  1       21 0.12667306E+00 0.18507282E+03</pdfrwt>
<pdfrwt beam="2">  1       21 0.13454219E-01 0.18507282E+03</pdfrwt>
<totfact> 0.22149875E+04</totfact>
</mgrwt>
</event>
<event>
 6    1  0.4261782E-002  0.1261846E+03  0.7546771E-02  0.1233230E+00
         21   -1    0    0  503  502  0.00000000000E+00  0.00000000000E+00  0.21831804548E+03  0.21831804548E+03  0.00000000000E+00 0.  1.
         21   -1    0    0  504  503 -0.00000000000E+00 -0.00000000000E+00 -0.37050518188E+02  0.37050518188E+02  0.00000000000E+00 0.  1.
         25    2    1    2    0    0  0.40194232683E+01  0.16757958326E+02  0.73084274859E+02  0.14582130885E+03  0.12500223179E+03 0.  0.
          5    1    3    3  501    0  0.58540595691E+02  0.35260645703E+02  0.44397783205E+02  0.81495322766E+02  0.10000000000E+00 0. -1.
         -5    1    3    3    0  501 -0.54521172423E+02 -0.18502687377E+02  0.28686491654E+02  0.64325986086E+02  0.10000000000E+00 0. -1.
         21    1    1    2  504  502 -0.40194232683E+01 -0.16757958326E+02  0.10818325243E+03  0.10954725481E+03  0.00000000000E+00 0.  1.
<mgrwt>
<rscale>  1 0.12618456E+03</rscale>
<asrwt>0</asrwt>
<pdfrwt beam="1">  1       21 0.33587391E-01 0.12618456E+03</pdfrwt>
<pdfrwt beam="2">  1       21 0.57000799E-02 0.12618456E+03</pdfrwt>
<totfact> 0.18286367E+06</totfact>
</mgrwt>
</event>
<event>
 6    1  0.4261782E-002  0.1267060E+03  0.7546771E-02  0.1232427E+00
         21   -1    0    0  503  502  0.00000000000E+00  0.00000000000E+00  0.31149875397E+03  0.31149875397E+03  0.00000000000E+00 0. -1.
         21   -1    0    0  504  503 -0.00000000000E+00 -0.00000000000E+00 -0.21234689379E+02  0.21234689379E+02  0.00000000000E+00 0. -1.
         25    2    1    2    0    0 -0.20290292068E+02 -0.41660970585E+01  0.17750804635E+03  0.21809064172E+03  0.12500147666E+03 0.  0.
          5    1    3    3  501    0  0.20864943264E+02 -0.99498524054E+01 -0.10611248395E+02  0.25435290696E+02  0.10000000000E+00 0. -1.
         -5    1    3    3    0  501 -0.41155235331E+02  0.57837553469E+01  0.18811929475E+03  0.19265535102E+03  0.10000000000E+00 0. -1.
         21    1    1    2  504  502  0.20290292068E+02  0.41660970585E+01  0.11275601824E+03  0.11464280163E+03  0.00000000000E+00 0. -1.
<mgrwt>
<rscale>  1 0.12670604E+03</rscale>
<asrwt>0</asrwt>
<pdfrwt beam="1">  1       21 0.47922882E-01 0.12670604E+03</pdfrwt>
<pdfrwt beam="2">  1       21 0.32668755E-02 0.12670604E+03</pdfrwt>
<totfact> 0.22723629E+06</totfact>
</mgrwt>
</event>
<event>
 6    1  0.4261782E-002  0.1269038E+03  0.7546771E-02  0.1232124E+00
         21   -1    0    0  503  502  0.00000000000E+00  0.00000000000E+00  0.27337959825E+02  0.27337959825E+02  0.00000000000E+00 0. -1.
         21   -1    0    0  504  503 -0.00000000000E+00 -0.00000000000E+00 -0.32744923904E+03  0.32744923904E+03  0.00000000000E+00 0. -1.
         25    2    1    2    0    0  0.18471306932E+02  0.11759694187E+02 -0.30670207638E+03  0.33191979423E+03  0.12500042623E+03 0.  0.
          5    1    3    3  501    0 -0.46257201854E+02 -0.22586082023E+02 -0.15742657026E+03  0.16562908817E+03  0.10000000000E+00 0.  1.
         -5    1    3    3    0  501  0.64728508786E+02  0.34345776211E+02 -0.14927550612E+03  0.16629070606E+03  0.10000000000E+00 0.  1.
         21    1    1    2  504  502 -0.18471306932E+02 -0.11759694187E+02  0.65907971730E+01  0.22867404631E+02  0.00000000000E+00 0. -1.
<mgrwt>
<rscale>  1 0.12690385E+03</rscale>
<asrwt>0</asrwt>
<pdfrwt beam="1">  1       21 0.42058403E-02 0.12690385E+03</pdfrwt>
<pdfrwt beam="2">  1       21 0.50376802E-01 0.12690385E+03</pdfrwt>
<totfact> 0.13500002E+06</totfact>
</mgrwt>
</event>
<event>
 6    1  0.4261782E-002  0.1325006E+03  0.7546771E-02  0.1223792E+00
         21   -1    0    0  503  502  0.00000000000E+00  0.00000000000E+00  0.29822366689E+02  0.29822366689E+02  0.00000000000E+00 0.  1.
         21   -1    0    0  504  503 -0.00000000000E+00 -0.00000000000E+00 -0.69633397486E+03  0.69633397486E+03  0.00000000000E+00 0.  1.
         25    2    1    2    0    0  0.70498532020E+01 -0.43379923436E+02 -0.66913642649E+03  0.68212898802E+03  0.12499952344E+03 0.  0.
          5    1    3    3  501    0 -0.14593506950E+01  0.24031698013E+02 -0.48918427299E+03  0.48977639302E+03  0.10000000000E+00 0. -1.
         -5    1    3    3    0  501  0.85092038970E+01 -0.67411621449E+02 -0.17995215349E+03  0.19235259500E+03  0.10000000000E+00 0. -1.
         21    1    1    2  504  502 -0.70498532020E+01  0.43379923436E+02  0.26248183161E+01  0.44027353528E+02  0.00000000000E+00 0.  1.
<mgrwt>
<rscale>  1 0.13250056E+03</rscale>
<asrwt>0</asrwt>
<pdfrwt beam="1">  1       21 0.45880573E-02 0.13250056E+03</pdfrwt>
<pdfrwt beam="2">  1       21 0.10712828E+00 0.13250056E+03</pdfrwt>
<totfact> 0.22073861E+05</totfact>
</mgrwt>
</event>
<event>
 6    1  0.4261782E-002  0.1267180E+03  0.7546771E-02  0.1232408E+00
         21   -1    0    0  503  502  0.00000000000E+00  0.00000000000E+00  0.10624028816E+04  0.10624028816E+04  0.00000000000E+00 0. -1.
         21   -1    0    0  504  503 -0.00000000000E+00 -0.00000000000E+00 -0.51674466708E+01  0.51674466708E+01  0.00000000000E+00 0. -1.
         25    2    1    2    0    0 -0.30802843122E+01 -0.20585156807E+02  0.93980641430E+03  0.94831089796E+03  0.12499690395E+03 0.  0.
          5    1    3    3  501    0  0.12866564412E+02 -0.52861186839E+02  0.18986568748E+03  0.19750656404E+03  0.10000000000E+00 0. -1.
         -5    1    3    3    0  501 -0.15946848725E+02  0.32276030033E+02  0.74994072682E+03  0.75080433393E+03  0.10000000000E+00 0. -1.
         21    1    1    2  504  502  0.30802843122E+01  0.20585156807E+02  0.11742902059E+03  0.11925943027E+03  0.00000000000E+00 0. -1.
<mgrwt>
<rscale>  1 0.12671804E+03</rscale>
<asrwt>0</asrwt>
<pdfrwt beam="1">  1       21 0.16344642E+00 0.12671804E+03</pdfrwt>
<pdfrwt beam="2">  1       21 0.79499264E-03 0.12671804E+03</pdfrwt>
<totfact> 0.12964484E+06</totfact>
</mgrwt>
</event>
<event>
 6    1  0.4261782E-002  0.1774497E+03  0.7546771E-02  0.1170294E+00
         21   -1    0    0  504  502  0.00000000000E+00  0.00000000000E+00  0.12261374291E+03  0.12261374291E+03  0.00000000000E+00 0. -1.
         21   -1    0    0  502  503 -0.00000000000E+00 -0.00000000000E+00 -0.20543692380E+03  0.20543692380E+03  0.00000000000E+00 0. -1.
         25    2    1    2    0    0 -0.49251943962E+02  0.11592107993E+03 -0.95409823849E+02  0.20147312392E+03  0.12499973768E+03 0.  0.
          5    1    3    3  501    0  0.36559674408E+02  0.72483215483E+01 -0.93009591619E+01  0.38414395731E+02  0.10000000000E+00 0. -1.
         -5    1    3    3    0  501 -0.85811618369E+02  0.10867275838E+03 -0.86108864687E+02  0.16305872819E+03  0.10000000000E+00 0. -1.
         21    1    1    2  504  503  0.49251943962E+02 -0.11592107993E+03  0.12586642962E+02  0.12657754279E+03  0.00000000000E+00 0. -1.
<mgrwt>
<rscale>  1 0.17744967E+03</rscale>
<asrwt>0</asrwt>
<pdfrwt beam="1">  1       21 0.18863653E-01 0.17744967E+03</pdfrwt>
<pdfrwt beam="2">  1       21 0.31605680E-01 0.17744967E+03</pdfrwt>
<totfact> 0.24867604E+05</totfact>
</mgrwt>
</event>
<event>
 6    1  0.4261782E-002  0.1259876E+03  0.7546771E-02  0.1233534E+00
         21   -1    0    0  503  502  0.00000000000E+00  0.00000000000E+00  0.58520345892E+02  0.58520345892E+02  0.00000000000E+00 0.  1.
         21   -1    0    0  504  503 -0.00000000000E+00 -0.00000000000E+00 -0.96269292742E+02  0.96269292742E+02  0.00000000000E+00 0.  1.
         25    2    1    2    0    0  0.84332220831E+01 -0.13293944997E+02 -0.49272203188E+02  0.13527980407E+03  0.12500010869E+03 0.  0.
          5    1    3    3  501    0  0.22331695003E+01 -0.55382075374E+02 -0.68900432653E+02  0.88427602809E+02  0.10000000000E+00 0.  1.
         -5    1    3    3    0  501  0.62000525828E+01  0.42088130377E+02  0.19628229465E+02  0.46852201257E+02  0.10000000000E+00 0.  1.
         21    1    1    2  504  502 -0.84332220831E+01  0.13293944997E+02  0.11523256338E+02  0.19509834569E+02  0.00000000000E+00 0.  1.
<mgrwt>
<rscale>  1 0.12598760E+03</rscale>
<asrwt>0</asrwt>
<pdfrwt beam="1">  1       21 0.90031302E-02 0.12598760E+03</pdfrwt>
<pdfrwt beam="2">  1       21 0.14810660E-01 0.12598760E+03</pdfrwt>
<totfact> 0.38659339E+06</totfact>
</mgrwt>
</event>
<event>
 6    1  0.4261782E-002  0.1291102E+03  0.7546771E-02  0.1228782E+00
         21   -1    0    0  503  502  0.00000000000E+00  0.00000000000E+00  0.36455832761E+03  0.36455832761E+03  0.00000000000E+00 0.  1.
         21   -1    0    0  504  503 -0.00000000000E+00 -0.00000000000E+00 -0.20477430054E+02  0.20477430054E+02  0.00000000000E+00 0.  1.
         25    2    1    2    0    0 -0.27172851917E+02 -0.17504271836E+02  0.20516479472E+03  0.24240880705E+03  0.12499869331E+03 0.  0.
          5    1    3    3  501    0 -0.30362133840E+02 -0.43915881111E+02  0.20883634238E+03  0.21555299043E+03  0.10000000000E+00 0. -1.
         -5    1    3    3    0  501  0.31892819226E+01  0.26411609275E+02 -0.36715476673E+01  0.26855816613E+02  0.10000000000E+00 0. -1.
         21    1    1    2  504  502  0.27172851917E+02  0.17504271836E+02  0.13891610285E+03  0.14262695062E+03  0.00000000000E+00 0.  1.
<mgrwt>
<rscale>  1 0.12911017E+03</rscale>
<asrwt>0</asrwt>
<pdfrwt beam="1">  1       21 0.56085892E-01 0.12911017E+03</pdfrwt>
<pdfrwt beam="2">  1       21 0.31503741E-02 0.12911017E+03</pdfrwt>
<totfact> 0.17415443E+06</totfact>
</mgrwt>
</event>
<event>
 6    1  0.4261782E-002  0.1363642E+03  0.7546771E-02  0.1218307E+00
         21   -1    0    0  504  502  0.00000000000E+00  0.00000000000E+00  0.62960099160E+03  0.62960099160E+03  0.00000000000E+00 0. -1.
         21   -1    0    0  502  503 -0.00000000000E+00 -0.00000000000E+00 -0.14487585693E+02  0.14487585693E+02  0.00000000000E+00 0. -1.
         25    2    1    2    0    0  0.46926406048E+02 -0.27703434041E+02  0.45095704039E+03  0.47112360922E+03  0.12500254014E+03 0.  0.
          5    1    3    3  501    0  0.27988349196E+02  0.44023708733E+02  0.10431447662E+03  0.11663170519E+03  0.10000000000E+00 0.  1.
         -5    1    3    3    0  501  0.18938056852E+02 -0.71727142774E+02  0.34664256377E+03  0.35449190403E+03  0.10000000000E+00 0.  1.
         21    1    1    2  504  503 -0.46926406048E+02  0.27703434041E+02  0.16415636551E+03  0.17296496807E+03  0.00000000000E+00 0. -1.
<mgrwt>
<rscale>  1 0.13636423E+03</rscale>
<asrwt>0</asrwt>
<pdfrwt beam="1">  1       21 0.96861670E-01 0.13636423E+03</pdfrwt>
<pdfrwt beam="2">  1       21 0.22288598E-02 0.13636423E+03</pdfrwt>
<totfact> 0.91828972E+05</totfact>
</mgrwt>
</event>
<event>
 6    1  0.4261782E-002  0.1574855E+03  0.7546771E-02  0.1191565E+00
         21   -1    0    0  504  502  0.00000000000E+00  0.00000000000E+00  0.19432045498E+04  0.19432045498E+04  0.00000000000E+00 0.  1.
         21   -1    0    0  502  503 -0.00000000000E+00 -0.00000000000E+00 -0.14717237376E+02  0.14717237376E+02  0.00000000000E+00 0. -1.
         25    2    1    2    0    0 -0.57219570424E+02 -0.76825782887E+02  0.45804202088E+03  0.48435956060E+03  0.12500164359E+03 0.  0.
          5    1    3    3  501    0 -0.95299737976E+02 -0.36718101532E+02  0.29120600266E+03  0.30859553630E+03  0.10000000000E+00 0.  1.
         -5    1    3    3    0  501  0.38080167552E+02 -0.40107681355E+02  0.16683601822E+03  0.17576402430E+03  0.10000000000E+00 0.  1.
         21    1    1    2  504  503  0.57219570424E+02  0.76825782887E+02  0.14704452915E+04  0.14735622265E+04  0.00000000000E+00 0.  1.
<mgrwt>
<rscale>  1 0.15748553E+03</rscale>
<asrwt>0</asrwt>
<pdfrwt beam="1">  1       21 0.29895434E+00 0.15748553E+03</pdfrwt>
<pdfrwt beam="2">  1       21 0.22641919E-02 0.15748553E+03</pdfrwt>
<totfact> 0.36041550E+04</totfact>
</mgrwt>
</event>
<event>
 6    1  0.4261782E-002  0.1401495E+03  0.7546771E-02  0.1213128E+00
         21   -1    0    0  504  502  0.00000000000E+00  0.00000000000E+00  0.11498982310E+04  0.11498982310E+04  0.00000000000E+00 0. -1.
         21   -1    0    0  502  503 -0.00000000000E+00 -0.00000000000E+00 -0.90622344218E+01  0.90622344218E+01  0.00000000000E+00 0. -1.
         25    2    1    2    0    0  0.10423236360E+02 -0.62518027183E+02  0.82647986752E+03  0.83827849921E+03  0.12499889295E+03 0.  0.
          5    1    3    3  501    0 -0.34487793787E+02 -0.80408284602E+02  0.62420374988E+03  0.63030566515E+03  0.10000000000E+00 0. -1.
         -5    1    3    3    0  501  0.44911030147E+02  0.17890257419E+02  0.20227611764E+03  0.20797283406E+03  0.10000000000E+00 0. -1.
         21    1    1    2  504  503 -0.10423236360E+02  0.62518027183E+02  0.31435612910E+03  0.32068196625E+03  0.00000000000E+00 0. -1.
<mgrwt>
<rscale>  1 0.14014946E+03</rscale>
<asrwt>0</asrwt>
<pdfrwt beam="1">  1       21 0.17690730E+00 0.14014946E+03</pdfrwt>
<pdfrwt beam="2">  1       21 0.13941908E-02 0.14014946E+03</pdfrwt>
<totfact> 0.42940578E+05</totfact>
</mgrwt>
</event>
<event>
 6    1  0.4261782E-002  0.1360103E+03  0.7546771E-02  0.1218800E+00
         21   -1    0    0  503  502  0.00000000000E+00  0.00000000000E+00  0.18866042447E+03  0.18866042447E+03  0.00000000000E+00 0.  1.
         21   -1    0    0  504  503 -0.00000000000E+00 -0.00000000000E+00 -0.46147344826E+03  0.46147344826E+03  0.00000000000E+00 0.  1.
         25    2    1    2    0    0 -0.49364711981E+02  0.20882025169E+02 -0.44734115020E+03  0.46756059793E+03  0.12500349719E+03 0.  0.
          5    1    3    3  501    0 -0.64551950947E+02  0.30728009226E+02 -0.44328330251E+03  0.44901142659E+03  0.10000000000E+00 0.  1.
         -5    1    3    3    0  501  0.15187238966E+02 -0.98459840575E+01 -0.40578476860E+01  0.18549171338E+02  0.10000000000E+00 0.  1.
         21    1    1    2  504  502  0.49364711981E+02 -0.20882025169E+02  0.17452812640E+03  0.18257327480E+03  0.00000000000E+00 0.  1.
<mgrwt>
<rscale>  1 0.13601032E+03</rscale>
<asrwt>0</asrwt>
<pdfrwt beam="1">  1       21 0.29024681E-01 0.13601032E+03</pdfrwt>
<pdfrwt beam="2">  1       21 0.70995915E-01 0.13601032E+03</pdfrwt>
<totfact> 0.21160395E+04</totfact>
</mgrwt>
</event>
<event>
 6    1  0.4261782E-002  0.1286161E+03  0.7546771E-02  0.1229524E+00
         21   -1    0    0  504  502  0.00000000000E+00  0.00000000000E+00  0.26240586529E+02  0.26240586529E+02  0.00000000000E+00 0. -1.
         21   -1    0    0  502  503 -0.00000000000E+00 -0.00000000000E+00 -0.25798988969E+03  0.25798988969E+03  0.00000000000E+00 0. -1.
         25    2    1    2    0    0  0.26802673640E+02  0.14123141042E+02 -0.21232643633E+03  0.24824305921E+03  0.12499701778E+03 0.  0.
          5    1    3    3  501    0 -0.14593951698E+01  0.52163958720E+01  0.16571718097E+02  0.17434806016E+02  0.10000000000E+00 0.  1.
         -5    1    3    3    0  501  0.28262068810E+02  0.89067451700E+01 -0.22889815442E+03  0.23080825319E+03  0.10000000000E+00 0.  1.
         21    1    1    2  504  503 -0.26802673640E+02 -0.14123141042E+02 -0.19422866836E+02  0.35987417013E+02  0.00000000000E+00 0. -1.
<mgrwt>
<rscale>  1 0.12861610E+03</rscale>
<asrwt>0</asrwt>
<pdfrwt beam="1">  1       21 0.40370130E-02 0.12861610E+03</pdfrwt>
<pdfrwt beam="2">  1       21 0.39690756E-01 0.12861610E+03</pdfrwt>
<totfact> 0.23455276E+06</totfact>
</mgrwt>
</event>
<event>
 6    1  0.4261782E-002  0.1261921E+03  0.7546771E-02  0.1233218E+00
         21   -1    0    0  503  502  0.00000000000E+00  0.00000000000E+00  0.14425762854E+03  0.14425762854E+03  0.00000000000E+00 0.  1.
         21   -1    0    0  504  503 -0.00000000000E+00 -0.00000000000E+00 -0.46492064555E+02  0.46492064555E+02  0.00000000000E+00 0.  1.
         25    2    1    2    0    0  0.10805255416E+02  0.13586245971E+02  0.43028951097E+02  0.13332638411E+03  0.12499237754E+03 0.  0.
          5    1    3    3  501    0 -0.48659882443E+02  0.31407442503E+02  0.41464042655E+02  0.71228424363E+02  0.10000000000E+00 0. -1.
         -5    1    3    3    0  501  0.59465137859E+02 -0.17821196532E+02  0.15649084414E+01  0.62097959748E+02  0.10000000000E+00 0. -1.
         21    1    1    2  504  502 -0.10805255416E+02 -0.13586245971E+02  0.54736612892E+02  0.57423308988E+02  0.00000000000E+00 0.  1.
<mgrwt>
<rscale>  1 0.12619205E+03</rscale>
<asrwt>0</asrwt>
<pdfrwt beam="1">  1       21 0.22193481E-01 0.12619205E+03</pdfrwt>
<pdfrwt beam="2">  1       21 0.71526254E-02 0.12619205E+03</pdfrwt>
<totfact> 0.27402542E+06</totfact>
</mgrwt>
</event>
<event>
 6    1  0.4261782E-002  0.1511554E+03  0.7546771E-02  0.1199060E+00
         21   -1    0    0  503  502  0.00000000000E+00  0.00000000000E+00  0.34076696203E+02  0.34076696203E+02  0.00000000000E+00 0. -1.
         21   -1    0    0  504  503 -0.00000000000E+00 -0.00000000000E+00 -0.81214206784E+03  0.81214206784E+03  0.00000000000E+00 0.  1.
         25    2    1    2    0    0 -0.71286314669E+02 -0.46264610330E+02 -0.73606164009E+03  0.75142178998E+03  0.12500326244E+03 0.  0.
          5    1    3    3  501    0 -0.62325661409E+02 -0.16693782193E+02 -0.70379542392E+03  0.70674689894E+03  0.10000000000E+00 0. -1.
         -5    1    3    3    0  501 -0.89606532600E+01 -0.29570828137E+02 -0.32266216168E+02  0.44674891039E+02  0.10000000000E+00 0. -1.
         21    1    1    2  504  502  0.71286314669E+02  0.46264610330E+02 -0.42003731557E+02  0.94796974069E+02  0.00000000000E+00 0. -1.
<mgrwt>
<rscale>  1 0.15115544E+03</rscale>
<asrwt>0</asrwt>
<pdfrwt beam="1">  1       21 0.52425683E-02 0.15115544E+03</pdfrwt>
<pdfrwt beam="2">  1       21 0.12494494E+00 0.15115544E+03</pdfrwt>
<totfact> 0.12064990E+05</totfact>
</mgrwt>
</event>
<event>
 6    1  0.4261782E-002  0.1269923E+03  0.7546771E-02  0.1231988E+00
         21   -1    0    0  503  502  0.00000000000E+00  0.00000000000E+00  0.68905798563E+02  0.68905798563E+02  0.00000000000E+00 0. -1.
         21   -1    0    0  504  503 -0.00000000000E+00 -0.00000000000E+00 -0.10732803995E+03  0.10732803995E+03  0.00000000000E+00 0. -1.
         25    2    1    2    0    0  0.69534853703E+01 -0.21298916262E+02 -0.64019078922E+02  0.14221630062E+03  0.12500015561E+03 0.  0.
          5    1    3    3  501    0 -0.56357292914E+02 -0.29140285344E+01 -0.10724677616E+02  0.57442708300E+02  0.10000000000E+00 0. -1.
         -5    1    3    3    0  501  0.63310778284E+02 -0.18384887728E+02 -0.53294401305E+02  0.84773592316E+02  0.10000000000E+00 0. -1.
         21    1    1    2  504  502 -0.69534853703E+01  0.21298916262E+02  0.25596837535E+02  0.34017537896E+02  0.00000000000E+00 0. -1.
<mgrwt>
<rscale>  1 0.12699226E+03</rscale>
<asrwt>0</asrwt>
<pdfrwt beam="1">  1       21 0.10600892E-01 0.12699226E+03</pdfrwt>
<pdfrwt beam="2">  1       21 0.16512006E-01 0.12699226E+03</pdfrwt>
<totfact> 0.23886114E+06</totfact>
</mgrwt>
</event>
<event>
 6    1  0.4261782E-002  0.1285199E+03  0.7546771E-02  0.1229669E+00
         21   -1    0    0  503  502  0.00000000000E+00  0.00000000000E+00  0.25079676199E+02  0.25079676199E+02  0.00000000000E+00 0.  1.
         21   -1    0    0  504  503 -0.00000000000E+00 -0.00000000000E+00 -0.25252956369E+03  0.25252956369E+03  0.00000000000E+00 0.  1.
         25    2    1    2    0    0 -0.13458301389E+02  0.26693491029E+02 -0.19442976124E+03  0.23306715780E+03  0.12499479848E+03 0.  0.
          5    1    3    3  501    0  0.94192032351E-01  0.58163691368E+02 -0.30657520252E+02  0.65748896673E+02  0.10000000000E+00 0.  1.
         -5    1    3    3    0  501 -0.13552493421E+02 -0.31470200340E+02 -0.16377224099E+03  0.16731826113E+03  0.10000000000E+00 0.  1.
         21    1    1    2  504  502  0.13458301389E+02 -0.26693491029E+02 -0.33020126254E+02  0.44542082095E+02  0.00000000000E+00 0.  1.
<mgrwt>
<rscale>  1 0.12851991E+03</rscale>
<asrwt>0</asrwt>
<pdfrwt beam="1">  1       21 0.38584118E-02 0.12851991E+03</pdfrwt>
<pdfrwt beam="2">  1       21 0.38850702E-01 0.12851991E+03</pdfrwt>
<totfact> 0.26385735E+06</totfact>
</mgrwt>
</event>
<event>
 6    1  0.4261782E-002  0.1291361E+03  0.7546771E-02  0.1228743E+00
         21   -1    0    0  504  502  0.00000000000E+00  0.00000000000E+00  0.56991491407E+02  0.56991491407E+02  0.00000000000E+00 0. -1.
         21   -1    0    0  502  503 -0.00000000000E+00 -0.00000000000E+00 -0.13024029784E+03  0.13024029784E+03  0.00000000000E+00 0. -1.
         25    2    1    2    0    0  0.52242058253E+01  0.32005556679E+02 -0.82829243407E+02  0.15341710667E+03  0.12499790827E+03 0.  0.
          5    1    3    3  501    0  0.25199256306E+02 -0.35225761944E+02  0.19892577867E+01  0.43356936809E+02  0.10000000000E+00 0. -1.
         -5    1    3    3    0  501 -0.19975050481E+02  0.67231318623E+02 -0.84818501194E+02  0.11006016986E+03  0.10000000000E+00 0. -1.
         21    1    1    2  504  503 -0.52242058253E+01 -0.32005556679E+02  0.95804369761E+01  0.33814682573E+02  0.00000000000E+00 0. -1.
<mgrwt>
<rscale>  1 0.12913607E+03</rscale>
<asrwt>0</asrwt>
<pdfrwt beam="1">  1       21 0.87679218E-02 0.12913607E+03</pdfrwt>
<pdfrwt beam="2">  1       21 0.20036969E-01 0.12913607E+03</pdfrwt>
<totfact> 0.23349172E+06</totfact>
</mgrwt>
</event>
<event>
 6    1  0.4261782E-002  0.1627757E+03  0.7546771E-02  0.1185598E+00
         21   -1    0    0  503  502  0.00000000000E+00  0.00000000000E+00  0.30425871949E+03  0.30425871949E+03  0.00000000000E+00 0. -1.
         21   -1    0    0  504  503 -0.00000000000E+00 -0.00000000000E+00 -0.12728097748E+03  0.12728097748E+03  0.00000000000E+00 0. -1.
         25    2    1    2    0    0 -0.10258322607E+03 -0.18678809186E+02 -0.59329055697E+02  0.17325086866E+03  0.12499484173E+03 0.  0.
          5    1    3    3  501    0 -0.88508787442E+02 -0.66601447642E+02 -0.27862903170E+02  0.11421869223E+03  0.10000000000E+00 0.  1.
         -5    1    3    3    0  501 -0.14074438630E+02  0.47922638456E+02 -0.31466152527E+02  0.59032176431E+02  0.10000000000E+00 0.  1.
         21    1    1    2  504  502  0.10258322607E+03  0.18678809186E+02  0.23630679771E+03  0.25828882830E+03  0.00000000000E+00 0. -1.
<mgrwt>
<rscale>  1 0.16277569E+03</rscale>
<asrwt>0</asrwt>
<pdfrwt beam="1">  1       21 0.46809034E-01 0.16277569E+03</pdfrwt>
<pdfrwt beam="2">  1       21 0.19581689E-01 0.16277569E+03</pdfrwt>
<totfact> 0.10612821E+05</totfact>
</mgrwt>
</event>
<event>
 6    1  0.4261782E-002  0.1280774E+03  0.7546771E-02  0.1230337E+00
         21   -1    0    0  503  502  0.00000000000E+00  0.00000000000E+00  0.11308880518E+02  0.11308880518E+02  0.00000000000E+00 0. -1.
         21   -1    0    0  504  503 -0.00000000000E+00 -0.00000000000E+00 -0.53801630305E+03  0.53801630305E+03  0.00000000000E+00 0. -1.
         25    2    1    2    0    0 -0.12489571618E+02 -0.24978817503E+02 -0.43239596455E+03  0.45096573141E+03  0.12499556000E+03 0.  0.
          5    1    3    3  501    0 -0.54734034843E+02 -0.52683493315E+02 -0.29332835574E+03  0.30300643445E+03  0.10000000000E+00 0. -1.
         -5    1    3    3    0  501  0.42244463225E+02  0.27704675812E+02 -0.13906760881E+03  0.14795929695E+03  0.10000000000E+00 0. -1.
         21    1    1    2  504  502  0.12489571618E+02  0.24978817503E+02 -0.94311457985E+02  0.98359452166E+02  0.00000000000E+00 0. -1.
<mgrwt>
<rscale>  1 0.12807740E+03</rscale>
<asrwt>0</asrwt>
<pdfrwt beam="1">  1       21 0.17398276E-02 0.12807740E+03</pdfrwt>
<pdfrwt beam="2">  1       21 0.82771749E-01 0.12807740E+03</pdfrwt>
<totfact> 0.19611021E+06</totfact>
</mgrwt>
</event>
<event>
 6    1  0.4261782E-002  0.1360791E+03  0.7546771E-02  0.1218704E+00
         21   -1    0    0  503  502  0.00000000000E+00  0.00000000000E+00  0.84210090399E+02  0.84210090399E+02  0.00000000000E+00 0.  1.
         21   -1    0    0  504  503 -0.00000000000E+00 -0.00000000000E+00 -0.14666994270E+03  0.14666994270E+03  0.00000000000E+00 0.  1.
         25    2    1    2    0    0 -0.39230933767E+02 -0.36785643317E+02 -0.96867454324E+02  0.16703543430E+03  0.12500113154E+03 0.  0.
          5    1    3    3  501    0 -0.59527065994E+02 -0.15771737270E+02 -0.11654309969E+03  0.13181245528E+03  0.10000000000E+00 0. -1.
         -5    1    3    3    0  501  0.20296132227E+02 -0.21013906047E+02  0.19675645361E+02  0.35222979021E+02  0.10000000000E+00 0. -1.
         21    1    1    2  504  502  0.39230933767E+02  0.36785643317E+02  0.34407602025E+02  0.63844598798E+02  0.00000000000E+00 0.  1.
<mgrwt>
<rscale>  1 0.13607914E+03</rscale>
<asrwt>0</asrwt>
<pdfrwt beam="1">  1       21 0.12955399E-01 0.13607914E+03</pdfrwt>
<pdfrwt beam="2">  1       21 0.22564607E-01 0.13607914E+03</pdfrwt>
<totfact> 0.94298714E+05</totfact>
</mgrwt>
</event>
<event>
 6    1  0.4261782E-002  0.1325170E+03  0.7546771E-02  0.1223768E+00
         21   -1    0    0  503  502  0.00000000000E+00  0.00000000000E+00  0.37520768821E+03  0.37520768821E+03  0.00000000000E+00 0.  1.
         21   -1    0    0  504  503 -0.00000000000E+00 -0.00000000000E+00 -0.20881749225E+02  0.20881749225E+02  0.00000000000E+00 0.  1.
         25    2    1    2    0    0 -0.27298146402E+02 -0.34503352191E+02  0.27859738753E+03  0.30850814026E+03  0.12500039264E+03 0.  0.
          5    1    3    3  501    0 -0.29043905317E+02 -0.73808616617E+01  0.14194118419E+01  0.30000838070E+02  0.10000000000E+00 0. -1.
         -5    1    3    3    0  501  0.17457589151E+01 -0.27122490529E+02  0.27717797569E+03  0.27850730219E+03  0.10000000000E+00 0. -1.
         21    1    1    2  504  502  0.27298146402E+02  0.34503352191E+02  0.75728551454E+02  0.87581297174E+02  0.00000000000E+00 0.  1.
<mgrwt>
<rscale>  1 0.13251705E+03</rscale>
<asrwt>0</asrwt>
<pdfrwt beam="1">  1       21 0.57724255E-01 0.13251705E+03</pdfrwt>
<pdfrwt beam="2">  1       21 0.32125771E-02 0.13251705E+03</pdfrwt>
<totfact> 0.15879726E+06</totfact>
</mgrwt>
</event>
<event>
 6    1  0.4261782E-002  0.1287507E+03  0.7546771E-02  0.1229321E+00
         21   -1    0    0  503  502  0.00000000000E+00  0.00000000000E+00  0.10626380229E+04  0.10626380229E+04  0.00000000000E+00 0.  1.
         21   -1    0    0  504  503 -0.00000000000E+00 -0.00000000000E+00 -0.19600753416E+02  0.19600753416E+02  0.00000000000E+00 0. -1.
         25    2    1    2    0    0 -0.25479905407E+02  0.17361335487E+02  0.19517574198E+03  0.23381682270E+03  0.12500437901E+03 0.  0.
          5    1    3    3  501    0 -0.53655841755E+02 -0.18015529664E+02  0.33140270535E+02  0.65588079669E+02  0.10000000000E+00 0. -1.
         -5    1    3    3    0  501  0.28175936349E+02  0.35376865151E+02  0.16203547144E+03  0.16822874304E+03  0.10000000000E+00 0. -1.
         21    1    1    2  504  502  0.25479905407E+02 -0.17361335487E+02  0.84786152748E+03  0.84842195359E+03  0.00000000000E+00 0.  1.
<mgrwt>
<rscale>  1 0.12875068E+03</rscale>
<asrwt>0</asrwt>
<pdfrwt beam="1">  1       21 0.16348273E+00 0.12875068E+03</pdfrwt>
<pdfrwt beam="2">  1       21 0.30155014E-02 0.12875068E+03</pdfrwt>
<totfact> 0.15348103E+05</totfact>
</mgrwt>
</event>
<event>
 6    1  0.4261782E-002  0.1310989E+03  0.7546771E-02  0.1225834E+00
         21   -1    0    0  503  502  0.00000000000E+00  0.00000000000E+00  0.46476009238E+03  0.46476009238E+03  0.00000000000E+00 0. -1.
         21   -1    0    0  504  503 -0.00000000000E+00 -0.00000000000E+00 -0.22030818819E+02  0.22030818819E+02  0.00000000000E+00 0. -1.
         25    2    1    2    0    0 -0.32128160406E+02  0.23008500211E+02  0.18908703057E+03  0.23008875460E+03  0.12500128036E+03 0.  0.
          5    1    3    3  501    0 -0.99063930219E+01  0.50063506399E+01 -0.17939689918E+02  0.21096033840E+02  0.10000000000E+00 0. -1.
         -5    1    3    3    0  501 -0.22221767384E+02  0.18002149571E+02  0.20702672049E+03  0.20899272076E+03  0.10000000000E+00 0. -1.
         21    1    1    2  504  502  0.32128160406E+02 -0.23008500211E+02  0.25364224299E+03  0.25670215660E+03  0.00000000000E+00 0. -1.
<mgrwt>
<rscale>  1 0.13109893E+03</rscale>
<asrwt>0</asrwt>
<pdfrwt beam="1">  1       21 0.71501545E-01 0.13109893E+03</pdfrwt>
<pdfrwt beam="2">  1       21 0.33893571E-02 0.13109893E+03</pdfrwt>
<totfact> 0.91750481E+05</totfact>
</mgrwt>
</event>
<event>
 6    1  0.4261782E-002  0.1333179E+03  0.7546771E-02  0.1222614E+00
         21   -1    0    0  504  502  0.00000000000E+00  0.00000000000E+00  0.20233318525E+03  0.20233318525E+03  0.00000000000E+00 0. -1.
         21   -1    0    0  502  503 -0.00000000000E+00 -0.00000000000E+00 -0.61197831357E+02  0.61197831357E+02  0.00000000000E+00 0. -1.
         25    2    1    2    0    0 -0.42508193857E+02  0.18532027046E+02  0.21264427868E+02  0.13500311505E+03  0.12499313025E+03 0.  0.
          5    1    3    3  501    0 -0.12924685391E+02  0.18038974913E+02 -0.51703451338E+02  0.56264633551E+02  0.10000000000E+00 0.  1.
         -5    1    3    3    0  501 -0.29583508466E+02  0.49305213290E+00  0.72967879206E+02  0.78738481503E+02  0.10000000000E+00 0.  1.
         21    1    1    2  504  503  0.42508193857E+02 -0.18532027046E+02  0.11987092602E+03  0.12852790155E+03  0.00000000000E+00 0. -1.
<mgrwt>
<rscale>  1 0.13331791E+03</rscale>
<asrwt>0</asrwt>
<pdfrwt beam="1">  1       21 0.31128182E-01 0.13331791E+03</pdfrwt>
<pdfrwt beam="2">  1       21 0.94150511E-02 0.13331791E+03</pdfrwt>
<totfact> 0.89701706E+05</totfact>
</mgrwt>
</event>
<event>
 6    1  0.4261782E-002  0.1262525E+03  0.7546771E-02  0.1233125E+00
         21   -1    0    0  503  502  0.00000000000E+00  0.00000000000E+00  0.66226293310E+03  0.66226293310E+03  0.00000000000E+00 0. -1.
         21   -1    0    0  504  503 -0.00000000000E+00 -0.00000000000E+00 -0.85473958838E+01  0.85473958838E+01  0.00000000000E+00 0. -1.
         25    2    1    2    0    0 -0.32431571427E+01  0.17426421995E+02  0.48489292463E+03  0.50105970963E+03  0.12500194400E+03 0.  0.
          5    1    3    3  501    0  0.33913625552E+02  0.51429886097E+02  0.14630630411E+03  0.15874732062E+03  0.10000000000E+00 0. -1.
         -5    1    3    3    0  501 -0.37156782694E+02 -0.34003464102E+02  0.33858662053E+03  0.34231238901E+03  0.10000000000E+00 0. -1.
         21    1    1    2  504  502  0.32431571427E+01 -0.17426421995E+02  0.16882261258E+03  0.16975061935E+03  0.00000000000E+00 0. -1.
<mgrwt>
<rscale>  1 0.12625246E+03</rscale>
<asrwt>0</asrwt>
<pdfrwt beam="1">  1       21 0.10188656E+00 0.12625246E+03</pdfrwt>
<pdfrwt beam="2">  1       21 0.13149845E-02 0.12625246E+03</pdfrwt>
<totfact> 0.19025809E+06</totfact>
</mgrwt>
</event>
<event>
 6    1  0.4261782E-002  0.1296025E+03  0.7546771E-02  0.1228047E+00
         21   -1    0    0  503  502  0.00000000000E+00  0.00000000000E+00  0.78485577951E+02  0.78485577951E+02  0.00000000000E+00 0. -1.
         21   -1    0    0  504  503 -0.00000000000E+00 -0.00000000000E+00 -0.11274267777E+03  0.11274267777E+03  0.00000000000E+00 0. -1.
         25    2    1    2    0    0 -0.30026541383E+01  0.34095580281E+02 -0.65207651668E+02  0.14508217045E+03  0.12500109527E+03 0.  0.
          5    1    3    3  501    0  0.21372203312E+02  0.72792888933E+02 -0.15307868020E+02  0.77394551339E+02  0.10000000000E+00 0. -1.
         -5    1    3    3    0  501 -0.24374857450E+02 -0.38697308652E+02 -0.49899783648E+02  0.67687619110E+02  0.10000000000E+00 0. -1.
         21    1    1    2  504  502  0.30026541383E+01 -0.34095580281E+02  0.30950551847E+02  0.46146085275E+02  0.00000000000E+00 0. -1.
<mgrwt>
<rscale>  1 0.12960246E+03</rscale>
<asrwt>0</asrwt>
<pdfrwt beam="1">  1       21 0.12074704E-01 0.12960246E+03</pdfrwt>
<pdfrwt beam="2">  1       21 0.17345027E-01 0.12960246E+03</pdfrwt>
<totfact> 0.17368826E+06</totfact>
</mgrwt>
</event>
<event>
 6    1  0.4261782E-002  0.1317545E+03  0.7546771E-02  0.1224875E+00
         21   -1    0    0  503  502  0.00000000000E+00  0.00000000000E+00  0.85821240232E+01  0.85821240232E+01  0.00000000000E+00 0.  1.
         21   -1    0    0  504  503 -0.00000000000E+00 -0.00000000000E+00 -0.91346569829E+03  0.91346569829E+03  0.00000000000E+00 0.  1.
         25    2    1    2    0    0 -0.36876056868E+02  0.19351656474E+02 -0.59737385958E+03  0.61173096037E+03  0.12499963836E+03 0.  0.
          5    1    3    3  501    0 -0.66598560450E+02  0.14513548743E+02 -0.55806885993E+03  0.56221603835E+03  0.10000000000E+00 0. -1.
         -5    1    3    3    0  501  0.29722503581E+02  0.48381077311E+01 -0.39304999647E+02  0.49514922022E+02  0.10000000000E+00 0. -1.
         21    1    1    2  504  502  0.36876056868E+02 -0.19351656474E+02 -0.30750971469E+03  0.31031686194E+03  0.00000000000E+00 0.  1.
<mgrwt>
<rscale>  1 0.13175447E+03</rscale>
<asrwt>0</asrwt>
<pdfrwt beam="1">  1       21 0.13203269E-02 0.13175447E+03</pdfrwt>
<pdfrwt beam="2">  1       21 0.14053317E+00 0.13175447E+03</pdfrwt>
<totfact> 0.86240825E+05</totfact>
</mgrwt>
</event>
<event>
 6    1  0.4261782E-002  0.1259140E+03  0.7546771E-02  0.1233648E+00
         21   -1    0    0  503  502  0.00000000000E+00  0.00000000000E+00  0.34306504166E+02  0.34306504166E+02  0.00000000000E+00 0. -1.
         21   -1    0    0  504  503 -0.00000000000E+00 -0.00000000000E+00 -0.16198393035E+03  0.16198393035E+03  0.00000000000E+00 0. -1.
         25    2    1    2    0    0  0.14606330834E+02  0.40548138199E+01 -0.12996923127E+03  0.18095945979E+03  0.12499815436E+03 0.  0.
          5    1    3    3  501    0  0.44937914370E+02 -0.22182955893E+02 -0.57705988001E+01  0.50446104811E+02  0.10000000000E+00 0. -1.
         -5    1    3    3    0  501 -0.30331583536E+02  0.26237769713E+02 -0.12419863247E+03  0.13051335498E+03  0.10000000000E+00 0. -1.
         21    1    1    2  504  502 -0.14606330834E+02 -0.40548138199E+01  0.22918050891E+01  0.15330974728E+02  0.00000000000E+00 0. -1.
<mgrwt>
<rscale>  1 0.12591396E+03</rscale>
<asrwt>0</asrwt>
<pdfrwt beam="1">  1       21 0.52779236E-02 0.12591396E+03</pdfrwt>
<pdfrwt beam="2">  1       21 0.24920605E-01 0.12591396E+03</pdfrwt>
<totfact> 0.36923927E+06</totfact>
</mgrwt>
</event>
<event>
 6    1  0.4261782E-002  0.1432096E+03  0.7546771E-02  0.1209074E+00
         21   -1    0    0  503  502  0.00000000000E+00  0.00000000000E+00  0.30715054962E+03  0.30715054962E+03  0.00000000000E+00 0.  1.
         21   -1    0    0  504  503 -0.00000000000E+00 -0.00000000000E+00 -0.19170811421E+03  0.19170811421E+03  0.00000000000E+00 0. -1.
         25    2    1    2    0    0  0.18676627361E+02  0.67369326228E+02 -0.15997237676E+03  0.21470947539E+03  0.12498621912E+03 0.  0.
          5    1    3    3  501    0  0.72021513796E+02  0.32175988515E+02 -0.80161755147E+02  0.11246470413E+03  0.10000000000E+00 0. -1.
         -5    1    3    3    0  501 -0.53344886434E+02  0.35193337713E+02 -0.79810621611E+02  0.10224477126E+03  0.10000000000E+00 0. -1.
         21    1    1    2  504  502 -0.18676627361E+02 -0.67369326228E+02  0.27541481217E+03  0.28414918844E+03  0.00000000000E+00 0.  1.
<mgrwt>
<rscale>  1 0.14320963E+03</rscale>
<asrwt>0</asrwt>
<pdfrwt beam="1">  1       21 0.47253931E-01 0.14320963E+03</pdfrwt>
<pdfrwt beam="2">  1       21 0.29493556E-01 0.14320963E+03</pdfrwt>
<totfact> 0.48367706E+04</totfact>
</mgrwt>
</event>
<event>
 6    1  0.4261782E-002  0.1300811E+03  0.7546771E-02  0.1227335E+00
         21   -1    0    0  503  502  0.00000000000E+00  0.00000000000E+00  0.43635567849E+03  0.43635567849E+03  0.00000000000E+00 0.  1.
         21   -1    0    0  504  503 -0.00000000000E+00 -0.00000000000E+00 -0.31611203840E+02  0.31611203840E+02  0.00000000000E+00 0.  1.
         25    2    1    2    0    0 -0.34298119379E+02  0.10921553431E+02  0.10806776608E+03  0.16911455972E+03  0.12500180367E+03 0.  0.
          5    1    3    3  501    0  0.25850366335E+01 -0.26389450805E+02 -0.18347566006E+02  0.32244824492E+02  0.10000000000E+00 0.  1.
         -5    1    3    3    0  501 -0.36883156013E+02  0.37311004237E+02  0.12641533209E+03  0.13686973523E+03  0.10000000000E+00 0.  1.
         21    1    1    2  504  502  0.34298119379E+02 -0.10921553431E+02  0.29667670857E+03  0.29885232261E+03  0.00000000000E+00 0.  1.
<mgrwt>
<rscale>  1 0.13008110E+03</rscale>
<asrwt>0</asrwt>
<pdfrwt beam="1">  1       21 0.67131639E-01 0.13008110E+03</pdfrwt>
<pdfrwt beam="2">  1       21 0.48632624E-02 0.13008110E+03</pdfrwt>
<totfact> 0.57738268E+05</totfact>
</mgrwt>
</event>
<event>
 6    1  0.4261782E-002  0.1268116E+03  0.7546771E-02  0.1232265E+00
         21   -1    0    0  504  502  0.00000000000E+00  0.00000000000E+00  0.21824184827E+03  0.21824184827E+03  0.00000000000E+00 0. -1.
         21   -1    0    0  502  503 -0.00000000000E+00 -0.00000000000E+00 -0.12077999068E+03  0.12077999068E+03  0.00000000000E+00 0. -1.
         25    2    1    2    0    0 -0.14491170044E+02  0.15666612024E+02 -0.86707013714E+02  0.15362062564E+03  0.12500301458E+03 0.  0.
          5    1    3    3  501    0  0.28792054446E+02  0.16001269010E+02 -0.10240881791E+03  0.10757601496E+03  0.10000000000E+00 0. -1.
         -5    1    3    3    0  501 -0.43283224490E+02 -0.33465698600E+00  0.15701804200E+02  0.46044610680E+02  0.10000000000E+00 0. -1.
         21    1    1    2  504  503  0.14491170044E+02 -0.15666612024E+02  0.18416887130E+03  0.18540121331E+03  0.00000000000E+00 0. -1.
<mgrwt>
<rscale>  1 0.12681163E+03</rscale>
<asrwt>0</asrwt>
<pdfrwt beam="1">  1       21 0.33575669E-01 0.12681163E+03</pdfrwt>
<pdfrwt beam="2">  1       21 0.18581537E-01 0.12681163E+03</pdfrwt>
<totfact> 0.22992595E+05</totfact>
</mgrwt>
</event>
<event>
 6    1  0.4261782E-002  0.1259961E+03  0.7546771E-02  0.1233521E+00
         21   -1    0    0  504  502  0.00000000000E+00  0.00000000000E+00  0.59014669078E+01  0.59014669078E+01  0.00000000000E+00 0.  1.
         21   -1    0    0  502  503 -0.00000000000E+00 -0.00000000000E+00 -0.11691064418E+04  0.11691064418E+04  0.00000000000E+00 0.  1.
         25    2    1    2    0    0 -0.27401990954E+01 -0.15587934186E+02 -0.11398672895E+04  0.11468096828E+04  0.12499807421E+03 0.  0.
          5    1    3    3  501    0 -0.44124493628E+02  0.47989811344E+01 -0.96307771014E+03  0.96409993617E+03  0.10000000000E+00 0. -1.
         -5    1    3    3    0  501  0.41384294532E+02 -0.20386915321E+02 -0.17678957937E+03  0.18270974666E+03  0.10000000000E+00 0. -1.
         21    1    1    2  504  503  0.27401990954E+01  0.15587934186E+02 -0.23337685346E+02  0.28198225841E+02  0.00000000000E+00 0.  1.
<mgrwt>
<rscale>  1 0.12599608E+03</rscale>
<asrwt>0</asrwt>
<pdfrwt beam="1">  1       21 0.90791786E-03 0.12599608E+03</pdfrwt>
<pdfrwt beam="2">  1       21 0.17986255E+00 0.12599608E+03</pdfrwt>
<totfact> 0.81228136E+05</totfact>
</mgrwt>
</event>
<event>
 6    1  0.4261782E-002  0.1325978E+03  0.7546771E-02  0.1223651E+00
         21   -1    0    0  503  502  0.00000000000E+00  0.00000000000E+00  0.46581683404E+02  0.46581683404E+02  0.00000000000E+00 0. -1.
         21   -1    0    0  504  503 -0.00000000000E+00 -0.00000000000E+00 -0.16910312832E+03  0.16910312832E+03  0.00000000000E+00 0. -1.
         25    2    1    2    0    0 -0.43369703033E+02  0.87787716068E+01 -0.99691135169E+02  0.16589303514E+03  0.12499671478E+03 0.  0.
          5    1    3    3  501    0 -0.23167537672E+02  0.65423217717E+02 -0.35590812841E+02  0.77997744692E+02  0.10000000000E+00 0. -1.
         -5    1    3    3    0  501 -0.20202165360E+02 -0.56644446111E+02 -0.64100322328E+02  0.87895290448E+02  0.10000000000E+00 0. -1.
         21    1    1    2  504  502  0.43369703033E+02 -0.87787716068E+01 -0.22830309744E+02  0.49791776581E+02  0.00000000000E+00 0. -1.
<mgrwt>
<rscale>  1 0.13259780E+03</rscale>
<asrwt>0</asrwt>
<pdfrwt beam="1">  1       21 0.71664129E-02 0.13259780E+03</pdfrwt>
<pdfrwt beam="2">  1       21 0.26015866E-01 0.13259780E+03</pdfrwt>
<totfact> 0.20283478E+06</totfact>
</mgrwt>
</event>
<event>
 6    1  0.4261782E-002  0.1261471E+03  0.7546771E-02  0.1233287E+00
         21   -1    0    0  504  502  0.00000000000E+00  0.00000000000E+00  0.27175030378E+03  0.27175030378E+03  0.00000000000E+00 0. -1.
         21   -1    0    0  502  503 -0.00000000000E+00 -0.00000000000E+00 -0.18908550667E+02  0.18908550667E+02  0.00000000000E+00 0. -1.
         25    2    1    2    0    0  0.12383966274E+02 -0.11600840704E+02  0.21697470995E+03  0.25098030973E+03  0.12500059595E+03 0.  0.
          5    1    3    3  501    0  0.62450690347E+02 -0.24239120257E+02  0.78540861190E+02  0.10322935896E+03  0.10000000000E+00 0.  1.
         -5    1    3    3    0  501 -0.50066724073E+02  0.12638279553E+02  0.13843384876E+03  0.14775095077E+03  0.10000000000E+00 0.  1.
         21    1    1    2  504  503 -0.12383966274E+02  0.11600840704E+02  0.35867043160E+02  0.39678544715E+02  0.00000000000E+00 0. -1.
<mgrwt>
<rscale>  1 0.12614710E+03</rscale>
<asrwt>0</asrwt>
<pdfrwt beam="1">  1       21 0.41807736E-01 0.12614710E+03</pdfrwt>
<pdfrwt beam="2">  1       21 0.29090080E-02 0.12614710E+03</pdfrwt>
<totfact> 0.36260390E+06</totfact>
</mgrwt>
</event>
<event>
 6    1  0.4261782E-002  0.1259751E+03  0.7546771E-02  0.1233553E+00
         21   -1    0    0  503  502  0.00000000000E+00  0.00000000000E+00  0.63091274487E+01  0.63091274487E+01  0.00000000000E+00 0.  1.
         21   -1    0    0  504  503 -0.00000000000E+00 -0.00000000000E+00 -0.85669257817E+03  0.85669257817E+03  0.00000000000E+00 0.  1.
         25    2    1    2    0    0 -0.94873801237E+01  0.12520869930E+02 -0.80876180122E+03  0.81851413126E+03  0.12499179728E+03 0.  0.
          5    1    3    3  501    0 -0.29706554296E+02 -0.43722465382E+02 -0.56762125025E+03  0.57007721151E+03  0.10000000000E+00 0. -1.
         -5    1    3    3    0  501  0.20219174172E+02  0.56243335311E+02 -0.24114055097E+03  0.24843691975E+03  0.10000000000E+00 0. -1.
         21    1    1    2  504  502  0.94873801237E+01 -0.12520869930E+02 -0.41621649499E+02  0.44487574360E+02  0.00000000000E+00 0.  1.
<mgrwt>
<rscale>  1 0.12597512E+03</rscale>
<asrwt>0</asrwt>
<pdfrwt beam="1">  1       21 0.97063490E-03 0.12597512E+03</pdfrwt>
<pdfrwt beam="2">  1       21 0.13179887E+00 0.12597512E+03</pdfrwt>
<totfact> 0.16498754E+06</totfact>
</mgrwt>
</event>
<event>
 6    1  0.4261782E-002  0.1260138E+03  0.7546771E-02  0.1233493E+00
         21   -1    0    0  503  502  0.00000000000E+00  0.00000000000E+00  0.33203719349E+03  0.33203719349E+03  0.00000000000E+00 0. -1.
         21   -1    0    0  504  503 -0.00000000000E+00 -0.00000000000E+00 -0.16487568405E+02  0.16487568405E+02  0.00000000000E+00 0. -1.
         25    2    1    2    0    0  0.15922945217E+02  0.92887675194E+00  0.23747911976E+03  0.26884159681E+03  0.12500027543E+03 0.  0.
          5    1    3    3  501    0  0.35311583883E+02  0.56524125342E+02  0.13781545082E+03  0.15308492149E+03  0.10000000000E+00 0. -1.
         -5    1    3    3    0  501 -0.19388638666E+02 -0.55595248590E+02  0.99663668942E+02  0.11575667532E+03  0.10000000000E+00 0. -1.
         21    1    1    2  504  502 -0.15922945217E+02 -0.92887675194E+00  0.78070505324E+02  0.79683165085E+02  0.00000000000E+00 0. -1.
<mgrwt>
<rscale>  1 0.12601378E+03</rscale>
<asrwt>0</asrwt>
<pdfrwt beam="1">  1       21 0.51082640E-01 0.12601378E+03</pdfrwt>
<pdfrwt beam="2">  1       21 0.25365492E-02 0.12601378E+03</pdfrwt>
<totfact> 0.30139400E+06</totfact>
</mgrwt>
</event>
<event>
 6    1  0.4261782E-002  0.1290616E+03  0.7546771E-02  0.1228855E+00
         21   -1    0    0  503  502  0.00000000000E+00  0.00000000000E+00  0.33333797154E+02  0.33333797154E+02  0.00000000000E+00 0. -1.
         21   -1    0    0  504  503 -0.00000000000E+00 -0.00000000000E+00 -0.20466792279E+03  0.20466792279E+03  0.00000000000E+00 0. -1.
         25    2    1    2    0    0  0.69213008845E+01  0.31373975928E+02 -0.15580608335E+03  0.20231767773E+03  0.12499870537E+03 0.  0.
          5    1    3    3  501    0  0.20421533321E+01  0.20365566711E+02  0.18503919803E+02  0.27592240681E+02  0.10000000000E+00 0. -1.
         -5    1    3    3    0  501  0.48791475524E+01  0.11008409217E+02 -0.17431000315E+03  0.17472543705E+03  0.10000000000E+00 0. -1.
         21    1    1    2  504  502 -0.69213008845E+01 -0.31373975928E+02 -0.15528042293E+02  0.35684042217E+02  0.00000000000E+00 0. -1.
<mgrwt>
<rscale>  1 0.12906164E+03</rscale>
<asrwt>0</asrwt>
<pdfrwt beam="1">  1       21 0.51282765E-02 0.12906164E+03</pdfrwt>
<pdfrwt beam="2">  1       21 0.31487372E-01 0.12906164E+03</pdfrwt>
<totfact> 0.24795776E+06</totfact>
</mgrwt>
</event>
<event>
 6    1  0.4261782E-002  0.1308502E+03  0.7546771E-02  0.1226200E+00
         21   -1    0    0  503  502  0.00000000000E+00  0.00000000000E+00  0.18205603707E+03  0.18205603707E+03  0.00000000000E+00 0. -1.
         21   -1    0    0  504  503 -0.00000000000E+00 -0.00000000000E+00 -0.91234386502E+02  0.91234386502E+02  0.00000000000E+00 0. -1.
         25    2    1    2    0    0 -0.21485416757E+02  0.32161734806E+02 -0.40034631628E+02  0.13683762254E+03  0.12500305154E+03 0.  0.
          5    1    3    3  501    0  0.23035774834E+02 -0.33601852851E+02  0.11295280971E+02  0.42276764416E+02  0.10000000000E+00 0.  1.
         -5    1    3    3    0  501 -0.44521191591E+02  0.65763587657E+02 -0.51329912599E+02  0.94560858127E+02  0.10000000000E+00 0.  1.
         21    1    1    2  504  502  0.21485416757E+02 -0.32161734806E+02  0.13085628220E+03  0.13645280103E+03  0.00000000000E+00 0. -1.
<mgrwt>
<rscale>  1 0.13085016E+03</rscale>
<asrwt>0</asrwt>
<pdfrwt beam="1">  1       21 0.28008621E-01 0.13085016E+03</pdfrwt>
<pdfrwt beam="2">  1       21 0.14036059E-01 0.13085016E+03</pdfrwt>
<totfact> 0.54274383E+05</totfact>
</mgrwt>
</event>
<event>
 6    1  0.4261782E-002  0.1267091E+03  0.7546771E-02  0.1232422E+00
         21   -1    0    0  503  502  0.00000000000E+00  0.00000000000E+00  0.14352604209E+03  0.14352604209E+03  0.00000000000E+00 0.  1.
         21   -1    0    0  504  503 -0.00000000000E+00 -0.00000000000E+00 -0.96910176067E+02  0.96910176067E+02  0.00000000000E+00 0. -1.
         25    2    1    2    0    0 -0.18775038664E+02  0.97093561156E+01 -0.53918415411E+02  0.13770396706E+03  0.12493363578E+03 0.  0.
          5    1    3    3  501    0  0.11334584710E+01 -0.52567265993E+02 -0.49434186671E+02  0.72168906005E+02  0.10000000000E+00 0.  1.
         -5    1    3    3    0  501 -0.19908497135E+02  0.62276622109E+02 -0.44842287399E+01  0.65535061050E+02  0.10000000000E+00 0.  1.
         21    1    1    2  504  502  0.18775038664E+02 -0.97093561156E+01  0.10053428143E+03  0.10273225110E+03  0.00000000000E+00 0.  1.
<mgrwt>
<rscale>  1 0.12670906E+03</rscale>
<asrwt>0</asrwt>
<pdfrwt beam="1">  1       21 0.22080929E-01 0.12670906E+03</pdfrwt>
<pdfrwt beam="2">  1       21 0.14909258E-01 0.12670906E+03</pdfrwt>
<totfact> 0.76311922E+05</totfact>
</mgrwt>
</event>
<event>
 6    1  0.4261782E-002  0.1401591E+03  0.7546771E-02  0.1213115E+00
         21   -1    0    0  504  502  0.00000000000E+00  0.00000000000E+00  0.59586815851E+02  0.59586815851E+02  0.00000000000E+00 0.  1.
         21   -1    0    0  502  503 -0.00000000000E+00 -0.00000000000E+00 -0.18774549901E+03  0.18774549901E+03  0.00000000000E+00 0.  1.
         25    2    1    2    0    0 -0.46066557126E+02 -0.43582248385E+02 -0.11777448628E+03  0.18307212808E+03  0.12499213736E+03 0.  0.
          5    1    3    3  501    0  0.26019587159E+02  0.27673936581E+02 -0.23629749514E+02  0.44735229338E+02  0.10000000000E+00 0. -1.
         -5    1    3    3    0  501 -0.72086144285E+02 -0.71256184967E+02 -0.94144736763E+02  0.13833689874E+03  0.10000000000E+00 0. -1.
         21    1    1    2  504  503  0.46066557126E+02  0.43582248385E+02 -0.10384196881E+02  0.64260186777E+02  0.00000000000E+00 0.  1.
<mgrwt>
<rscale>  1 0.14015910E+03</rscale>
<asrwt>0</asrwt>
<pdfrwt beam="1">  1       21 0.91672027E-02 0.14015910E+03</pdfrwt>
<pdfrwt beam="2">  1       21 0.28883922E-01 0.14015910E+03</pdfrwt>
<totfact> 0.10861250E+06</totfact>
</mgrwt>
</event>
<event>
 6    1  0.4261782E-002  0.1260750E+03  0.7546771E-02  0.1233399E+00
         21   -1    0    0  504  502  0.00000000000E+00  0.00000000000E+00  0.62358516381E+01  0.62358516381E+01  0.00000000000E+00 0.  1.
         21   -1    0    0  502  503 -0.00000000000E+00 -0.00000000000E+00 -0.81873665910E+03  0.81873665910E+03  0.00000000000E+00 0.  1.
         25    2    1    2    0    0 -0.16054999801E+02  0.34808310888E+01 -0.69722566174E+03  0.70853266178E+03  0.12500012088E+03 0.  0.
          5    1    3    3  501    0 -0.10465544999E+02  0.64145710898E+02 -0.37764549134E+03  0.38319750389E+03  0.10000000000E+00 0.  1.
         -5    1    3    3    0  501 -0.55894548019E+01 -0.60664879810E+02 -0.31958017040E+03  0.32533515789E+03  0.10000000000E+00 0.  1.
         21    1    1    2  504  503  0.16054999801E+02 -0.34808310888E+01 -0.11527514573E+03  0.11643984896E+03  0.00000000000E+00 0.  1.
<mgrwt>
<rscale>  1 0.12607502E+03</rscale>
<asrwt>0</asrwt>
<pdfrwt beam="1">  1       21 0.95936145E-03 0.12607502E+03</pdfrwt>
<pdfrwt beam="2">  1       21 0.12595953E+00 0.12607502E+03</pdfrwt>
<totfact> 0.18803524E+06</totfact>
</mgrwt>
</event>
<event>
 6    1  0.4261782E-002  0.1279252E+03  0.7546771E-02  0.1230567E+00
         21   -1    0    0  504  502  0.00000000000E+00  0.00000000000E+00  0.24096012207E+03  0.24096012207E+03  0.00000000000E+00 0. -1.
         21   -1    0    0  502  503 -0.00000000000E+00 -0.00000000000E+00 -0.30420082610E+02  0.30420082610E+02  0.00000000000E+00 0. -1.
         25    2    1    2    0    0 -0.22127382232E+02 -0.15809970721E+02  0.11490460187E+03  0.17195328105E+03  0.12500114846E+03 0.  0.
          5    1    3    3  501    0 -0.36572552424E+02  0.25047519553E+02  0.12037127156E+03  0.12827385877E+03  0.10000000000E+00 0.  1.
         -5    1    3    3    0  501  0.14445170192E+02 -0.40857490274E+02 -0.54666696928E+01  0.43679422282E+02  0.10000000000E+00 0.  1.
         21    1    1    2  504  503  0.22127382232E+02  0.15809970721E+02  0.95635437591E+02  0.99426923627E+02  0.00000000000E+00 0. -1.
<mgrwt>
<rscale>  1 0.12792523E+03</rscale>
<asrwt>0</asrwt>
<pdfrwt beam="1">  1       21 0.37070787E-01 0.12792523E+03</pdfrwt>
<pdfrwt beam="2">  1       21 0.46800129E-02 0.12792523E+03</pdfrwt>
<totfact> 0.20992175E+06</totfact>
</mgrwt>
</event>
<event>
 6    1  0.4261782E-002  0.1259236E+03  0.7546771E-02  0.1233633E+00
         21   -1    0    0  504  502  0.00000000000E+00  0.00000000000E+00  0.71386179198E+02  0.71386179198E+02  0.00000000000E+00 0.  1.
         21   -1    0    0  502  503 -0.00000000000E+00 -0.00000000000E+00 -0.69977011317E+02  0.69977011317E+02  0.00000000000E+00 0.  1.
         25    2    1    2    0    0 -0.14619690852E+02  0.42804595965E+01  0.35879489618E+01  0.12597472789E+03  0.12499880397E+03 0.  0.
          5    1    3    3  501    0 -0.12800898260E+02 -0.12162269910E+02  0.62415575114E+02  0.64865228146E+02  0.10000000000E+00 0. -1.
         -5    1    3    3    0  501 -0.18187925926E+01  0.16442729507E+02 -0.58827626152E+02  0.61109499743E+02  0.10000000000E+00 0. -1.
         21    1    1    2  504  503  0.14619690852E+02 -0.42804595965E+01 -0.21787810807E+01  0.15388462625E+02  0.00000000000E+00 0.  1.
<mgrwt>
<rscale>  1 0.12592362E+03</rscale>
<asrwt>0</asrwt>
<pdfrwt beam="1">  1       21 0.10982489E-01 0.12592362E+03</pdfrwt>
<pdfrwt beam="2">  1       21 0.10765694E-01 0.12592362E+03</pdfrwt>
<totfact> 0.48158069E+06</totfact>
</mgrwt>
</event>
<event>
 6    1  0.4261782E-002  0.2140028E+03  0.7546771E-02  0.1138435E+00
         21   -1    0    0  503  502  0.00000000000E+00  0.00000000000E+00  0.54817609374E+02  0.54817609374E+02  0.00000000000E+00 0.  1.
         21   -1    0    0  504  503 -0.00000000000E+00 -0.00000000000E+00 -0.99165617084E+03  0.99165617084E+03  0.00000000000E+00 0.  1.
         25    2    1    2    0    0  0.17347195827E+03 -0.92645705153E+01 -0.79166893942E+03  0.82008347181E+03  0.12497535171E+03 0.  0.
          5    1    3    3  501    0 -0.19614354532E+02  0.45940134337E+01 -0.63284754484E+02  0.66413839019E+02  0.10000000000E+00 0. -1.
         -5    1    3    3    0  501  0.19308631280E+03 -0.13858583949E+02 -0.72838418493E+03  0.75366963280E+03  0.10000000000E+00 0. -1.
         21    1    1    2  504  502 -0.17347195827E+03  0.92645705153E+01 -0.14516962205E+03  0.22639030840E+03  0.00000000000E+00 0.  1.
<mgrwt>
<rscale>  1 0.21400278E+03</rscale>
<asrwt>0</asrwt>
<pdfrwt beam="1">  1       21 0.84334784E-02 0.21400278E+03</pdfrwt>
<pdfrwt beam="2">  1       21 0.15256249E+00 0.21400278E+03</pdfrwt>
<totfact> 0.30877762E+04</totfact>
</mgrwt>
</event>
<event>
 6    1  0.4261782E-002  0.1478342E+03  0.7546771E-02  0.1203160E+00
         21   -1    0    0  504  502  0.00000000000E+00  0.00000000000E+00  0.15068084359E+03  0.15068084359E+03  0.00000000000E+00 0. -1.
         21   -1    0    0  502  503 -0.00000000000E+00 -0.00000000000E+00 -0.19361072381E+03  0.19361072381E+03  0.00000000000E+00 0. -1.
         25    2    1    2    0    0  0.13113689209E+02 -0.77796301885E+02 -0.15045327409E+03  0.21092922767E+03  0.12502286978E+03 0.  0.
          5    1    3    3  501    0 -0.51773445983E+02 -0.37709326303E+02 -0.36246050614E+02  0.73595306809E+02  0.10000000000E+00 0.  1.
         -5    1    3    3    0  501  0.64887135192E+02 -0.40086975582E+02 -0.11420722347E+03  0.13733392086E+03  0.10000000000E+00 0.  1.
         21    1    1    2  504  503 -0.13113689209E+02  0.77796301885E+02  0.10752339387E+03  0.13336233974E+03  0.00000000000E+00 0. -1.
<mgrwt>
<rscale>  1 0.14783420E+03</rscale>
<asrwt>0</asrwt>
<pdfrwt beam="1">  1       21 0.23181668E-01 0.14783420E+03</pdfrwt>
<pdfrwt beam="2">  1       21 0.29786265E-01 0.14783420E+03</pdfrwt>
<totfact> 0.19138313E+05</totfact>
</mgrwt>
</event>
<event>
 6    1  0.4261782E-002  0.1267985E+03  0.7546771E-02  0.1232285E+00
         21   -1    0    0  504  502  0.00000000000E+00  0.00000000000E+00  0.51032548677E+03  0.51032548677E+03  0.00000000000E+00 0.  1.
         21   -1    0    0  502  503 -0.00000000000E+00 -0.00000000000E+00 -0.23752441962E+02  0.23752441962E+02  0.00000000000E+00 0.  1.
         25    2    1    2    0    0 -0.20115721555E+02 -0.64625823927E+01  0.14818054644E+03  0.19502647220E+03  0.12502577051E+03 0.  0.
          5    1    3    3  501    0 -0.67631457056E+02  0.11461693017E+02  0.11642782425E+03  0.13513264835E+03  0.10000000000E+00 0.  1.
         -5    1    3    3    0  501  0.47515735501E+02 -0.17924275409E+02  0.31752722192E+02  0.59893823853E+02  0.10000000000E+00 0.  1.
         21    1    1    2  504  503  0.20115721555E+02  0.64625823927E+01  0.33839249837E+03  0.33905145653E+03  0.00000000000E+00 0.  1.
<mgrwt>
<rscale>  1 0.12679846E+03</rscale>
<asrwt>0</asrwt>
<pdfrwt beam="1">  1       21 0.78511605E-01 0.12679846E+03</pdfrwt>
<pdfrwt beam="2">  1       21 0.36542222E-02 0.12679846E+03</pdfrwt>
<totfact> 0.65923155E+05</totfact>
</mgrwt>
</event>
<event>
 6    1  0.4261782E-002  0.1259638E+03  0.7546771E-02  0.1233571E+00
         21   -1    0    0  504  502  0.00000000000E+00  0.00000000000E+00  0.27275205567E+02  0.27275205567E+02  0.00000000000E+00 0. -1.
         21   -1    0    0  502  503 -0.00000000000E+00 -0.00000000000E+00 -0.18840102950E+03  0.18840102950E+03  0.00000000000E+00 0. -1.
         25    2    1    2    0    0 -0.25442842745E-01 -0.15545492775E+02 -0.13076171206E+03  0.18156403369E+03  0.12500083998E+03 0.  0.
          5    1    3    3  501    0  0.15358874563E+02 -0.68780154320E+02 -0.70054384218E+02  0.99369167271E+02  0.10000000000E+00 0.  1.
         -5    1    3    3    0  501 -0.15384317406E+02  0.53234661544E+02 -0.60707327843E+02  0.82194866419E+02  0.10000000000E+00 0.  1.
         21    1    1    2  504  503  0.25442842745E-01  0.15545492775E+02 -0.30364111872E+02  0.34112201376E+02  0.00000000000E+00 0. -1.
<mgrwt>
<rscale>  1 0.12596378E+03</rscale>
<asrwt>0</asrwt>
<pdfrwt beam="1">  1       21 0.41961854E-02 0.12596378E+03</pdfrwt>
<pdfrwt beam="2">  1       21 0.28984774E-01 0.12596378E+03</pdfrwt>
<totfact> 0.40655496E+06</totfact>
</mgrwt>
</event>
<event>
 6    1  0.4261782E-002  0.1411072E+03  0.7546771E-02  0.1211847E+00
         21   -1    0    0  503  502  0.00000000000E+00  0.00000000000E+00  0.12983980869E+03  0.12983980869E+03  0.00000000000E+00 0.  1.
         21   -1    0    0  504  503 -0.00000000000E+00 -0.00000000000E+00 -0.55303905881E+03  0.55303905881E+03  0.00000000000E+00 0.  1.
         25    2    1    2    0    0 -0.56661262389E+02 -0.32801569596E+02 -0.53501248485E+03  0.55330787890E+03  0.12499923314E+03 0.  0.
          5    1    3    3  501    0 -0.11998139126E+02 -0.48716519146E+02 -0.47091255288E+03  0.47357776240E+03  0.10000000000E+00 0.  1.
         -5    1    3    3    0  501 -0.44663123263E+02  0.15914949550E+02 -0.64099931972E+02  0.79730116503E+02  0.10000000000E+00 0.  1.
         21    1    1    2  504  502  0.56661262389E+02  0.32801569596E+02  0.11181323474E+03  0.12957098859E+03  0.00000000000E+00 0.  1.
<mgrwt>
<rscale>  1 0.14110723E+03</rscale>
<asrwt>0</asrwt>
<pdfrwt beam="1">  1       21 0.19975355E-01 0.14110723E+03</pdfrwt>
<pdfrwt beam="2">  1       21 0.85082932E-01 0.14110723E+03</pdfrwt>
<totfact> 0.28521398E+04</totfact>
</mgrwt>
</event>
<event>
 6    1  0.4261782E-002  0.1309599E+03  0.7546771E-02  0.1226038E+00
         21   -1    0    0  504  502  0.00000000000E+00  0.00000000000E+00  0.30883814883E+02  0.30883814883E+02  0.00000000000E+00 0.  1.
         21   -1    0    0  502  503 -0.00000000000E+00 -0.00000000000E+00 -0.26165786109E+03  0.26165786109E+03  0.00000000000E+00 0.  1.
         25    2    1    2    0    0 -0.24264493432E+02 -0.30595793831E+02 -0.21206168914E+03  0.24924016851E+03  0.12500253339E+03 0.  0.
          5    1    3    3  501    0 -0.45917789649E+02 -0.20000448305E+02 -0.21859859014E+03  0.22426282561E+03  0.10000000000E+00 0. -1.
         -5    1    3    3    0  501  0.21653296216E+02 -0.10595345526E+02  0.65369009957E+01  0.24977342903E+02  0.10000000000E+00 0. -1.
         21    1    1    2  504  503  0.24264493432E+02  0.30595793831E+02 -0.18712357065E+02  0.43301507463E+02  0.00000000000E+00 0.  1.
<mgrwt>
<rscale>  1 0.13095992E+03</rscale>
<asrwt>0</asrwt>
<pdfrwt beam="1">  1       21 0.47513561E-02 0.13095992E+03</pdfrwt>
<pdfrwt beam="2">  1       21 0.40255056E-01 0.13095992E+03</pdfrwt>
<totfact> 0.17382046E+06</totfact>
</mgrwt>
</event>
<event>
 6    1  0.4261782E-002  0.1258860E+03  0.7546771E-02  0.1233691E+00
         21   -1    0    0  504  502  0.00000000000E+00  0.00000000000E+00  0.26165661050E+02  0.26165661050E+02  0.00000000000E+00 0. -1.
         21   -1    0    0  502  503 -0.00000000000E+00 -0.00000000000E+00 -0.75732003586E+03  0.75732003586E+03  0.00000000000E+00 0.  1.
         25    2    1    2    0    0  0.15004116880E+02 -0.24332885558E+00 -0.74937844570E+03  0.75987850538E+03  0.12498842079E+03 0.  0.
          5    1    3    3  501    0 -0.52418911154E+02  0.18250272175E+02 -0.29946827584E+03  0.30456866700E+03  0.10000000000E+00 0. -1.
         -5    1    3    3    0  501  0.67423028035E+02 -0.18493601031E+02 -0.44991016985E+03  0.45530983838E+03  0.10000000000E+00 0. -1.
         21    1    1    2  504  503 -0.15004116880E+02  0.24332885558E+00  0.18224070887E+02  0.23607191531E+02  0.00000000000E+00 0. -1.
<mgrwt>
<rscale>  1 0.12588601E+03</rscale>
<asrwt>0</asrwt>
<pdfrwt beam="1">  1       21 0.40254860E-02 0.12588601E+03</pdfrwt>
<pdfrwt beam="2">  1       21 0.11651078E+00 0.12588601E+03</pdfrwt>
<totfact> 0.22500209E+05</totfact>
</mgrwt>
</event>
<event>
 6    1  0.4261782E-002  0.1307655E+03  0.7546771E-02  0.1226324E+00
         21   -1    0    0  504  502  0.00000000000E+00  0.00000000000E+00  0.36012949913E+02  0.36012949913E+02  0.00000000000E+00 0.  1.
         21   -1    0    0  502  503 -0.00000000000E+00 -0.00000000000E+00 -0.23728205552E+03  0.23728205552E+03  0.00000000000E+00 0.  1.
         25    2    1    2    0    0 -0.16399422444E+02 -0.34703621037E+02 -0.19442084322E+03  0.23430550598E+03  0.12500529384E+03 0.  0.
          5    1    3    3  501    0 -0.66948115960E+02 -0.27531649026E+02 -0.15031588029E+03  0.16683799267E+03  0.10000000000E+00 0. -1.
         -5    1    3    3    0  501  0.50548693516E+02 -0.71719720110E+01 -0.44104962921E+02  0.67467513315E+02  0.10000000000E+00 0. -1.
         21    1    1    2  504  503  0.16399422444E+02  0.34703621037E+02 -0.68482623920E+01  0.38989499451E+02  0.00000000000E+00 0.  1.
<mgrwt>
<rscale>  1 0.13076546E+03</rscale>
<asrwt>0</asrwt>
<pdfrwt beam="1">  1       21 0.55404537E-02 0.13076546E+03</pdfrwt>
<pdfrwt beam="2">  1       21 0.36504933E-01 0.13076546E+03</pdfrwt>
<totfact> 0.16302750E+06</totfact>
</mgrwt>
</event>
<event>
 6    1  0.4261782E-002  0.1278606E+03  0.7546771E-02  0.1230665E+00
         21   -1    0    0  504  502  0.00000000000E+00  0.00000000000E+00  0.17705034488E+03  0.17705034488E+03  0.00000000000E+00 0. -1.
         21   -1    0    0  502  503 -0.00000000000E+00 -0.00000000000E+00 -0.11301856738E+03  0.11301856738E+03  0.00000000000E+00 0.  1.
         25    2    1    2    0    0  0.85329016153E+01 -0.25510637186E+02 -0.75151017919E+02  0.14831047844E+03  0.12499887800E+03 0.  0.
          5    1    3    3  501    0 -0.28541219667E+02  0.37513502714E+02 -0.57281861048E+01  0.47483536326E+02  0.10000000000E+00 0. -1.
         -5    1    3    3    0  501  0.37074121282E+02 -0.63024139900E+02 -0.69422831814E+02  0.10082694211E+03  0.10000000000E+00 0. -1.
         21    1    1    2  504  503 -0.85329016153E+01  0.25510637186E+02  0.13918279542E+03  0.14175843382E+03  0.00000000000E+00 0. -1.
<mgrwt>
<rscale>  1 0.12786056E+03</rscale>
<asrwt>0</asrwt>
<pdfrwt beam="1">  1       21 0.27238515E-01 0.12786056E+03</pdfrwt>
<pdfrwt beam="2">  1       21 0.17387472E-01 0.12786056E+03</pdfrwt>
<totfact> 0.38871095E+05</totfact>
</mgrwt>
</event>
<event>
 6    1  0.4261782E-002  0.1273924E+03  0.7546771E-02  0.1231377E+00
         21   -1    0    0  503  502  0.00000000000E+00  0.00000000000E+00  0.41266899426E+02  0.41266899426E+02  0.00000000000E+00 0.  1.
         21   -1    0    0  504  503 -0.00000000000E+00 -0.00000000000E+00 -0.17239367129E+03  0.17239367129E+03  0.00000000000E+00 0.  1.
         25    2    1    2    0    0 -0.22982490449E+02 -0.88322119004E+01 -0.13828476973E+03  0.18801998243E+03  0.12499053332E+03 0.  0.
          5    1    3    3  501    0 -0.37006463997E+02  0.52125858828E+02 -0.81133194529E+02  0.10329176536E+03  0.10000000000E+00 0.  1.
         -5    1    3    3    0  501  0.14023973547E+02 -0.60958070728E+02 -0.57151575201E+02  0.84728217076E+02  0.10000000000E+00 0.  1.
         21    1    1    2  504  502  0.22982490449E+02  0.88322119004E+01  0.71579978620E+01  0.25640588287E+02  0.00000000000E+00 0.  1.
<mgrwt>
<rscale>  1 0.12739245E+03</rscale>
<asrwt>0</asrwt>
<pdfrwt beam="1">  1       21 0.63487537E-02 0.12739245E+03</pdfrwt>
<pdfrwt beam="2">  1       21 0.26522104E-01 0.12739245E+03</pdfrwt>
<totfact> 0.24018743E+06</totfact>
</mgrwt>
</event>
<event>
 6    1  0.4261782E-002  0.1828441E+03  0.7546771E-02  0.1165079E+00
         21   -1    0    0  504  502  0.00000000000E+00  0.00000000000E+00  0.90175098575E+03  0.90175098575E+03  0.00000000000E+00 0.  1.
         21   -1    0    0  502  503 -0.00000000000E+00 -0.00000000000E+00 -0.78843365406E+03  0.78843365406E+03  0.00000000000E+00 0.  1.
         25    2    1    2    0    0 -0.60416778466E+02  0.11898621716E+03 -0.77276915408E+03  0.79410586690E+03  0.12499622139E+03 0.  0.
          5    1    3    3  501    0 -0.43383839099E+02  0.82217284464E+02 -0.72723057145E+03  0.73314811151E+03  0.10000000000E+00 0.  1.
         -5    1    3    3    0  501 -0.17032939367E+02  0.36768932694E+02 -0.45538582634E+02  0.60957755399E+02  0.10000000000E+00 0.  1.
         21    1    1    2  504  503  0.60416778466E+02 -0.11898621716E+03  0.88608648577E+03  0.89607877291E+03  0.00000000000E+00 0.  1.
<mgrwt>
<rscale>  1 0.18284409E+03</rscale>
<asrwt>0</asrwt>
<pdfrwt beam="1">  1       21 0.13873092E+00 0.18284409E+03</pdfrwt>
<pdfrwt beam="2">  1       21 0.12129749E+00 0.18284409E+03</pdfrwt>
<totfact> 0.19082261E+02</totfact>
</mgrwt>
</event>
<event>
 6    1  0.4261782E-002  0.1478985E+03  0.7546771E-02  0.1203079E+00
         21   -1    0    0  503  502  0.00000000000E+00  0.00000000000E+00  0.17481546713E+04  0.17481546713E+04  0.00000000000E+00 0.  1.
         21   -1    0    0  504  503 -0.00000000000E+00 -0.00000000000E+00 -0.82278607724E+01  0.82278607724E+01  0.00000000000E+00 0.  1.
         25    2    1    2    0    0 -0.32239586948E+01 -0.78976423012E+02  0.83385637924E+03  0.84687096219E+03  0.12500518427E+03 0.  0.
          5    1    3    3  501    0 -0.35252447913E+02 -0.54998874222E+02  0.76060511709E+03  0.76340537423E+03  0.10000000000E+00 0. -1.
         -5    1    3    3    0  501  0.32028489219E+02 -0.23977548790E+02  0.73251262149E+02  0.83465587963E+02  0.10000000000E+00 0. -1.
         21    1    1    2  504  502  0.32239586948E+01  0.78976423012E+02  0.90607043133E+03  0.90951156992E+03  0.00000000000E+00 0.  1.
<mgrwt>
<rscale>  1 0.14789850E+03</rscale>
<asrwt>0</asrwt>
<pdfrwt beam="1">  1       21 0.26894658E+00 0.14789850E+03</pdfrwt>
<pdfrwt beam="2">  1       21 0.12658261E-02 0.14789850E+03</pdfrwt>
<totfact> 0.13738875E+05</totfact>
</mgrwt>
</event>
<event>
 6    1  0.4261782E-002  0.1260851E+03  0.7546771E-02  0.1233383E+00
         21   -1    0    0  504  502  0.00000000000E+00  0.00000000000E+00  0.34700322986E+03  0.34700322986E+03  0.00000000000E+00 0. -1.
         21   -1    0    0  502  503 -0.00000000000E+00 -0.00000000000E+00 -0.50760244330E+02  0.50760244330E+02  0.00000000000E+00 0. -1.
         25    2    1    2    0    0  0.53104819495E+01  0.15578586273E+02  0.28180235499E+02  0.12919591933E+03  0.12500626516E+03 0.  0.
          5    1    3    3  501    0 -0.52837157064E+02 -0.13827859627E+02  0.33076454575E+02  0.63851677470E+02  0.10000000000E+00 0. -1.
         -5    1    3    3    0  501  0.58147639013E+02  0.29406445899E+02 -0.48962190762E+01  0.65344241862E+02  0.10000000000E+00 0. -1.
         21    1    1    2  504  503 -0.53104819495E+01 -0.15578586273E+02  0.26806275003E+03  0.26856755486E+03  0.00000000000E+00 0. -1.
<mgrwt>
<rscale>  1 0.12608513E+03</rscale>
<asrwt>0</asrwt>
<pdfrwt beam="1">  1       21 0.53385111E-01 0.12608513E+03</pdfrwt>
<pdfrwt beam="2">  1       21 0.78092686E-02 0.12608513E+03</pdfrwt>
<totfact> 0.42027951E+05</totfact>
</mgrwt>
</event>
<event>
 6    1  0.4261782E-002  0.1806923E+03  0.7546771E-02  0.1167135E+00
         21   -1    0    0  504  502  0.00000000000E+00  0.00000000000E+00  0.24873334526E+03  0.24873334526E+03  0.00000000000E+00 0. -1.
         21   -1    0    0  502  503 -0.00000000000E+00 -0.00000000000E+00 -0.15232320594E+03  0.15232320594E+03  0.00000000000E+00 0. -1.
         25    2    1    2    0    0  0.91882703508E+02 -0.92693843729E+02 -0.66296656202E+02  0.19247064282E+03  0.12496048117E+03 0.  0.
          5    1    3    3  501    0 -0.25507608961E+02 -0.23932682358E+02 -0.41344191123E+02  0.54154995516E+02  0.10000000000E+00 0.  1.
         -5    1    3    3    0  501  0.11739031247E+03 -0.68761161372E+02 -0.24952465079E+02  0.13831564730E+03  0.10000000000E+00 0.  1.
         21    1    1    2  504  503 -0.91882703508E+02  0.92693843729E+02  0.16270679551E+03  0.20858590838E+03  0.00000000000E+00 0. -1.
<mgrwt>
<rscale>  1 0.18069228E+03</rscale>
<asrwt>0</asrwt>
<pdfrwt beam="1">  1       21 0.38266668E-01 0.18069228E+03</pdfrwt>
<pdfrwt beam="2">  1       21 0.23434339E-01 0.18069228E+03</pdfrwt>
<totfact> 0.11329751E+05</totfact>
</mgrwt>
</event>
<event>
 6    1  0.4261782E-002  0.1261793E+03  0.7546771E-02  0.1233238E+00
         21   -1    0    0  504  502  0.00000000000E+00  0.00000000000E+00  0.23082895361E+02  0.23082895361E+02  0.00000000000E+00 0.  1.
         21   -1    0    0  502  503 -0.00000000000E+00 -0.00000000000E+00 -0.29822289448E+03  0.29822289448E+03  0.00000000000E+00 0.  1.
         25    2    1    2    0    0 -0.16908098316E+02 -0.32228857594E+01 -0.27661051827E+03  0.30403057037E+03  0.12499975249E+03 0.  0.
          5    1    3    3  501    0 -0.61887136534E+02 -0.32001414400E+02 -0.12244111104E+03  0.14087563262E+03  0.10000000000E+00 0.  1.
         -5    1    3    3    0  501  0.44979038218E+02  0.28778528641E+02 -0.15416940722E+03  0.16315493775E+03  0.10000000000E+00 0.  1.
         21    1    1    2  504  503  0.16908098316E+02  0.32228857594E+01  0.14705191444E+01  0.17275219473E+02  0.00000000000E+00 0.  1.
<mgrwt>
<rscale>  1 0.12617927E+03</rscale>
<asrwt>0</asrwt>
<pdfrwt beam="1">  1       21 0.35512147E-02 0.12617927E+03</pdfrwt>
<pdfrwt beam="2">  1       21 0.45880445E-01 0.12617927E+03</pdfrwt>
<totfact> 0.21643351E+06</totfact>
</mgrwt>
</event>
<event>
 6    1  0.4261782E-002  0.1269028E+03  0.7546771E-02  0.1232125E+00
         21   -1    0    0  503  502  0.00000000000E+00  0.00000000000E+00  0.52542291453E+03  0.52542291453E+03  0.00000000000E+00 0.  1.
         21   -1    0    0  504  503 -0.00000000000E+00 -0.00000000000E+00 -0.11362024078E+02  0.11362024078E+02  0.00000000000E+00 0.  1.
         25    2    1    2    0    0 -0.16788544857E+02 -0.14257198986E+02  0.37255937578E+03  0.39357948614E+03  0.12497679973E+03 0.  0.
          5    1    3    3  501    0  0.45032035098E+01  0.46257640718E+02  0.25913909749E+03  0.26327386884E+03  0.10000000000E+00 0. -1.
         -5    1    3    3    0  501 -0.21291748367E+02 -0.60514839704E+02  0.11342027829E+03  0.13030561730E+03  0.10000000000E+00 0. -1.
         21    1    1    2  504  502  0.16788544857E+02  0.14257198986E+02  0.14150151468E+03  0.14320545247E+03  0.00000000000E+00 0.  1.
<mgrwt>
<rscale>  1 0.12690281E+03</rscale>
<asrwt>0</asrwt>
<pdfrwt beam="1">  1       21 0.80834276E-01 0.12690281E+03</pdfrwt>
<pdfrwt beam="2">  1       21 0.17480041E-02 0.12690281E+03</pdfrwt>
<totfact> 0.20522567E+06</totfact>
</mgrwt>
</event>
<event>
 6    1  0.4261782E-002  0.1470105E+03  0.7546771E-02  0.1204195E+00
         21   -1    0    0  503  502  0.00000000000E+00  0.00000000000E+00  0.56932008384E+02  0.56932008384E+02  0.00000000000E+00 0. -1.
         21   -1    0    0  504  503 -0.00000000000E+00 -0.00000000000E+00 -0.11674470995E+04  0.11674470995E+04  0.00000000000E+00 0. -1.
         25    2    1    2    0    0  0.71803032698E+02 -0.28844110025E+02 -0.11340190007E+04  0.11435082729E+04  0.12499767178E+03 0.  0.
          5    1    3    3  501    0 -0.14926000345E+02 -0.34496835678E+02 -0.69231569127E+03  0.69333530383E+03  0.10000000000E+00 0. -1.
         -5    1    3    3    0  501  0.86729033044E+02  0.56527256530E+01 -0.44170330947E+03  0.45017296907E+03  0.10000000000E+00 0. -1.
         21    1    1    2  504  502 -0.71803032698E+02  0.28844110025E+02  0.23503909607E+02  0.80870835006E+02  0.00000000000E+00 0. -1.
<mgrwt>
<rscale>  1 0.14701046E+03</rscale>
<asrwt>0</asrwt>
<pdfrwt beam="1">  1       21 0.87587705E-02 0.14701046E+03</pdfrwt>
<pdfrwt beam="2">  1       21 0.17960725E+00 0.14701046E+03</pdfrwt>
<totfact> 0.19435548E+04</totfact>
</mgrwt>
</event>
<event>
 6    1  0.4261782E-002  0.1271265E+03  0.7546771E-02  0.1231783E+00
         21   -1    0    0  503  502  0.00000000000E+00  0.00000000000E+00  0.20467422270E+02  0.20467422270E+02  0.00000000000E+00 0.  1.
         21   -1    0    0  504  503 -0.00000000000E+00 -0.00000000000E+00 -0.38543629077E+03  0.38543629077E+03  0.00000000000E+00 0.  1.
         25    2    1    2    0    0 -0.13533833823E+02 -0.18748822648E+02 -0.36062479514E+03  0.38237598510E+03  0.12500587229E+03 0.  0.
          5    1    3    3  501    0  0.14400717135E+02 -0.66129868028E+02 -0.14780567664E+03  0.16256404321E+03  0.10000000000E+00 0. -1.
         -5    1    3    3    0  501 -0.27934550958E+02  0.47381045379E+02 -0.21281911850E+03  0.21981194189E+03  0.10000000000E+00 0. -1.
         21    1    1    2  504  502  0.13533833823E+02  0.18748822648E+02 -0.43440733666E+01  0.23527727941E+02  0.00000000000E+00 0.  1.
<mgrwt>
<rscale>  1 0.12712652E+03</rscale>
<asrwt>0</asrwt>
<pdfrwt beam="1">  1       21 0.31488340E-02 0.12712652E+03</pdfrwt>
<pdfrwt beam="2">  1       21 0.59297895E-01 0.12712652E+03</pdfrwt>
<totfact> 0.15493438E+06</totfact>
</mgrwt>
</event>
<event>
 6    1  0.4261782E-002  0.1262052E+03  0.7546771E-02  0.1233198E+00
         21   -1    0    0  504  502  0.00000000000E+00  0.00000000000E+00  0.61618479275E+02  0.61618479275E+02  0.00000000000E+00 0. -1.
         21   -1    0    0  502  503 -0.00000000000E+00 -0.00000000000E+00 -0.50337924407E+03  0.50337924407E+03  0.00000000000E+00 0.  1.
         25    2    1    2    0    0  0.17106196393E+02  0.31954358412E+01 -0.49403639322E+03  0.50990167910E+03  0.12499972704E+03 0.  0.
          5    1    3    3  501    0  0.57885657510E+02  0.38392519556E+02 -0.22313342043E+03  0.23369481855E+03  0.10000000000E+00 0. -1.
         -5    1    3    3    0  501 -0.40779461117E+02 -0.35197083715E+02 -0.27090297279E+03  0.27620686055E+03  0.10000000000E+00 0. -1.
         21    1    1    2  504  503 -0.17106196393E+02 -0.31954358412E+01  0.52275628419E+02  0.55096044249E+02  0.00000000000E+00 0. -1.
<mgrwt>
<rscale>  1 0.12620525E+03</rscale>
<asrwt>0</asrwt>
<pdfrwt beam="1">  1       21 0.94797661E-02 0.12620525E+03</pdfrwt>
<pdfrwt beam="2">  1       21 0.77442960E-01 0.12620525E+03</pdfrwt>
<totfact> 0.13511997E+05</totfact>
</mgrwt>
</event>
<event>
 6    1  0.4261782E-002  0.1272654E+03  0.7546771E-02  0.1231571E+00
         21   -1    0    0  503  502  0.00000000000E+00  0.00000000000E+00  0.41132583840E+02  0.41132583840E+02  0.00000000000E+00 0. -1.
         21   -1    0    0  504  503 -0.00000000000E+00 -0.00000000000E+00 -0.33535479259E+03  0.33535479259E+03  0.00000000000E+00 0. -1.
         25    2    1    2    0    0  0.21188063072E+02 -0.11009307524E+02 -0.31816456238E+03  0.34267354545E+03  0.12500532439E+03 0.  0.
          5    1    3    3  501    0  0.18873689953E+02  0.56033967127E+02 -0.17119050644E+03  0.18111383476E+03  0.10000000000E+00 0.  1.
         -5    1    3    3    0  501  0.23143731184E+01 -0.67043274651E+02 -0.14697405594E+03  0.16155971069E+03  0.10000000000E+00 0.  1.
         21    1    1    2  504  502 -0.21188063072E+02  0.11009307524E+02  0.23942353627E+02  0.33813830988E+02  0.00000000000E+00 0. -1.
<mgrwt>
<rscale>  1 0.12726535E+03</rscale>
<asrwt>0</asrwt>
<pdfrwt beam="1">  1       21 0.63280899E-02 0.12726535E+03</pdfrwt>
<pdfrwt beam="2">  1       21 0.51593045E-01 0.12726535E+03</pdfrwt>
<totfact> 0.64642785E+05</totfact>
</mgrwt>
</event>
<event>
 6    1  0.4261782E-002  0.1307164E+03  0.7546771E-02  0.1226397E+00
         21   -1    0    0  504  502  0.00000000000E+00  0.00000000000E+00  0.48180918743E+02  0.48180918743E+02  0.00000000000E+00 0.  1.
         21   -1    0    0  502  503 -0.00000000000E+00 -0.00000000000E+00 -0.68694574137E+03  0.68694574137E+03  0.00000000000E+00 0.  1.
         25    2    1    2    0    0 -0.98441358284E+01 -0.36911006093E+02 -0.67193667526E+03  0.68453317053E+03  0.12500974607E+03 0.  0.
          5    1    3    3  501    0  0.45324740174E+02 -0.48030495768E+02 -0.47981034236E+03  0.48433380559E+03  0.10000000000E+00 0. -1.
         -5    1    3    3    0  501 -0.55168876003E+02  0.11119489675E+02 -0.19212633290E+03  0.20019936494E+03  0.10000000000E+00 0. -1.
         21    1    1    2  504  503  0.98441358284E+01  0.36911006093E+02  0.33171852635E+02  0.50593489584E+02  0.00000000000E+00 0.  1.
<mgrwt>
<rscale>  1 0.13071636E+03</rscale>
<asrwt>0</asrwt>
<pdfrwt beam="1">  1       21 0.74124492E-02 0.13071636E+03</pdfrwt>
<pdfrwt beam="2">  1       21 0.10568396E+00 0.13071636E+03</pdfrwt>
<totfact> 0.10120231E+05</totfact>
</mgrwt>
</event>
<event>
 6    1  0.4261782E-002  0.1288283E+03  0.7546771E-02  0.1229205E+00
         21   -1    0    0  504  502  0.00000000000E+00  0.00000000000E+00  0.27101421858E+03  0.27101421858E+03  0.00000000000E+00 0.  1.
         21   -1    0    0  502  503 -0.00000000000E+00 -0.00000000000E+00 -0.24640894091E+02  0.24640894091E+02  0.00000000000E+00 0.  1.
         25    2    1    2    0    0 -0.55346501051E+01 -0.30723820058E+02  0.17120009948E+03  0.21425732874E+03  0.12498857302E+03 0.  0.
          5    1    3    3  501    0  0.11669761091E+02 -0.67145721559E+02  0.44711831677E+02  0.81510055451E+02  0.10000000000E+00 0.  1.
         -5    1    3    3    0  501 -0.17204411196E+02  0.36421901502E+02  0.12648826780E+03  0.13274727329E+03  0.10000000000E+00 0.  1.
         21    1    1    2  504  503  0.55346501051E+01  0.30723820058E+02  0.75173225012E+02  0.81397783934E+02  0.00000000000E+00 0.  1.
<mgrwt>
<rscale>  1 0.12882829E+03</rscale>
<asrwt>0</asrwt>
<pdfrwt beam="1">  1       21 0.41694493E-01 0.12882829E+03</pdfrwt>
<pdfrwt beam="2">  1       21 0.37909070E-02 0.12882829E+03</pdfrwt>
<totfact> 0.23589805E+06</totfact>
</mgrwt>
</event>
<event>
 6    1  0.4261782E-002  0.1333708E+03  0.7546771E-02  0.1222538E+00
         21   -1    0    0  503  502  0.00000000000E+00  0.00000000000E+00  0.36365394348E+03  0.36365394348E+03  0.00000000000E+00 0.  1.
         21   -1    0    0  504  503 -0.00000000000E+00 -0.00000000000E+00 -0.22870163054E+02  0.22870163054E+02  0.00000000000E+00 0.  1.
         25    2    1    2    0    0  0.45360086562E+02 -0.10251108303E+02  0.27856477136E+03  0.30884638925E+03  0.12500055052E+03 0.  0.
          5    1    3    3  501    0  0.50394635993E+02 -0.31004511431E+02  0.28117393161E+03  0.28733201855E+03  0.10000000000E+00 0.  1.
         -5    1    3    3    0  501 -0.50345494317E+01  0.20753403128E+02 -0.26091602461E+01  0.21514370699E+02  0.10000000000E+00 0.  1.
         21    1    1    2  504  502 -0.45360086562E+02  0.10251108303E+02  0.62219009067E+02  0.77677717291E+02  0.00000000000E+00 0.  1.
<mgrwt>
<rscale>  1 0.13337076E+03</rscale>
<asrwt>0</asrwt>
<pdfrwt beam="1">  1       21 0.55946756E-01 0.13337076E+03</pdfrwt>
<pdfrwt beam="2">  1       21 0.35184869E-02 0.13337076E+03</pdfrwt>
<totfact> 0.14599225E+06</totfact>
</mgrwt>
</event>
<event>
 6    1  0.4261782E-002  0.1323741E+03  0.7546771E-02  0.1223975E+00
         21   -1    0    0  504  502  0.00000000000E+00  0.00000000000E+00  0.98391649497E+03  0.98391649497E+03  0.00000000000E+00 0. -1.
         21   -1    0    0  502  503 -0.00000000000E+00 -0.00000000000E+00 -0.18295921396E+03  0.18295921396E+03  0.00000000000E+00 0.  1.
         25    2    1    2    0    0 -0.36505057246E+02 -0.23797971905E+02 -0.15845600730E+03  0.20647328263E+03  0.12499579000E+03 0.  0.
          5    1    3    3  501    0 -0.25418537136E+01 -0.33932446845E+02  0.90888325736E+01  0.35220574196E+02  0.10000000000E+00 0.  1.
         -5    1    3    3    0  501 -0.33963203532E+02  0.10134474940E+02 -0.16754483988E+03  0.17125270843E+03  0.10000000000E+00 0.  1.
         21    1    1    2  504  503  0.36505057246E+02  0.23797971905E+02  0.95941328831E+03  0.96040242631E+03  0.00000000000E+00 0. -1.
<mgrwt>
<rscale>  1 0.13237413E+03</rscale>
<asrwt>0</asrwt>
<pdfrwt beam="1">  1       21 0.15137177E+00 0.13237413E+03</pdfrwt>
<pdfrwt beam="2">  1       21 0.28147572E-01 0.13237413E+03</pdfrwt>
<totfact> 0.37387969E+03</totfact>
</mgrwt>
</event>
<event>
 6    1  0.4261782E-002  0.1310773E+03  0.7546771E-02  0.1225866E+00
         21   -1    0    0  503  502  0.00000000000E+00  0.00000000000E+00  0.12003964299E+03  0.12003964299E+03  0.00000000000E+00 0. -1.
         21   -1    0    0  504  503 -0.00000000000E+00 -0.00000000000E+00 -0.17280681638E+03  0.17280681638E+03  0.00000000000E+00 0.  1.
         25    2    1    2    0    0  0.38824407917E+02 -0.70294565836E+01 -0.14322930302E+03  0.19415428740E+03  0.12499802464E+03 0.  0.
          5    1    3    3  501    0  0.54126588374E+02  0.15825427851E+02 -0.89640463984E+01  0.57100751865E+02  0.10000000000E+00 0. -1.
         -5    1    3    3    0  501 -0.15302180457E+02 -0.22854884434E+02 -0.13426525662E+03  0.13705353554E+03  0.10000000000E+00 0. -1.
         21    1    1    2  504  502 -0.38824407917E+02  0.70294565836E+01  0.90462129633E+02  0.98692171968E+02  0.00000000000E+00 0. -1.
<mgrwt>
<rscale>  1 0.13107728E+03</rscale>
<asrwt>0</asrwt>
<pdfrwt beam="1">  1       21 0.18467637E-01 0.13107728E+03</pdfrwt>
<pdfrwt beam="2">  1       21 0.26585664E-01 0.13107728E+03</pdfrwt>
<totfact> 0.36444261E+05</totfact>
</mgrwt>
</event>
<event>
 6    1  0.4261782E-002  0.1270774E+03  0.7546771E-02  0.1231858E+00
         21   -1    0    0  504  502  0.00000000000E+00  0.00000000000E+00  0.39138239263E+03  0.39138239263E+03  0.00000000000E+00 0.  1.
         21   -1    0    0  502  503 -0.00000000000E+00 -0.00000000000E+00 -0.14846892999E+02  0.14846892999E+02  0.00000000000E+00 0.  1.
         25    2    1    2    0    0  0.14161901010E+02  0.17812391340E+02  0.34223737050E+03  0.36506859580E+03  0.12502328242E+03 0.  0.
          5    1    3    3  501    0  0.69785878809E+01  0.43362715593E+02  0.33457232241E+03  0.33744284659E+03  0.10000000000E+00 0. -1.
         -5    1    3    3    0  501  0.71833131288E+01 -0.25550324253E+02  0.76650480872E+01  0.27625749205E+02  0.10000000000E+00 0. -1.
         21    1    1    2  504  503 -0.14161901010E+02 -0.17812391340E+02  0.34298129132E+02  0.41160689832E+02  0.00000000000E+00 0.  1.
<mgrwt>
<rscale>  1 0.12707739E+03</rscale>
<asrwt>0</asrwt>
<pdfrwt beam="1">  1       21 0.60212668E-01 0.12707739E+03</pdfrwt>
<pdfrwt beam="2">  1       21 0.22841377E-02 0.12707739E+03</pdfrwt>
<totfact> 0.25325300E+06</totfact>
</mgrwt>
</event>
<event>
 6    1  0.4261782E-002  0.1346360E+03  0.7546771E-02  0.1220734E+00
         21   -1    0    0  503  502  0.00000000000E+00  0.00000000000E+00  0.17155938060E+03  0.17155938060E+03  0.00000000000E+00 0. -1.
         21   -1    0    0  504  503 -0.00000000000E+00 -0.00000000000E+00 -0.56091456947E+02  0.56091456947E+02  0.00000000000E+00 0. -1.
         25    2    1    2    0    0 -0.36685397213E+02 -0.33908244003E+02  0.46393797076E+02  0.14240517876E+03  0.12502505009E+03 0.  0.
          5    1    3    3  501    0 -0.32555039020E+02  0.44643868003E+02  0.26437997518E+02  0.61252618137E+02  0.10000000000E+00 0. -1.
         -5    1    3    3    0  501 -0.41303581931E+01 -0.78552112006E+02  0.19955799558E+02  0.81152560622E+02  0.10000000000E+00 0. -1.
         21    1    1    2  504  502  0.36685397213E+02  0.33908244003E+02  0.69074126578E+02  0.85245658790E+02  0.00000000000E+00 0. -1.
<mgrwt>
<rscale>  1 0.13463599E+03</rscale>
<asrwt>0</asrwt>
<pdfrwt beam="1">  1       21 0.26393751E-01 0.13463599E+03</pdfrwt>
<pdfrwt beam="2">  1       21 0.86294550E-02 0.13463599E+03</pdfrwt>
<totfact> 0.14330933E+06</totfact>
</mgrwt>
</event>
<event>
 6    1  0.4261782E-002  0.1272414E+03  0.7546771E-02  0.1231607E+00
         21   -1    0    0  504  502  0.00000000000E+00  0.00000000000E+00  0.11797047184E+02  0.11797047184E+02  0.00000000000E+00 0.  1.
         21   -1    0    0  502  503 -0.00000000000E+00 -0.00000000000E+00 -0.48333434666E+03  0.48333434666E+03  0.00000000000E+00 0.  1.
         25    2    1    2    0    0  0.23704278242E+02 -0.18270516169E+01 -0.39566318901E+03  0.41561968676E+03  0.12500053583E+03 0.  0.
          5    1    3    3  501    0  0.26075983622E+02  0.53024662915E+02 -0.29594318647E+03  0.30178461097E+03  0.10000000000E+00 0.  1.
         -5    1    3    3    0  501 -0.23717053792E+01 -0.54851714532E+02 -0.99720002534E+02  0.11383507578E+03  0.10000000000E+00 0.  1.
         21    1    1    2  504  503 -0.23704278242E+02  0.18270516169E+01 -0.75874110471E+02  0.79511707090E+02  0.00000000000E+00 0.  1.
<mgrwt>
<rscale>  1 0.12724136E+03</rscale>
<asrwt>0</asrwt>
<pdfrwt beam="1">  1       21 0.18149308E-02 0.12724136E+03</pdfrwt>
<pdfrwt beam="2">  1       21 0.74359113E-01 0.12724136E+03</pdfrwt>
<totfact> 0.23256981E+06</totfact>
</mgrwt>
</event>
<event>
 6    1  0.4261782E-002  0.1291062E+03  0.7546771E-02  0.1228788E+00
         21   -1    0    0  504  502  0.00000000000E+00  0.00000000000E+00  0.73502661593E+03  0.73502661593E+03  0.00000000000E+00 0. -1.
         21   -1    0    0  502  503 -0.00000000000E+00 -0.00000000000E+00 -0.35984959651E+02  0.35984959651E+02  0.00000000000E+00 0.  1.
         25    2    1    2    0    0  0.31747272080E+02 -0.58566074817E+01  0.81611165448E+02  0.15273768794E+03  0.12500491932E+03 0.  0.
          5    1    3    3  501    0  0.71236018566E+02 -0.35627593484E+02  0.50914490306E+02  0.94531429068E+02  0.10000000000E+00 0. -1.
         -5    1    3    3    0  501 -0.39488746485E+02  0.29770986003E+02  0.30696675143E+02  0.58206258867E+02  0.10000000000E+00 0. -1.
         21    1    1    2  504  503 -0.31747272080E+02  0.58566074817E+01  0.61743049083E+03  0.61827388764E+03  0.00000000000E+00 0. -1.
<mgrwt>
<rscale>  1 0.12910623E+03</rscale>
<asrwt>0</asrwt>
<pdfrwt beam="1">  1       21 0.11308101E+00 0.12910623E+03</pdfrwt>
<pdfrwt beam="2">  1       21 0.55361482E-02 0.12910623E+03</pdfrwt>
<totfact> 0.14163042E+05</totfact>
</mgrwt>
</event>
<event>
 6    1  0.4261782E-002  0.1327503E+03  0.7546771E-02  0.1223431E+00
         21   -1    0    0  503  502  0.00000000000E+00  0.00000000000E+00  0.70856900171E+01  0.70856900171E+01  0.00000000000E+00 0. -1.
         21   -1    0    0  504  503 -0.00000000000E+00 -0.00000000000E+00 -0.16725481645E+04  0.16725481645E+04  0.00000000000E+00 0. -1.
         25    2    1    2    0    0 -0.43221556308E+02 -0.11365566838E+02 -0.15523031584E+04  0.15579691109E+04  0.12500150270E+03 0.  0.
          5    1    3    3  501    0  0.30080486035E+02 -0.43288157995E+02 -0.58967111583E+03  0.59202257990E+03  0.10000000000E+00 0.  1.
         -5    1    3    3    0  501 -0.73302042343E+02  0.31922591156E+02 -0.96263204260E+03  0.96594653096E+03  0.10000000000E+00 0.  1.
         21    1    1    2  504  502  0.43221556308E+02  0.11365566838E+02 -0.11315931601E+03  0.12166474361E+03  0.00000000000E+00 0. -1.
<mgrwt>
<rscale>  1 0.13275035E+03</rscale>
<asrwt>0</asrwt>
<pdfrwt beam="1">  1       21 0.10901056E-02 0.13275035E+03</pdfrwt>
<pdfrwt beam="2">  1       21 0.25731524E+00 0.13275035E+03</pdfrwt>
<totfact> 0.20529683E+05</totfact>
</mgrwt>
</event>
<event>
 6    1  0.4261782E-002  0.1264360E+03  0.7546771E-02  0.1232842E+00
         21   -1    0    0  504  502  0.00000000000E+00  0.00000000000E+00  0.26119031385E+03  0.26119031385E+03  0.00000000000E+00 0.  1.
         21   -1    0    0  502  503 -0.00000000000E+00 -0.00000000000E+00 -0.36537420101E+02  0.36537420101E+02  0.00000000000E+00 0.  1.
         25    2    1    2    0    0 -0.83835822899E+01  0.16958942274E+02  0.75255859783E+02  0.14713768138E+03  0.12501265006E+03 0.  0.
          5    1    3    3  501    0 -0.70465971052E+00 -0.51099773451E+02  0.56377744225E+02  0.76092992029E+02  0.10000000000E+00 0.  1.
         -5    1    3    3    0  501 -0.76789225794E+01  0.68058715724E+02  0.18878115558E+02  0.71044689352E+02  0.10000000000E+00 0.  1.
         21    1    1    2  504  503  0.83835822899E+01 -0.16958942274E+02  0.14939703397E+03  0.15059005257E+03  0.00000000000E+00 0.  1.
<mgrwt>
<rscale>  1 0.12643596E+03</rscale>
<asrwt>0</asrwt>
<pdfrwt beam="1">  1       21 0.40183124E-01 0.12643596E+03</pdfrwt>
<pdfrwt beam="2">  1       21 0.56211417E-02 0.12643596E+03</pdfrwt>
<totfact> 0.13138710E+06</totfact>
</mgrwt>
</event>
<event>
 6    1  0.4261782E-002  0.1326682E+03  0.7546771E-02  0.1223549E+00
         21   -1    0    0  503  502  0.00000000000E+00  0.00000000000E+00  0.91341362679E+03  0.91341362679E+03  0.00000000000E+00 0.  1.
         21   -1    0    0  504  503 -0.00000000000E+00 -0.00000000000E+00 -0.35691292941E+02  0.35691292941E+02  0.00000000000E+00 0.  1.
         25    2    1    2    0    0  0.32194452591E+02  0.30662371556E+02  0.90426450549E+02  0.16055468565E+03  0.12499680123E+03 0.  0.
          5    1    3    3  501    0 -0.17573831062E+02  0.50851558788E+02 -0.17965911499E+01  0.53832688110E+02  0.10000000000E+00 0.  1.
         -5    1    3    3    0  501  0.49768283653E+02 -0.20189187231E+02  0.92223041698E+02  0.10672199754E+03  0.10000000000E+00 0.  1.
         21    1    1    2  504  502 -0.32194452591E+02 -0.30662371556E+02  0.78729588330E+03  0.78855023408E+03  0.00000000000E+00 0.  1.
<mgrwt>
<rscale>  1 0.13266825E+03</rscale>
<asrwt>0</asrwt>
<pdfrwt beam="1">  1       21 0.14052516E+00 0.13266825E+03</pdfrwt>
<pdfrwt beam="2">  1       21 0.54909688E-02 0.13266825E+03</pdfrwt>
<totfact> 0.83804246E+04</totfact>
</mgrwt>
</event>
<event>
 6    1  0.4261782E-002  0.1738847E+03  0.7546771E-02  0.1173856E+00
         21   -1    0    0  503  502  0.00000000000E+00  0.00000000000E+00  0.11425875913E+03  0.11425875913E+03  0.00000000000E+00 0. -1.
         21   -1    0    0  504  503 -0.00000000000E+00 -0.00000000000E+00 -0.71709047456E+03  0.71709047456E+03  0.00000000000E+00 0. -1.
         25    2    1    2    0    0  0.11853956616E+03  0.23642713470E+02 -0.67059767763E+03  0.69277494935E+03  0.12500111423E+03 0.  0.
          5    1    3    3  501    0  0.12105035648E+03  0.27584693411E+02 -0.67501838948E+03  0.68634097958E+03  0.10000000000E+00 0. -1.
         -5    1    3    3    0  501 -0.25107903210E+01 -0.39419799404E+01  0.44207118437E+01  0.64339697770E+01  0.10000000000E+00 0. -1.
         21    1    1    2  504  502 -0.11853956616E+03 -0.23642713470E+02  0.67765962210E+02  0.13857428434E+03  0.00000000000E+00 0. -1.
<mgrwt>
<rscale>  1 0.17388469E+03</rscale>
<asrwt>0</asrwt>
<pdfrwt beam="1">  1       21 0.17578270E-01 0.17388469E+03</pdfrwt>
<pdfrwt beam="2">  1       21 0.11032161E+00 0.17388469E+03</pdfrwt>
<totfact> 0.19252918E+04</totfact>
</mgrwt>
</event>
<event>
 6    1  0.4261782E-002  0.1319029E+03  0.7546771E-02  0.1224659E+00
         21   -1    0    0  504  502  0.00000000000E+00  0.00000000000E+00  0.61914146867E+03  0.61914146867E+03  0.00000000000E+00 0.  1.
         21   -1    0    0  502  503 -0.00000000000E+00 -0.00000000000E+00 -0.12226243031E+02  0.12226243031E+02  0.00000000000E+00 0.  1.
         25    2    1    2    0    0 -0.28005869304E+02 -0.31441784883E+02  0.46014324729E+03  0.47867544543E+03  0.12500183788E+03 0.  0.
          5    1    3    3  501    0 -0.66393975189E+02 -0.45828377812E+02  0.38205963419E+03  0.39048428167E+03  0.10000000000E+00 0. -1.
         -5    1    3    3    0  501  0.38388105886E+02  0.14386592929E+02  0.78083613105E+02  0.88191163759E+02  0.10000000000E+00 0. -1.
         21    1    1    2  504  503  0.28005869304E+02  0.31441784883E+02  0.14677197835E+03  0.15269226628E+03  0.00000000000E+00 0.  1.
<mgrwt>
<rscale>  1 0.13190290E+03</rscale>
<asrwt>0</asrwt>
<pdfrwt beam="1">  1       21 0.95252509E-01 0.13190290E+03</pdfrwt>
<pdfrwt beam="2">  1       21 0.18809610E-02 0.13190290E+03</pdfrwt>
<totfact> 0.12561267E+06</totfact>
</mgrwt>
</event>
<event>
 6    1  0.4261782E-002  0.1259313E+03  0.7546771E-02  0.1233621E+00
         21   -1    0    0  504  502  0.00000000000E+00  0.00000000000E+00  0.23909405617E+02  0.23909405617E+02  0.00000000000E+00 0.  1.
         21   -1    0    0  502  503 -0.00000000000E+00 -0.00000000000E+00 -0.22301073970E+03  0.22301073970E+03  0.00000000000E+00 0.  1.
         25    2    1    2    0    0 -0.69258262478E+01 -0.13637601348E+02 -0.19300340338E+03  0.23045393754E+03  0.12499900948E+03 0.  0.
          5    1    3    3  501    0 -0.16272119225E+02 -0.23853311650E+02 -0.20802777405E+03  0.21002220625E+03  0.10000000000E+00 0. -1.
         -5    1    3    3    0  501  0.93462929773E+01  0.10215710302E+02  0.15024370671E+02  0.20431731289E+02  0.10000000000E+00 0. -1.
         21    1    1    2  504  503  0.69258262478E+01  0.13637601348E+02 -0.60979306993E+01  0.16466207777E+02  0.00000000000E+00 0.  1.
<mgrwt>
<rscale>  1 0.12593134E+03</rscale>
<asrwt>0</asrwt>
<pdfrwt beam="1">  1       21 0.36783701E-02 0.12593134E+03</pdfrwt>
<pdfrwt beam="2">  1       21 0.34309344E-01 0.12593134E+03</pdfrwt>
<totfact> 0.36473646E+06</totfact>
</mgrwt>
</event>
<event>
 6    1  0.4261782E-002  0.2231060E+03  0.7546771E-02  0.1131588E+00
         21   -1    0    0  503  502  0.00000000000E+00  0.00000000000E+00  0.12064948920E+03  0.12064948920E+03  0.00000000000E+00 0.  1.
         21   -1    0    0  504  503 -0.00000000000E+00 -0.00000000000E+00 -0.39802362379E+03  0.39802362379E+03  0.00000000000E+00 0.  1.
         25    2    1    2    0    0  0.17970220471E+03 -0.43059826656E+02 -0.55461931033E+02  0.22989628370E+03  0.12501697651E+03 0.  0.
          5    1    3    3  501    0  0.18149871903E+03 -0.28771256526E+01 -0.54998946901E+02  0.18967065409E+03  0.10000000000E+00 0.  1.
         -5    1    3    3    0  501 -0.17965143201E+01 -0.40182701004E+02 -0.46298413183E+00  0.40225629615E+02  0.10000000000E+00 0.  1.
         21    1    1    2  504  502 -0.17970220471E+03  0.43059826656E+02 -0.22191220355E+03  0.28877682929E+03  0.00000000000E+00 0.  1.
<mgrwt>
<rscale>  1 0.22310597E+03</rscale>
<asrwt>0</asrwt>
<pdfrwt beam="1">  1       21 0.18561460E-01 0.22310597E+03</pdfrwt>
<pdfrwt beam="2">  1       21 0.61234405E-01 0.22310597E+03</pdfrwt>
<totfact> 0.64898145E+04</totfact>
</mgrwt>
</event>
<event>
 6    1  0.4261782E-002  0.1325565E+03  0.7546771E-02  0.1223711E+00
         21   -1    0    0  503  502  0.00000000000E+00  0.00000000000E+00  0.58751188874E+03  0.58751188874E+03  0.00000000000E+00 0.  1.
         21   -1    0    0  504  503 -0.00000000000E+00 -0.00000000000E+00 -0.19105086650E+02  0.19105086650E+02  0.00000000000E+00 0.  1.
         25    2    1    2    0    0 -0.37982407257E+02 -0.22453799161E+02  0.23094879916E+03  0.26628663572E+03  0.12499755267E+03 0.  0.
          5    1    3    3  501    0  0.45737797984E+02 -0.16086335730E+02  0.89822856573E+02  0.10207287556E+03  0.10000000000E+00 0. -1.
         -5    1    3    3    0  501 -0.83720205241E+02 -0.63674634317E+01  0.14112594258E+03  0.16421376016E+03  0.10000000000E+00 0. -1.
         21    1    1    2  504  502  0.37982407257E+02  0.22453799161E+02  0.33745800293E+03  0.34033033967E+03  0.00000000000E+00 0.  1.
<mgrwt>
<rscale>  1 0.13255650E+03</rscale>
<asrwt>0</asrwt>
<pdfrwt beam="1">  1       21 0.90386430E-01 0.13255650E+03</pdfrwt>
<pdfrwt beam="2">  1       21 0.29392446E-02 0.13255650E+03</pdfrwt>
<totfact> 0.68628508E+05</totfact>
</mgrwt>
</event>
<event>
 6    1  0.4261782E-002  0.1668924E+03  0.7546771E-02  0.1181128E+00
         21   -1    0    0  503  502  0.00000000000E+00  0.00000000000E+00  0.43214494826E+02  0.43214494826E+02  0.00000000000E+00 0.  1.
         21   -1    0    0  504  503 -0.00000000000E+00 -0.00000000000E+00 -0.46822079370E+03  0.46822079370E+03  0.00000000000E+00 0.  1.
         25    2    1    2    0    0 -0.66300462285E+02 -0.88499533643E+02 -0.30886630651E+03  0.35107189937E+03  0.12500065791E+03 0.  0.
          5    1    3    3  501    0 -0.42760106252E+02  0.22438035588E+02 -0.13606373356E+03  0.14437881326E+03  0.10000000000E+00 0.  1.
         -5    1    3    3    0  501 -0.23540356032E+02 -0.11093756923E+03 -0.17280257295E+03  0.20669308612E+03  0.10000000000E+00 0.  1.
         21    1    1    2  504  502  0.66300462285E+02  0.88499533643E+02 -0.11613999236E+03  0.16036338915E+03  0.00000000000E+00 0.  1.
<mgrwt>
<rscale>  1 0.16689243E+03</rscale>
<asrwt>0</asrwt>
<pdfrwt beam="1">  1       21 0.66483838E-02 0.16689243E+03</pdfrwt>
<pdfrwt beam="2">  1       21 0.72033969E-01 0.16689243E+03</pdfrwt>
<totfact> 0.28947609E+05</totfact>
</mgrwt>
</event>
<event>
 6    1  0.4261782E-002  0.1265902E+03  0.7546771E-02  0.1232605E+00
         21   -1    0    0  503  502  0.00000000000E+00  0.00000000000E+00  0.14470041115E+03  0.14470041115E+03  0.00000000000E+00 0.  1.
         21   -1    0    0  504  503 -0.00000000000E+00 -0.00000000000E+00 -0.14348364141E+04  0.14348364141E+04  0.00000000000E+00 0. -1.
         25    2    1    2    0    0  0.11838598813E+02 -0.16141533298E+02 -0.14313369747E+04  0.14369240070E+04  0.12499746111E+03 0.  0.
          5    1    3    3  501    0 -0.18829972255E+02 -0.61934382053E+02 -0.99783555609E+03  0.99993311903E+03  0.10000000000E+00 0.  1.
         -5    1    3    3    0  501  0.30668571068E+02  0.45792848755E+02 -0.43350141859E+03  0.43699088797E+03  0.10000000000E+00 0.  1.
         21    1    1    2  504  502 -0.11838598813E+02  0.16141533298E+02  0.14120097172E+03  0.14261281827E+03  0.00000000000E+00 0.  1.
<mgrwt>
<rscale>  1 0.12659015E+03</rscale>
<asrwt>0</asrwt>
<pdfrwt beam="1">  1       21 0.22261602E-01 0.12659015E+03</pdfrwt>
<pdfrwt beam="2">  1       21 0.22074406E+00 0.12659015E+03</pdfrwt>
<totfact> 0.20448542E+03</totfact>
</mgrwt>
</event>
<event>
 6    1  0.4261782E-002  0.1262412E+03  0.7546771E-02  0.1233142E+00
         21   -1    0    0  504  502  0.00000000000E+00  0.00000000000E+00  0.24219527299E+02  0.24219527299E+02  0.00000000000E+00 0. -1.
         21   -1    0    0  502  503 -0.00000000000E+00 -0.00000000000E+00 -0.25528187783E+03  0.25528187783E+03  0.00000000000E+00 0. -1.
         25    2    1    2    0    0 -0.14093829165E+02  0.10285900894E+02 -0.22956840703E+03  0.26198947649E+03  0.12502958253E+03 0.  0.
          5    1    3    3  501    0 -0.54065837057E+01 -0.52456170168E+02 -0.15723693414E+03  0.16584433784E+03  0.10000000000E+00 0. -1.
         -5    1    3    3    0  501 -0.86872454591E+01  0.62742071062E+02 -0.72331472883E+02  0.96145138641E+02  0.10000000000E+00 0. -1.
         21    1    1    2  504  503  0.14093829165E+02 -0.10285900894E+02 -0.14939435072E+01  0.17511928647E+02  0.00000000000E+00 0. -1.
<mgrwt>
<rscale>  1 0.12624117E+03</rscale>
<asrwt>0</asrwt>
<pdfrwt beam="1">  1       21 0.37260813E-02 0.12624117E+03</pdfrwt>
<pdfrwt beam="2">  1       21 0.39274134E-01 0.12624117E+03</pdfrwt>
<totfact> 0.27342930E+06</totfact>
</mgrwt>
</event>
<event>
 6    1  0.4261782E-002  0.1284838E+03  0.7546771E-02  0.1229723E+00
         21   -1    0    0  504  502  0.00000000000E+00  0.00000000000E+00  0.16202948544E+03  0.16202948544E+03  0.00000000000E+00 0. -1.
         21   -1    0    0  502  503 -0.00000000000E+00 -0.00000000000E+00 -0.10873438152E+03  0.10873438152E+03  0.00000000000E+00 0.  1.
         25    2    1    2    0    0  0.10920605541E+02 -0.27643080019E+02 -0.68355210246E+02  0.14553528223E+03  0.12499873643E+03 0.  0.
          5    1    3    3  501    0  0.39787725454E+01  0.44967197205E+02  0.61805766507E+00  0.45147219745E+02  0.10000000000E+00 0.  1.
         -5    1    3    3    0  501  0.69418329952E+01 -0.72610277224E+02 -0.68973267911E+02  0.10038806249E+03  0.10000000000E+00 0.  1.
         21    1    1    2  504  503 -0.10920605541E+02  0.27643080019E+02  0.12165031416E+03  0.12522858473E+03  0.00000000000E+00 0. -1.
<mgrwt>
<rscale>  1 0.12848379E+03</rscale>
<asrwt>0</asrwt>
<pdfrwt beam="1">  1       21 0.24927613E-01 0.12848379E+03</pdfrwt>
<pdfrwt beam="2">  1       21 0.16728366E-01 0.12848379E+03</pdfrwt>
<totfact> 0.49344397E+05</totfact>
</mgrwt>
</event>
<event>
 6    1  0.4261782E-002  0.1259143E+03  0.7546771E-02  0.1233647E+00
         21   -1    0    0  503  502  0.00000000000E+00  0.00000000000E+00  0.28064313045E+03  0.28064313045E+03  0.00000000000E+00 0.  1.
         21   -1    0    0  504  503 -0.00000000000E+00 -0.00000000000E+00 -0.56708519325E+02  0.56708519325E+02  0.00000000000E+00 0.  1.
         25    2    1    2    0    0  0.13607648315E+00 -0.15084828152E+02  0.13790968085E+02  0.12666723823E+03  0.12500731132E+03 0.  0.
          5    1    3    3  501    0  0.48664335652E+02  0.15633909539E+02 -0.25458386229E+02  0.57103205876E+02  0.10000000000E+00 0. -1.
         -5    1    3    3    0  501 -0.48528259169E+02 -0.30718737691E+02  0.39249354314E+02  0.69564032354E+02  0.10000000000E+00 0. -1.
         21    1    1    2  504  502 -0.13607648315E+00  0.15084828152E+02  0.21014364304E+03  0.21068441155E+03  0.00000000000E+00 0.  1.
<mgrwt>
<rscale>  1 0.12591425E+03</rscale>
<asrwt>0</asrwt>
<pdfrwt beam="1">  1       21 0.43175865E-01 0.12591425E+03</pdfrwt>
<pdfrwt beam="2">  1       21 0.87243878E-02 0.12591425E+03</pdfrwt>
<totfact> 0.53631009E+05</totfact>
</mgrwt>
</event>
<event>
 6    1  0.4261782E-002  0.1266707E+03  0.7546771E-02  0.1232481E+00
         21   -1    0    0  503  502  0.00000000000E+00  0.00000000000E+00  0.12489913731E+02  0.12489913731E+02  0.00000000000E+00 0. -1.
         21   -1    0    0  504  503 -0.00000000000E+00 -0.00000000000E+00 -0.47281084379E+03  0.47281084379E+03  0.00000000000E+00 0. -1.
         25    2    1    2    0    0 -0.19531298537E+02  0.61418306725E+01 -0.43307217138E+03  0.45121720495E+03  0.12500506673E+03 0.  0.
          5    1    3    3  501    0 -0.52293237317E+02 -0.34426605932E+02 -0.32794541143E+03  0.33386820266E+03  0.10000000000E+00 0. -1.
         -5    1    3    3    0  501  0.32761938780E+02  0.40568436604E+02 -0.10512675995E+03  0.11734900229E+03  0.10000000000E+00 0. -1.
         21    1    1    2  504  502  0.19531298537E+02 -0.61418306725E+01 -0.27248758672E+02  0.34083552569E+02  0.00000000000E+00 0. -1.
<mgrwt>
<rscale>  1 0.12667068E+03</rscale>
<asrwt>0</asrwt>
<pdfrwt beam="1">  1       21 0.19215253E-02 0.12667068E+03</pdfrwt>
<pdfrwt beam="2">  1       21 0.72740127E-01 0.12667068E+03</pdfrwt>
<totfact> 0.22266639E+06</totfact>
</mgrwt>
</event>
<event>
 6    1  0.4261782E-002  0.1346055E+03  0.7546771E-02  0.1220778E+00
         21   -1    0    0  503  502  0.00000000000E+00  0.00000000000E+00  0.26864466935E+03  0.26864466935E+03  0.00000000000E+00 0.  1.
         21   -1    0    0  504  503 -0.00000000000E+00 -0.00000000000E+00 -0.57428271398E+02  0.57428271398E+02  0.00000000000E+00 0.  1.
         25    2    1    2    0    0  0.47942478920E+02 -0.14043371952E+02  0.29747756525E+02  0.13785348001E+03  0.12499182113E+03 0.  0.
          5    1    3    3  501    0  0.52566508281E+01 -0.57677556570E+02  0.46814712023E+02  0.74471203641E+02  0.10000000000E+00 0.  1.
         -5    1    3    3    0  501  0.42685828091E+02  0.43634184618E+02 -0.17066955498E+02  0.63382276364E+02  0.10000000000E+00 0.  1.
         21    1    1    2  504  502 -0.47942478920E+02  0.14043371952E+02  0.18146864143E+03  0.18821946074E+03  0.00000000000E+00 0.  1.
<mgrwt>
<rscale>  1 0.13460555E+03</rscale>
<asrwt>0</asrwt>
<pdfrwt beam="1">  1       21 0.41329948E-01 0.13460555E+03</pdfrwt>
<pdfrwt beam="2">  1       21 0.88351188E-02 0.13460555E+03</pdfrwt>
<totfact> 0.57269803E+05</totfact>
</mgrwt>
</event>
<event>
 6    1  0.4261782E-002  0.1262629E+03  0.7546771E-02  0.1233109E+00
         21   -1    0    0  503  502  0.00000000000E+00  0.00000000000E+00  0.53697222537E+03  0.53697222537E+03  0.00000000000E+00 0.  1.
         21   -1    0    0  504  503 -0.00000000000E+00 -0.00000000000E+00 -0.98432152980E+01  0.98432152980E+01  0.00000000000E+00 0.  1.
         25    2    1    2    0    0 -0.65407635131E+01  0.16568872035E+02  0.43379948496E+03  0.45180118192E+03  0.12500002290E+03 0.  0.
          5    1    3    3  501    0 -0.68765488681E+00 -0.45380366752E+02  0.75134374754E+02  0.87778327766E+02  0.10000000000E+00 0.  1.
         -5    1    3    3    0  501 -0.58531086263E+01  0.61949238787E+02  0.35866511021E+03  0.36402285416E+03  0.10000000000E+00 0.  1.
         21    1    1    2  504  502  0.65407635131E+01 -0.16568872035E+02  0.93329525109E+02  0.95014258746E+02  0.00000000000E+00 0.  1.
<mgrwt>
<rscale>  1 0.12626288E+03</rscale>
<asrwt>0</asrwt>
<pdfrwt beam="1">  1       21 0.82611089E-01 0.12626288E+03</pdfrwt>
<pdfrwt beam="2">  1       21 0.15143412E-02 0.12626288E+03</pdfrwt>
<totfact> 0.24591055E+06</totfact>
</mgrwt>
</event>
<event>
 6    1  0.4261782E-002  0.1259130E+03  0.7546771E-02  0.1233649E+00
         21   -1    0    0  503  502  0.00000000000E+00  0.00000000000E+00  0.16784936030E+03  0.16784936030E+03  0.00000000000E+00 0. -1.
         21   -1    0    0  504  503 -0.00000000000E+00 -0.00000000000E+00 -0.30200344578E+02  0.30200344578E+02  0.00000000000E+00 0. -1.
         25    2    1    2    0    0  0.11884400410E+02  0.93576968229E+01  0.11329658269E+03  0.16938184034E+03  0.12500114689E+03 0.  0.
          5    1    3    3  501    0 -0.50347791034E+02 -0.23143549673E+02  0.44278060542E+02  0.70930110664E+02  0.10000000000E+00 0.  1.
         -5    1    3    3    0  501  0.62232191444E+02  0.32501246496E+02  0.69018522153E+02  0.98451729674E+02  0.10000000000E+00 0.  1.
         21    1    1    2  504  502 -0.11884400410E+02 -0.93576968229E+01  0.24352433027E+02  0.28667864540E+02  0.00000000000E+00 0. -1.
<mgrwt>
<rscale>  1 0.12591303E+03</rscale>
<asrwt>0</asrwt>
<pdfrwt beam="1">  1       21 0.25822978E-01 0.12591303E+03</pdfrwt>
<pdfrwt beam="2">  1       21 0.46462069E-02 0.12591303E+03</pdfrwt>
<totfact> 0.42754285E+06</totfact>
</mgrwt>
</event>
<event>
 6    1  0.4261782E-002  0.1284728E+03  0.7546771E-02  0.1229740E+00
         21   -1    0    0  503  502  0.00000000000E+00  0.00000000000E+00  0.97343560747E+02  0.97343560747E+02  0.00000000000E+00 0.  1.
         21   -1    0    0  504  503 -0.00000000000E+00 -0.00000000000E+00 -0.73804223012E+02  0.73804223012E+02  0.00000000000E+00 0.  1.
         25    2    1    2    0    0  0.28232496596E+02 -0.90584081053E+01  0.43234451911E+02  0.13555247306E+03  0.12500450591E+03 0.  0.
          5    1    3    3  501    0  0.64064370483E+01  0.40903788029E+02  0.64819262149E+02  0.76913646749E+02  0.10000000000E+00 0.  1.
         -5    1    3    3    0  501  0.21826059548E+02 -0.49962196134E+02 -0.21584810238E+02  0.58638826309E+02  0.10000000000E+00 0.  1.
         21    1    1    2  504  502 -0.28232496596E+02  0.90584081053E+01 -0.19695114177E+02  0.35595310701E+02  0.00000000000E+00 0.  1.
<mgrwt>
<rscale>  1 0.12847278E+03</rscale>
<asrwt>0</asrwt>
<pdfrwt beam="1">  1       21 0.14975932E-01 0.12847278E+03</pdfrwt>
<pdfrwt beam="2">  1       21 0.11354496E-01 0.12847278E+03</pdfrwt>
<totfact> 0.25266632E+06</totfact>
</mgrwt>
</event>
<event>
 6    1  0.4261782E-002  0.1268171E+03  0.7546771E-02  0.1232256E+00
         21   -1    0    0  503  502  0.00000000000E+00  0.00000000000E+00  0.14276775739E+03  0.14276775739E+03  0.00000000000E+00 0. -1.
         21   -1    0    0  504  503 -0.00000000000E+00 -0.00000000000E+00 -0.43968687164E+02  0.43968687164E+02  0.00000000000E+00 0. -1.
         25    2    1    2    0    0 -0.16545732399E+02  0.13610502840E+02  0.55506095126E+02  0.13843231698E+03  0.12499429082E+03 0.  0.
          5    1    3    3  501    0  0.38547387358E+02  0.49819675485E+01 -0.20672919929E+02  0.44023865019E+02  0.10000000000E+00 0. -1.
         -5    1    3    3    0  501 -0.55093119757E+02  0.86285352911E+01  0.76179015056E+02  0.94408451956E+02  0.10000000000E+00 0. -1.
         21    1    1    2  504  502  0.16545732399E+02 -0.13610502840E+02  0.43292975096E+02  0.48304127575E+02  0.00000000000E+00 0. -1.
<mgrwt>
<rscale>  1 0.12681711E+03</rscale>
<asrwt>0</asrwt>
<pdfrwt beam="1">  1       21 0.21964270E-01 0.12681711E+03</pdfrwt>
<pdfrwt beam="2">  1       21 0.67644135E-02 0.12681711E+03</pdfrwt>
<totfact> 0.30740148E+06</totfact>
</mgrwt>
</event>
<event>
 6    1  0.4261782E-002  0.1547357E+03  0.7546771E-02  0.1194772E+00
         21   -1    0    0  503  502  0.00000000000E+00  0.00000000000E+00  0.28977295665E+03  0.28977295665E+03  0.00000000000E+00 0.  1.
         21   -1    0    0  504  503 -0.00000000000E+00 -0.00000000000E+00 -0.15661175403E+03  0.15661175403E+03  0.00000000000E+00 0.  1.
         25    2    1    2    0    0 -0.80036382643E+02  0.43736622412E+02 -0.10790311544E+03  0.18864313443E+03  0.12499774061E+03 0.  0.
          5    1    3    3  501    0 -0.21528707270E+02 -0.24160034070E+02  0.15697034693E+02  0.35966642617E+02  0.10000000000E+00 0. -1.
         -5    1    3    3    0  501 -0.58507675373E+02  0.67896656482E+02 -0.12360015013E+03  0.15267649181E+03  0.10000000000E+00 0. -1.
         21    1    1    2  504  502  0.80036382643E+02 -0.43736622412E+02  0.24106431806E+03  0.25774157625E+03  0.00000000000E+00 0.  1.
<mgrwt>
<rscale>  1 0.15473574E+03</rscale>
<asrwt>0</asrwt>
<pdfrwt beam="1">  1       21 0.44580455E-01 0.15473574E+03</pdfrwt>
<pdfrwt beam="2">  1       21 0.24094116E-01 0.15473574E+03</pdfrwt>
<totfact> 0.79766414E+04</totfact>
</mgrwt>
</event>
<event>
 6    1  0.4261782E-002  0.1268306E+03  0.7546771E-02  0.1232236E+00
         21   -1    0    0  504  502  0.00000000000E+00  0.00000000000E+00  0.40293569582E+03  0.40293569582E+03  0.00000000000E+00 0. -1.
         21   -1    0    0  502  503 -0.00000000000E+00 -0.00000000000E+00 -0.35258831290E+02  0.35258831290E+02  0.00000000000E+00 0. -1.
         25    2    1    2    0    0 -0.30929589152E+01  0.21265109004E+02  0.80512810198E+02  0.15022757526E+03  0.12499696199E+03 0.  0.
          5    1    3    3  501    0  0.60821067054E+01  0.35599772705E+02  0.11022226138E+03  0.11598833020E+03  0.10000000000E+00 0. -1.
         -5    1    3    3    0  501 -0.91750656206E+01 -0.14334663701E+02 -0.29709451185E+02  0.34239245060E+02  0.10000000000E+00 0. -1.
         21    1    1    2  504  503  0.30929589152E+01 -0.21265109004E+02  0.28716405433E+03  0.28796695184E+03  0.00000000000E+00 0. -1.
<mgrwt>
<rscale>  1 0.12683064E+03</rscale>
<asrwt>0</asrwt>
<pdfrwt beam="1">  1       21 0.61990104E-01 0.12683064E+03</pdfrwt>
<pdfrwt beam="2">  1       21 0.54244359E-02 0.12683064E+03</pdfrwt>
<totfact> 0.57041365E+05</totfact>
</mgrwt>
</event>
<event>
 6    1  0.4261782E-002  0.1370474E+03  0.7546771E-02  0.1217358E+00
         21   -1    0    0  503  502  0.00000000000E+00  0.00000000000E+00  0.16888334630E+03  0.16888334630E+03  0.00000000000E+00 0. -1.
         21   -1    0    0  504  503 -0.00000000000E+00 -0.00000000000E+00 -0.23392386119E+03  0.23392386119E+03  0.00000000000E+00 0.  1.
         25    2    1    2    0    0  0.16113829677E+02 -0.53826208871E+02 -0.20806368104E+03  0.24914347617E+03  0.12500024034E+03 0.  0.
          5    1    3    3  501    0 -0.23618367366E+02 -0.13683936125E+02  0.58354341717E+01  0.27913073584E+02  0.10000000000E+00 0. -1.
         -5    1    3    3    0  501  0.39732197044E+02 -0.40142272746E+02 -0.21389911521E+03  0.22123040259E+03  0.10000000000E+00 0. -1.
         21    1    1    2  504  502 -0.16113829677E+02  0.53826208871E+02  0.14302316614E+03  0.15366373131E+03  0.00000000000E+00 0. -1.
<mgrwt>
<rscale>  1 0.13704735E+03</rscale>
<asrwt>0</asrwt>
<pdfrwt beam="1">  1       21 0.25982053E-01 0.13704735E+03</pdfrwt>
<pdfrwt beam="2">  1       21 0.35988286E-01 0.13704735E+03</pdfrwt>
<totfact> 0.10695602E+05</totfact>
</mgrwt>
</event>
<event>
 6    1  0.4261782E-002  0.1264452E+03  0.7546771E-02  0.1232828E+00
         21   -1    0    0  504  502  0.00000000000E+00  0.00000000000E+00  0.86311763934E+02  0.86311763934E+02  0.00000000000E+00 0.  1.
         21   -1    0    0  502  503 -0.00000000000E+00 -0.00000000000E+00 -0.11416716325E+03  0.11416716325E+03  0.00000000000E+00 0.  1.
         25    2    1    2    0    0  0.16517345848E+02 -0.95986759645E+01 -0.76797868901E+02  0.14794015462E+03  0.12499367739E+03 0.  0.
          5    1    3    3  501    0 -0.58251895493E+01 -0.12546793666E+02 -0.10831487675E+03  0.10919467656E+03  0.10000000000E+00 0. -1.
         -5    1    3    3    0  501  0.22342535398E+02  0.29481177020E+01  0.31517007848E+02  0.38745478055E+02  0.10000000000E+00 0. -1.
         21    1    1    2  504  503 -0.16517345848E+02  0.95986759645E+01  0.48942469583E+02  0.52538772568E+02  0.00000000000E+00 0.  1.
<mgrwt>
<rscale>  1 0.12644515E+03</rscale>
<asrwt>0</asrwt>
<pdfrwt beam="1">  1       21 0.13278733E-01 0.12644515E+03</pdfrwt>
<pdfrwt beam="2">  1       21 0.17564179E-01 0.12644515E+03</pdfrwt>
<totfact> 0.14327342E+06</totfact>
</mgrwt>
</event>
<event>
 6    1  0.4261782E-002  0.1617683E+03  0.7546771E-02  0.1186715E+00
         21   -1    0    0  503  502  0.00000000000E+00  0.00000000000E+00  0.42646641530E+02  0.42646641530E+02  0.00000000000E+00 0.  1.
         21   -1    0    0  504  503 -0.00000000000E+00 -0.00000000000E+00 -0.63986604143E+03  0.63986604143E+03  0.00000000000E+00 0. -1.
         25    2    1    2    0    0 -0.32106397992E+02  0.97588789272E+02 -0.54251822296E+03  0.56612277213E+03  0.12495830624E+03 0.  0.
          5    1    3    3  501    0 -0.75819616695E+02  0.88333347290E+02 -0.41419245598E+03  0.43024039223E+03  0.10000000000E+00 0.  1.
         -5    1    3    3    0  501  0.43713218703E+02  0.92554419822E+01 -0.12832576698E+03  0.13588237990E+03  0.10000000000E+00 0.  1.
         21    1    1    2  504  502  0.32106397992E+02 -0.97588789272E+02 -0.54701176939E+02  0.11638991083E+03  0.00000000000E+00 0.  1.
<mgrwt>
<rscale>  1 0.16176826E+03</rscale>
<asrwt>0</asrwt>
<pdfrwt beam="1">  1       21 0.65610220E-02 0.16176826E+03</pdfrwt>
<pdfrwt beam="2">  1       21 0.98440926E-01 0.16176826E+03</pdfrwt>
<totfact> 0.14579529E+05</totfact>
</mgrwt>
</event>
<event>
 6    1  0.4261782E-002  0.1278691E+03  0.7546771E-02  0.1230652E+00
         21   -1    0    0  504  502  0.00000000000E+00  0.00000000000E+00  0.10004545964E+04  0.10004545964E+04  0.00000000000E+00 0.  1.
         21   -1    0    0  502  503 -0.00000000000E+00 -0.00000000000E+00 -0.10108896958E+04  0.10108896958E+04  0.00000000000E+00 0. -1.
         25    2    1    2    0    0 -0.12084794394E+02  0.24077680292E+02 -0.10066632785E+04  0.10147519173E+04  0.12499888130E+03 0.  0.
          5    1    3    3  501    0  0.49330427987E+02 -0.17947084094E+02 -0.35660588563E+03  0.36044882663E+03  0.10000000000E+00 0.  1.
         -5    1    3    3    0  501 -0.61415222381E+02  0.42024764386E+02 -0.65005739288E+03  0.65430309062E+03  0.10000000000E+00 0.  1.
         21    1    1    2  504  503  0.12084794394E+02 -0.24077680292E+02  0.99622817912E+03  0.99659237496E+03  0.00000000000E+00 0.  1.
<mgrwt>
<rscale>  1 0.12786906E+03</rscale>
<asrwt>0</asrwt>
<pdfrwt beam="1">  1       21 0.15391609E+00 0.12786906E+03</pdfrwt>
<pdfrwt beam="2">  1       21 0.15552149E+00 0.12786906E+03</pdfrwt>
<totfact> 0.84923408E+01</totfact>
</mgrwt>
</event>
<event>
 6    1  0.4261782E-002  0.1266146E+03  0.7546771E-02  0.1232567E+00
         21   -1    0    0  503  502  0.00000000000E+00  0.00000000000E+00  0.89600338660E+01  0.89600338660E+01  0.00000000000E+00 0.  1.
         21   -1    0    0  504  503 -0.00000000000E+00 -0.00000000000E+00 -0.61487990794E+03  0.61487990794E+03  0.00000000000E+00 0.  1.
         25    2    1    2    0    0 -0.19976899889E+02 -0.26839920401E+01 -0.48516297636E+03  0.50141237674E+03  0.12499991030E+03 0.  0.
          5    1    3    3  501    0  0.24123833017E+02 -0.48592934395E+01 -0.14255632746E+02  0.28439499242E+02  0.10000000000E+00 0.  1.
         -5    1    3    3    0  501 -0.44100732906E+02  0.21753013994E+01 -0.47090734362E+03  0.47297287750E+03  0.10000000000E+00 0.  1.
         21    1    1    2  504  502  0.19976899889E+02  0.26839920401E+01 -0.12075689771E+03  0.12242756506E+03  0.00000000000E+00 0.  1.
<mgrwt>
<rscale>  1 0.12661460E+03</rscale>
<asrwt>0</asrwt>
<pdfrwt beam="1">  1       21 0.13784667E-02 0.12661460E+03</pdfrwt>
<pdfrwt beam="2">  1       21 0.94596915E-01 0.12661460E+03</pdfrwt>
<totfact> 0.20985008E+06</totfact>
</mgrwt>
</event>
<event>
 6    1  0.4261782E-002  0.1298980E+03  0.7546771E-02  0.1227607E+00
         21   -1    0    0  504  502  0.00000000000E+00  0.00000000000E+00  0.10044211021E+04  0.10044211021E+04  0.00000000000E+00 0. -1.
         21   -1    0    0  502  503 -0.00000000000E+00 -0.00000000000E+00 -0.71398193013E+01  0.71398193013E+01  0.00000000000E+00 0. -1.
         25    2    1    2    0    0  0.35259188029E+02 -0.20749623773E+01  0.67795668150E+03  0.69028889211E+03  0.12500390703E+03 0.  0.
          5    1    3    3  501    0 -0.46752941641E+02 -0.88601663188E+01  0.25431942799E+03  0.25873291548E+03  0.10000000000E+00 0. -1.
         -5    1    3    3    0  501  0.82012129670E+02  0.67852039415E+01  0.42363725351E+03  0.43155597663E+03  0.10000000000E+00 0. -1.
         21    1    1    2  504  503 -0.35259188029E+02  0.20749623773E+01  0.31932460126E+03  0.32127202925E+03  0.00000000000E+00 0. -1.
<mgrwt>
<rscale>  1 0.12989801E+03</rscale>
<asrwt>0</asrwt>
<pdfrwt beam="1">  1       21 0.15452621E+00 0.12989801E+03</pdfrwt>
<pdfrwt beam="2">  1       21 0.10984345E-02 0.12989801E+03</pdfrwt>
<totfact> 0.90408830E+05</totfact>
</mgrwt>
</event>
<event>
 6    1  0.4261782E-002  0.1260533E+03  0.7546771E-02  0.1233432E+00
         21   -1    0    0  504  502  0.00000000000E+00  0.00000000000E+00  0.83593628256E+03  0.83593628256E+03  0.00000000000E+00 0.  1.
         21   -1    0    0  502  503 -0.00000000000E+00 -0.00000000000E+00 -0.27276857937E+02  0.27276857937E+02  0.00000000000E+00 0.  1.
         25    2    1    2    0    0  0.52229133250E+00  0.16236301202E+02  0.11896240366E+03  0.17332483723E+03  0.12500222178E+03 0.  0.
          5    1    3    3  501    0 -0.37943656314E+02 -0.20798948987E+02  0.37707164611E+00  0.43272040817E+02  0.10000000000E+00 0.  1.
         -5    1    3    3    0  501  0.38465947647E+02  0.37035250189E+02  0.11858533202E+03  0.13005279641E+03  0.10000000000E+00 0.  1.
         21    1    1    2  504  503 -0.52229133250E+00 -0.16236301202E+02  0.68969702096E+03  0.68988830327E+03  0.00000000000E+00 0.  1.
<mgrwt>
<rscale>  1 0.12605334E+03</rscale>
<asrwt>0</asrwt>
<pdfrwt beam="1">  1       21 0.12860556E+00 0.12605334E+03</pdfrwt>
<pdfrwt beam="2">  1       21 0.41964403E-02 0.12605334E+03</pdfrwt>
<totfact> 0.16482155E+05</totfact>
</mgrwt>
</event>
<event>
 6    1  0.4261782E-002  0.1418162E+03  0.7546771E-02  0.1210906E+00
         21   -1    0    0  504  502  0.00000000000E+00  0.00000000000E+00  0.15267520226E+03  0.15267520226E+03  0.00000000000E+00 0.  1.
         21   -1    0    0  502  503 -0.00000000000E+00 -0.00000000000E+00 -0.34365383123E+03  0.34365383123E+03  0.00000000000E+00 0.  1.
         25    2    1    2    0    0  0.24903489652E+02 -0.62182252920E+02 -0.32052103463E+03  0.35049333402E+03  0.12500010871E+03 0.  0.
          5    1    3    3  501    0 -0.18320036421E+02 -0.88042568890E+02 -0.17992284137E+03  0.20114511309E+03  0.10000000000E+00 0. -1.
         -5    1    3    3    0  501  0.43223526074E+02  0.25860315970E+02 -0.14059819326E+03  0.14934822093E+03  0.10000000000E+00 0. -1.
         21    1    1    2  504  503 -0.24903489652E+02  0.62182252920E+02  0.12954240566E+03  0.14583569946E+03  0.00000000000E+00 0.  1.
<mgrwt>
<rscale>  1 0.14181623E+03</rscale>
<asrwt>0</asrwt>
<pdfrwt beam="1">  1       21 0.23488493E-01 0.14181623E+03</pdfrwt>
<pdfrwt beam="2">  1       21 0.52869820E-01 0.14181623E+03</pdfrwt>
<totfact> 0.59209063E+04</totfact>
</mgrwt>
</event>
<event>
 6    1  0.4261782E-002  0.1427329E+03  0.7546771E-02  0.1209698E+00
         21   -1    0    0  503  502  0.00000000000E+00  0.00000000000E+00  0.97812238011E+02  0.97812238011E+02  0.00000000000E+00 0.  1.
         21   -1    0    0  504  503 -0.00000000000E+00 -0.00000000000E+00 -0.26179312561E+03  0.26179312561E+03  0.00000000000E+00 0.  1.
         25    2    1    2    0    0 -0.49016893112E+02 -0.48448282829E+02 -0.22572941971E+03  0.26707011014E+03  0.12499112322E+03 0.  0.
          5    1    3    3  501    0 -0.23598953224E+01 -0.81567306985E+02 -0.10101495081E+03  0.12985694037E+03  0.10000000000E+00 0. -1.
         -5    1    3    3    0  501 -0.46656997790E+02  0.33119024156E+02 -0.12471446890E+03  0.13721316977E+03  0.10000000000E+00 0. -1.
         21    1    1    2  504  502  0.49016893112E+02  0.48448282829E+02  0.61748532114E+02  0.92535253486E+02  0.00000000000E+00 0.  1.
<mgrwt>
<rscale>  1 0.14273287E+03</rscale>
<asrwt>0</asrwt>
<pdfrwt beam="1">  1       21 0.15048037E-01 0.14273287E+03</pdfrwt>
<pdfrwt beam="2">  1       21 0.40275865E-01 0.14273287E+03</pdfrwt>
<totfact> 0.23464424E+05</totfact>
</mgrwt>
</event>
<event>
 6    1  0.4261782E-002  0.1268529E+03  0.7546771E-02  0.1232202E+00
         21   -1    0    0  504  502  0.00000000000E+00  0.00000000000E+00  0.34113915781E+02  0.34113915781E+02  0.00000000000E+00 0. -1.
         21   -1    0    0  502  503 -0.00000000000E+00 -0.00000000000E+00 -0.23576988427E+03  0.23576988427E+03  0.00000000000E+00 0. -1.
         25    2    1    2    0    0  0.11518401209E+02 -0.18264527280E+02 -0.21112667678E+03  0.24630497823E+03  0.12500160851E+03 0.  0.
          5    1    3    3  501    0 -0.32099398631E+02 -0.51104058595E+01 -0.23205012836E+01  0.32586536587E+02  0.10000000000E+00 0.  1.
         -5    1    3    3    0  501  0.43617799840E+02 -0.13154121421E+02 -0.20880617550E+03  0.21371844164E+03  0.10000000000E+00 0.  1.
         21    1    1    2  504  503 -0.11518401209E+02  0.18264527280E+02  0.94707082860E+01  0.23578821824E+02  0.00000000000E+00 0. -1.
<mgrwt>
<rscale>  1 0.12685294E+03</rscale>
<asrwt>0</asrwt>
<pdfrwt beam="1">  1       21 0.52482948E-02 0.12685294E+03</pdfrwt>
<pdfrwt beam="2">  1       21 0.36272289E-01 0.12685294E+03</pdfrwt>
<totfact> 0.18076340E+06</totfact>
</mgrwt>
</event>
<event>
 6    1  0.4261782E-002  0.1259971E+03  0.7546771E-02  0.1233519E+00
         21   -1    0    0  504  502  0.00000000000E+00  0.00000000000E+00  0.21125403921E+02  0.21125403921E+02  0.00000000000E+00 0.  1.
         21   -1    0    0  502  503 -0.00000000000E+00 -0.00000000000E+00 -0.10160693364E+04  0.10160693364E+04  0.00000000000E+00 0.  1.
         25    2    1    2    0    0  0.96682604609E+01 -0.12547807449E+02 -0.10085032087E+04  0.10163434405E+04  0.12499737675E+03 0.  0.
          5    1    3    3  501    0  0.29921034670E+02 -0.23588632600E+02 -0.97455768998E+03  0.97530220598E+03  0.10000000000E+00 0.  1.
         -5    1    3    3    0  501 -0.20252774209E+02  0.11040825151E+02 -0.33945518762E+02  0.41041234475E+02  0.10000000000E+00 0.  1.
         21    1    1    2  504  503 -0.96682604609E+01  0.12547807449E+02  0.13559276276E+02  0.20851299846E+02  0.00000000000E+00 0.  1.
<mgrwt>
<rscale>  1 0.12599709E+03</rscale>
<asrwt>0</asrwt>
<pdfrwt beam="1">  1       21 0.32500629E-02 0.12599709E+03</pdfrwt>
<pdfrwt beam="2">  1       21 0.15631832E+00 0.12599709E+03</pdfrwt>
<totfact> 0.15302579E+05</totfact>
</mgrwt>
</event>
<event>
 6    1  0.4261782E-002  0.2041631E+03  0.7546771E-02  0.1146273E+00
         21   -1    0    0  504  502  0.00000000000E+00  0.00000000000E+00  0.21078000087E+04  0.21078000087E+04  0.00000000000E+00 0. -1.
         21   -1    0    0  502  503 -0.00000000000E+00 -0.00000000000E+00 -0.38661956065E+02  0.38661956065E+02  0.00000000000E+00 0. -1.
         25    2    1    2    0    0  0.88645329264E+02  0.13490866547E+03  0.26212564524E+03  0.33225354706E+03  0.12499689283E+03 0.  0.
          5    1    3    3  501    0  0.13905455958E+02 -0.24418263331E+02  0.33023954605E+02  0.43361329168E+02  0.10000000000E+00 0.  1.
         -5    1    3    3    0  501  0.74739873306E+02  0.15932692880E+03  0.22910169064E+03  0.28889221789E+03  0.10000000000E+00 0.  1.
         21    1    1    2  504  503 -0.88645329264E+02 -0.13490866547E+03  0.18070124074E+04  0.18142084177E+04  0.00000000000E+00 0. -1.
<mgrwt>
<rscale>  1 0.20416309E+03</rscale>
<asrwt>0</asrwt>
<pdfrwt beam="1">  1       21 0.32427683E+00 0.20416309E+03</pdfrwt>
<pdfrwt beam="2">  1       21 0.59479949E-02 0.20416309E+03</pdfrwt>
<totfact> 0.48806557E+03</totfact>
</mgrwt>
</event>
<event>
 6    1  0.4261782E-002  0.1269802E+03  0.7546771E-02  0.1232007E+00
         21   -1    0    0  503  502  0.00000000000E+00  0.00000000000E+00  0.33823631947E+03  0.33823631947E+03  0.00000000000E+00 0. -1.
         21   -1    0    0  504  503 -0.00000000000E+00 -0.00000000000E+00 -0.17121447617E+02  0.17121447617E+02  0.00000000000E+00 0. -1.
         25    2    1    2    0    0 -0.17916939210E+02 -0.13336467586E+02  0.24386661409E+03  0.27494525932E+03  0.12500036830E+03 0.  0.
          5    1    3    3  501    0  0.26787052551E+02  0.33079670167E+02  0.31327190743E+02  0.52850862269E+02  0.10000000000E+00 0. -1.
         -5    1    3    3    0  501 -0.44703991762E+02 -0.46416137754E+02  0.21253942335E+03  0.22209439705E+03  0.10000000000E+00 0. -1.
         21    1    1    2  504  502  0.17916939210E+02  0.13336467586E+02  0.77248257759E+02  0.80412507766E+02  0.00000000000E+00 0. -1.
<mgrwt>
<rscale>  1 0.12698020E+03</rscale>
<asrwt>0</asrwt>
<pdfrwt beam="1">  1       21 0.52036352E-01 0.12698020E+03</pdfrwt>
<pdfrwt beam="2">  1       21 0.26340691E-02 0.12698020E+03</pdfrwt>
<totfact> 0.27284326E+06</totfact>
</mgrwt>
</event>
<event>
 6    1  0.4261782E-002  0.1309366E+03  0.7546771E-02  0.1226073E+00
         21   -1    0    0  504  502  0.00000000000E+00  0.00000000000E+00  0.11769846769E+03  0.11769846769E+03  0.00000000000E+00 0.  1.
         21   -1    0    0  502  503 -0.00000000000E+00 -0.00000000000E+00 -0.63251479750E+02  0.63251479750E+02  0.00000000000E+00 0.  1.
         25    2    1    2    0    0  0.10876779324E+01  0.38956720011E+02  0.28129151599E+02  0.13392402281E+03  0.12500234254E+03 0.  0.
          5    1    3    3  501    0  0.68429548404E+01 -0.37847161396E+02 -0.19750170383E+02  0.43235551192E+02  0.10000000000E+00 0. -1.
         -5    1    3    3    0  501 -0.57552769080E+01  0.76803881407E+02  0.47879321982E+02  0.90688471621E+02  0.10000000000E+00 0. -1.
         21    1    1    2  504  503 -0.10876779324E+01 -0.38956720011E+02  0.26317836337E+02  0.47025924624E+02  0.00000000000E+00 0.  1.
<mgrwt>
<rscale>  1 0.13093661E+03</rscale>
<asrwt>0</asrwt>
<pdfrwt beam="1">  1       21 0.18107457E-01 0.13093661E+03</pdfrwt>
<pdfrwt beam="2">  1       21 0.97309969E-02 0.13093661E+03</pdfrwt>
<totfact> 0.23476654E+06</totfact>
</mgrwt>
</event>
<event>
 6    1  0.4261782E-002  0.1508931E+03  0.7546771E-02  0.1199380E+00
         21   -1    0    0  503  502  0.00000000000E+00  0.00000000000E+00  0.14611993341E+04  0.14611993341E+04  0.00000000000E+00 0.  1.
         21   -1    0    0  504  503 -0.00000000000E+00 -0.00000000000E+00 -0.39612015315E+03  0.39612015315E+03  0.00000000000E+00 0. -1.
         25    2    1    2    0    0 -0.76775011623E+02  0.35351986936E+02 -0.38047090045E+03  0.40930042550E+03  0.12499826732E+03 0.  0.
          5    1    3    3  501    0 -0.73236756357E+01 -0.31216785956E+02 -0.23932575557E+02  0.40011274949E+02  0.10000000000E+00 0. -1.
         -5    1    3    3    0  501 -0.69451335988E+02  0.66568772892E+02 -0.35653832489E+03  0.36928915055E+03  0.10000000000E+00 0. -1.
         21    1    1    2  504  502  0.76775011623E+02 -0.35351986936E+02  0.14455500814E+04  0.14480190617E+04  0.00000000000E+00 0.  1.
<mgrwt>
<rscale>  1 0.15089312E+03</rscale>
<asrwt>0</asrwt>
<pdfrwt beam="1">  1       21 0.22479990E+00 0.15089312E+03</pdfrwt>
<pdfrwt beam="2">  1       21 0.60941563E-01 0.15089312E+03</pdfrwt>
<totfact> 0.25106531E+02</totfact>
</mgrwt>
</event>
<event>
 6    1  0.4261782E-002  0.1274505E+03  0.7546771E-02  0.1231289E+00
         21   -1    0    0  503  502  0.00000000000E+00  0.00000000000E+00  0.67388510191E+03  0.67388510191E+03  0.00000000000E+00 0. -1.
         21   -1    0    0  504  503 -0.00000000000E+00 -0.00000000000E+00 -0.11361018021E+03  0.11361018021E+03  0.00000000000E+00 0. -1.
         25    2    1    2    0    0  0.24870429973E+02 -0.46386310724E+00 -0.77547092430E+02  0.14918840047E+03  0.12499949534E+03 0.  0.
          5    1    3    3  501    0  0.75529640080E+02  0.80392920689E+01 -0.49502430110E+02  0.90663428869E+02  0.10000000000E+00 0. -1.
         -5    1    3    3    0  501 -0.50659210107E+02 -0.85031551762E+01 -0.28044662320E+02  0.58524971604E+02  0.10000000000E+00 0. -1.
         21    1    1    2  504  502 -0.24870429973E+02  0.46386310724E+00  0.63782201413E+03  0.63830688165E+03  0.00000000000E+00 0. -1.
<mgrwt>
<rscale>  1 0.12745049E+03</rscale>
<asrwt>0</asrwt>
<pdfrwt beam="1">  1       21 0.10367463E+00 0.12745049E+03</pdfrwt>
<pdfrwt beam="2">  1       21 0.17478490E-01 0.12745049E+03</pdfrwt>
<totfact> 0.23307109E+04</totfact>
</mgrwt>
</event>
<event>
 6    1  0.4261782E-002  0.1370635E+03  0.7546771E-02  0.1217336E+00
         21   -1    0    0  504  502  0.00000000000E+00  0.00000000000E+00  0.38544369711E+03  0.38544369711E+03  0.00000000000E+00 0.  1.
         21   -1    0    0  502  503 -0.00000000000E+00 -0.00000000000E+00 -0.18961734405E+03  0.18961734405E+03  0.00000000000E+00 0.  1.
         25    2    1    2    0    0 -0.49029586648E+02 -0.27541565703E+02 -0.16236480061E+03  0.21248230381E+03  0.12499585091E+03 0.  0.
          5    1    3    3  501    0 -0.88696688835E+02 -0.37240135101E+02 -0.11601355341E+03  0.15070860907E+03  0.10000000000E+00 0. -1.
         -5    1    3    3    0  501  0.39667102187E+02  0.96985693987E+01 -0.46351247205E+02  0.61773694739E+02  0.10000000000E+00 0. -1.
         21    1    1    2  504  503  0.49029586648E+02  0.27541565703E+02  0.35819115368E+03  0.36257873735E+03  0.00000000000E+00 0.  1.
<mgrwt>
<rscale>  1 0.13706349E+03</rscale>
<asrwt>0</asrwt>
<pdfrwt beam="1">  1       21 0.59299030E-01 0.13706349E+03</pdfrwt>
<pdfrwt beam="2">  1       21 0.29171899E-01 0.13706349E+03</pdfrwt>
<totfact> 0.30869631E+04</totfact>
</mgrwt>
</event>
<event>
 6    1  0.4261782E-002  0.1276239E+03  0.7546771E-02  0.1231025E+00
         21   -1    0    0  503  502  0.00000000000E+00  0.00000000000E+00  0.16310135828E+02  0.16310135828E+02  0.00000000000E+00 0. -1.
         21   -1    0    0  504  503 -0.00000000000E+00 -0.00000000000E+00 -0.46678900136E+03  0.46678900136E+03  0.00000000000E+00 0. -1.
         25    2    1    2    0    0 -0.13812020843E+02 -0.21689901867E+02 -0.43442821797E+03  0.45278664719E+03  0.12500658999E+03 0.  0.
          5    1    3    3  501    0 -0.55676997022E+02  0.28183346584E+02 -0.22176541507E+03  0.23037825059E+03  0.10000000000E+00 0.  1.
         -5    1    3    3    0  501  0.41864976179E+02 -0.49873248451E+02 -0.21266280290E+03  0.22240839660E+03  0.10000000000E+00 0.  1.
         21    1    1    2  504  502  0.13812020843E+02  0.21689901867E+02 -0.16050647560E+02  0.30312489997E+02  0.00000000000E+00 0. -1.
<mgrwt>
<rscale>  1 0.12762394E+03</rscale>
<asrwt>0</asrwt>
<pdfrwt beam="1">  1       21 0.25092518E-02 0.12762394E+03</pdfrwt>
<pdfrwt beam="2">  1       21 0.71813690E-01 0.12762394E+03</pdfrwt>
<totfact> 0.14869215E+06</totfact>
</mgrwt>
</event>
<event>
 6    1  0.4261782E-002  0.1260316E+03  0.7546771E-02  0.1233466E+00
         21   -1    0    0  504  502  0.00000000000E+00  0.00000000000E+00  0.36866362064E+02  0.36866362064E+02  0.00000000000E+00 0. -1.
         21   -1    0    0  502  503 -0.00000000000E+00 -0.00000000000E+00 -0.16955481367E+03  0.16955481367E+03  0.00000000000E+00 0. -1.
         25    2    1    2    0    0  0.14634191377E+02  0.66417939895E+01 -0.14033746877E+03  0.18862284862E+03  0.12500280355E+03 0.  0.
          5    1    3    3  501    0 -0.41263976801E+02  0.38146779693E+01 -0.12336070320E+03  0.13013508614E+03  0.10000000000E+00 0. -1.
         -5    1    3    3    0  501  0.55898168178E+02  0.28271160202E+01 -0.16976765569E+02  0.58487762479E+02  0.10000000000E+00 0. -1.
         21    1    1    2  504  503 -0.14634191377E+02 -0.66417939895E+01  0.76490171646E+01  0.17798327119E+02  0.00000000000E+00 0. -1.
<mgrwt>
<rscale>  1 0.12603164E+03</rscale>
<asrwt>0</asrwt>
<pdfrwt beam="1">  1       21 0.56717480E-02 0.12603164E+03</pdfrwt>
<pdfrwt beam="2">  1       21 0.26085356E-01 0.12603164E+03</pdfrwt>
<totfact> 0.29997273E+06</totfact>
</mgrwt>
</event>
<event>
 6    1  0.4261782E-002  0.1264349E+03  0.7546771E-02  0.1232844E+00
         21   -1    0    0  503  502  0.00000000000E+00  0.00000000000E+00  0.13396637632E+04  0.13396637632E+04  0.00000000000E+00 0.  1.
         21   -1    0    0  504  503 -0.00000000000E+00 -0.00000000000E+00 -0.66774609678E+01  0.66774609678E+01  0.00000000000E+00 0.  1.
         25    2    1    2    0    0 -0.23219672035E+01 -0.18843677648E+02  0.60321900004E+03  0.61632698384E+03  0.12500125316E+03 0.  0.
          5    1    3    3  501    0  0.44426599848E+02  0.28742786497E+02  0.17127758563E+03  0.17926486519E+03  0.10000000000E+00 0.  1.
         -5    1    3    3    0  501 -0.46748567051E+02 -0.47586464145E+02  0.43194141440E+03  0.43706211866E+03  0.10000000000E+00 0.  1.
         21    1    1    2  504  502  0.23219672035E+01  0.18843677648E+02  0.72976730220E+03  0.73001424032E+03  0.00000000000E+00 0.  1.
<mgrwt>
<rscale>  1 0.12643492E+03</rscale>
<asrwt>0</asrwt>
<pdfrwt beam="1">  1       21 0.20610190E+00 0.12643492E+03</pdfrwt>
<pdfrwt beam="2">  1       21 0.10273028E-02 0.12643492E+03</pdfrwt>
<totfact> 0.45400256E+05</totfact>
</mgrwt>
</event>
<event>
 6    1  0.4261782E-002  0.1280103E+03  0.7546771E-02  0.1230438E+00
         21   -1    0    0  503  502  0.00000000000E+00  0.00000000000E+00  0.14904452968E+02  0.14904452968E+02  0.00000000000E+00 0. -1.
         21   -1    0    0  504  503 -0.00000000000E+00 -0.00000000000E+00 -0.48355092507E+03  0.48355092507E+03  0.00000000000E+00 0. -1.
         25    2    1    2    0    0  0.27316964155E+02 -0.37074799918E+01 -0.44181506945E+03  0.45998609020E+03  0.12500674240E+03 0.  0.
          5    1    3    3  501    0 -0.67410948798E+01 -0.93317312336E+01  0.44834781166E+01  0.12354559645E+02  0.10000000000E+00 0. -1.
         -5    1    3    3    0  501  0.34058059035E+02  0.56242512418E+01 -0.44629854757E+03  0.44763153055E+03  0.10000000000E+00 0. -1.
         21    1    1    2  504  502 -0.27316964155E+02  0.37074799918E+01 -0.26831402657E+02  0.38469287842E+02  0.00000000000E+00 0. -1.
<mgrwt>
<rscale>  1 0.12801034E+03</rscale>
<asrwt>0</asrwt>
<pdfrwt beam="1">  1       21 0.22929926E-02 0.12801034E+03</pdfrwt>
<pdfrwt beam="2">  1       21 0.74392457E-01 0.12801034E+03</pdfrwt>
<totfact> 0.15930894E+06</totfact>
</mgrwt>
</event>
<event>
 6    1  0.4261782E-002  0.1376972E+03  0.7546771E-02  0.1216462E+00
         21   -1    0    0  503  502  0.00000000000E+00  0.00000000000E+00  0.56914790813E+03  0.56914790813E+03  0.00000000000E+00 0.  1.
         21   -1    0    0  504  503 -0.00000000000E+00 -0.00000000000E+00 -0.36797313937E+02  0.36797313937E+02  0.00000000000E+00 0.  1.
         25    2    1    2    0    0  0.24712563354E+01 -0.57706863983E+02  0.10105693875E+03  0.17080110056E+03  0.12499728726E+03 0.  0.
          5    1    3    3  501    0 -0.13659264169E+02  0.37886934657E+02  0.36283322774E+02  0.54207793045E+02  0.10000000000E+00 0. -1.
         -5    1    3    3    0  501  0.16130520504E+02 -0.95593798639E+02  0.64773615972E+02  0.11659330751E+03  0.10000000000E+00 0. -1.
         21    1    1    2  504  502 -0.24712563354E+01  0.57706863983E+02  0.43129365544E+03  0.43514412151E+03  0.00000000000E+00 0.  1.
<mgrwt>
<rscale>  1 0.13769717E+03</rscale>
<asrwt>0</asrwt>
<pdfrwt beam="1">  1       21 0.87561210E-01 0.13769717E+03</pdfrwt>
<pdfrwt beam="2">  1       21 0.56611256E-02 0.13769717E+03</pdfrwt>
<totfact> 0.24750675E+05</totfact>
</mgrwt>
</event>
<event>
 6    1  0.4261782E-002  0.1325452E+03  0.7546771E-02  0.1223727E+00
         21   -1    0    0  503  502  0.00000000000E+00  0.00000000000E+00  0.10412500340E+03  0.10412500340E+03  0.00000000000E+00 0. -1.
         21   -1    0    0  504  503 -0.00000000000E+00 -0.00000000000E+00 -0.12248999782E+03  0.12248999782E+03  0.00000000000E+00 0. -1.
         25    2    1    2    0    0  0.35489605199E+02 -0.26330870328E+02 -0.76926365459E+02  0.15325110691E+03  0.12496163114E+03 0.  0.
          5    1    3    3  501    0 -0.36165797188E+02 -0.70890255229E+01  0.10754901284E+02  0.38391367138E+02  0.10000000000E+00 0.  1.
         -5    1    3    3    0  501  0.71655402386E+02 -0.19241844806E+02 -0.87681266743E+02  0.11485973977E+03  0.10000000000E+00 0.  1.
         21    1    1    2  504  502 -0.35489605199E+02  0.26330870328E+02  0.58561371043E+02  0.73363894307E+02  0.00000000000E+00 0. -1.
<mgrwt>
<rscale>  1 0.13254522E+03</rscale>
<asrwt>0</asrwt>
<pdfrwt beam="1">  1       21 0.16019231E-01 0.13254522E+03</pdfrwt>
<pdfrwt beam="2">  1       21 0.18844615E-01 0.13254522E+03</pdfrwt>
<totfact> 0.89920926E+05</totfact>
</mgrwt>
</event>
<event>
 6    1  0.4261782E-002  0.1547681E+03  0.7546771E-02  0.1194733E+00
         21   -1    0    0  504  502  0.00000000000E+00  0.00000000000E+00  0.16871283879E+03  0.16871283879E+03  0.00000000000E+00 0. -1.
         21   -1    0    0  502  503 -0.00000000000E+00 -0.00000000000E+00 -0.37686001218E+03  0.37686001218E+03  0.00000000000E+00 0. -1.
         25    2    1    2    0    0  0.37796936883E+02 -0.83066087505E+02 -0.34669346237E+03  0.37967029669E+03  0.12499837601E+03 0.  0.
          5    1    3    3  501    0  0.24700542818E+02 -0.11268635888E+03 -0.21435310241E+03  0.24342472102E+03  0.10000000000E+00 0. -1.
         -5    1    3    3    0  501  0.13096394065E+02  0.29620271372E+02 -0.13234035996E+03  0.13624557567E+03  0.10000000000E+00 0. -1.
         21    1    1    2  504  503 -0.37796936883E+02  0.83066087505E+02  0.13854628898E+03  0.16590255429E+03  0.00000000000E+00 0. -1.
<mgrwt>
<rscale>  1 0.15476814E+03</rscale>
<asrwt>0</asrwt>
<pdfrwt beam="1">  1       21 0.25955822E-01 0.15476814E+03</pdfrwt>
<pdfrwt beam="2">  1       21 0.57978463E-01 0.15476814E+03</pdfrwt>
<totfact> 0.40102435E+04</totfact>
</mgrwt>
</event>
<event>
 6    1  0.4261782E-002  0.1472936E+03  0.7546771E-02  0.1203839E+00
         21   -1    0    0  503  502  0.00000000000E+00  0.00000000000E+00  0.54724788747E+03  0.54724788747E+03  0.00000000000E+00 0. -1.
         21   -1    0    0  504  503 -0.00000000000E+00 -0.00000000000E+00 -0.41085134356E+02  0.41085134356E+02  0.00000000000E+00 0. -1.
         25    2    1    2    0    0 -0.69755359329E+02  0.34719122587E+02  0.10807106381E+03  0.18268758462E+03  0.12499668441E+03 0.  0.
          5    1    3    3  501    0 -0.47096627049E+02 -0.29024727213E+02  0.15814885892E+00  0.55322347024E+02  0.10000000000E+00 0. -1.
         -5    1    3    3    0  501 -0.22658732280E+02  0.63743849800E+02  0.10791291495E+03  0.12736523760E+03  0.10000000000E+00 0. -1.
         21    1    1    2  504  502  0.69755359329E+02 -0.34719122587E+02  0.39809168931E+03  0.40564543720E+03  0.00000000000E+00 0. -1.
<mgrwt>
<rscale>  1 0.14729358E+03</rscale>
<asrwt>0</asrwt>
<pdfrwt beam="1">  1       21 0.84191978E-01 0.14729358E+03</pdfrwt>
<pdfrwt beam="2">  1       21 0.63207903E-02 0.14729358E+03</pdfrwt>
<totfact> 0.22380619E+05</totfact>
</mgrwt>
</event>
<event>
 6    1  0.4261782E-002  0.1530573E+03  0.7546771E-02  0.1196766E+00
         21   -1    0    0  503  502  0.00000000000E+00  0.00000000000E+00  0.64765181556E+03  0.64765181556E+03  0.00000000000E+00 0.  1.
         21   -1    0    0  504  503 -0.00000000000E+00 -0.00000000000E+00 -0.28457798633E+02  0.28457798633E+02  0.00000000000E+00 0.  1.
         25    2    1    2    0    0  0.47123357126E+02 -0.74719727516E+02  0.22490258936E+03  0.27204355732E+03  0.12499149535E+03 0.  0.
          5    1    3    3  501    0  0.45154509912E+02 -0.22623879758E+02  0.10749953579E+02  0.51636626562E+02  0.10000000000E+00 0. -1.
         -5    1    3    3    0  501  0.19688472131E+01 -0.52095847759E+02  0.21415263578E+03  0.22040693076E+03  0.10000000000E+00 0. -1.
         21    1    1    2  504  502 -0.47123357126E+02  0.74719727516E+02  0.39429142756E+03  0.40406605687E+03  0.00000000000E+00 0.  1.
<mgrwt>
<rscale>  1 0.15305725E+03</rscale>
<asrwt>0</asrwt>
<pdfrwt beam="1">  1       21 0.99638730E-01 0.15305725E+03</pdfrwt>
<pdfrwt beam="2">  1       21 0.43781234E-02 0.15305725E+03</pdfrwt>
<totfact> 0.28191548E+05</totfact>
</mgrwt>
</event>
<event>
 6    1  0.4261782E-002  0.1291694E+03  0.7546771E-02  0.1228693E+00
         21   -1    0    0  504  502  0.00000000000E+00  0.00000000000E+00  0.43838082246E+02  0.43838082246E+02  0.00000000000E+00 0. -1.
         21   -1    0    0  502  503 -0.00000000000E+00 -0.00000000000E+00 -0.16906108998E+03  0.16906108998E+03  0.00000000000E+00 0. -1.
         25    2    1    2    0    0 -0.28266208869E+02  0.16112906530E+02 -0.12587190473E+03  0.18035650196E+03  0.12500450823E+03 0.  0.
          5    1    3    3  501    0  0.35400902425E+02  0.28307905950E+02 -0.82758102578E+01  0.46076680297E+02  0.10000000000E+00 0. -1.
         -5    1    3    3    0  501 -0.63667111294E+02 -0.12194999420E+02 -0.11759609447E+03  0.13427982166E+03  0.10000000000E+00 0. -1.
         21    1    1    2  504  503  0.28266208869E+02 -0.16112906530E+02  0.64889699493E+00  0.32542670265E+02  0.00000000000E+00 0. -1.
<mgrwt>
<rscale>  1 0.12916939E+03</rscale>
<asrwt>0</asrwt>
<pdfrwt beam="1">  1       21 0.67443201E-02 0.12916939E+03</pdfrwt>
<pdfrwt beam="2">  1       21 0.26009399E-01 0.12916939E+03</pdfrwt>
<totfact> 0.22496365E+06</totfact>
</mgrwt>
</event>
<event>
 6    1  0.4261782E-002  0.1286480E+03  0.7546771E-02  0.1229476E+00
         21   -1    0    0  503  502  0.00000000000E+00  0.00000000000E+00  0.38974934242E+02  0.38974934242E+02  0.00000000000E+00 0. -1.
         21   -1    0    0  504  503 -0.00000000000E+00 -0.00000000000E+00 -0.16913386847E+03  0.16913386847E+03  0.00000000000E+00 0. -1.
         25    2    1    2    0    0  0.30176980333E+02  0.40393230049E+01 -0.12023176541E+03  0.17608514032E+03  0.12499333164E+03 0.  0.
          5    1    3    3  501    0 -0.25301486464E+02  0.13440875043E+02 -0.11619053310E+03  0.11967068280E+03  0.10000000000E+00 0.  1.
         -5    1    3    3    0  501  0.55478466797E+02 -0.94015520379E+01 -0.40412323097E+01  0.56414457522E+02  0.10000000000E+00 0.  1.
         21    1    1    2  504  502 -0.30176980333E+02 -0.40393230049E+01 -0.99271688193E+01  0.32023662394E+02  0.00000000000E+00 0. -1.
<mgrwt>
<rscale>  1 0.12864797E+03</rscale>
<asrwt>0</asrwt>
<pdfrwt beam="1">  1       21 0.59961436E-02 0.12864797E+03</pdfrwt>
<pdfrwt beam="2">  1       21 0.26020596E-01 0.12864797E+03</pdfrwt>
<totfact> 0.27452414E+06</totfact>
</mgrwt>
</event>
<event>
 6    1  0.4261782E-002  0.1348933E+03  0.7546771E-02  0.1220370E+00
         21   -1    0    0  504  502  0.00000000000E+00  0.00000000000E+00  0.23430768197E+02  0.23430768197E+02  0.00000000000E+00 0. -1.
         21   -1    0    0  502  503 -0.00000000000E+00 -0.00000000000E+00 -0.18279021598E+04  0.18279021598E+04  0.00000000000E+00 0. -1.
         25    2    1    2    0    0  0.42660637168E+02  0.27405238385E+02 -0.17946168626E+04  0.17996793822E+04  0.12500087190E+03 0.  0.
          5    1    3    3  501    0  0.69182600866E+02 -0.24129280214E+02 -0.12033620345E+04  0.12055905816E+04  0.10000000000E+00 0. -1.
         -5    1    3    3    0  501 -0.26521963698E+02  0.51534518600E+02 -0.59125482812E+03  0.59408880055E+03  0.10000000000E+00 0. -1.
         21    1    1    2  504  503 -0.42660637168E+02 -0.27405238385E+02 -0.98545289837E+01  0.51653545822E+02  0.00000000000E+00 0. -1.
<mgrwt>
<rscale>  1 0.13489327E+03</rscale>
<asrwt>0</asrwt>
<pdfrwt beam="1">  1       21 0.36047328E-02 0.13489327E+03</pdfrwt>
<pdfrwt beam="2">  1       21 0.28121578E+00 0.13489327E+03</pdfrwt>
<totfact> 0.21718418E+04</totfact>
</mgrwt>
</event>
<event>
 6    1  0.4261782E-002  0.1268505E+03  0.7546771E-02  0.1232205E+00
         21   -1    0    0  504  502  0.00000000000E+00  0.00000000000E+00  0.98476087055E+02  0.98476087055E+02  0.00000000000E+00 0. -1.
         21   -1    0    0  502  503 -0.00000000000E+00 -0.00000000000E+00 -0.66165693975E+02  0.66165693975E+02  0.00000000000E+00 0.  1.
         25    2    1    2    0    0  0.21559702989E+02 -0.12407296693E+01  0.50375037592E+02  0.13648700196E+03  0.12499878835E+03 0.  0.
          5    1    3    3  501    0  0.64074238074E+02 -0.30243947043E+01  0.65163688403E+02  0.91438346630E+02  0.10000000000E+00 0. -1.
         -5    1    3    3    0  501 -0.42514535085E+02  0.17836650349E+01 -0.14788650811E+02  0.45048655333E+02  0.10000000000E+00 0. -1.
         21    1    1    2  504  503 -0.21559702989E+02  0.12407296693E+01 -0.18064644512E+02  0.28154779069E+02  0.00000000000E+00 0.  1.
<mgrwt>
<rscale>  1 0.12685053E+03</rscale>
<asrwt>0</asrwt>
<pdfrwt beam="1">  1       21 0.15150167E-01 0.12685053E+03</pdfrwt>
<pdfrwt beam="2">  1       21 0.10179338E-01 0.12685053E+03</pdfrwt>
<totfact> 0.29969172E+06</totfact>
</mgrwt>
</event>
<event>
 6    1  0.4261782E-002  0.1261789E+03  0.7546771E-02  0.1233238E+00
         21   -1    0    0  504  502  0.00000000000E+00  0.00000000000E+00  0.55868380539E+02  0.55868380539E+02  0.00000000000E+00 0. -1.
         21   -1    0    0  502  503 -0.00000000000E+00 -0.00000000000E+00 -0.76688576041E+03  0.76688576041E+03  0.00000000000E+00 0.  1.
         25    2    1    2    0    0  0.16396583966E+02 -0.53075864435E+01 -0.76022013051E+03  0.77062037924E+03  0.12499641443E+03 0.  0.
          5    1    3    3  501    0  0.40451829894E+01  0.59782538880E+02 -0.35673554270E+03  0.36173273682E+03  0.10000000000E+00 0. -1.
         -5    1    3    3    0  501  0.12351400976E+02 -0.65090125324E+02 -0.40348458782E+03  0.40888764242E+03  0.10000000000E+00 0. -1.
         21    1    1    2  504  503 -0.16396583966E+02  0.53075864435E+01  0.49202750641E+02  0.52133761712E+02  0.00000000000E+00 0. -1.
<mgrwt>
<rscale>  1 0.12617893E+03</rscale>
<asrwt>0</asrwt>
<pdfrwt beam="1">  1       21 0.85951359E-02 0.12617893E+03</pdfrwt>
<pdfrwt beam="2">  1       21 0.11798242E+00 0.12617893E+03</pdfrwt>
<totfact> 0.60387985E+04</totfact>
</mgrwt>
</event>
<event>
 6    1  0.4261782E-002  0.1269361E+03  0.7546771E-02  0.1232074E+00
         21   -1    0    0  504  502  0.00000000000E+00  0.00000000000E+00  0.13011460063E+03  0.13011460063E+03  0.00000000000E+00 0.  1.
         21   -1    0    0  502  503 -0.00000000000E+00 -0.00000000000E+00 -0.42880783123E+02  0.42880783123E+02  0.00000000000E+00 0.  1.
         25    2    1    2    0    0 -0.21994377518E+02  0.27963829431E+01  0.70349659505E+02  0.14512699321E+03  0.12498478774E+03 0.  0.
          5    1    3    3  501    0 -0.45659435714E+02  0.46946182043E+02  0.68836707939E+02  0.95011738422E+02  0.10000000000E+00 0. -1.
         -5    1    3    3    0  501  0.23665058196E+02 -0.44149799099E+02  0.15129515668E+01  0.50115254787E+02  0.10000000000E+00 0. -1.
         21    1    1    2  504  503  0.21994377518E+02 -0.27963829431E+01  0.16884157998E+02  0.27868390540E+02  0.00000000000E+00 0. -1.
<mgrwt>
<rscale>  1 0.12693608E+03</rscale>
<asrwt>0</asrwt>
<pdfrwt beam="1">  1       21 0.20017631E-01 0.12693608E+03</pdfrwt>
<pdfrwt beam="2">  1       21 0.65970436E-02 0.12693608E+03</pdfrwt>
<totfact> 0.38115477E+06</totfact>
</mgrwt>
</event>
<event>
 6    1  0.4261782E-002  0.1275885E+03  0.7546771E-02  0.1231078E+00
         21   -1    0    0  504  502  0.00000000000E+00  0.00000000000E+00  0.18895610685E+03  0.18895610685E+03  0.00000000000E+00 0. -1.
         21   -1    0    0  502  503 -0.00000000000E+00 -0.00000000000E+00 -0.31113453512E+02  0.31113453512E+02  0.00000000000E+00 0. -1.
         25    2    1    2    0    0  0.25567034646E+02 -0.19963027587E-02  0.12722068889E+03  0.18017748131E+03  0.12500059130E+03 0.  0.
          5    1    3    3  501    0  0.70879159056E+02  0.16673051450E+02  0.47377455525E+02  0.86870473264E+02  0.10000000000E+00 0.  1.
         -5    1    3    3    0  501 -0.45312124410E+02 -0.16675047752E+02  0.79843233362E+02  0.93307008042E+02  0.10000000000E+00 0.  1.
         21    1    1    2  504  503 -0.25567034646E+02  0.19963027587E-02  0.30621964456E+02  0.39892079060E+02  0.00000000000E+00 0. -1.
<mgrwt>
<rscale>  1 0.12758848E+03</rscale>
<asrwt>0</asrwt>
<pdfrwt beam="1">  1       21 0.29070170E-01 0.12758848E+03</pdfrwt>
<pdfrwt beam="2">  1       21 0.47866853E-02 0.12758848E+03</pdfrwt>
<totfact> 0.32465223E+06</totfact>
</mgrwt>
</event>
<event>
 6    1  0.4261782E-002  0.1262825E+03  0.7546771E-02  0.1233079E+00
         21   -1    0    0  503  502  0.00000000000E+00  0.00000000000E+00  0.12956726161E+02  0.12956726161E+02  0.00000000000E+00 0. -1.
         21   -1    0    0  504  503 -0.00000000000E+00 -0.00000000000E+00 -0.40380992787E+03  0.40380992787E+03  0.00000000000E+00 0. -1.
         25    2    1    2    0    0 -0.82815120628E+01 -0.15978281273E+02 -0.33122260636E+03  0.35447944173E+03  0.12499348276E+03 0.  0.
          5    1    3    3  501    0 -0.40941858734E+02  0.14280539736E+02 -0.29182240857E+03  0.29502626621E+03  0.10000000000E+00 0.  1.
         -5    1    3    3    0  501  0.32660346671E+02 -0.30258821009E+02 -0.39400197796E+02  0.59453175524E+02  0.10000000000E+00 0.  1.
         21    1    1    2  504  502  0.82815120628E+01  0.15978281273E+02 -0.59630595343E+02  0.62287212294E+02  0.00000000000E+00 0. -1.
<mgrwt>
<rscale>  1 0.12628246E+03</rscale>
<asrwt>0</asrwt>
<pdfrwt beam="1">  1       21 0.19933426E-02 0.12628246E+03</pdfrwt>
<pdfrwt beam="2">  1       21 0.62124600E-01 0.12628246E+03</pdfrwt>
<totfact> 0.29525334E+06</totfact>
</mgrwt>
</event>
<event>
 6    1  0.4261782E-002  0.1266463E+03  0.7546771E-02  0.1232519E+00
         21   -1    0    0  504  502  0.00000000000E+00  0.00000000000E+00  0.37632451883E+02  0.37632451883E+02  0.00000000000E+00 0.  1.
         21   -1    0    0  502  503 -0.00000000000E+00 -0.00000000000E+00 -0.83089397571E+03  0.83089397571E+03  0.00000000000E+00 0.  1.
         25    2    1    2    0    0  0.20341385874E+02  0.10164318688E+01 -0.82288684873E+03  0.83257555849E+03  0.12499795868E+03 0.  0.
          5    1    3    3  501    0 -0.18330881038E+02 -0.45338913947E+02 -0.16973476052E+03  0.17663956875E+03  0.10000000000E+00 0. -1.
         -5    1    3    3    0  501  0.38672266912E+02  0.46355345816E+02 -0.65315208821E+03  0.65593598975E+03  0.10000000000E+00 0. -1.
         21    1    1    2  504  503 -0.20341385874E+02 -0.10164318688E+01  0.29625324906E+02  0.35950869097E+02  0.00000000000E+00 0.  1.
<mgrwt>
<rscale>  1 0.12664634E+03</rscale>
<asrwt>0</asrwt>
<pdfrwt beam="1">  1       21 0.57896081E-02 0.12664634E+03</pdfrwt>
<pdfrwt beam="2">  1       21 0.12782984E+00 0.12664634E+03</pdfrwt>
<totfact> 0.97482500E+04</totfact>
</mgrwt>
</event>
<event>
 6    1  0.4261782E-002  0.1282208E+03  0.7546771E-02  0.1230120E+00
         21   -1    0    0  503  502  0.00000000000E+00  0.00000000000E+00  0.82262036965E+01  0.82262036965E+01  0.00000000000E+00 0.  1.
         21   -1    0    0  504  503 -0.00000000000E+00 -0.00000000000E+00 -0.94078490600E+03  0.94078490600E+03  0.00000000000E+00 0.  1.
         25    2    1    2    0    0 -0.27825008136E+02 -0.63776200302E+01 -0.87915959867E+03  0.88846055740E+03  0.12500262797E+03 0.  0.
          5    1    3    3  501    0 -0.24576370911E+02 -0.44717747786E+02 -0.78617564875E+03  0.78782982659E+03  0.10000000000E+00 0. -1.
         -5    1    3    3    0  501 -0.32486372249E+01  0.38340127756E+02 -0.92983949923E+02  0.10063073081E+03  0.10000000000E+00 0. -1.
         21    1    1    2  504  502  0.27825008136E+02  0.63776200302E+01 -0.53399103628E+02  0.60550552296E+02  0.00000000000E+00 0.  1.
<mgrwt>
<rscale>  1 0.12822076E+03</rscale>
<asrwt>0</asrwt>
<pdfrwt beam="1">  1       21 0.12655708E-02 0.12822076E+03</pdfrwt>
<pdfrwt beam="2">  1       21 0.14473602E+00 0.12822076E+03</pdfrwt>
<totfact> 0.85592815E+05</totfact>
</mgrwt>
</event>
<event>
 6    1  0.4261782E-002  0.1259436E+03  0.7546771E-02  0.1233602E+00
         21   -1    0    0  504  502  0.00000000000E+00  0.00000000000E+00  0.25413941693E+03  0.25413941693E+03  0.00000000000E+00 0. -1.
         21   -1    0    0  502  503 -0.00000000000E+00 -0.00000000000E+00 -0.19761605027E+02  0.19761605027E+02  0.00000000000E+00 0. -1.
         25    2    1    2    0    0  0.64940017717E+01  0.13959751789E+02  0.20194121786E+03  0.23799587801E+03  0.12499894299E+03 0.  0.
          5    1    3    3  501    0  0.56136412668E+02 -0.26314715434E+02  0.97286272145E+02  0.11536199471E+03  0.10000000000E+00 0. -1.
         -5    1    3    3    0  501 -0.49642410896E+02  0.40274467223E+02  0.10465494572E+03  0.12263388330E+03  0.10000000000E+00 0. -1.
         21    1    1    2  504  503 -0.64940017717E+01 -0.13959751789E+02  0.32436594047E+02  0.35905143954E+02  0.00000000000E+00 0. -1.
<mgrwt>
<rscale>  1 0.12594357E+03</rscale>
<asrwt>0</asrwt>
<pdfrwt beam="1">  1       21 0.39098369E-01 0.12594357E+03</pdfrwt>
<pdfrwt beam="2">  1       21 0.30402471E-02 0.12594357E+03</pdfrwt>
<totfact> 0.38567696E+06</totfact>
</mgrwt>
</event>
<event>
 6    1  0.4261782E-002  0.1457409E+03  0.7546771E-02  0.1205806E+00
         21   -1    0    0  503  502  0.00000000000E+00  0.00000000000E+00  0.30040560161E+03  0.30040560161E+03  0.00000000000E+00 0.  1.
         21   -1    0    0  504  503 -0.00000000000E+00 -0.00000000000E+00 -0.11722898406E+03  0.11722898406E+03  0.00000000000E+00 0. -1.
         25    2    1    2    0    0  0.27409668681E+01  0.74888228190E+02 -0.64127740018E+02  0.15922559804E+03  0.12499865763E+03 0.  0.
          5    1    3    3  501    0  0.54034456472E+02  0.16097472957E+02  0.27717766117E+01  0.56449480665E+02  0.10000000000E+00 0. -1.
         -5    1    3    3    0  501 -0.51293489604E+02  0.58790755233E+02 -0.66899516629E+02  0.10277611737E+03  0.10000000000E+00 0. -1.
         21    1    1    2  504  502 -0.27409668681E+01 -0.74888228190E+02  0.24730435757E+03  0.25840898764E+03  0.00000000000E+00 0.  1.
<mgrwt>
<rscale>  1 0.14574095E+03</rscale>
<asrwt>0</asrwt>
<pdfrwt beam="1">  1       21 0.46216246E-01 0.14574095E+03</pdfrwt>
<pdfrwt beam="2">  1       21 0.18035228E-01 0.14574095E+03</pdfrwt>
<totfact> 0.12755358E+05</totfact>
</mgrwt>
</event>
<event>
 6    1  0.4261782E-002  0.1316274E+03  0.7546771E-02  0.1225061E+00
         21   -1    0    0  504  502  0.00000000000E+00  0.00000000000E+00  0.17489135618E+04  0.17489135618E+04  0.00000000000E+00 0. -1.
         21   -1    0    0  502  503 -0.00000000000E+00 -0.00000000000E+00 -0.15158741876E+02  0.15158741876E+02  0.00000000000E+00 0.  1.
         25    2    1    2    0    0 -0.31872007485E+02 -0.26147412749E+02  0.27647424860E+03  0.30620873818E+03  0.12500507646E+03 0.  0.
          5    1    3    3  501    0 -0.73335075895E+02 -0.21567989904E+02  0.23605609066E+03  0.24812436294E+03  0.10000000000E+00 0. -1.
         -5    1    3    3    0  501  0.41463068410E+02 -0.45794228453E+01  0.40418157935E+02  0.58084375235E+02  0.10000000000E+00 0. -1.
         21    1    1    2  504  503  0.31872007485E+02  0.26147412749E+02  0.14572805713E+04  0.14578635655E+04  0.00000000000E+00 0. -1.
<mgrwt>
<rscale>  1 0.13162743E+03</rscale>
<asrwt>0</asrwt>
<pdfrwt beam="1">  1       21 0.26906347E+00 0.13162743E+03</pdfrwt>
<pdfrwt beam="2">  1       21 0.23321155E-02 0.13162743E+03</pdfrwt>
<totfact> 0.52128772E+04</totfact>
</mgrwt>
</event>
<event>
 6    1  0.4261782E-002  0.1397805E+03  0.7546771E-02  0.1213625E+00
         21   -1    0    0  504  502  0.00000000000E+00  0.00000000000E+00  0.10545966740E+04  0.10545966740E+04  0.00000000000E+00 0. -1.
         21   -1    0    0  502  503 -0.00000000000E+00 -0.00000000000E+00 -0.39564111223E+02  0.39564111223E+02  0.00000000000E+00 0. -1.
         25    2    1    2    0    0  0.10261427230E+02 -0.61702034492E+02  0.88331741005E+02  0.16535141241E+03  0.12500462059E+03 0.  0.
          5    1    3    3  501    0  0.22058929345E+02 -0.96418215159E+02  0.81261594470E+02  0.12800986413E+03  0.10000000000E+00 0. -1.
         -5    1    3    3    0  501 -0.11797502115E+02  0.34716180667E+02  0.70701465345E+01  0.37341548284E+02  0.10000000000E+00 0. -1.
         21    1    1    2  504  503 -0.10261427230E+02  0.61702034492E+02  0.92670082174E+03  0.92880937278E+03  0.00000000000E+00 0. -1.
<mgrwt>
<rscale>  1 0.13978052E+03</rscale>
<asrwt>0</asrwt>
<pdfrwt beam="1">  1       21 0.16224562E+00 0.13978052E+03</pdfrwt>
<pdfrwt beam="2">  1       21 0.60867872E-02 0.13978052E+03</pdfrwt>
<totfact> 0.48191418E+04</totfact>
</mgrwt>
</event>
<event>
 6    1  0.4261782E-002  0.1831695E+03  0.7546771E-02  0.1164770E+00
         21   -1    0    0  504  502  0.00000000000E+00  0.00000000000E+00  0.17388731210E+02  0.17388731210E+02  0.00000000000E+00 0. -1.
         21   -1    0    0  502  503 -0.00000000000E+00 -0.00000000000E+00 -0.23466371119E+04  0.23466371119E+04  0.00000000000E+00 0. -1.
         25    2    1    2    0    0 -0.78384327895E+02 -0.10855424171E+03 -0.20031731681E+04  0.20115302112E+04  0.12499169135E+03 0.  0.
          5    1    3    3  501    0  0.16740780222E+02 -0.57475389046E+01 -0.80555394788E+03  0.80574838558E+03  0.10000000000E+00 0.  1.
         -5    1    3    3    0  501 -0.95125108118E+02 -0.10280670280E+03 -0.11976192202E+04  0.12057818256E+04  0.10000000000E+00 0.  1.
         21    1    1    2  504  503  0.78384327895E+02  0.10855424171E+03 -0.32607521258E+03  0.35249563191E+03  0.00000000000E+00 0. -1.
<mgrwt>
<rscale>  1 0.18316945E+03</rscale>
<asrwt>0</asrwt>
<pdfrwt beam="1">  1       21 0.26751896E-02 0.18316945E+03</pdfrwt>
<pdfrwt beam="2">  1       21 0.36102108E+00 0.18316945E+03</pdfrwt>
<totfact> 0.11636677E+04</totfact>
</mgrwt>
</event>
<event>
 6    1  0.4261782E-002  0.1261278E+03  0.7546771E-02  0.1233317E+00
         21   -1    0    0  503  502  0.00000000000E+00  0.00000000000E+00  0.28508719961E+02  0.28508719961E+02  0.00000000000E+00 0.  1.
         21   -1    0    0  504  503 -0.00000000000E+00 -0.00000000000E+00 -0.18418296986E+03  0.18418296986E+03  0.00000000000E+00 0.  1.
         25    2    1    2    0    0  0.59087511957E+01  0.15702340846E+02 -0.14736089234E+03  0.19396767416E+03  0.12500699651E+03 0.  0.
          5    1    3    3  501    0 -0.32050991929E+02  0.56329272180E+02 -0.10760695072E+03  0.12561655476E+03  0.10000000000E+00 0.  1.
         -5    1    3    3    0  501  0.37959743125E+02 -0.40626931334E+02 -0.39753941625E+02  0.68351119394E+02  0.10000000000E+00 0.  1.
         21    1    1    2  504  502 -0.59087511957E+01 -0.15702340846E+02 -0.83133575575E+01  0.18724015665E+02  0.00000000000E+00 0.  1.
<mgrwt>
<rscale>  1 0.12612782E+03</rscale>
<asrwt>0</asrwt>
<pdfrwt beam="1">  1       21 0.43859569E-02 0.12612782E+03</pdfrwt>
<pdfrwt beam="2">  1       21 0.28335842E-01 0.12612782E+03</pdfrwt>
<totfact> 0.39445732E+06</totfact>
</mgrwt>
</event>
<event>
 6    1  0.4261782E-002  0.1537123E+03  0.7546771E-02  0.1195984E+00
         21   -1    0    0  503  502  0.00000000000E+00  0.00000000000E+00  0.88477068237E+02  0.88477068237E+02  0.00000000000E+00 0. -1.
         21   -1    0    0  504  503 -0.00000000000E+00 -0.00000000000E+00 -0.58258260496E+03  0.58258260496E+03  0.00000000000E+00 0.  1.
         25    2    1    2    0    0 -0.93441705361E+01 -0.88972286596E+02 -0.54628104545E+03  0.56749488663E+03  0.12499633763E+03 0.  0.
          5    1    3    3  501    0  0.49424442525E+02 -0.30834019245E+02 -0.12148363016E+03  0.13472859630E+03  0.10000000000E+00 0. -1.
         -5    1    3    3    0  501 -0.58768613061E+02 -0.58138267350E+02 -0.42479741529E+03  0.43276629033E+03  0.10000000000E+00 0. -1.
         21    1    1    2  504  502  0.93441705361E+01  0.88972286596E+02  0.52175508733E+02  0.10356478657E+03  0.00000000000E+00 0. -1.
<mgrwt>
<rscale>  1 0.15371228E+03</rscale>
<asrwt>0</asrwt>
<pdfrwt beam="1">  1       21 0.13611857E-01 0.15371228E+03</pdfrwt>
<pdfrwt beam="2">  1       21 0.89628092E-01 0.15371228E+03</pdfrwt>
<totfact> 0.50617907E+04</totfact>
</mgrwt>
</event>
<event>
 6    1  0.4261782E-002  0.1294264E+03  0.7546771E-02  0.1228309E+00
         21   -1    0    0  503  502  0.00000000000E+00  0.00000000000E+00  0.17790428750E+04  0.17790428750E+04  0.00000000000E+00 0.  1.
         21   -1    0    0  504  503 -0.00000000000E+00 -0.00000000000E+00 -0.51788560456E+02  0.51788560456E+02  0.00000000000E+00 0.  1.
         25    2    1    2    0    0 -0.35732202699E+00 -0.33550416637E+02  0.29500166146E+02  0.13274577609E+03  0.12500169252E+03 0.  0.
          5    1    3    3  501    0 -0.59560337543E+02 -0.11771641513E+02  0.33854841616E+02  0.69513780310E+02  0.10000000000E+00 0.  1.
         -5    1    3    3    0  501  0.59203015516E+02 -0.21778775124E+02 -0.43546754698E+01  0.63231995782E+02  0.10000000000E+00 0.  1.
         21    1    1    2  504  502  0.35732202699E+00  0.33550416637E+02  0.16977541484E+04  0.16980856594E+04  0.00000000000E+00 0.  1.
<mgrwt>
<rscale>  1 0.12942635E+03</rscale>
<asrwt>0</asrwt>
<pdfrwt beam="1">  1       21 0.27369886E+00 0.12942635E+03</pdfrwt>
<pdfrwt beam="2">  1       21 0.79674722E-02 0.12942635E+03</pdfrwt>
<totfact> 0.63272501E+03</totfact>
</mgrwt>
</event>
<event>
 6    1  0.4261782E-002  0.1283638E+03  0.7546771E-02  0.1229904E+00
         21   -1    0    0  504  502  0.00000000000E+00  0.00000000000E+00  0.58674919482E+02  0.58674919482E+02  0.00000000000E+00 0. -1.
         21   -1    0    0  502  503 -0.00000000000E+00 -0.00000000000E+00 -0.34848400953E+03  0.34848400953E+03  0.00000000000E+00 0. -1.
         25    2    1    2    0    0  0.11876374453E+02 -0.26685453311E+02 -0.33193883762E+03  0.35589415242E+03  0.12499637643E+03 0.  0.
          5    1    3    3  501    0  0.42764532313E+02 -0.34938957430E+02 -0.57958211377E+02  0.80054358009E+02  0.10000000000E+00 0.  1.
         -5    1    3    3    0  501 -0.30888157860E+02  0.82535041196E+01 -0.27398062624E+03  0.27583979441E+03  0.10000000000E+00 0.  1.
         21    1    1    2  504  503 -0.11876374453E+02  0.26685453311E+02  0.42129747570E+02  0.51264776590E+02  0.00000000000E+00 0. -1.
<mgrwt>
<rscale>  1 0.12836376E+03</rscale>
<asrwt>0</asrwt>
<pdfrwt beam="1">  1       21 0.90269107E-02 0.12836376E+03</pdfrwt>
<pdfrwt beam="2">  1       21 0.53612925E-01 0.12836376E+03</pdfrwt>
<totfact> 0.32416170E+05</totfact>
</mgrwt>
</event>
<event>
 6    1  0.4261782E-002  0.1267929E+03  0.7546771E-02  0.1232294E+00
         21   -1    0    0  504  502  0.00000000000E+00  0.00000000000E+00  0.63446571048E+03  0.63446571048E+03  0.00000000000E+00 0.  1.
         21   -1    0    0  502  503 -0.00000000000E+00 -0.00000000000E+00 -0.10899012808E+02  0.10899012808E+02  0.00000000000E+00 0.  1.
         25    2    1    2    0    0 -0.20145350107E+02  0.67115385808E+01  0.37423931816E+03  0.39513478492E+03  0.12500220445E+03 0.  0.
          5    1    3    3  501    0  0.12005560351E+02 -0.12145668223E+02  0.35056061954E+03  0.35097636488E+03  0.10000000000E+00 0. -1.
         -5    1    3    3    0  501 -0.32150910459E+02  0.18857206803E+02  0.23678698622E+02  0.44158420037E+02  0.10000000000E+00 0. -1.
         21    1    1    2  504  503  0.20145350107E+02 -0.67115385808E+01  0.24932737951E+03  0.25022993837E+03  0.00000000000E+00 0.  1.
<mgrwt>
<rscale>  1 0.12679287E+03</rscale>
<asrwt>0</asrwt>
<pdfrwt beam="1">  1       21 0.97610080E-01 0.12679287E+03</pdfrwt>
<pdfrwt beam="2">  1       21 0.16767717E-02 0.12679287E+03</pdfrwt>
<totfact> 0.14272153E+06</totfact>
</mgrwt>
</event>
<event>
 6    1  0.4261782E-002  0.1279485E+03  0.7546771E-02  0.1230532E+00
         21   -1    0    0  503  502  0.00000000000E+00  0.00000000000E+00  0.11959611291E+04  0.11959611291E+04  0.00000000000E+00 0. -1.
         21   -1    0    0  504  503 -0.00000000000E+00 -0.00000000000E+00 -0.28820390072E+02  0.28820390072E+02  0.00000000000E+00 0. -1.
         25    2    1    2    0    0  0.18408165870E+02  0.20130003866E+02  0.11423930413E+03  0.17152679725E+03  0.12500698357E+03 0.  0.
          5    1    3    3  501    0  0.34654904679E+01  0.89043641522E+01 -0.27214665295E+02  0.28843462557E+02  0.10000000000E+00 0.  1.
         -5    1    3    3    0  501  0.14942675402E+02  0.11225639714E+02  0.14145396942E+03  0.14268333470E+03  0.10000000000E+00 0.  1.
         21    1    1    2  504  502 -0.18408165870E+02 -0.20130003866E+02  0.10529014349E+04  0.10532547219E+04  0.00000000000E+00 0. -1.
<mgrwt>
<rscale>  1 0.12794852E+03</rscale>
<asrwt>0</asrwt>
<pdfrwt beam="1">  1       21 0.18399398E+00 0.12794852E+03</pdfrwt>
<pdfrwt beam="2">  1       21 0.44339071E-02 0.12794852E+03</pdfrwt>
<totfact> 0.58797807E+04</totfact>
</mgrwt>
</event>
<event>
 6    1  0.4261782E-002  0.1279880E+03  0.7546771E-02  0.1230472E+00
         21   -1    0    0  503  502  0.00000000000E+00  0.00000000000E+00  0.17556371008E+02  0.17556371008E+02  0.00000000000E+00 0.  1.
         21   -1    0    0  504  503 -0.00000000000E+00 -0.00000000000E+00 -0.89720771893E+03  0.89720771893E+03  0.00000000000E+00 0.  1.
         25    2    1    2    0    0 -0.23791180018E+02  0.13773382757E+02 -0.87794027878E+03  0.88722041413E+03  0.12500081531E+03 0.  0.
          5    1    3    3  501    0  0.15331231425E+01  0.60835598022E+02 -0.26239112930E+03  0.26935559246E+03  0.10000000000E+00 0. -1.
         -5    1    3    3    0  501 -0.25324303160E+02 -0.47062215265E+02 -0.61554914948E+03  0.61786482168E+03  0.10000000000E+00 0. -1.
         21    1    1    2  504  502  0.23791180018E+02 -0.13773382757E+02 -0.17110691392E+01  0.27543675804E+02  0.00000000000E+00 0.  1.
<mgrwt>
<rscale>  1 0.12798801E+03</rscale>
<asrwt>0</asrwt>
<pdfrwt beam="1">  1       21 0.27009798E-02 0.12798801E+03</pdfrwt>
<pdfrwt beam="2">  1       21 0.13803197E+00 0.12798801E+03</pdfrwt>
<totfact> 0.28524631E+05</totfact>
</mgrwt>
</event>
<event>
 6    1  0.4261782E-002  0.1260514E+03  0.7546771E-02  0.1233435E+00
         21   -1    0    0  504  502  0.00000000000E+00  0.00000000000E+00  0.23948903866E+03  0.23948903866E+03  0.00000000000E+00 0.  1.
         21   -1    0    0  502  503 -0.00000000000E+00 -0.00000000000E+00 -0.22382550269E+02  0.22382550269E+02  0.00000000000E+00 0.  1.
         25    2    1    2    0    0 -0.14925400967E+02  0.64399220369E+01  0.16724624392E+03  0.20942843715E+03  0.12499889596E+03 0.  0.
          5    1    3    3  501    0  0.15805078004E+01  0.13702974046E+02 -0.18350898874E+02  0.22957242693E+02  0.10000000000E+00 0. -1.
         -5    1    3    3    0  501 -0.16505908768E+02 -0.72630520088E+01  0.18559714280E+03  0.18647119446E+03  0.10000000000E+00 0. -1.
         21    1    1    2  504  503  0.14925400967E+02 -0.64399220369E+01  0.49860244470E+02  0.52443151778E+02  0.00000000000E+00 0.  1.
<mgrwt>
<rscale>  1 0.12605143E+03</rscale>
<asrwt>0</asrwt>
<pdfrwt beam="1">  1       21 0.36844466E-01 0.12605143E+03</pdfrwt>
<pdfrwt beam="2">  1       21 0.34434694E-02 0.12605143E+03</pdfrwt>
<totfact> 0.35353093E+06</totfact>
</mgrwt>
</event>
<event>
 6    1  0.4261782E-002  0.1262004E+03  0.7546771E-02  0.1233205E+00
         21   -1    0    0  504  502  0.00000000000E+00  0.00000000000E+00  0.72873871120E+03  0.72873871120E+03  0.00000000000E+00 0. -1.
         21   -1    0    0  502  503 -0.00000000000E+00 -0.00000000000E+00 -0.79766582777E+01  0.79766582777E+01  0.00000000000E+00 0. -1.
         25    2    1    2    0    0  0.16863624017E+02 -0.41268677888E+01  0.51559890850E+03  0.53081896669E+03  0.12500051238E+03 0.  0.
          5    1    3    3  501    0 -0.28739465437E+02  0.24075846960E+02  0.51872350775E+02  0.64002765997E+02  0.10000000000E+00 0. -1.
         -5    1    3    3    0  501  0.45603089453E+02 -0.28202714749E+02  0.46372655773E+03  0.46681620069E+03  0.10000000000E+00 0. -1.
         21    1    1    2  504  503 -0.16863624017E+02  0.41268677888E+01  0.20516314442E+03  0.20589640279E+03  0.00000000000E+00 0. -1.
<mgrwt>
<rscale>  1 0.12620040E+03</rscale>
<asrwt>0</asrwt>
<pdfrwt beam="1">  1       21 0.11211360E+00 0.12620040E+03</pdfrwt>
<pdfrwt beam="2">  1       21 0.12271788E-02 0.12620040E+03</pdfrwt>
<totfact> 0.16916319E+06</totfact>
</mgrwt>
</event>
<event>
 6    1  0.4261782E-002  0.1269086E+03  0.7546771E-02  0.1232116E+00
         21   -1    0    0  504  502  0.00000000000E+00  0.00000000000E+00  0.54676738754E+02  0.54676738754E+02  0.00000000000E+00 0.  1.
         21   -1    0    0  502  503 -0.00000000000E+00 -0.00000000000E+00 -0.10830155544E+03  0.10830155544E+03  0.00000000000E+00 0.  1.
         25    2    1    2    0    0  0.10472606158E+01  0.21621703651E+02 -0.60048726278E+02  0.14039818264E+03  0.12504881182E+03 0.  0.
          5    1    3    3  501    0  0.42037477512E+01  0.52129611874E+02 -0.85711345983E+02  0.10040723460E+03  0.10000000000E+00 0. -1.
         -5    1    3    3    0  501 -0.31564871354E+01 -0.30507908223E+02  0.25662619705E+02  0.39990948042E+02  0.10000000000E+00 0. -1.
         21    1    1    2  504  503 -0.10472606158E+01 -0.21621703651E+02  0.64239095875E+01  0.22580111558E+02  0.00000000000E+00 0.  1.
<mgrwt>
<rscale>  1 0.12690863E+03</rscale>
<asrwt>0</asrwt>
<pdfrwt beam="1">  1       21 0.84118059E-02 0.12690863E+03</pdfrwt>
<pdfrwt beam="2">  1       21 0.16661778E-01 0.12690863E+03</pdfrwt>
<totfact> 0.35156097E+06</totfact>
</mgrwt>
</event>
<event>
 6    1  0.4261782E-002  0.1412434E+03  0.7546771E-02  0.1211666E+00
         21   -1    0    0  504  502  0.00000000000E+00  0.00000000000E+00  0.15923909364E+03  0.15923909364E+03  0.00000000000E+00 0. -1.
         21   -1    0    0  502  503 -0.00000000000E+00 -0.00000000000E+00 -0.14469651182E+03  0.14469651182E+03  0.00000000000E+00 0.  1.
         25    2    1    2    0    0  0.30091554853E+02 -0.58463945005E+02 -0.99169503988E+02  0.17258122602E+03  0.12500461797E+03 0.  0.
          5    1    3    3  501    0 -0.62929147431E+01 -0.30170187725E+02  0.25285998388E+02  0.39865181774E+02  0.10000000000E+00 0. -1.
         -5    1    3    3    0  501  0.36384469596E+02 -0.28293757280E+02 -0.12445550238E+03  0.13271604425E+03  0.10000000000E+00 0. -1.
         21    1    1    2  504  503 -0.30091554853E+02  0.58463945005E+02  0.11371208581E+03  0.13135437944E+03  0.00000000000E+00 0. -1.
<mgrwt>
<rscale>  1 0.14124337E+03</rscale>
<asrwt>0</asrwt>
<pdfrwt beam="1">  1       21 0.24498322E-01 0.14124337E+03</pdfrwt>
<pdfrwt beam="2">  1       21 0.22261002E-01 0.14124337E+03</pdfrwt>
<totfact> 0.30048982E+05</totfact>
</mgrwt>
</event>
<event>
 6    1  0.4261782E-002  0.1273703E+03  0.7546771E-02  0.1231411E+00
         21   -1    0    0  503  502  0.00000000000E+00  0.00000000000E+00  0.19423697356E+03  0.19423697356E+03  0.00000000000E+00 0.  1.
         21   -1    0    0  504  503 -0.00000000000E+00 -0.00000000000E+00 -0.70122216473E+02  0.70122216473E+02  0.00000000000E+00 0.  1.
         25    2    1    2    0    0 -0.18964075628E+02  0.15466626526E+02 -0.10251923651E+02  0.12778226082E+03  0.12499740614E+03 0.  0.
          5    1    3    3  501    0  0.41228629913E+02  0.70820291457E+01  0.32922179794E+02  0.53233776719E+02  0.10000000000E+00 0.  1.
         -5    1    3    3    0  501 -0.60192705542E+02  0.83845973798E+01 -0.43174103445E+02  0.74548484102E+02  0.10000000000E+00 0.  1.
         21    1    1    2  504  502  0.18964075628E+02 -0.15466626526E+02  0.13436668074E+03  0.13657692922E+03  0.00000000000E+00 0.  1.
<mgrwt>
<rscale>  1 0.12737034E+03</rscale>
<asrwt>0</asrwt>
<pdfrwt beam="1">  1       21 0.29882611E-01 0.12737034E+03</pdfrwt>
<pdfrwt beam="2">  1       21 0.10788033E-01 0.12737034E+03</pdfrwt>
<totfact> 0.76471123E+05</totfact>
</mgrwt>
</event>
<event>
 6    1  0.4261782E-002  0.1267256E+03  0.7546771E-02  0.1232397E+00
         21   -1    0    0  503  502  0.00000000000E+00  0.00000000000E+00  0.25143388830E+02  0.25143388830E+02  0.00000000000E+00 0. -1.
         21   -1    0    0  504  503 -0.00000000000E+00 -0.00000000000E+00 -0.18872585344E+04  0.18872585344E+04  0.00000000000E+00 0. -1.
         25    2    1    2    0    0 -0.82458579413E+01 -0.19320281760E+02 -0.18803316039E+04  0.18845971248E+04  0.12497245496E+03 0.  0.
          5    1    3    3  501    0  0.30208664030E+02 -0.56455365834E+02 -0.13648255522E+04  0.13663266702E+04  0.10000000000E+00 0. -1.
         -5    1    3    3    0  501 -0.38454521971E+02  0.37135084074E+02 -0.51550605168E+03  0.51827045454E+03  0.10000000000E+00 0. -1.
         21    1    1    2  504  502  0.82458579413E+01  0.19320281760E+02  0.18216458378E+02  0.27804798440E+02  0.00000000000E+00 0. -1.
<mgrwt>
<rscale>  1 0.12672562E+03</rscale>
<asrwt>0</asrwt>
<pdfrwt beam="1">  1       21 0.38682147E-02 0.12672562E+03</pdfrwt>
<pdfrwt beam="2">  1       21 0.29034739E+00 0.12672562E+03</pdfrwt>
<totfact> 0.17355930E+04</totfact>
</mgrwt>
</event>
<event>
 6    1  0.4261782E-002  0.1480869E+03  0.7546771E-02  0.1202844E+00
         21   -1    0    0  504  502  0.00000000000E+00  0.00000000000E+00  0.87957924710E+02  0.87957924710E+02  0.00000000000E+00 0. -1.
         21   -1    0    0  502  503 -0.00000000000E+00 -0.00000000000E+00 -0.18059035719E+03  0.18059035719E+03  0.00000000000E+00 0. -1.
         25    2    1    2    0    0 -0.32655221260E+02  0.72388659334E+02 -0.11333661624E+03  0.18648035454E+03  0.12499301008E+03 0.  0.
          5    1    3    3  501    0  0.11657103537E+02  0.77740666128E+02 -0.11780303944E+03  0.14162296895E+03  0.10000000000E+00 0. -1.
         -5    1    3    3    0  501 -0.44312324797E+02 -0.53520067938E+01  0.44664231923E+01  0.44857385588E+02  0.10000000000E+00 0. -1.
         21    1    1    2  504  503  0.32655221260E+02 -0.72388659334E+02  0.20704183769E+02  0.82067927361E+02  0.00000000000E+00 0. -1.
<mgrwt>
<rscale>  1 0.14808691E+03</rscale>
<asrwt>0</asrwt>
<pdfrwt beam="1">  1       21 0.13531989E-01 0.14808691E+03</pdfrwt>
<pdfrwt beam="2">  1       21 0.27783131E-01 0.14808691E+03</pdfrwt>
<totfact> 0.58796196E+05</totfact>
</mgrwt>
</event>
<event>
 6    1  0.4261782E-002  0.1264519E+03  0.7546771E-02  0.1232817E+00
         21   -1    0    0  503  502  0.00000000000E+00  0.00000000000E+00  0.20818087908E+03  0.20818087908E+03  0.00000000000E+00 0. -1.
         21   -1    0    0  504  503 -0.00000000000E+00 -0.00000000000E+00 -0.25587456455E+02  0.25587456455E+02  0.00000000000E+00 0. -1.
         25    2    1    2    0    0 -0.48778001312E+01  0.18559697013E+02  0.16354608011E+03  0.20673027820E+03  0.12498732864E+03 0.  0.
          5    1    3    3  501    0  0.40150454895E+02  0.52323640041E+02  0.61423478681E+02  0.90125890113E+02  0.10000000000E+00 0.  1.
         -5    1    3    3    0  501 -0.45028255027E+02 -0.33763943028E+02  0.10212260143E+03  0.11660438809E+03  0.10000000000E+00 0.  1.
         21    1    1    2  504  502  0.48778001312E+01 -0.18559697013E+02  0.19047342516E+02  0.27038057331E+02  0.00000000000E+00 0. -1.
<mgrwt>
<rscale>  1 0.12645192E+03</rscale>
<asrwt>0</asrwt>
<pdfrwt beam="1">  1       21 0.32027826E-01 0.12645192E+03</pdfrwt>
<pdfrwt beam="2">  1       21 0.39365319E-02 0.12645192E+03</pdfrwt>
<totfact> 0.37286047E+06</totfact>
</mgrwt>
</event>
<event>
 6    1  0.4261782E-002  0.1316374E+03  0.7546771E-02  0.1225046E+00
         21   -1    0    0  504  502  0.00000000000E+00  0.00000000000E+00  0.57420565189E+02  0.57420565189E+02  0.00000000000E+00 0.  1.
         21   -1    0    0  502  503 -0.00000000000E+00 -0.00000000000E+00 -0.15800712641E+03  0.15800712641E+03  0.00000000000E+00 0.  1.
         25    2    1    2    0    0 -0.41009442209E+02  0.44996386844E+01 -0.11176537889E+03  0.17268442238E+03  0.12500555474E+03 0.  0.
          5    1    3    3  501    0 -0.56136086807E+02  0.29079305736E+02 -0.12564876421E+03  0.14065734326E+03  0.10000000000E+00 0. -1.
         -5    1    3    3    0  501  0.15126644598E+02 -0.24579667052E+02  0.13883385322E+02  0.32027079123E+02  0.10000000000E+00 0. -1.
         21    1    1    2  504  503  0.41009442209E+02 -0.44996386844E+01  0.11178817672E+02  0.42743269215E+02  0.00000000000E+00 0.  1.
<mgrwt>
<rscale>  1 0.13163742E+03</rscale>
<asrwt>0</asrwt>
<pdfrwt beam="1">  1       21 0.88339330E-02 0.13163742E+03</pdfrwt>
<pdfrwt beam="2">  1       21 0.24308789E-01 0.13163742E+03</pdfrwt>
<totfact> 0.16074836E+06</totfact>
</mgrwt>
</event>
<event>
 6    1  0.4261782E-002  0.1277012E+03  0.7546771E-02  0.1230907E+00
         21   -1    0    0  503  502  0.00000000000E+00  0.00000000000E+00  0.27358654053E+02  0.27358654053E+02  0.00000000000E+00 0. -1.
         21   -1    0    0  504  503 -0.00000000000E+00 -0.00000000000E+00 -0.21823810980E+03  0.21823810980E+03  0.00000000000E+00 0. -1.
         25    2    1    2    0    0  0.24146017888E+02 -0.10026706521E+02 -0.16664019985E+03  0.20994418260E+03  0.12499615426E+03 0.  0.
          5    1    3    3  501    0 -0.93340481538E+01 -0.55228672543E+02 -0.33150433027E+02  0.65086803084E+02  0.10000000000E+00 0. -1.
         -5    1    3    3    0  501  0.33480066042E+02  0.45201966023E+02 -0.13348976682E+03  0.14485737951E+03  0.10000000000E+00 0. -1.
         21    1    1    2  504  502 -0.24146017888E+02  0.10026706521E+02 -0.24239255902E+02  0.35652581256E+02  0.00000000000E+00 0. -1.
<mgrwt>
<rscale>  1 0.12770123E+03</rscale>
<asrwt>0</asrwt>
<pdfrwt beam="1">  1       21 0.42090238E-02 0.12770123E+03</pdfrwt>
<pdfrwt beam="2">  1       21 0.33575093E-01 0.12770123E+03</pdfrwt>
<totfact> 0.30443480E+06</totfact>
</mgrwt>
</event>
<event>
 6    1  0.4261782E-002  0.1457554E+03  0.7546771E-02  0.1205788E+00
         21   -1    0    0  503  502  0.00000000000E+00  0.00000000000E+00  0.13596386538E+03  0.13596386538E+03  0.00000000000E+00 0.  1.
         21   -1    0    0  504  503 -0.00000000000E+00 -0.00000000000E+00 -0.92808567507E+02  0.92808567507E+02  0.00000000000E+00 0.  1.
         25    2    1    2    0    0  0.29516486586E+01  0.74882110481E+02  0.79428080749E+01  0.14597169534E+03  0.12501441893E+03 0.  0.
          5    1    3    3  501    0 -0.44430766562E+02  0.68320740298E+02 -0.27962195360E+02  0.86160959498E+02  0.10000000000E+00 0.  1.
         -5    1    3    3    0  501  0.47382415220E+02  0.65613701829E+01  0.35905003435E+02  0.59810735846E+02  0.10000000000E+00 0.  1.
         21    1    1    2  504  502 -0.29516486586E+01 -0.74882110481E+02  0.35212489800E+02  0.82800737544E+02  0.00000000000E+00 0.  1.
<mgrwt>
<rscale>  1 0.14575544E+03</rscale>
<asrwt>0</asrwt>
<pdfrwt beam="1">  1       21 0.20917518E-01 0.14575544E+03</pdfrwt>
<pdfrwt beam="2">  1       21 0.14278241E-01 0.14575544E+03</pdfrwt>
<totfact> 0.91282342E+05</totfact>
</mgrwt>
</event>
<event>
 6    1  0.4261782E-002  0.1264092E+03  0.7546771E-02  0.1232883E+00
         21   -1    0    0  504  502  0.00000000000E+00  0.00000000000E+00  0.31688376046E+03  0.31688376046E+03  0.00000000000E+00 0. -1.
         21   -1    0    0  502  503 -0.00000000000E+00 -0.00000000000E+00 -0.17829792556E+03  0.17829792556E+03  0.00000000000E+00 0. -1.
         25    2    1    2    0    0 -0.14911707719E+02 -0.11469987492E+02 -0.15555426955E+03  0.20044057812E+03  0.12500149976E+03 0.  0.
          5    1    3    3  501    0  0.47396680040E+02  0.25580832648E+02 -0.69313052496E+02  0.87778889968E+02  0.10000000000E+00 0.  1.
         -5    1    3    3    0  501 -0.62308387759E+02 -0.37050820140E+02 -0.86241217054E+02  0.11266168815E+03  0.10000000000E+00 0.  1.
         21    1    1    2  504  503  0.14911707719E+02  0.11469987492E+02  0.29414010445E+03  0.29474110790E+03  0.00000000000E+00 0. -1.
<mgrwt>
<rscale>  1 0.12640923E+03</rscale>
<asrwt>0</asrwt>
<pdfrwt beam="1">  1       21 0.48751348E-01 0.12640923E+03</pdfrwt>
<pdfrwt beam="2">  1       21 0.27430450E-01 0.12640923E+03</pdfrwt>
<totfact> 0.52610344E+04</totfact>
</mgrwt>
</event>
<event>
 6    1  0.4261782E-002  0.1261153E+03  0.7546771E-02  0.1233336E+00
         21   -1    0    0  503  502  0.00000000000E+00  0.00000000000E+00  0.10832293329E+04  0.10832293329E+04  0.00000000000E+00 0. -1.
         21   -1    0    0  504  503 -0.00000000000E+00 -0.00000000000E+00 -0.60677329646E+01  0.60677329646E+01  0.00000000000E+00 0. -1.
         25    2    1    2    0    0  0.16519629439E+02  0.25930052952E+01  0.66841518719E+03  0.68020874806E+03  0.12500182653E+03 0.  0.
          5    1    3    3  501    0  0.54945751017E+01  0.37818062328E+02  0.63105279455E+02  0.73774538216E+02  0.10000000000E+00 0. -1.
         -5    1    3    3    0  501  0.11025054337E+02 -0.35225057033E+02  0.60530990773E+03  0.60643420984E+03  0.10000000000E+00 0. -1.
         21    1    1    2  504  502 -0.16519629439E+02 -0.25930052952E+01  0.40874641279E+03  0.40908831785E+03  0.00000000000E+00 0. -1.
<mgrwt>
<rscale>  1 0.12611534E+03</rscale>
<asrwt>0</asrwt>
<pdfrwt beam="1">  1       21 0.16665051E+00 0.12611534E+03</pdfrwt>
<pdfrwt beam="2">  1       21 0.93349824E-03 0.12611534E+03</pdfrwt>
<totfact> 0.95696706E+05</totfact>
</mgrwt>
</event>
<event>
 6    1  0.4261782E-002  0.1275023E+03  0.7546771E-02  0.1231210E+00
         21   -1    0    0  503  502  0.00000000000E+00  0.00000000000E+00  0.24809118029E+02  0.24809118029E+02  0.00000000000E+00 0.  1.
         21   -1    0    0  504  503 -0.00000000000E+00 -0.00000000000E+00 -0.26512556821E+03  0.26512556821E+03  0.00000000000E+00 0.  1.
         25    2    1    2    0    0  0.24426235551E+02 -0.59317087670E+01 -0.22956336530E+03  0.26259506322E+03  0.12500000956E+03 0.  0.
          5    1    3    3  501    0 -0.44617989879E+02  0.10980981762E+02 -0.42934791877E+02  0.62886829582E+02  0.10000000000E+00 0.  1.
         -5    1    3    3    0  501  0.69044225430E+02 -0.16912690529E+02 -0.18662857342E+03  0.19970823364E+03  0.10000000000E+00 0.  1.
         21    1    1    2  504  502 -0.24426235551E+02  0.59317087670E+01 -0.10753084878E+02  0.27339623013E+02  0.00000000000E+00 0.  1.
<mgrwt>
<rscale>  1 0.12750227E+03</rscale>
<asrwt>0</asrwt>
<pdfrwt beam="1">  1       21 0.38167872E-02 0.12750227E+03</pdfrwt>
<pdfrwt beam="2">  1       21 0.40788551E-01 0.12750227E+03</pdfrwt>
<totfact> 0.24369438E+06</totfact>
</mgrwt>
</event>
<event>
 6    1  0.4261782E-002  0.1308350E+03  0.7546771E-02  0.1226222E+00
         21   -1    0    0  503  502  0.00000000000E+00  0.00000000000E+00  0.90123653777E+03  0.90123653777E+03  0.00000000000E+00 0. -1.
         21   -1    0    0  504  503 -0.00000000000E+00 -0.00000000000E+00 -0.32487056334E+02  0.32487056334E+02  0.00000000000E+00 0.  1.
         25    2    1    2    0    0  0.23950148715E+02  0.30427343230E+02  0.10173989488E+03  0.16573717580E+03  0.12497348675E+03 0.  0.
          5    1    3    3  501    0 -0.43846965321E+02  0.17581189340E+02  0.80852186135E+02  0.93641553753E+02  0.10000000000E+00 0.  1.
         -5    1    3    3    0  501  0.67797114035E+02  0.12846153890E+02  0.20887708748E+02  0.72095622045E+02  0.10000000000E+00 0.  1.
         21    1    1    2  504  502 -0.23950148715E+02 -0.30427343230E+02  0.76700958655E+03  0.76798641830E+03  0.00000000000E+00 0. -1.
<mgrwt>
<rscale>  1 0.13083503E+03</rscale>
<asrwt>0</asrwt>
<pdfrwt beam="1">  1       21 0.13865176E+00 0.13083503E+03</pdfrwt>
<pdfrwt beam="2">  1       21 0.49980093E-02 0.13083503E+03</pdfrwt>
<totfact> 0.10170291E+05</totfact>
</mgrwt>
</event>
<event>
 6    1  0.4261782E-002  0.1278741E+03  0.7546771E-02  0.1230645E+00
         21   -1    0    0  503  502  0.00000000000E+00  0.00000000000E+00  0.58671899135E+03  0.58671899135E+03  0.00000000000E+00 0.  1.
         21   -1    0    0  504  503 -0.00000000000E+00 -0.00000000000E+00 -0.14101694183E+02  0.14101694183E+02  0.00000000000E+00 0.  1.
         25    2    1    2    0    0  0.26899366394E+02 -0.13022369034E+01  0.29022545408E+03  0.31714759063E+03  0.12500603309E+03 0.  0.
          5    1    3    3  501    0  0.15459896402E+02  0.30342893886E+02  0.10832896963E+02  0.35735993938E+02  0.10000000000E+00 0. -1.
         -5    1    3    3    0  501  0.11439469992E+02 -0.31645130789E+02  0.27939255712E+03  0.28141159669E+03  0.10000000000E+00 0. -1.
         21    1    1    2  504  502 -0.26899366394E+02  0.13022369034E+01  0.28239184308E+03  0.28367309490E+03  0.00000000000E+00 0.  1.
<mgrwt>
<rscale>  1 0.12787408E+03</rscale>
<asrwt>0</asrwt>
<pdfrwt beam="1">  1       21 0.90264441E-01 0.12787408E+03</pdfrwt>
<pdfrwt beam="2">  1       21 0.21694919E-02 0.12787408E+03</pdfrwt>
<totfact> 0.11289806E+06</totfact>
</mgrwt>
</event>
<event>
 6    1  0.4261782E-002  0.1260477E+03  0.7546771E-02  0.1233441E+00
         21   -1    0    0  504  502  0.00000000000E+00  0.00000000000E+00  0.78960463938E+02  0.78960463938E+02  0.00000000000E+00 0. -1.
         21   -1    0    0  502  503 -0.00000000000E+00 -0.00000000000E+00 -0.68329757986E+02  0.68329757986E+02  0.00000000000E+00 0. -1.
         25    2    1    2    0    0 -0.15858865208E+02  0.33230607605E+01 -0.30490086435E+01  0.12608454038E+03  0.12500187410E+03 0.  0.
          5    1    3    3  501    0  0.51927634463E+02 -0.24366783782E+01 -0.20451548158E+02  0.55863158204E+02  0.10000000000E+00 0.  1.
         -5    1    3    3    0  501 -0.67786499671E+02  0.57597391387E+01  0.17402539515E+02  0.70221382172E+02  0.10000000000E+00 0.  1.
         21    1    1    2  504  503  0.15858865208E+02 -0.33230607605E+01  0.13679714596E+02  0.21205681548E+02  0.00000000000E+00 0. -1.
<mgrwt>
<rscale>  1 0.12604767E+03</rscale>
<asrwt>0</asrwt>
<pdfrwt beam="1">  1       21 0.12147764E-01 0.12604767E+03</pdfrwt>
<pdfrwt beam="2">  1       21 0.10512270E-01 0.12604767E+03</pdfrwt>
<totfact> 0.42026818E+06</totfact>
</mgrwt>
</event>
<event>
 6    1  0.4261782E-002  0.1262704E+03  0.7546771E-02  0.1233097E+00
         21   -1    0    0  503  502  0.00000000000E+00  0.00000000000E+00  0.59605526567E+02  0.59605526567E+02  0.00000000000E+00 0. -1.
         21   -1    0    0  504  503 -0.00000000000E+00 -0.00000000000E+00 -0.34573448672E+03  0.34573448672E+03  0.00000000000E+00 0. -1.
         25    2    1    2    0    0  0.74078121005E+01  0.16816974068E+02 -0.33238818165E+03  0.35556449851E+03  0.12492607016E+03 0.  0.
          5    1    3    3  501    0  0.52794944581E+02  0.25369024677E+02 -0.27849626110E+03  0.28458930239E+03  0.10000000000E+00 0. -1.
         -5    1    3    3    0  501 -0.45387132480E+02 -0.85520506088E+01 -0.53891920550E+02  0.70975196125E+02  0.10000000000E+00 0. -1.
         21    1    1    2  504  502 -0.74078121005E+01 -0.16816974068E+02  0.46259221501E+02  0.49775514772E+02  0.00000000000E+00 0. -1.
<mgrwt>
<rscale>  1 0.12627038E+03</rscale>
<asrwt>0</asrwt>
<pdfrwt beam="1">  1       21 0.91700811E-02 0.12627038E+03</pdfrwt>
<pdfrwt beam="2">  1       21 0.53189921E-01 0.12627038E+03</pdfrwt>
<totfact> 0.32077836E+05</totfact>
</mgrwt>
</event>
<event>
 6    1  0.4261782E-002  0.1259765E+03  0.7546771E-02  0.1233551E+00
         21   -1    0    0  504  502  0.00000000000E+00  0.00000000000E+00  0.70955468541E+02  0.70955468541E+02  0.00000000000E+00 0. -1.
         21   -1    0    0  502  503 -0.00000000000E+00 -0.00000000000E+00 -0.82647902285E+02  0.82647902285E+02  0.00000000000E+00 0. -1.
         25    2    1    2    0    0 -0.15576565815E+02 -0.17127630373E+01 -0.30005761480E+02  0.12950065454E+03  0.12499804336E+03 0.  0.
          5    1    3    3  501    0 -0.83980490615E+01 -0.59464459892E+02 -0.37534492803E+02  0.70819470263E+02  0.10000000000E+00 0.  1.
         -5    1    3    3    0  501 -0.71785167532E+01  0.57751696855E+02  0.75287313233E+01  0.58681184273E+02  0.10000000000E+00 0.  1.
         21    1    1    2  504  503  0.15576565815E+02  0.17127630373E+01  0.18313327736E+02  0.24102716290E+02  0.00000000000E+00 0. -1.
<mgrwt>
<rscale>  1 0.12597648E+03</rscale>
<asrwt>0</asrwt>
<pdfrwt beam="1">  1       21 0.10916226E-01 0.12597648E+03</pdfrwt>
<pdfrwt beam="2">  1       21 0.12715062E-01 0.12597648E+03</pdfrwt>
<totfact> 0.36271825E+06</totfact>
</mgrwt>
</event>
<event>
 6    1  0.4261782E-002  0.1277840E+03  0.7546771E-02  0.1230781E+00
         21   -1    0    0  504  502  0.00000000000E+00  0.00000000000E+00  0.18313812178E+03  0.18313812178E+03  0.00000000000E+00 0. -1.
         21   -1    0    0  502  503 -0.00000000000E+00 -0.00000000000E+00 -0.86075533967E+02  0.86075533967E+02  0.00000000000E+00 0. -1.
         25    2    1    2    0    0 -0.26952883777E+01 -0.26378913150E+02 -0.36619198364E+02  0.13292744370E+03  0.12500251182E+03 0.  0.
          5    1    3    3  501    0  0.60518943851E+02 -0.11748670854E+02 -0.27120560183E+02  0.67350639317E+02  0.10000000000E+00 0.  1.
         -5    1    3    3    0  501 -0.63214232229E+02 -0.14630242296E+02 -0.94986381809E+01  0.65576804384E+02  0.10000000000E+00 0.  1.
         21    1    1    2  504  503  0.26952883777E+01  0.26378913150E+02  0.13368178618E+03  0.13628621205E+03  0.00000000000E+00 0. -1.
<mgrwt>
<rscale>  1 0.12778396E+03</rscale>
<asrwt>0</asrwt>
<pdfrwt beam="1">  1       21 0.28175096E-01 0.12778396E+03</pdfrwt>
<pdfrwt beam="2">  1       21 0.13242390E-01 0.12778396E+03</pdfrwt>
<totfact> 0.59559543E+05</totfact>
</mgrwt>
</event>
<event>
 6    1  0.4261782E-002  0.1538618E+03  0.7546771E-02  0.1195806E+00
         21   -1    0    0  504  502  0.00000000000E+00  0.00000000000E+00  0.67865306803E+02  0.67865306803E+02  0.00000000000E+00 0. -1.
         21   -1    0    0  502  503 -0.00000000000E+00 -0.00000000000E+00 -0.52548889988E+03  0.52548889988E+03  0.00000000000E+00 0. -1.
         25    2    1    2    0    0 -0.63158336524E+02  0.63717776554E+02 -0.47731669859E+03  0.50150242974E+03  0.12499810305E+03 0.  0.
          5    1    3    3  501    0  0.33624209096E+02  0.20375186547E+02 -0.21493675073E+03  0.21850298048E+03  0.10000000000E+00 0.  1.
         -5    1    3    3    0  501 -0.96782545620E+02  0.43342590007E+02 -0.26237994786E+03  0.28299944926E+03  0.10000000000E+00 0.  1.
         21    1    1    2  504  503  0.63158336524E+02 -0.63717776554E+02  0.19693105515E+02  0.91851776936E+02  0.00000000000E+00 0. -1.
<mgrwt>
<rscale>  1 0.15386181E+03</rscale>
<asrwt>0</asrwt>
<pdfrwt beam="1">  1       21 0.10440817E-01 0.15386181E+03</pdfrwt>
<pdfrwt beam="2">  1       21 0.80844445E-01 0.15386181E+03</pdfrwt>
<totfact> 0.10256741E+05</totfact>
</mgrwt>
</event>
<event>
 6    1  0.4261782E-002  0.1259337E+03  0.7546771E-02  0.1233617E+00
         21   -1    0    0  504  502  0.00000000000E+00  0.00000000000E+00  0.28427497669E+02  0.28427497669E+02  0.00000000000E+00 0.  1.
         21   -1    0    0  502  503 -0.00000000000E+00 -0.00000000000E+00 -0.13693495797E+04  0.13693495797E+04  0.00000000000E+00 0.  1.
         25    2    1    2    0    0  0.15021145388E+02 -0.29156855391E+01 -0.13641563116E+04  0.13699568428E+04  0.12500069035E+03 0.  0.
          5    1    3    3  501    0  0.64214070604E+02 -0.27136039825E+02 -0.86252776347E+03  0.86534037482E+03  0.10000000000E+00 0. -1.
         -5    1    3    3    0  501 -0.49192925216E+02  0.24220354285E+02 -0.50162854809E+03  0.50461646794E+03  0.10000000000E+00 0. -1.
         21    1    1    2  504  503 -0.15021145388E+02  0.29156855391E+01  0.23234229546E+02  0.27820234606E+02  0.00000000000E+00 0.  1.
<mgrwt>
<rscale>  1 0.12593375E+03</rscale>
<asrwt>0</asrwt>
<pdfrwt beam="1">  1       21 0.43734617E-02 0.12593375E+03</pdfrwt>
<pdfrwt beam="2">  1       21 0.21066914E+00 0.12593375E+03</pdfrwt>
<totfact> 0.40845492E+04</totfact>
</mgrwt>
</event>
<event>
 6    1  0.4261782E-002  0.1259766E+03  0.7546771E-02  0.1233551E+00
         21   -1    0    0  503  502  0.00000000000E+00  0.00000000000E+00  0.81430104183E+02  0.81430104183E+02  0.00000000000E+00 0.  1.
         21   -1    0    0  504  503 -0.00000000000E+00 -0.00000000000E+00 -0.64802984770E+02  0.64802984770E+02  0.00000000000E+00 0.  1.
         25    2    1    2    0    0  0.15017342670E+02  0.43276539403E+01  0.38317986262E+01  0.12603483647E+03  0.12500339256E+03 0.  0.
          5    1    3    3  501    0  0.40290736496E+02  0.19434761533E+02 -0.48505337298E+02  0.65983567270E+02  0.10000000000E+00 0. -1.
         -5    1    3    3    0  501 -0.25273393827E+02 -0.15107107592E+02  0.52337135924E+02  0.60051269196E+02  0.10000000000E+00 0. -1.
         21    1    1    2  504  502 -0.15017342670E+02 -0.43276539403E+01  0.12795320787E+02  0.20198252487E+02  0.00000000000E+00 0.  1.
<mgrwt>
<rscale>  1 0.12597657E+03</rscale>
<asrwt>0</asrwt>
<pdfrwt beam="1">  1       21 0.12527708E-01 0.12597657E+03</pdfrwt>
<pdfrwt beam="2">  1       21 0.99696899E-02 0.12597657E+03</pdfrwt>
<totfact> 0.43660427E+06</totfact>
</mgrwt>
</event>
<event>
 6    1  0.4261782E-002  0.1352395E+03  0.7546771E-02  0.1219882E+00
         21   -1    0    0  504  502  0.00000000000E+00  0.00000000000E+00  0.40922196251E+02  0.40922196251E+02  0.00000000000E+00 0.  1.
         21   -1    0    0  502  503 -0.00000000000E+00 -0.00000000000E+00 -0.81109972495E+03  0.81109972495E+03  0.00000000000E+00 0.  1.
         25    2    1    2    0    0  0.31805496006E+01  0.51512983614E+02 -0.78638235166E+03  0.79792663801E+03  0.12500405298E+03 0.  0.
          5    1    3    3  501    0  0.54425144506E+02  0.58347370731E+02 -0.38132873043E+03  0.38958711821E+03  0.10000000000E+00 0. -1.
         -5    1    3    3    0  501 -0.51244594906E+02 -0.68343871173E+01 -0.40505362123E+03  0.40833951980E+03  0.10000000000E+00 0. -1.
         21    1    1    2  504  503 -0.31805496006E+01 -0.51512983614E+02  0.16204822961E+02  0.54095283193E+02  0.00000000000E+00 0.  1.
<mgrwt>
<rscale>  1 0.13523948E+03</rscale>
<asrwt>0</asrwt>
<pdfrwt beam="1">  1       21 0.62957229E-02 0.13523948E+03</pdfrwt>
<pdfrwt beam="2">  1       21 0.12478457E+00 0.13523948E+03</pdfrwt>
<totfact> 0.89368254E+04</totfact>
</mgrwt>
</event>
<event>
 6    1  0.4261782E-002  0.1265445E+03  0.7546771E-02  0.1232675E+00
         21   -1    0    0  504  502  0.00000000000E+00  0.00000000000E+00  0.99336327522E+03  0.99336327522E+03  0.00000000000E+00 0.  1.
         21   -1    0    0  502  503 -0.00000000000E+00 -0.00000000000E+00 -0.10005675308E+02  0.10005675308E+02  0.00000000000E+00 0.  1.
         25    2    1    2    0    0 -0.12019790524E+02  0.15626104558E+02  0.39700659316E+03  0.41668662284E+03  0.12499942451E+03 0.  0.
          5    1    3    3  501    0  0.50948923721E+02  0.24862975946E+02  0.25250241796E+03  0.25878841063E+03  0.10000000000E+00 0.  1.
         -5    1    3    3    0  501 -0.62968714245E+02 -0.92368713884E+01  0.14450417520E+03  0.15789821220E+03  0.10000000000E+00 0.  1.
         21    1    1    2  504  503  0.12019790524E+02 -0.15626104558E+02  0.58635100675E+03  0.58668232769E+03  0.00000000000E+00 0.  1.
<mgrwt>
<rscale>  1 0.12654448E+03</rscale>
<asrwt>0</asrwt>
<pdfrwt beam="1">  1       21 0.15282504E+00 0.12654448E+03</pdfrwt>
<pdfrwt beam="2">  1       21 0.15393354E-02 0.12654448E+03</pdfrwt>
<totfact> 0.54469950E+05</totfact>
</mgrwt>
</event>
<event>
 6    1  0.4261782E-002  0.1308358E+03  0.7546771E-02  0.1226221E+00
         21   -1    0    0  504  502  0.00000000000E+00  0.00000000000E+00  0.31883911336E+03  0.31883911336E+03  0.00000000000E+00 0.  1.
         21   -1    0    0  502  503 -0.00000000000E+00 -0.00000000000E+00 -0.27810311675E+02  0.27810311675E+02  0.00000000000E+00 0.  1.
         25    2    1    2    0    0 -0.37144494720E+02 -0.10554201829E+02  0.14367766392E+03  0.19432259724E+03  0.12500758387E+03 0.  0.
          5    1    3    3  501    0  0.36878060586E+02  0.25044530219E+02  0.28693805881E+02  0.53014755893E+02  0.10000000000E+00 0. -1.
         -5    1    3    3    0  501 -0.74022555306E+02 -0.35598732048E+02  0.11498385804E+03  0.14130784135E+03  0.10000000000E+00 0. -1.
         21    1    1    2  504  503  0.37144494720E+02  0.10554201829E+02  0.14735113776E+03  0.15232682779E+03  0.00000000000E+00 0.  1.
<mgrwt>
<rscale>  1 0.13083578E+03</rscale>
<asrwt>0</asrwt>
<pdfrwt beam="1">  1       21 0.49052169E-01 0.13083578E+03</pdfrwt>
<pdfrwt beam="2">  1       21 0.42785097E-02 0.13083578E+03</pdfrwt>
<totfact> 0.13867157E+06</totfact>
</mgrwt>
</event>
<event>
 6    1  0.4261782E-002  0.1323495E+03  0.7546771E-02  0.1224011E+00
         21   -1    0    0  504  502  0.00000000000E+00  0.00000000000E+00  0.97843783749E+02  0.97843783749E+02  0.00000000000E+00 0. -1.
         21   -1    0    0  502  503 -0.00000000000E+00 -0.00000000000E+00 -0.41447980626E+03  0.41447980626E+03  0.00000000000E+00 0. -1.
         25    2    1    2    0    0 -0.35717786673E+02  0.24780766714E+02 -0.39835250902E+03  0.41976317271E+03  0.12500621197E+03 0.  0.
          5    1    3    3  501    0 -0.65084027412E+02  0.50177937435E+02 -0.33915304985E+03  0.34896784559E+03  0.10000000000E+00 0.  1.
         -5    1    3    3    0  501  0.29366240739E+02 -0.25397170721E+02 -0.59199459170E+02  0.70795327118E+02  0.10000000000E+00 0.  1.
         21    1    1    2  504  503  0.35717786673E+02 -0.24780766714E+02  0.81716486511E+02  0.92560417304E+02  0.00000000000E+00 0. -1.
<mgrwt>
<rscale>  1 0.13234954E+03</rscale>
<asrwt>0</asrwt>
<pdfrwt beam="1">  1       21 0.15052890E-01 0.13234954E+03</pdfrwt>
<pdfrwt beam="2">  1       21 0.63766124E-01 0.13234954E+03</pdfrwt>
<totfact> 0.90778253E+04</totfact>
</mgrwt>
</event>
<event>
 6    1  0.4261782E-002  0.1295965E+03  0.7546771E-02  0.1228056E+00
         21   -1    0    0  503  502  0.00000000000E+00  0.00000000000E+00  0.14730870009E+03  0.14730870009E+03  0.00000000000E+00 0. -1.
         21   -1    0    0  504  503 -0.00000000000E+00 -0.00000000000E+00 -0.38365324535E+03  0.38365324535E+03  0.00000000000E+00 0.  1.
         25    2    1    2    0    0 -0.28645997582E+02 -0.18682966435E+02 -0.37050210114E+03  0.39251377386E+03  0.12500243721E+03 0.  0.
          5    1    3    3  501    0 -0.45898614155E+02 -0.18368128330E+02 -0.37192788595E+03  0.37519919145E+03  0.10000000000E+00 0. -1.
         -5    1    3    3    0  501  0.17252616573E+02 -0.31483810458E+00  0.14257848087E+01  0.17314582409E+02  0.10000000000E+00 0. -1.
         21    1    1    2  504  502  0.28645997582E+02  0.18682966435E+02  0.13415755588E+03  0.13844817157E+03  0.00000000000E+00 0. -1.
<mgrwt>
<rscale>  1 0.12959651E+03</rscale>
<asrwt>0</asrwt>
<pdfrwt beam="1">  1       21 0.22662877E-01 0.12959651E+03</pdfrwt>
<pdfrwt beam="2">  1       21 0.59023576E-01 0.12959651E+03</pdfrwt>
<totfact> 0.50559463E+04</totfact>
</mgrwt>
</event>
<event>
 6    1  0.4261782E-002  0.1264679E+03  0.7546771E-02  0.1232793E+00
         21   -1    0    0  504  502  0.00000000000E+00  0.00000000000E+00  0.27139674045E+03  0.27139674045E+03  0.00000000000E+00 0. -1.
         21   -1    0    0  502  503 -0.00000000000E+00 -0.00000000000E+00 -0.24538489793E+02  0.24538489793E+02  0.00000000000E+00 0. -1.
         25    2    1    2    0    0 -0.17513699933E+02 -0.78610506556E+01  0.14552461291E+03  0.19279924263E+03  0.12500243675E+03 0.  0.
          5    1    3    3  501    0 -0.50653559151E+02 -0.46959956058E+02  0.11189503209E+03  0.13149725752E+03  0.10000000000E+00 0. -1.
         -5    1    3    3    0  501  0.33139859218E+02  0.39098905402E+02  0.33629580823E+02  0.61301985114E+02  0.10000000000E+00 0. -1.
         21    1    1    2  504  503  0.17513699933E+02  0.78610506556E+01  0.10133363774E+03  0.10313598761E+03  0.00000000000E+00 0. -1.
<mgrwt>
<rscale>  1 0.12646792E+03</rscale>
<asrwt>0</asrwt>
<pdfrwt beam="1">  1       21 0.41753343E-01 0.12646792E+03</pdfrwt>
<pdfrwt beam="2">  1       21 0.37751525E-02 0.12646792E+03</pdfrwt>
<totfact> 0.23672967E+06</totfact>
</mgrwt>
</event>
<event>
 6    1  0.4261782E-002  0.1262656E+03  0.7546771E-02  0.1233105E+00
         21   -1    0    0  503  502  0.00000000000E+00  0.00000000000E+00  0.28510922895E+03  0.28510922895E+03  0.00000000000E+00 0.  1.
         21   -1    0    0  504  503 -0.00000000000E+00 -0.00000000000E+00 -0.18204962771E+02  0.18204962771E+02  0.00000000000E+00 0.  1.
         25    2    1    2    0    0  0.94269941597E+01  0.15118324926E+02  0.23292984602E+03  0.26495153810E+03  0.12500228962E+03 0.  0.
          5    1    3    3  501    0  0.48331973691E+02 -0.24510991109E+02  0.49845246568E+02  0.73629660949E+02  0.10000000000E+00 0.  1.
         -5    1    3    3    0  501 -0.38904979531E+02  0.39629316035E+02  0.18308459945E+03  0.19132187715E+03  0.10000000000E+00 0.  1.
         21    1    1    2  504  502 -0.94269941597E+01 -0.15118324926E+02  0.33974420160E+02  0.38362653619E+02  0.00000000000E+00 0. -1.
<mgrwt>
<rscale>  1 0.12626561E+03</rscale>
<asrwt>0</asrwt>
<pdfrwt beam="1">  1       21 0.43862955E-01 0.12626561E+03</pdfrwt>
<pdfrwt beam="2">  1       21 0.28007637E-02 0.12626561E+03</pdfrwt>
<totfact> 0.35022562E+06</totfact>
</mgrwt>
</event>
<event>
 6    1  0.4261782E-002  0.1502279E+03  0.7546771E-02  0.1200193E+00
         21   -1    0    0  503  502  0.00000000000E+00  0.00000000000E+00  0.20185471915E+03  0.20185471915E+03  0.00000000000E+00 0.  1.
         21   -1    0    0  504  503 -0.00000000000E+00 -0.00000000000E+00 -0.40782012814E+03  0.40782012814E+03  0.00000000000E+00 0.  1.
         25    2    1    2    0    0  0.83333678010E+02 -0.38985417228E-01 -0.38441474210E+03  0.41272645838E+03  0.12499572832E+03 0.  0.
          5    1    3    3  501    0 -0.25680572013E+02 -0.27665764414E+02 -0.99527775618E+02  0.10644564068E+03  0.10000000000E+00 0. -1.
         -5    1    3    3    0  501  0.10901425002E+03  0.27626778997E+02 -0.28488696648E+03  0.30628081771E+03  0.10000000000E+00 0. -1.
         21    1    1    2  504  502 -0.83333678010E+02  0.38985417228E-01  0.17844933311E+03  0.19694838892E+03  0.00000000000E+00 0.  1.
<mgrwt>
<rscale>  1 0.15022795E+03</rscale>
<asrwt>0</asrwt>
<pdfrwt beam="1">  1       21 0.31054572E-01 0.15022795E+03</pdfrwt>
<pdfrwt beam="2">  1       21 0.62741558E-01 0.15022795E+03</pdfrwt>
<totfact> 0.24048394E+04</totfact>
</mgrwt>
</event>
<event>
 6    1  0.4261782E-002  0.1262657E+03  0.7546771E-02  0.1233104E+00
         21   -1    0    0  503  502  0.00000000000E+00  0.00000000000E+00  0.40771020213E+02  0.40771020213E+02  0.00000000000E+00 0.  1.
         21   -1    0    0  504  503 -0.00000000000E+00 -0.00000000000E+00 -0.24688615736E+03  0.24688615736E+03  0.00000000000E+00 0.  1.
         25    2    1    2    0    0 -0.78421773843E+01 -0.16028314809E+02 -0.22726503060E+03  0.25998544804E+03  0.12499852974E+03 0.  0.
          5    1    3    3  501    0  0.13465568980E+02  0.46698684273E+02 -0.45702279888E+02  0.66714294178E+02  0.10000000000E+00 0. -1.
         -5    1    3    3    0  501 -0.21307746364E+02 -0.62726999082E+02 -0.18156275072E+03  0.19327115387E+03  0.10000000000E+00 0. -1.
         21    1    1    2  504  502  0.78421773843E+01  0.16028314809E+02  0.21149893458E+02  0.27671729527E+02  0.00000000000E+00 0.  1.
<mgrwt>
<rscale>  1 0.12626575E+03</rscale>
<asrwt>0</asrwt>
<pdfrwt beam="1">  1       21 0.62724646E-02 0.12626575E+03</pdfrwt>
<pdfrwt beam="2">  1       21 0.37982486E-01 0.12626575E+03</pdfrwt>
<totfact> 0.12206847E+06</totfact>
</mgrwt>
</event>
<event>
 6    1  0.4261782E-002  0.1478855E+03  0.7546771E-02  0.1203096E+00
         21   -1    0    0  503  502  0.00000000000E+00  0.00000000000E+00  0.45103679849E+02  0.45103679849E+02  0.00000000000E+00 0. -1.
         21   -1    0    0  504  503 -0.00000000000E+00 -0.00000000000E+00 -0.30459300423E+03  0.30459300423E+03  0.00000000000E+00 0. -1.
         25    2    1    2    0    0  0.43216760291E+02  0.66156500312E+02 -0.20861342938E+03  0.25571409210E+03  0.12500305226E+03 0.  0.
          5    1    3    3  501    0 -0.44341854266E+02  0.24252654505E+02 -0.78950146283E+02  0.93741809713E+02  0.10000000000E+00 0.  1.
         -5    1    3    3    0  501  0.87558614557E+02  0.41903845807E+02 -0.12966328310E+03  0.16197228238E+03  0.10000000000E+00 0.  1.
         21    1    1    2  504  502 -0.43216760291E+02 -0.66156500312E+02 -0.50875894999E+02  0.93982591981E+02  0.00000000000E+00 0. -1.
<mgrwt>
<rscale>  1 0.14788554E+03</rscale>
<asrwt>0</asrwt>
<pdfrwt beam="1">  1       21 0.69390277E-02 0.14788554E+03</pdfrwt>
<pdfrwt beam="2">  1       21 0.46860462E-01 0.14788554E+03</pdfrwt>
<totfact> 0.67280488E+05</totfact>
</mgrwt>
</event>
<event>
 6    1  0.4261782E-002  0.1263308E+03  0.7546771E-02  0.1233004E+00
         21   -1    0    0  504  502  0.00000000000E+00  0.00000000000E+00  0.17979035172E+03  0.17979035172E+03  0.00000000000E+00 0. -1.
         21   -1    0    0  502  503 -0.00000000000E+00 -0.00000000000E+00 -0.29385157687E+02  0.29385157687E+02  0.00000000000E+00 0. -1.
         25    2    1    2    0    0 -0.18213794024E+02 -0.18698779834E+01  0.12379521392E+03  0.17687489366E+03  0.12499693708E+03 0.  0.
          5    1    3    3  501    0  0.37814599390E+02  0.14486131972E+02  0.53966744263E+00  0.40498063997E+02  0.10000000000E+00 0.  1.
         -5    1    3    3    0  501 -0.56028393414E+02 -0.16356009956E+02  0.12325554648E+03  0.13637682966E+03  0.10000000000E+00 0.  1.
         21    1    1    2  504  503  0.18213794024E+02  0.18698779834E+01  0.26609980113E+02  0.32300615754E+02  0.00000000000E+00 0. -1.
<mgrwt>
<rscale>  1 0.12633081E+03</rscale>
<asrwt>0</asrwt>
<pdfrwt beam="1">  1       21 0.27660054E-01 0.12633081E+03</pdfrwt>
<pdfrwt beam="2">  1       21 0.45207936E-02 0.12633081E+03</pdfrwt>
<totfact> 0.39276598E+06</totfact>
</mgrwt>
</event>
<event>
 6    1  0.4261782E-002  0.1284256E+03  0.7546771E-02  0.1229811E+00
         21   -1    0    0  504  502  0.00000000000E+00  0.00000000000E+00  0.12850735581E+03  0.12850735581E+03  0.00000000000E+00 0. -1.
         21   -1    0    0  502  503 -0.00000000000E+00 -0.00000000000E+00 -0.16417505477E+03  0.16417505477E+03  0.00000000000E+00 0. -1.
         25    2    1    2    0    0 -0.22948326489E+01 -0.29307514530E+02 -0.13663887261E+03  0.18751884953E+03  0.12501576204E+03 0.  0.
          5    1    3    3  501    0 -0.38636184598E+02  0.14410735930E+01  0.41635808720E+01  0.38886718286E+02  0.10000000000E+00 0. -1.
         -5    1    3    3    0  501  0.36341351949E+02 -0.30748588123E+02 -0.14080245348E+03  0.14863213125E+03  0.10000000000E+00 0. -1.
         21    1    1    2  504  503  0.22948326489E+01  0.29307514530E+02  0.10097117365E+03  0.10516356105E+03  0.00000000000E+00 0. -1.
<mgrwt>
<rscale>  1 0.12842561E+03</rscale>
<asrwt>0</asrwt>
<pdfrwt beam="1">  1       21 0.19770362E-01 0.12842561E+03</pdfrwt>
<pdfrwt beam="2">  1       21 0.25257701E-01 0.12842561E+03</pdfrwt>
<totfact> 0.35439462E+05</totfact>
</mgrwt>
</event>
<event>
 6    1  0.4261782E-002  0.1276561E+03  0.7546771E-02  0.1230976E+00
         21   -1    0    0  504  502  0.00000000000E+00  0.00000000000E+00  0.78756593879E+02  0.78756593879E+02  0.00000000000E+00 0.  1.
         21   -1    0    0  502  503 -0.00000000000E+00 -0.00000000000E+00 -0.98578028149E+02  0.98578028149E+02  0.00000000000E+00 0.  1.
         25    2    1    2    0    0  0.22014942396E+02 -0.13618221118E+02 -0.50422067791E+02  0.13725329961E+03  0.12500387873E+03 0.  0.
          5    1    3    3  501    0 -0.11350689062E+02  0.25518306351E+02 -0.75161870778E+02  0.80183158581E+02  0.10000000000E+00 0.  1.
         -5    1    3    3    0  501  0.33365631458E+02 -0.39136527468E+02  0.24739802986E+02  0.57070141026E+02  0.10000000000E+00 0.  1.
         21    1    1    2  504  503 -0.22014942396E+02  0.13618221118E+02  0.30600633522E+02  0.40081322421E+02  0.00000000000E+00 0. -1.
<mgrwt>
<rscale>  1 0.12765611E+03</rscale>
<asrwt>0</asrwt>
<pdfrwt beam="1">  1       21 0.12116399E-01 0.12765611E+03</pdfrwt>
<pdfrwt beam="2">  1       21 0.15165850E-01 0.12765611E+03</pdfrwt>
<totfact> 0.22014663E+06</totfact>
</mgrwt>
</event>
<event>
 6    1  0.4261782E-002  0.1265611E+03  0.7546771E-02  0.1232649E+00
         21   -1    0    0  503  502  0.00000000000E+00  0.00000000000E+00  0.10890832066E+02  0.10890832066E+02  0.00000000000E+00 0. -1.
         21   -1    0    0  504  503 -0.00000000000E+00 -0.00000000000E+00 -0.50460392206E+03  0.50460392206E+03  0.00000000000E+00 0. -1.
         25    2    1    2    0    0  0.16249892778E+02  0.11363743125E+02 -0.39396438217E+03  0.41379422126E+03  0.12499811780E+03 0.  0.
          5    1    3    3  501    0  0.38501049544E+02 -0.37790693404E+02 -0.30509166042E+03  0.30982478691E+03  0.10000000000E+00 0.  1.
         -5    1    3    3    0  501 -0.22251156766E+02  0.49154436528E+02 -0.88872721748E+02  0.10396943435E+03  0.10000000000E+00 0.  1.
         21    1    1    2  504  502 -0.16249892778E+02 -0.11363743125E+02 -0.99748707817E+02  0.10170053286E+03  0.00000000000E+00 0. -1.
<mgrwt>
<rscale>  1 0.12656114E+03</rscale>
<asrwt>0</asrwt>
<pdfrwt beam="1">  1       21 0.16755124E-02 0.12656114E+03</pdfrwt>
<pdfrwt beam="2">  1       21 0.77631383E-01 0.12656114E+03</pdfrwt>
<totfact> 0.24034800E+06</totfact>
</mgrwt>
</event>
<event>
 6    1  0.4261782E-002  0.1436553E+03  0.7546771E-02  0.1208493E+00
         21   -1    0    0  503  502  0.00000000000E+00  0.00000000000E+00  0.13068279078E+03  0.13068279078E+03  0.00000000000E+00 0. -1.
         21   -1    0    0  504  503 -0.00000000000E+00 -0.00000000000E+00 -0.89057123110E+02  0.89057123110E+02  0.00000000000E+00 0.  1.
         25    2    1    2    0    0 -0.19334622289E+02 -0.68118667787E+02  0.16477041407E+02  0.14459715694E+03  0.12499145723E+03 0.  0.
          5    1    3    3  501    0  0.53207307166E+02 -0.30317283857E+02  0.13685976512E+02  0.62749272421E+02  0.10000000000E+00 0. -1.
         -5    1    3    3    0  501 -0.72541929455E+02 -0.37801383930E+02  0.27910648955E+01  0.81847884514E+02  0.10000000000E+00 0. -1.
         21    1    1    2  504  502  0.19334622289E+02  0.68118667787E+02  0.25148626265E+02  0.75142756957E+02  0.00000000000E+00 0.  1.
<mgrwt>
<rscale>  1 0.14365530E+03</rscale>
<asrwt>0</asrwt>
<pdfrwt beam="1">  1       21 0.20105045E-01 0.14365530E+03</pdfrwt>
<pdfrwt beam="2">  1       21 0.13701096E-01 0.14365530E+03</pdfrwt>
<totfact> 0.10581785E+06</totfact>
</mgrwt>
</event>
<event>
 6    1  0.4261782E-002  0.1261155E+03  0.7546771E-02  0.1233336E+00
         21   -1    0    0  503  502  0.00000000000E+00  0.00000000000E+00  0.46523326765E+02  0.46523326765E+02  0.00000000000E+00 0.  1.
         21   -1    0    0  504  503 -0.00000000000E+00 -0.00000000000E+00 -0.11271542200E+03  0.11271542200E+03  0.00000000000E+00 0.  1.
         25    2    1    2    0    0 -0.58910179192E+01 -0.15695572702E+02 -0.66284696019E+02  0.14247379516E+03  0.12499626509E+03 0.  0.
          5    1    3    3  501    0  0.20997411668E+02  0.44533551495E+02 -0.57869668390E+02  0.75980504243E+02  0.10000000000E+00 0. -1.
         -5    1    3    3    0  501 -0.26888429588E+02 -0.60229124197E+02 -0.84150276297E+01  0.66493290918E+02  0.10000000000E+00 0. -1.
         21    1    1    2  504  502  0.58910179192E+01  0.15695572702E+02  0.92600780492E-01  0.16764953608E+02  0.00000000000E+00 0.  1.
<mgrwt>
<rscale>  1 0.12611551E+03</rscale>
<asrwt>0</asrwt>
<pdfrwt beam="1">  1       21 0.71574349E-02 0.12611551E+03</pdfrwt>
<pdfrwt beam="2">  1       21 0.17340834E-01 0.12611551E+03</pdfrwt>
<totfact> 0.43144855E+06</totfact>
</mgrwt>
</event>
<event>
 6    1  0.4261782E-002  0.1329324E+03  0.7546771E-02  0.1223168E+00
         21   -1    0    0  503  502  0.00000000000E+00  0.00000000000E+00  0.82794181080E+03  0.82794181080E+03  0.00000000000E+00 0. -1.
         21   -1    0    0  504  503 -0.00000000000E+00 -0.00000000000E+00 -0.61746954716E+02  0.61746954716E+02  0.00000000000E+00 0.  1.
         25    2    1    2    0    0  0.44576741293E+02 -0.76470195328E+01  0.11268824718E+02  0.13340913760E+03  0.12500179523E+03 0.  0.
          5    1    3    3  501    0  0.53071763659E+02 -0.58896188768E+02 -0.36388235266E+01  0.79363872045E+02  0.10000000000E+00 0. -1.
         -5    1    3    3    0  501 -0.84950223665E+01  0.51249169235E+02  0.14907648245E+02  0.54045265551E+02  0.10000000000E+00 0. -1.
         21    1    1    2  504  502 -0.44576741293E+02  0.76470195328E+01  0.75492603137E+03  0.75627962792E+03  0.00000000000E+00 0. -1.
<mgrwt>
<rscale>  1 0.13293236E+03</rscale>
<asrwt>0</asrwt>
<pdfrwt beam="1">  1       21 0.12737566E+00 0.13293236E+03</pdfrwt>
<pdfrwt beam="2">  1       21 0.94995320E-02 0.13293236E+03</pdfrwt>
<totfact> 0.41868807E+04</totfact>
</mgrwt>
</event>
<event>
 6    1  0.4261782E-002  0.1410624E+03  0.7546771E-02  0.1211907E+00
         21   -1    0    0  503  502  0.00000000000E+00  0.00000000000E+00  0.64774420903E+02  0.64774420903E+02  0.00000000000E+00 0. -1.
         21   -1    0    0  504  503 -0.00000000000E+00 -0.00000000000E+00 -0.16716030166E+03  0.16716030166E+03  0.00000000000E+00 0. -1.
         25    2    1    2    0    0 -0.10093037612E+02  0.64597989292E+02 -0.56008313432E+02  0.15177458047E+03  0.12499528981E+03 0.  0.
          5    1    3    3  501    0  0.53373849002E+02  0.42629377374E+02 -0.49377891121E+02  0.84286521485E+02  0.10000000000E+00 0.  1.
         -5    1    3    3    0  501 -0.63466886614E+02  0.21968611917E+02 -0.66304223118E+01  0.67488058989E+02  0.10000000000E+00 0.  1.
         21    1    1    2  504  502  0.10093037612E+02 -0.64597989292E+02 -0.46377567326E+02  0.80160142090E+02  0.00000000000E+00 0. -1.
<mgrwt>
<rscale>  1 0.14106237E+03</rscale>
<asrwt>0</asrwt>
<pdfrwt beam="1">  1       21 0.99652956E-02 0.14106237E+03</pdfrwt>
<pdfrwt beam="2">  1       21 0.25716969E-01 0.14106237E+03</pdfrwt>
<totfact> 0.11721279E+06</totfact>
</mgrwt>
</event>
<event>
 6    1  0.4261782E-002  0.1268249E+03  0.7546771E-02  0.1232244E+00
         21   -1    0    0  504  502  0.00000000000E+00  0.00000000000E+00  0.43724264781E+02  0.43724264781E+02  0.00000000000E+00 0. -1.
         21   -1    0    0  502  503 -0.00000000000E+00 -0.00000000000E+00 -0.18774684261E+03  0.18774684261E+03  0.00000000000E+00 0. -1.
         25    2    1    2    0    0  0.60290051128E+01 -0.20578149720E+02 -0.16040538842E+03  0.20448582193E+03  0.12499901436E+03 0.  0.
          5    1    3    3  501    0 -0.52775801656E+02 -0.21324219659E+02 -0.37297803530E+02  0.68052507174E+02  0.10000000000E+00 0.  1.
         -5    1    3    3    0  501  0.58804806769E+02  0.74606993937E+00 -0.12310758488E+03  0.13643331476E+03  0.10000000000E+00 0.  1.
         21    1    1    2  504  503 -0.60290051128E+01  0.20578149720E+02  0.16382810588E+02  0.26985285459E+02  0.00000000000E+00 0. -1.
<mgrwt>
<rscale>  1 0.12682493E+03</rscale>
<asrwt>0</asrwt>
<pdfrwt beam="1">  1       21 0.67268102E-02 0.12682493E+03</pdfrwt>
<pdfrwt beam="2">  1       21 0.28884129E-01 0.12682493E+03</pdfrwt>
<totfact> 0.18489152E+06</totfact>
</mgrwt>
</event>
<event>
 6    1  0.4261782E-002  0.1267677E+03  0.7546771E-02  0.1232332E+00
         21   -1    0    0  503  502  0.00000000000E+00  0.00000000000E+00  0.52704957162E+02  0.52704957162E+02  0.00000000000E+00 0. -1.
         21   -1    0    0  504  503 -0.00000000000E+00 -0.00000000000E+00 -0.11935649542E+03  0.11935649542E+03  0.00000000000E+00 0. -1.
         25    2    1    2    0    0 -0.16894049843E+02  0.12771022062E+02 -0.77176348200E+02  0.14841236066E+03  0.12498612783E+03 0.  0.
          5    1    3    3  501    0  0.49186259401E+02  0.36921992017E+01 -0.63359101026E+02  0.80295118978E+02  0.10000000000E+00 0. -1.
         -5    1    3    3    0  501 -0.66080309244E+02  0.90788228607E+01 -0.13817247173E+02  0.68117241677E+02  0.10000000000E+00 0. -1.
         21    1    1    2  504  502  0.16894049843E+02 -0.12771022062E+02  0.10524809942E+02  0.23649091926E+02  0.00000000000E+00 0. -1.
<mgrwt>
<rscale>  1 0.12676766E+03</rscale>
<asrwt>0</asrwt>
<pdfrwt beam="1">  1       21 0.81084551E-02 0.12676766E+03</pdfrwt>
<pdfrwt beam="2">  1       21 0.18362537E-01 0.12676766E+03</pdfrwt>
<totfact> 0.31367826E+06</totfact>
</mgrwt>
</event>
<event>
 6    1  0.4261782E-002  0.1278743E+03  0.7546771E-02  0.1230644E+00
         21   -1    0    0  503  502  0.00000000000E+00  0.00000000000E+00  0.13484976151E+03  0.13484976151E+03  0.00000000000E+00 0.  1.
         21   -1    0    0  504  503 -0.00000000000E+00 -0.00000000000E+00 -0.46210626161E+02  0.46210626161E+02  0.00000000000E+00 0.  1.
         25    2    1    2    0    0  0.26815900621E+00 -0.26970335236E+02  0.58516759946E+02  0.14062737651E+03  0.12499750772E+03 0.  0.
          5    1    3    3  501    0  0.26241475714E+02 -0.71408038497E+02  0.39794153541E+02  0.85856319893E+02  0.10000000000E+00 0.  1.
         -5    1    3    3    0  501 -0.25973316707E+02  0.44437703261E+02  0.18722606406E+02  0.54771056613E+02  0.10000000000E+00 0.  1.
         21    1    1    2  504  502 -0.26815900621E+00  0.26970335236E+02  0.30122375399E+02  0.40433011162E+02  0.00000000000E+00 0.  1.
<mgrwt>
<rscale>  1 0.12787434E+03</rscale>
<asrwt>0</asrwt>
<pdfrwt beam="1">  1       21 0.20746117E-01 0.12787434E+03</pdfrwt>
<pdfrwt beam="2">  1       21 0.71093272E-02 0.12787434E+03</pdfrwt>
<totfact> 0.31406308E+06</totfact>
</mgrwt>
</event>
<event>
 6    1  0.4261782E-002  0.1269748E+03  0.7546771E-02  0.1232015E+00
         21   -1    0    0  504  502  0.00000000000E+00  0.00000000000E+00  0.48702231189E+03  0.48702231189E+03  0.00000000000E+00 0. -1.
         21   -1    0    0  502  503 -0.00000000000E+00 -0.00000000000E+00 -0.11536873604E+02  0.11536873604E+02  0.00000000000E+00 0. -1.
         25    2    1    2    0    0  0.22191670528E+02 -0.18929389973E+01  0.38620566809E+03  0.40654325847E+03  0.12500619780E+03 0.  0.
          5    1    3    3  501    0  0.55433553866E+02 -0.45475978352E+02  0.20154079806E+03  0.21391504572E+03  0.10000000000E+00 0.  1.
         -5    1    3    3    0  501 -0.33241883338E+02  0.43583039354E+02  0.18466487003E+03  0.19262821275E+03  0.10000000000E+00 0.  1.
         21    1    1    2  504  503 -0.22191670528E+02  0.18929389973E+01  0.89279770200E+02  0.92015927023E+02  0.00000000000E+00 0. -1.
<mgrwt>
<rscale>  1 0.12697481E+03</rscale>
<asrwt>0</asrwt>
<pdfrwt beam="1">  1       21 0.74926494E-01 0.12697481E+03</pdfrwt>
<pdfrwt beam="2">  1       21 0.17749040E-02 0.12697481E+03</pdfrwt>
<totfact> 0.23703554E+06</totfact>
</mgrwt>
</event>
<event>
 6    1  0.4261782E-002  0.1270966E+03  0.7546771E-02  0.1231828E+00
         21   -1    0    0  504  502  0.00000000000E+00  0.00000000000E+00  0.63088551900E+02  0.63088551900E+02  0.00000000000E+00 0.  1.
         21   -1    0    0  502  503 -0.00000000000E+00 -0.00000000000E+00 -0.14217521349E+03  0.14217521349E+03  0.00000000000E+00 0.  1.
         25    2    1    2    0    0  0.12964766390E+02 -0.18966039015E+02 -0.10907691471E+03  0.16748531802E+03  0.12500305047E+03 0.  0.
          5    1    3    3  501    0 -0.25272094798E+02 -0.62104201207E+02 -0.74657320963E+02  0.10034608192E+03  0.10000000000E+00 0. -1.
         -5    1    3    3    0  501  0.38236861188E+02  0.43138162192E+02 -0.34419593747E+02  0.67139236103E+02  0.10000000000E+00 0. -1.
         21    1    1    2  504  503 -0.12964766390E+02  0.18966039015E+02  0.29990253120E+02  0.37778447369E+02  0.00000000000E+00 0.  1.
<mgrwt>
<rscale>  1 0.12709665E+03</rscale>
<asrwt>0</asrwt>
<pdfrwt beam="1">  1       21 0.97059311E-02 0.12709665E+03</pdfrwt>
<pdfrwt beam="2">  1       21 0.21873110E-01 0.12709665E+03</pdfrwt>
<totfact> 0.16618276E+06</totfact>
</mgrwt>
</event>
<event>
 6    1  0.4261782E-002  0.1282303E+03  0.7546771E-02  0.1230106E+00
         21   -1    0    0  503  502  0.00000000000E+00  0.00000000000E+00  0.16695990289E+03  0.16695990289E+03  0.00000000000E+00 0.  1.
         21   -1    0    0  504  503 -0.00000000000E+00 -0.00000000000E+00 -0.42726437384E+02  0.42726437384E+02  0.00000000000E+00 0.  1.
         25    2    1    2    0    0 -0.26586772424E+02 -0.10731231885E+02  0.64743497164E+02  0.14364792616E+03  0.12498396081E+03 0.  0.
          5    1    3    3  501    0  0.71821458600E+01  0.36979035528E+02  0.75349857262E+02  0.84241576891E+02  0.10000000000E+00 0. -1.
         -5    1    3    3    0  501 -0.33768918284E+02 -0.47710267414E+02 -0.10606360098E+02  0.59406349267E+02  0.10000000000E+00 0. -1.
         21    1    1    2  504  502  0.26586772424E+02  0.10731231885E+02  0.59489968343E+02  0.66038414117E+02  0.00000000000E+00 0.  1.
<mgrwt>
<rscale>  1 0.12823029E+03</rscale>
<asrwt>0</asrwt>
<pdfrwt beam="1">  1       21 0.25686139E-01 0.12823029E+03</pdfrwt>
<pdfrwt beam="2">  1       21 0.65732981E-02 0.12823029E+03</pdfrwt>
<totfact> 0.24062379E+06</totfact>
</mgrwt>
</event>
<event>
 6    1  0.4261782E-002  0.1294200E+03  0.7546771E-02  0.1228319E+00
         21   -1    0    0  503  502  0.00000000000E+00  0.00000000000E+00  0.11097283955E+03  0.11097283955E+03  0.00000000000E+00 0. -1.
         21   -1    0    0  504  503 -0.00000000000E+00 -0.00000000000E+00 -0.83665053083E+02  0.83665053083E+02  0.00000000000E+00 0. -1.
         25    2    1    2    0    0 -0.67920488076E+01 -0.32797356387E+02 -0.25688588688E+02  0.13194487633E+03  0.12501099267E+03 0.  0.
          5    1    3    3  501    0  0.20401367451E+02  0.40631330092E+02  0.89245690019E+01  0.46333343402E+02  0.10000000000E+00 0.  1.
         -5    1    3    3    0  501 -0.27193416259E+02 -0.73428686479E+02 -0.34613157690E+02  0.85611532933E+02  0.10000000000E+00 0.  1.
         21    1    1    2  504  502  0.67920488076E+01  0.32797356387E+02  0.52996375153E+02  0.62693016296E+02  0.00000000000E+00 0. -1.
<mgrwt>
<rscale>  1 0.12942004E+03</rscale>
<asrwt>0</asrwt>
<pdfrwt beam="1">  1       21 0.17072745E-01 0.12942004E+03</pdfrwt>
<pdfrwt beam="2">  1       21 0.12871547E-01 0.12942004E+03</pdfrwt>
<totfact> 0.15957991E+06</totfact>
</mgrwt>
</event>
<event>
 6    1  0.4261782E-002  0.1287369E+03  0.7546771E-02  0.1229342E+00
         21   -1    0    0  504  502  0.00000000000E+00  0.00000000000E+00  0.32067733240E+03  0.32067733240E+03  0.00000000000E+00 0. -1.
         21   -1    0    0  502  503 -0.00000000000E+00 -0.00000000000E+00 -0.22902697616E+02  0.22902697616E+02  0.00000000000E+00 0. -1.
         25    2    1    2    0    0 -0.30795670759E+02 -0.16094584422E-01  0.17653167027E+03  0.21848714437E+03  0.12499931219E+03 0.  0.
          5    1    3    3  501    0  0.45258086888E+02  0.91553772173E+01  0.10028389384E+03  0.11040373510E+03  0.10000000000E+00 0. -1.
         -5    1    3    3    0  501 -0.76053757647E+02 -0.91714718017E+01  0.76247776429E+02  0.10808340926E+03  0.10000000000E+00 0. -1.
         21    1    1    2  504  503  0.30795670759E+02  0.16094584422E-01  0.12124296451E+03  0.12509288565E+03  0.00000000000E+00 0. -1.
<mgrwt>
<rscale>  1 0.12873695E+03</rscale>
<asrwt>0</asrwt>
<pdfrwt beam="1">  1       21 0.49334971E-01 0.12873695E+03</pdfrwt>
<pdfrwt beam="2">  1       21 0.35234922E-02 0.12873695E+03</pdfrwt>
<totfact> 0.18906388E+06</totfact>
</mgrwt>
</event>
<event>
 6    1  0.4261782E-002  0.1303549E+03  0.7546771E-02  0.1226930E+00
         21   -1    0    0  503  502  0.00000000000E+00  0.00000000000E+00  0.18925045721E+03  0.18925045721E+03  0.00000000000E+00 0. -1.
         21   -1    0    0  504  503 -0.00000000000E+00 -0.00000000000E+00 -0.37546022370E+02  0.37546022370E+02  0.00000000000E+00 0. -1.
         25    2    1    2    0    0  0.23824846631E+02 -0.28188431105E+02  0.12938173797E+03  0.18366280641E+03  0.12502072378E+03 0.  0.
          5    1    3    3  501    0  0.68925378633E+02 -0.36682820812E+02  0.10738483912E+03  0.13276991691E+03  0.10000000000E+00 0.  1.
         -5    1    3    3    0  501 -0.45100532002E+02  0.84943897073E+01  0.21996898842E+02  0.50892889504E+02  0.10000000000E+00 0.  1.
         21    1    1    2  504  502 -0.23824846631E+02  0.28188431105E+02  0.22322696873E+02  0.43133673167E+02  0.00000000000E+00 0. -1.
<mgrwt>
<rscale>  1 0.13035487E+03</rscale>
<asrwt>0</asrwt>
<pdfrwt beam="1">  1       21 0.29115454E-01 0.13035487E+03</pdfrwt>
<pdfrwt beam="2">  1       21 0.57763112E-02 0.13035487E+03</pdfrwt>
<totfact> 0.23605856E+06</totfact>
</mgrwt>
</event>
<event>
 6    1  0.4261782E-002  0.1335934E+03  0.7546771E-02  0.1222219E+00
         21   -1    0    0  503  502  0.00000000000E+00  0.00000000000E+00  0.22831703039E+03  0.22831703039E+03  0.00000000000E+00 0. -1.
         21   -1    0    0  504  503 -0.00000000000E+00 -0.00000000000E+00 -0.35782031082E+02  0.35782031082E+02  0.00000000000E+00 0. -1.
         25    2    1    2    0    0 -0.47032313094E+02 -0.35642185394E+01  0.14360745495E+03  0.19613843518E+03  0.12498976962E+03 0.  0.
          5    1    3    3  501    0  0.14849496913E+02 -0.35683393484E+02  0.24814834848E+01  0.38729573835E+02  0.10000000000E+00 0.  1.
         -5    1    3    3    0  501 -0.61881810007E+02  0.32119174945E+02  0.14112597146E+03  0.15740886135E+03  0.10000000000E+00 0.  1.
         21    1    1    2  504  502  0.47032313094E+02  0.35642185394E+01  0.48927544361E+02  0.67960626292E+02  0.00000000000E+00 0. -1.
<mgrwt>
<rscale>  1 0.13359336E+03</rscale>
<asrwt>0</asrwt>
<pdfrwt beam="1">  1       21 0.35125696E-01 0.13359336E+03</pdfrwt>
<pdfrwt beam="2">  1       21 0.55049280E-02 0.13359336E+03</pdfrwt>
<totfact> 0.17788591E+06</totfact>
</mgrwt>
</event>
<event>
 6    1  0.4261782E-002  0.1269036E+03  0.7546771E-02  0.1232124E+00
         21   -1    0    0  503  502  0.00000000000E+00  0.00000000000E+00  0.13701741241E+03  0.13701741241E+03  0.00000000000E+00 0. -1.
         21   -1    0    0  504  503 -0.00000000000E+00 -0.00000000000E+00 -0.57880278340E+02  0.57880278340E+02  0.00000000000E+00 0. -1.
         25    2    1    2    0    0 -0.76619776775E+00  0.21962574076E+02  0.15832886947E+02  0.12788747195E+03  0.12498633307E+03 0.  0.
          5    1    3    3  501    0  0.13817231592E+02  0.72236193536E+02  0.12840185664E+01  0.73557067975E+02  0.10000000000E+00 0. -1.
         -5    1    3    3    0  501 -0.14583429359E+02 -0.50273619460E+02  0.14548868381E+02  0.54330403980E+02  0.10000000000E+00 0. -1.
         21    1    1    2  504  502  0.76619776775E+00 -0.21962574076E+02  0.63304247124E+02  0.67010218796E+02  0.00000000000E+00 0. -1.
<mgrwt>
<rscale>  1 0.12690361E+03</rscale>
<asrwt>0</asrwt>
<pdfrwt beam="1">  1       21 0.21079602E-01 0.12690361E+03</pdfrwt>
<pdfrwt beam="2">  1       21 0.89046583E-02 0.12690361E+03</pdfrwt>
<totfact> 0.20680095E+06</totfact>
</mgrwt>
</event>
<event>
 6    1  0.4261782E-002  0.1269571E+03  0.7546771E-02  0.1232042E+00
         21   -1    0    0  503  502  0.00000000000E+00  0.00000000000E+00  0.12058462606E+04  0.12058462606E+04  0.00000000000E+00 0.  1.
         21   -1    0    0  504  503 -0.00000000000E+00 -0.00000000000E+00 -0.70112433288E+02  0.70112433288E+02  0.00000000000E+00 0.  1.
         25    2    1    2    0    0  0.18508103809E+02  0.12226849998E+02 -0.12444993359E+02  0.12756562094E+03  0.12500425600E+03 0.  0.
          5    1    3    3  501    0  0.22466849709E+02 -0.41770454873E+02  0.32252910834E+02  0.57356695280E+02  0.10000000000E+00 0.  1.
         -5    1    3    3    0  501 -0.39587458999E+01  0.53997304871E+02 -0.44697904193E+02  0.70208925656E+02  0.10000000000E+00 0.  1.
         21    1    1    2  504  502 -0.18508103809E+02 -0.12226849998E+02  0.11481788206E+04  0.11483930729E+04  0.00000000000E+00 0.  1.
<mgrwt>
<rscale>  1 0.12695712E+03</rscale>
<asrwt>0</asrwt>
<pdfrwt beam="1">  1       21 0.18551479E+00 0.12695712E+03</pdfrwt>
<pdfrwt beam="2">  1       21 0.10786529E-01 0.12695712E+03</pdfrwt>
<totfact> 0.12572226E+04</totfact>
</mgrwt>
</event>
<event>
 6    1  0.4261782E-002  0.1506139E+03  0.7546771E-02  0.1199721E+00
         21   -1    0    0  503  502  0.00000000000E+00  0.00000000000E+00  0.95563839030E+03  0.95563839030E+03  0.00000000000E+00 0. -1.
         21   -1    0    0  504  503 -0.00000000000E+00 -0.00000000000E+00 -0.68802977297E+02  0.68802977297E+02  0.00000000000E+00 0. -1.
         25    2    1    2    0    0 -0.14562889444E+02  0.82763525084E+02  0.18153216864E+02  0.15170392900E+03  0.12499065549E+03 0.  0.
          5    1    3    3  501    0  0.25418019152E+02 -0.20227284848E+02  0.25033424962E+02  0.41010987738E+02  0.10000000000E+00 0.  1.
         -5    1    3    3    0  501 -0.39980908597E+02  0.10299080993E+03 -0.68802080985E+01  0.11069294127E+03  0.10000000000E+00 0.  1.
         21    1    1    2  504  502  0.14562889444E+02 -0.82763525084E+02  0.86868219614E+03  0.87273743860E+03  0.00000000000E+00 0. -1.
<mgrwt>
<rscale>  1 0.15061389E+03</rscale>
<asrwt>0</asrwt>
<pdfrwt beam="1">  1       21 0.14702128E+00 0.15061389E+03</pdfrwt>
<pdfrwt beam="2">  1       21 0.10585074E-01 0.15061389E+03</pdfrwt>
<totfact> 0.23793921E+04</totfact>
</mgrwt>
</event>
<event>
 6    1  0.4261782E-002  0.1303531E+03  0.7546771E-02  0.1226933E+00
         21   -1    0    0  504  502  0.00000000000E+00  0.00000000000E+00  0.69981549230E+03  0.69981549230E+03  0.00000000000E+00 0. -1.
         21   -1    0    0  502  503 -0.00000000000E+00 -0.00000000000E+00 -0.12061681376E+02  0.12061681376E+02  0.00000000000E+00 0.  1.
         25    2    1    2    0    0  0.36451671009E+02 -0.61056487709E+01  0.37630151167E+03  0.39823958349E+03  0.12500373957E+03 0.  0.
          5    1    3    3  501    0  0.77514599792E+02  0.11290066264E+02  0.29805796497E+03  0.30817939461E+03  0.10000000000E+00 0. -1.
         -5    1    3    3    0  501 -0.41062928783E+02 -0.17395715035E+02  0.78243546698E+02  0.90060188884E+02  0.10000000000E+00 0. -1.
         21    1    1    2  504  503 -0.36451671009E+02  0.61056487709E+01  0.31145229925E+03  0.31363759018E+03  0.00000000000E+00 0. -1.
<mgrwt>
<rscale>  1 0.13035313E+03</rscale>
<asrwt>0</asrwt>
<pdfrwt beam="1">  1       21 0.10766389E+00 0.13035313E+03</pdfrwt>
<pdfrwt beam="2">  1       21 0.18556438E-02 0.13035313E+03</pdfrwt>
<totfact> 0.96267664E+05</totfact>
</mgrwt>
</event>
<event>
 6    1  0.4261782E-002  0.1368584E+03  0.7546771E-02  0.1217620E+00
         21   -1    0    0  504  502  0.00000000000E+00  0.00000000000E+00  0.24543153148E+02  0.24543153148E+02  0.00000000000E+00 0.  1.
         21   -1    0    0  502  503 -0.00000000000E+00 -0.00000000000E+00 -0.55030285768E+03  0.55030285768E+03  0.00000000000E+00 0.  1.
         25    2    1    2    0    0 -0.30895924345E+02 -0.46363506524E+02 -0.48973673248E+03  0.50850004340E+03  0.12500437640E+03 0.  0.
          5    1    3    3  501    0 -0.29396289624E+02  0.10303368737E+02 -0.40709508965E+03  0.40828510047E+03  0.10000000000E+00 0.  1.
         -5    1    3    3    0  501 -0.14996347203E+01 -0.56666875262E+02 -0.82641642832E+02  0.10021494293E+03  0.10000000000E+00 0.  1.
         21    1    1    2  504  503  0.30895924345E+02  0.46363506524E+02 -0.36022972046E+02  0.66345967424E+02  0.00000000000E+00 0.  1.
<mgrwt>
<rscale>  1 0.13685842E+03</rscale>
<asrwt>0</asrwt>
<pdfrwt beam="1">  1       21 0.37758696E-02 0.13685842E+03</pdfrwt>
<pdfrwt beam="2">  1       21 0.84661980E-01 0.13685842E+03</pdfrwt>
<totfact> 0.52672419E+05</totfact>
</mgrwt>
</event>
<event>
 6    1  0.4261782E-002  0.1339376E+03  0.7546771E-02  0.1221727E+00
         21   -1    0    0  504  502  0.00000000000E+00  0.00000000000E+00  0.43390470942E+02  0.43390470942E+02  0.00000000000E+00 0.  1.
         21   -1    0    0  502  503 -0.00000000000E+00 -0.00000000000E+00 -0.21407083439E+03  0.21407083439E+03  0.00000000000E+00 0.  1.
         25    2    1    2    0    0 -0.19664377044E+02 -0.43945396757E+02 -0.15904789826E+03  0.20793151766E+03  0.12498558507E+03 0.  0.
          5    1    3    3  501    0 -0.58592423547E+02 -0.28565195485E+01 -0.27630964852E+02  0.64843750814E+02  0.10000000000E+00 0. -1.
         -5    1    3    3    0  501  0.38928046503E+02 -0.41088877208E+02 -0.13141693341E+03  0.14308776684E+03  0.10000000000E+00 0. -1.
         21    1    1    2  504  503  0.19664377044E+02  0.43945396757E+02 -0.11632465192E+02  0.49529787675E+02  0.00000000000E+00 0.  1.
<mgrwt>
<rscale>  1 0.13393761E+03</rscale>
<asrwt>0</asrwt>
<pdfrwt beam="1">  1       21 0.66754571E-02 0.13393761E+03</pdfrwt>
<pdfrwt beam="2">  1       21 0.32933974E-01 0.13393761E+03</pdfrwt>
<totfact> 0.14547659E+06</totfact>
</mgrwt>
</event>
<event>
 6    1  0.4261782E-002  0.1302688E+03  0.7546771E-02  0.1227057E+00
         21   -1    0    0  504  502  0.00000000000E+00  0.00000000000E+00  0.27473931606E+03  0.27473931606E+03  0.00000000000E+00 0. -1.
         21   -1    0    0  502  503 -0.00000000000E+00 -0.00000000000E+00 -0.61459661094E+03  0.61459661094E+03  0.00000000000E+00 0. -1.
         25    2    1    2    0    0  0.34469346324E+02  0.12564035119E+02 -0.60642316689E+03  0.62025721187E+03  0.12499584282E+03 0.  0.
          5    1    3    3  501    0 -0.33769937199E+02  0.33209415726E+02 -0.12666291289E+03  0.13522861182E+03  0.10000000000E+00 0.  1.
         -5    1    3    3    0  501  0.68239283523E+02 -0.20645380607E+02 -0.47976025400E+03  0.48502860006E+03  0.10000000000E+00 0.  1.
         21    1    1    2  504  503 -0.34469346324E+02 -0.12564035119E+02  0.26656587201E+03  0.26907871513E+03  0.00000000000E+00 0. -1.
<mgrwt>
<rscale>  1 0.13026877E+03</rscale>
<asrwt>0</asrwt>
<pdfrwt beam="1">  1       21 0.42267587E-01 0.13026877E+03</pdfrwt>
<pdfrwt beam="2">  1       21 0.94553324E-01 0.13026877E+03</pdfrwt>
<totfact> 0.53310313E+03</totfact>
</mgrwt>
</event>
<event>
 6    1  0.4261782E-002  0.1259276E+03  0.7546771E-02  0.1233627E+00
         21   -1    0    0  504  502  0.00000000000E+00  0.00000000000E+00  0.38666736619E+03  0.38666736619E+03  0.00000000000E+00 0. -1.
         21   -1    0    0  502  503 -0.00000000000E+00 -0.00000000000E+00 -0.47013855347E+02  0.47013855347E+02  0.00000000000E+00 0. -1.
         25    2    1    2    0    0  0.38235979231E-01  0.15352922756E+02  0.37857613237E+02  0.13149505787E+03  0.12498815010E+03 0.  0.
          5    1    3    3  501    0 -0.59588513273E+02 -0.96638710007E+01  0.10453503618E+02  0.61265545413E+02  0.10000000000E+00 0. -1.
         -5    1    3    3    0  501  0.59626749252E+02  0.25016793756E+02  0.27404109618E+02  0.70229512459E+02  0.10000000000E+00 0. -1.
         21    1    1    2  504  503 -0.38235979231E-01 -0.15352922756E+02  0.30179589760E+03  0.30218616366E+03  0.00000000000E+00 0. -1.
<mgrwt>
<rscale>  1 0.12592756E+03</rscale>
<asrwt>0</asrwt>
<pdfrwt beam="1">  1       21 0.59487285E-01 0.12592756E+03</pdfrwt>
<pdfrwt beam="2">  1       21 0.72329011E-02 0.12592756E+03</pdfrwt>
<totfact> 0.38193346E+05</totfact>
</mgrwt>
</event>
<event>
 6    1  0.4261782E-002  0.1260201E+03  0.7546771E-02  0.1233484E+00
         21   -1    0    0  503  502  0.00000000000E+00  0.00000000000E+00  0.40059669758E+03  0.40059669758E+03  0.00000000000E+00 0.  1.
         21   -1    0    0  504  503 -0.00000000000E+00 -0.00000000000E+00 -0.23396224074E+02  0.23396224074E+02  0.00000000000E+00 0. -1.
         25    2    1    2    0    0 -0.59281337238E+01  0.14848871715E+02  0.14862982051E+03  0.19486375465E+03  0.12500171027E+03 0.  0.
          5    1    3    3  501    0  0.21253494943E+02  0.65094451068E+02  0.88872715924E+02  0.11219344118E+03  0.10000000000E+00 0. -1.
         -5    1    3    3    0  501 -0.27181628666E+02 -0.50245579353E+02  0.59757104587E+02  0.82670313475E+02  0.10000000000E+00 0. -1.
         21    1    1    2  504  502  0.59281337238E+01 -0.14848871715E+02  0.22857065300E+03  0.22912916700E+03  0.00000000000E+00 0.  1.
<mgrwt>
<rscale>  1 0.12602008E+03</rscale>
<asrwt>0</asrwt>
<pdfrwt beam="1">  1       21 0.61630256E-01 0.12602008E+03</pdfrwt>
<pdfrwt beam="2">  1       21 0.35994194E-02 0.12602008E+03</pdfrwt>
<totfact> 0.11449743E+06</totfact>
</mgrwt>
</event>
<event>
 6    1  0.4261782E-002  0.1265071E+03  0.7546771E-02  0.1232733E+00
         21   -1    0    0  503  502  0.00000000000E+00  0.00000000000E+00  0.40937314059E+01  0.40937314059E+01  0.00000000000E+00 0.  1.
         21   -1    0    0  504  503 -0.00000000000E+00 -0.00000000000E+00 -0.14632933861E+04  0.14632933861E+04  0.00000000000E+00 0.  1.
         25    2    1    2    0    0 -0.11348396463E+02  0.15803222012E+02 -0.13818269419E+04  0.13876057625E+04  0.12500210685E+03 0.  0.
          5    1    3    3  501    0 -0.66330057279E+02 -0.59940498133E+01 -0.65549002930E+03  0.65886477644E+03  0.10000000000E+00 0. -1.
         -5    1    3    3    0  501  0.54981660817E+02  0.21797271825E+02 -0.72633691265E+03  0.72874098606E+03  0.10000000000E+00 0. -1.
         21    1    1    2  504  502  0.11348396463E+02 -0.15803222012E+02 -0.77372712791E+02  0.79781355045E+02  0.00000000000E+00 0.  1.
<mgrwt>
<rscale>  1 0.12650713E+03</rscale>
<asrwt>0</asrwt>
<pdfrwt beam="1">  1       21 0.62980449E-03 0.12650713E+03</pdfrwt>
<pdfrwt beam="2">  1       21 0.22512218E+00 0.12650713E+03</pdfrwt>
<totfact> 0.74896623E+05</totfact>
</mgrwt>
</event>
<event>
 6    1  0.4261782E-002  0.1266013E+03  0.7546771E-02  0.1232588E+00
         21   -1    0    0  503  502  0.00000000000E+00  0.00000000000E+00  0.22429929151E+02  0.22429929151E+02  0.00000000000E+00 0.  1.
         21   -1    0    0  504  503 -0.00000000000E+00 -0.00000000000E+00 -0.24083612458E+03  0.24083612458E+03  0.00000000000E+00 0.  1.
         25    2    1    2    0    0 -0.12323558477E+02 -0.15637514487E+02 -0.19554964639E+03  0.23295394745E+03  0.12502589923E+03 0.  0.
          5    1    3    3  501    0 -0.33459005262E+02  0.81640312899E+01  0.39259942041E+00  0.34443004722E+02  0.10000000000E+00 0. -1.
         -5    1    3    3    0  501  0.21135446785E+02 -0.23801545777E+02 -0.19594224581E+03  0.19851094273E+03  0.10000000000E+00 0. -1.
         21    1    1    2  504  502  0.12323558477E+02  0.15637514487E+02 -0.22856549046E+02  0.30312106281E+02  0.00000000000E+00 0.  1.
<mgrwt>
<rscale>  1 0.12660125E+03</rscale>
<asrwt>0</asrwt>
<pdfrwt beam="1">  1       21 0.34507584E-02 0.12660125E+03</pdfrwt>
<pdfrwt beam="2">  1       21 0.37051710E-01 0.12660125E+03</pdfrwt>
<totfact> 0.34847659E+06</totfact>
</mgrwt>
</event>
<event>
 6    1  0.4261782E-002  0.1284659E+03  0.7546771E-02  0.1229750E+00
         21   -1    0    0  503  502  0.00000000000E+00  0.00000000000E+00  0.57658073006E+01  0.57658073006E+01  0.00000000000E+00 0. -1.
         21   -1    0    0  504  503 -0.00000000000E+00 -0.00000000000E+00 -0.12990553586E+04  0.12990553586E+04  0.00000000000E+00 0. -1.
         25    2    1    2    0    0  0.29568598289E+02 -0.20130741127E+01 -0.12019021065E+04  0.12087481752E+04  0.12500049202E+03 0.  0.
          5    1    3    3  501    0 -0.45273061885E+02 -0.17113491327E+02 -0.33312559998E+03  0.33662322719E+03  0.10000000000E+00 0. -1.
         -5    1    3    3    0  501  0.74841660174E+02  0.15100417215E+02 -0.86877650652E+03  0.87212494803E+03  0.10000000000E+00 0. -1.
         21    1    1    2  504  502 -0.29568598289E+02  0.20130741127E+01 -0.91387444797E+02  0.96072990683E+02  0.00000000000E+00 0. -1.
<mgrwt>
<rscale>  1 0.12846586E+03</rscale>
<asrwt>0</asrwt>
<pdfrwt beam="1">  1       21 0.88704753E-03 0.12846586E+03</pdfrwt>
<pdfrwt beam="2">  1       21 0.19985461E+00 0.12846586E+03</pdfrwt>
<totfact> 0.62503261E+05</totfact>
</mgrwt>
</event>
<event>
 6    1  0.4261782E-002  0.1289765E+03  0.7546771E-02  0.1228982E+00
         21   -1    0    0  503  502  0.00000000000E+00  0.00000000000E+00  0.48458486115E+02  0.48458486115E+02  0.00000000000E+00 0. -1.
         21   -1    0    0  504  503 -0.00000000000E+00 -0.00000000000E+00 -0.18628889105E+03  0.18628889105E+03  0.00000000000E+00 0.  1.
         25    2    1    2    0    0 -0.21503331640E+02 -0.23245456989E+02 -0.15260175024E+03  0.19980546559E+03  0.12502873814E+03 0.  0.
          5    1    3    3  501    0  0.79683190094E+01 -0.56681506538E+02 -0.14325252476E+03  0.15426465292E+03  0.10000000000E+00 0. -1.
         -5    1    3    3    0  501 -0.29471650649E+02  0.33436049549E+02 -0.93492254782E+01  0.45540812668E+02  0.10000000000E+00 0. -1.
         21    1    1    2  504  502  0.21503331640E+02  0.23245456989E+02  0.14771345304E+02  0.34941911573E+02  0.00000000000E+00 0. -1.
<mgrwt>
<rscale>  1 0.12897647E+03</rscale>
<asrwt>0</asrwt>
<pdfrwt beam="1">  1       21 0.74551516E-02 0.12897647E+03</pdfrwt>
<pdfrwt beam="2">  1       21 0.28659830E-01 0.12897647E+03</pdfrwt>
<totfact> 0.15746155E+06</totfact>
</mgrwt>
</event>
<event>
 6    1  0.4261782E-002  0.1259848E+03  0.7546771E-02  0.1233538E+00
         21   -1    0    0  503  502  0.00000000000E+00  0.00000000000E+00  0.26307221283E+03  0.26307221283E+03  0.00000000000E+00 0. -1.
         21   -1    0    0  504  503 -0.00000000000E+00 -0.00000000000E+00 -0.39791543423E+02  0.39791543423E+02  0.00000000000E+00 0. -1.
         25    2    1    2    0    0  0.12120607619E+02 -0.99801466061E+01  0.61268880571E+02  0.14009295980E+03  0.12500259679E+03 0.  0.
          5    1    3    3  501    0 -0.44430596035E+02  0.28752682287E+02  0.45419280431E+02  0.69740344404E+02  0.10000000000E+00 0. -1.
         -5    1    3    3    0  501  0.56551203655E+02 -0.38732828893E+02  0.15849600141E+02  0.70352615399E+02  0.10000000000E+00 0. -1.
         21    1    1    2  504  502 -0.12120607619E+02  0.99801466061E+01  0.16201178884E+03  0.16277079645E+03  0.00000000000E+00 0.  1.
<mgrwt>
<rscale>  1 0.12598477E+03</rscale>
<asrwt>0</asrwt>
<pdfrwt beam="1">  1       21 0.40472647E-01 0.12598477E+03</pdfrwt>
<pdfrwt beam="2">  1       21 0.61217761E-02 0.12598477E+03</pdfrwt>
<totfact> 0.11209429E+06</totfact>
</mgrwt>
</event>
<event>
 6    1  0.4261782E-002  0.1278076E+03  0.7546771E-02  0.1230746E+00
         21   -1    0    0  504  502  0.00000000000E+00  0.00000000000E+00  0.16040667784E+03  0.16040667784E+03  0.00000000000E+00 0. -1.
         21   -1    0    0  502  503 -0.00000000000E+00 -0.00000000000E+00 -0.34802576322E+03  0.34802576322E+03  0.00000000000E+00 0. -1.
         25    2    1    2    0    0  0.18722709620E+02  0.18937150991E+02 -0.33505872749E+03  0.35860719749E+03  0.12500246271E+03 0.  0.
          5    1    3    3  501    0 -0.53389707417E+02  0.13988167899E+02 -0.13235565140E+03  0.14340208561E+03  0.10000000000E+00 0.  1.
         -5    1    3    3    0  501  0.72112417037E+02  0.49489830919E+01 -0.20270307608E+03  0.21520511188E+03  0.10000000000E+00 0.  1.
         21    1    1    2  504  503 -0.18722709620E+02 -0.18937150991E+02  0.14743964211E+03  0.14982524357E+03  0.00000000000E+00 0. -1.
<mgrwt>
<rscale>  1 0.12780756E+03</rscale>
<asrwt>0</asrwt>
<pdfrwt beam="1">  1       21 0.24677951E-01 0.12780756E+03</pdfrwt>
<pdfrwt beam="2">  1       21 0.53542424E-01 0.12780756E+03</pdfrwt>
<totfact> 0.52921348E+04</totfact>
</mgrwt>
</event>
<event>
 6    1  0.4261782E-002  0.1259426E+03  0.7546771E-02  0.1233603E+00
         21   -1    0    0  503  502  0.00000000000E+00  0.00000000000E+00  0.63687594877E+02  0.63687594877E+02  0.00000000000E+00 0. -1.
         21   -1    0    0  504  503 -0.00000000000E+00 -0.00000000000E+00 -0.14039233963E+03  0.14039233963E+03  0.00000000000E+00 0. -1.
         25    2    1    2    0    0  0.11174280831E+02 -0.10523626105E+02 -0.11012752659E+03  0.16730095132E+03  0.12500369970E+03 0.  0.
          5    1    3    3  501    0  0.22814143017E+02 -0.49814622723E+02 -0.11365307268E+03  0.12617056982E+03  0.10000000000E+00 0. -1.
         -5    1    3    3    0  501 -0.11639862186E+02  0.39290996618E+02  0.35255460872E+01  0.41130381498E+02  0.10000000000E+00 0. -1.
         21    1    1    2  504  502 -0.11174280831E+02  0.10523626105E+02  0.33422781841E+02  0.36778983190E+02  0.00000000000E+00 0. -1.
<mgrwt>
<rscale>  1 0.12594259E+03</rscale>
<asrwt>0</asrwt>
<pdfrwt beam="1">  1       21 0.97980915E-02 0.12594259E+03</pdfrwt>
<pdfrwt beam="2">  1       21 0.21598821E-01 0.12594259E+03</pdfrwt>
<totfact> 0.16731537E+06</totfact>
</mgrwt>
</event>
<event>
 6    1  0.4261782E-002  0.1276128E+03  0.7546771E-02  0.1231041E+00
         21   -1    0    0  504  502  0.00000000000E+00  0.00000000000E+00  0.31271683202E+03  0.31271683202E+03  0.00000000000E+00 0.  1.
         21   -1    0    0  502  503 -0.00000000000E+00 -0.00000000000E+00 -0.64770288941E+02  0.64770288941E+02  0.00000000000E+00 0. -1.
         25    2    1    2    0    0  0.80462099349E+01 -0.24398653132E+02 -0.60207876461E+00  0.12761424691E+03  0.12499999098E+03 0.  0.
          5    1    3    3  501    0 -0.40848998850E+02  0.12828280398E+02 -0.36656880481E+02  0.56364371474E+02  0.10000000000E+00 0. -1.
         -5    1    3    3    0  501  0.48895208785E+02 -0.37226933530E+02  0.36054801717E+02  0.71249875431E+02  0.10000000000E+00 0. -1.
         21    1    1    2  504  503 -0.80462099349E+01  0.24398653132E+02  0.24854862185E+03  0.24987287406E+03  0.00000000000E+00 0.  1.
<mgrwt>
<rscale>  1 0.12761283E+03</rscale>
<asrwt>0</asrwt>
<pdfrwt beam="1">  1       21 0.48110281E-01 0.12761283E+03</pdfrwt>
<pdfrwt beam="2">  1       21 0.99646600E-02 0.12761283E+03</pdfrwt>
<totfact> 0.34137814E+05</totfact>
</mgrwt>
</event>
<event>
 6    1  0.4261782E-002  0.1272677E+03  0.7546771E-02  0.1231567E+00
         21   -1    0    0  504  502  0.00000000000E+00  0.00000000000E+00  0.14194835483E+02  0.14194835483E+02  0.00000000000E+00 0.  1.
         21   -1    0    0  502  503 -0.00000000000E+00 -0.00000000000E+00 -0.15263871815E+04  0.15263871815E+04  0.00000000000E+00 0.  1.
         25    2    1    2    0    0  0.22447262526E+02  0.82981118436E+01 -0.15112835692E+04  0.15166328180E+04  0.12499735965E+03 0.  0.
          5    1    3    3  501    0 -0.17030538842E+02  0.31562589891E+01 -0.28747662167E+02  0.33562468683E+02  0.10000000000E+00 0.  1.
         -5    1    3    3    0  501  0.39477801368E+02  0.51418528545E+01 -0.14825359070E+04  0.14830703493E+04  0.10000000000E+00 0.  1.
         21    1    1    2  504  503 -0.22447262526E+02 -0.82981118436E+01 -0.90877680882E+00  0.23949198950E+02  0.00000000000E+00 0.  1.
<mgrwt>
<rscale>  1 0.12726774E+03</rscale>
<asrwt>0</asrwt>
<pdfrwt beam="1">  1       21 0.21838194E-02 0.12726774E+03</pdfrwt>
<pdfrwt beam="2">  1       21 0.23482895E+00 0.12726774E+03</pdfrwt>
<totfact> 0.91540380E+04</totfact>
</mgrwt>
</event>
<event>
 6    1  0.4261782E-002  0.1262288E+03  0.7546771E-02  0.1233161E+00
         21   -1    0    0  503  502  0.00000000000E+00  0.00000000000E+00  0.43524409669E+02  0.43524409669E+02  0.00000000000E+00 0.  1.
         21   -1    0    0  504  503 -0.00000000000E+00 -0.00000000000E+00 -0.45611432706E+03  0.45611432706E+03  0.00000000000E+00 0.  1.
         25    2    1    2    0    0 -0.16796315806E+02  0.51416095547E+01 -0.44511831353E+03  0.46267052162E+03  0.12500058466E+03 0.  0.
          5    1    3    3  501    0 -0.60852991532E+02  0.34855304100E+02 -0.30115936003E+03  0.30921666989E+03  0.10000000000E+00 0. -1.
         -5    1    3    3    0  501  0.44056675726E+02 -0.29713694545E+02 -0.14395895349E+03  0.15345385173E+03  0.10000000000E+00 0. -1.
         21    1    1    2  504  502  0.16796315806E+02 -0.51416095547E+01  0.32528396134E+02  0.36968215111E+02  0.00000000000E+00 0.  1.
<mgrwt>
<rscale>  1 0.12622875E+03</rscale>
<asrwt>0</asrwt>
<pdfrwt beam="1">  1       21 0.66960635E-02 0.12622875E+03</pdfrwt>
<pdfrwt beam="2">  1       21 0.70171429E-01 0.12622875E+03</pdfrwt>
<totfact> 0.30551962E+05</totfact>
</mgrwt>
</event>
<event>
 6    1  0.4261782E-002  0.1278439E+03  0.7546771E-02  0.1230691E+00
         21   -1    0    0  503  502  0.00000000000E+00  0.00000000000E+00  0.55248892966E+02  0.55248892966E+02  0.00000000000E+00 0.  1.
         21   -1    0    0  504  503 -0.00000000000E+00 -0.00000000000E+00 -0.10868394247E+03  0.10868394247E+03  0.00000000000E+00 0.  1.
         25    2    1    2    0    0  0.12720493031E+02 -0.23600817085E+02 -0.40074879809E+02  0.13397780840E+03  0.12500099057E+03 0.  0.
          5    1    3    3  501    0  0.12131868739E+02 -0.27291494149E+02 -0.84382803808E+02  0.89512431932E+02  0.10000000000E+00 0. -1.
         -5    1    3    3    0  501  0.58862429162E+00  0.36906770635E+01  0.44307923999E+02  0.44465376472E+02  0.10000000000E+00 0. -1.
         21    1    1    2  504  502 -0.12720493031E+02  0.23600817085E+02 -0.13360169692E+02  0.29955027027E+02  0.00000000000E+00 0.  1.
<mgrwt>
<rscale>  1 0.12784388E+03</rscale>
<asrwt>0</asrwt>
<pdfrwt beam="1">  1       21 0.84998298E-02 0.12784388E+03</pdfrwt>
<pdfrwt beam="2">  1       21 0.16720606E-01 0.12784388E+03</pdfrwt>
<totfact> 0.34319178E+06</totfact>
</mgrwt>
</event>
<event>
 6    1  0.4261782E-002  0.1281227E+03  0.7546771E-02  0.1230268E+00
         21   -1    0    0  503  502  0.00000000000E+00  0.00000000000E+00  0.41853999576E+02  0.41853999576E+02  0.00000000000E+00 0.  1.
         21   -1    0    0  504  503 -0.00000000000E+00 -0.00000000000E+00 -0.38174899012E+03  0.38174899012E+03  0.00000000000E+00 0.  1.
         25    2    1    2    0    0 -0.18376098507E+01 -0.28048817321E+02 -0.36442771513E+03  0.38629390852E+03  0.12500124495E+03 0.  0.
          5    1    3    3  501    0 -0.41400098693E+02  0.12884304775E+02 -0.28663948601E+03  0.28990029048E+03  0.10000000000E+00 0.  1.
         -5    1    3    3    0  501  0.39562488842E+02 -0.40933122096E+02 -0.77788229118E+02  0.96393618032E+02  0.10000000000E+00 0.  1.
         21    1    1    2  504  502  0.18376098507E+01  0.28048817321E+02  0.24532724585E+02  0.37309081182E+02  0.00000000000E+00 0.  1.
<mgrwt>
<rscale>  1 0.12812269E+03</rscale>
<asrwt>0</asrwt>
<pdfrwt beam="1">  1       21 0.64390767E-02 0.12812269E+03</pdfrwt>
<pdfrwt beam="2">  1       21 0.58730615E-01 0.12812269E+03</pdfrwt>
<totfact> 0.47847523E+05</totfact>
</mgrwt>
</event>
<event>
 6    1  0.4261782E-002  0.1313839E+03  0.7546771E-02  0.1225417E+00
         21   -1    0    0  504  502  0.00000000000E+00  0.00000000000E+00  0.58535324300E+03  0.58535324300E+03  0.00000000000E+00 0. -1.
         21   -1    0    0  502  503 -0.00000000000E+00 -0.00000000000E+00 -0.17207514895E+02  0.17207514895E+02  0.00000000000E+00 0. -1.
         25    2    1    2    0    0  0.40207521781E+01 -0.40263995950E+02  0.25544003161E+03  0.28724788401E+03  0.12499752518E+03 0.  0.
          5    1    3    3  501    0 -0.35159255842E+02 -0.71677160695E+02  0.13636370992E+03  0.15801537906E+03  0.10000000000E+00 0.  1.
         -5    1    3    3    0  501  0.39180008020E+02  0.31413164745E+02  0.11907632169E+03  0.12923250495E+03  0.10000000000E+00 0.  1.
         21    1    1    2  504  503 -0.40207521781E+01  0.40263995950E+02  0.31270569649E+03  0.31531287388E+03  0.00000000000E+00 0. -1.
<mgrwt>
<rscale>  1 0.13138393E+03</rscale>
<asrwt>0</asrwt>
<pdfrwt beam="1">  1       21 0.90054330E-01 0.13138393E+03</pdfrwt>
<pdfrwt beam="2">  1       21 0.26473104E-02 0.13138393E+03</pdfrwt>
<totfact> 0.82129989E+05</totfact>
</mgrwt>
</event>
<event>
 6    1  0.4261782E-002  0.1323324E+03  0.7546771E-02  0.1224035E+00
         21   -1    0    0  504  502  0.00000000000E+00  0.00000000000E+00  0.10162760893E+03  0.10162760893E+03  0.00000000000E+00 0.  1.
         21   -1    0    0  502  503 -0.00000000000E+00 -0.00000000000E+00 -0.76435862102E+02  0.76435862102E+02  0.00000000000E+00 0.  1.
         25    2    1    2    0    0  0.43378939840E+02 -0.22467175289E+01  0.13126186831E+02  0.13298179072E+03  0.12500031889E+03 0.  0.
          5    1    3    3  501    0 -0.19920945817E+02  0.47192548545E+02  0.12199412294E+02  0.52657538688E+02  0.10000000000E+00 0.  1.
         -5    1    3    3    0  501  0.63299885657E+02 -0.49439266074E+02  0.92677453688E+00  0.80324252036E+02  0.10000000000E+00 0.  1.
         21    1    1    2  504  503 -0.43378939840E+02  0.22467175289E+01  0.12065559996E+02  0.45081680307E+02  0.00000000000E+00 0.  1.
<mgrwt>
<rscale>  1 0.13233238E+03</rscale>
<asrwt>0</asrwt>
<pdfrwt beam="1">  1       21 0.15635017E-01 0.13233238E+03</pdfrwt>
<pdfrwt beam="2">  1       21 0.11759363E-01 0.13233238E+03</pdfrwt>
<totfact> 0.21993764E+06</totfact>
</mgrwt>
</event>
<event>
 6    1  0.4261782E-002  0.1295864E+03  0.7546771E-02  0.1228071E+00
         21   -1    0    0  503  502  0.00000000000E+00  0.00000000000E+00  0.19830967488E+03  0.19830967488E+03  0.00000000000E+00 0.  1.
         21   -1    0    0  504  503 -0.00000000000E+00 -0.00000000000E+00 -0.82040584637E+02  0.82040584637E+02  0.00000000000E+00 0.  1.
         25    2    1    2    0    0  0.31839166862E+02 -0.12562682781E+02 -0.27576805778E+02  0.13248817734E+03  0.12498433251E+03 0.  0.
          5    1    3    3  501    0  0.20017348632E+02  0.48468228119E+02  0.17959247821E+02  0.55429306017E+02  0.10000000000E+00 0. -1.
         -5    1    3    3    0  501  0.11821818230E+02 -0.61030910900E+02 -0.45536053598E+02  0.77058871319E+02  0.10000000000E+00 0. -1.
         21    1    1    2  504  502 -0.31839166862E+02  0.12562682781E+02  0.14384589603E+03  0.14786208219E+03  0.00000000000E+00 0.  1.
<mgrwt>
<rscale>  1 0.12958641E+03</rscale>
<asrwt>0</asrwt>
<pdfrwt beam="1">  1       21 0.30509181E-01 0.12958641E+03</pdfrwt>
<pdfrwt beam="2">  1       21 0.12621628E-01 0.12958641E+03</pdfrwt>
<totfact> 0.55663884E+05</totfact>
</mgrwt>
</event>
<event>
 6    1  0.4261782E-002  0.1331801E+03  0.7546771E-02  0.1222812E+00
         21   -1    0    0  504  502  0.00000000000E+00  0.00000000000E+00  0.63390680024E+01  0.63390680024E+01  0.00000000000E+00 0. -1.
         21   -1    0    0  502  503 -0.00000000000E+00 -0.00000000000E+00 -0.22202661707E+04  0.22202661707E+04  0.00000000000E+00 0. -1.
         25    2    1    2    0    0  0.25390317991E+02 -0.38033715799E+02 -0.20943801695E+04  0.20986103129E+04  0.12508285012E+03 0.  0.
          5    1    3    3  501    0  0.57927152873E+02 -0.94250773255E+01 -0.18097683685E+04  0.18107197311E+04  0.10000000000E+00 0.  1.
         -5    1    3    3    0  501 -0.32536834881E+02 -0.28608638474E+02 -0.28461180104E+03  0.28789058184E+03  0.10000000000E+00 0.  1.
         21    1    1    2  504  503 -0.25390317991E+02  0.38033715799E+02 -0.11954693326E+03  0.12799492582E+03  0.00000000000E+00 0. -1.
<mgrwt>
<rscale>  1 0.13318015E+03</rscale>
<asrwt>0</asrwt>
<pdfrwt beam="1">  1       21 0.97524054E-03 0.13318015E+03</pdfrwt>
<pdfrwt beam="2">  1       21 0.34157965E+00 0.13318015E+03</pdfrwt>
<totfact> 0.81582053E+04</totfact>
</mgrwt>
</event>
<event>
 6    1  0.4261782E-002  0.1332349E+03  0.7546771E-02  0.1222733E+00
         21   -1    0    0  503  502  0.00000000000E+00  0.00000000000E+00  0.35696585930E+03  0.35696585930E+03  0.00000000000E+00 0. -1.
         21   -1    0    0  504  503 -0.00000000000E+00 -0.00000000000E+00 -0.28632632396E+02  0.28632632396E+02  0.00000000000E+00 0. -1.
         25    2    1    2    0    0 -0.26332800831E+02  0.37883984334E+02  0.14659302969E+03  0.19809352655E+03  0.12499166468E+03 0.  0.
          5    1    3    3  501    0 -0.63601302999E+02  0.39964650801E+02  0.39890026761E+02  0.85050122233E+02  0.10000000000E+00 0. -1.
         -5    1    3    3    0  501  0.37268502168E+02 -0.20806664669E+01  0.10670300293E+03  0.11304340432E+03  0.10000000000E+00 0. -1.
         21    1    1    2  504  502  0.26332800831E+02 -0.37883984334E+02  0.18174019722E+03  0.18750496515E+03  0.00000000000E+00 0. -1.
<mgrwt>
<rscale>  1 0.13323486E+03</rscale>
<asrwt>0</asrwt>
<pdfrwt beam="1">  1       21 0.54917821E-01 0.13323486E+03</pdfrwt>
<pdfrwt beam="2">  1       21 0.44050206E-02 0.13323486E+03</pdfrwt>
<totfact> 0.10449767E+06</totfact>
</mgrwt>
</event>
<event>
 6    1  0.4261782E-002  0.1443140E+03  0.7546771E-02  0.1207639E+00
         21   -1    0    0  503  502  0.00000000000E+00  0.00000000000E+00  0.33967551474E+03  0.33967551474E+03  0.00000000000E+00 0.  1.
         21   -1    0    0  504  503 -0.00000000000E+00 -0.00000000000E+00 -0.23302574984E+03  0.23302574984E+03  0.00000000000E+00 0.  1.
         25    2    1    2    0    0 -0.44501956938E+02 -0.56741851445E+02 -0.20617991161E+03  0.25166782648E+03  0.12500590809E+03 0.  0.
          5    1    3    3  501    0  0.13116973266E+02  0.21614449451E+02 -0.18262050348E+01  0.25349249251E+02  0.10000000000E+00 0.  1.
         -5    1    3    3    0  501 -0.57618930204E+02 -0.78356300896E+02 -0.20435370657E+03  0.22631857723E+03  0.10000000000E+00 0.  1.
         21    1    1    2  504  502  0.44501956938E+02  0.56741851445E+02  0.31282967650E+03  0.32103343810E+03  0.00000000000E+00 0.  1.
<mgrwt>
<rscale>  1 0.14431403E+03</rscale>
<asrwt>0</asrwt>
<pdfrwt beam="1">  1       21 0.52257772E-01 0.14431403E+03</pdfrwt>
<pdfrwt beam="2">  1       21 0.35850115E-01 0.14431403E+03</pdfrwt>
<totfact> 0.26815478E+04</totfact>
</mgrwt>
</event>
<event>
 6    1  0.4261782E-002  0.1277019E+03  0.7546771E-02  0.1230906E+00
         21   -1    0    0  503  502  0.00000000000E+00  0.00000000000E+00  0.17663964229E+02  0.17663964229E+02  0.00000000000E+00 0.  1.
         21   -1    0    0  504  503 -0.00000000000E+00 -0.00000000000E+00 -0.53808224187E+03  0.53808224187E+03  0.00000000000E+00 0.  1.
         25    2    1    2    0    0 -0.10885580215E+02 -0.23766440831E+02 -0.51288149407E+03  0.52854064283E+03  0.12499777838E+03 0.  0.
          5    1    3    3  501    0  0.54914170022E+02 -0.87041395299E+01 -0.16341392040E+03  0.17261357853E+03  0.10000000000E+00 0. -1.
         -5    1    3    3    0  501 -0.65799750237E+02 -0.15062301301E+02 -0.34946757367E+03  0.35592706429E+03  0.10000000000E+00 0. -1.
         21    1    1    2  504  502  0.10885580215E+02  0.23766440831E+02 -0.75367835783E+01  0.27205563275E+02  0.00000000000E+00 0.  1.
<mgrwt>
<rscale>  1 0.12770193E+03</rscale>
<asrwt>0</asrwt>
<pdfrwt beam="1">  1       21 0.27175328E-02 0.12770193E+03</pdfrwt>
<pdfrwt beam="2">  1       21 0.82781888E-01 0.12770193E+03</pdfrwt>
<totfact> 0.95259981E+05</totfact>
</mgrwt>
</event>
<event>
 6    1  0.4261782E-002  0.1263909E+03  0.7546771E-02  0.1232911E+00
         21   -1    0    0  504  502  0.00000000000E+00  0.00000000000E+00  0.11166051368E+03  0.11166051368E+03  0.00000000000E+00 0.  1.
         21   -1    0    0  502  503 -0.00000000000E+00 -0.00000000000E+00 -0.47947283411E+02  0.47947283411E+02  0.00000000000E+00 0.  1.
         25    2    1    2    0    0  0.17354103769E+01 -0.18641915340E+02  0.48116678418E+02  0.13524009128E+03  0.12499653952E+03 0.  0.
          5    1    3    3  501    0 -0.53979293129E+02  0.16038763588E+02  0.46065219922E+01  0.56499876717E+02  0.10000000000E+00 0. -1.
         -5    1    3    3    0  501  0.55714703506E+02 -0.34680678927E+02  0.43510156426E+02  0.78740214566E+02  0.10000000000E+00 0. -1.
         21    1    1    2  504  503 -0.17354103769E+01  0.18641915340E+02  0.15596551848E+02  0.24367705807E+02  0.00000000000E+00 0.  1.
<mgrwt>
<rscale>  1 0.12639093E+03</rscale>
<asrwt>0</asrwt>
<pdfrwt beam="1">  1       21 0.17178541E-01 0.12639093E+03</pdfrwt>
<pdfrwt beam="2">  1       21 0.73765052E-02 0.12639093E+03</pdfrwt>
<totfact> 0.41685393E+06</totfact>
</mgrwt>
</event>
<event>
 6    1  0.4261782E-002  0.1267008E+03  0.7546771E-02  0.1232435E+00
         21   -1    0    0  503  502  0.00000000000E+00  0.00000000000E+00  0.57138010315E+01  0.57138010315E+01  0.00000000000E+00 0. -1.
         21   -1    0    0  504  503 -0.00000000000E+00 -0.00000000000E+00 -0.98281788298E+03  0.98281788298E+03  0.00000000000E+00 0. -1.
         25    2    1    2    0    0  0.40580497899E+01  0.20290280575E+02 -0.89171286765E+03  0.90066916223E+03  0.12499975284E+03 0.  0.
          5    1    3    3  501    0 -0.26956610096E+02 -0.96975672395E+01 -0.78559292937E+03  0.78611510754E+03  0.10000000000E+00 0. -1.
         -5    1    3    3    0  501  0.31014659886E+02  0.29987847815E+02 -0.10611993828E+03  0.11455405469E+03  0.10000000000E+00 0. -1.
         21    1    1    2  504  502 -0.40580497899E+01 -0.20290280575E+02 -0.85391214292E+02  0.87862521772E+02  0.00000000000E+00 0. -1.
<mgrwt>
<rscale>  1 0.12670083E+03</rscale>
<asrwt>0</asrwt>
<pdfrwt beam="1">  1       21 0.87904618E-03 0.12670083E+03</pdfrwt>
<pdfrwt beam="2">  1       21 0.15120277E+00 0.12670083E+03</pdfrwt>
<totfact> 0.13593596E+06</totfact>
</mgrwt>
</event>
<event>
 6    1  0.4261782E-002  0.1280482E+03  0.7546771E-02  0.1230381E+00
         21   -1    0    0  504  502  0.00000000000E+00  0.00000000000E+00  0.26490533375E+03  0.26490533375E+03  0.00000000000E+00 0.  1.
         21   -1    0    0  502  503 -0.00000000000E+00 -0.00000000000E+00 -0.27098484822E+02  0.27098484822E+02  0.00000000000E+00 0.  1.
         25    2    1    2    0    0  0.75039946084E+01  0.26785318243E+02  0.13740682359E+03  0.18782163057E+03  0.12499026575E+03 0.  0.
          5    1    3    3  501    0  0.17981646780E+01 -0.45160305940E+02  0.92142483418E+02  0.10263008272E+03  0.10000000000E+00 0.  1.
         -5    1    3    3    0  501  0.57058299305E+01  0.71945624183E+02  0.45264340175E+02  0.85191547854E+02  0.10000000000E+00 0.  1.
         21    1    1    2  504  503 -0.75039946084E+01 -0.26785318243E+02  0.10040002533E+03  0.10418218800E+03  0.00000000000E+00 0.  1.
<mgrwt>
<rscale>  1 0.12804815E+03</rscale>
<asrwt>0</asrwt>
<pdfrwt beam="1">  1       21 0.40754665E-01 0.12804815E+03</pdfrwt>
<pdfrwt beam="2">  1       21 0.41689978E-02 0.12804815E+03</pdfrwt>
<totfact> 0.21084895E+06</totfact>
</mgrwt>
</event>
<event>
 6    1  0.4261782E-002  0.1271430E+03  0.7546771E-02  0.1231758E+00
         21   -1    0    0  504  502  0.00000000000E+00  0.00000000000E+00  0.16967181061E+03  0.16967181061E+03  0.00000000000E+00 0. -1.
         21   -1    0    0  502  503 -0.00000000000E+00 -0.00000000000E+00 -0.37234186356E+02  0.37234186356E+02  0.00000000000E+00 0. -1.
         25    2    1    2    0    0 -0.23150088669E+02 -0.20384873466E+00  0.81682923928E+02  0.15112062465E+03  0.12501749866E+03 0.  0.
          5    1    3    3  501    0 -0.37848251462E+01 -0.37595666473E+02 -0.18775700878E+02  0.42193553801E+02  0.10000000000E+00 0.  1.
         -5    1    3    3    0  501 -0.19365263523E+02  0.37391817738E+02  0.10045862481E+03  0.10892707085E+03  0.10000000000E+00 0.  1.
         21    1    1    2  504  503  0.23150088669E+02  0.20384873466E+00  0.50754700329E+02  0.55785372323E+02  0.00000000000E+00 0. -1.
<mgrwt>
<rscale>  1 0.12714300E+03</rscale>
<asrwt>0</asrwt>
<pdfrwt beam="1">  1       21 0.26103355E-01 0.12714300E+03</pdfrwt>
<pdfrwt beam="2">  1       21 0.57283364E-02 0.12714300E+03</pdfrwt>
<totfact> 0.29469355E+06</totfact>
</mgrwt>
</event>
<event>
 6    1  0.4261782E-002  0.1337865E+03  0.7546771E-02  0.1221943E+00
         21   -1    0    0  504  502  0.00000000000E+00  0.00000000000E+00  0.11841745166E+04  0.11841745166E+04  0.00000000000E+00 0.  1.
         21   -1    0    0  502  503 -0.00000000000E+00 -0.00000000000E+00 -0.76878053961E+01  0.76878053961E+01  0.00000000000E+00 0.  1.
         25    2    1    2    0    0  0.45993046963E+02  0.12615909309E+02  0.67621945048E+03  0.68932689669E+03  0.12499721499E+03 0.  0.
          5    1    3    3  501    0  0.25347932581E+02  0.52003706469E+02  0.14304321609E+03  0.15429930279E+03  0.10000000000E+00 0. -1.
         -5    1    3    3    0  501  0.20645114382E+02 -0.39387797160E+02  0.53317623439E+03  0.53502759390E+03  0.10000000000E+00 0. -1.
         21    1    1    2  504  503 -0.45993046963E+02 -0.12615909309E+02  0.50026726070E+03  0.50253542528E+03  0.00000000000E+00 0.  1.
<mgrwt>
<rscale>  1 0.13378649E+03</rscale>
<asrwt>0</asrwt>
<pdfrwt beam="1">  1       21 0.18218055E+00 0.13378649E+03</pdfrwt>
<pdfrwt beam="2">  1       21 0.11827402E-02 0.13378649E+03</pdfrwt>
<totfact> 0.51527051E+05</totfact>
</mgrwt>
</event>
<event>
 6    1  0.4261782E-002  0.1267903E+03  0.7546771E-02  0.1232298E+00
         21   -1    0    0  503  502  0.00000000000E+00  0.00000000000E+00  0.21161444166E+02  0.21161444166E+02  0.00000000000E+00 0. -1.
         21   -1    0    0  504  503 -0.00000000000E+00 -0.00000000000E+00 -0.26151378949E+03  0.26151378949E+03  0.00000000000E+00 0. -1.
         25    2    1    2    0    0  0.10774768353E+02  0.18269895698E+02 -0.21519968632E+03  0.24977324319E+03  0.12500353314E+03 0.  0.
          5    1    3    3  501    0  0.49514666647E+02  0.43490630952E+02 -0.64776829098E+02  0.92407709536E+02  0.10000000000E+00 0. -1.
         -5    1    3    3    0  501 -0.38739898295E+02 -0.25220735254E+02 -0.15042285722E+03  0.15736553365E+03  0.10000000000E+00 0. -1.
         21    1    1    2  504  502 -0.10774768353E+02 -0.18269895698E+02 -0.25152659010E+02  0.32901990473E+02  0.00000000000E+00 0.  1.
<mgrwt>
<rscale>  1 0.12679025E+03</rscale>
<asrwt>0</asrwt>
<pdfrwt beam="1">  1       21 0.32556067E-02 0.12679025E+03</pdfrwt>
<pdfrwt beam="2">  1       21 0.40232892E-01 0.12679025E+03</pdfrwt>
<totfact> 0.32562788E+06</totfact>
</mgrwt>
</event>
<event>
 6    1  0.4261782E-002  0.1267471E+03  0.7546771E-02  0.1232364E+00
         21   -1    0    0  504  502  0.00000000000E+00  0.00000000000E+00  0.36114858400E+03  0.36114858400E+03  0.00000000000E+00 0. -1.
         21   -1    0    0  502  503 -0.00000000000E+00 -0.00000000000E+00 -0.70318461857E+02  0.70318461857E+02  0.00000000000E+00 0.  1.
         25    2    1    2    0    0  0.17965457925E+02  0.10804630742E+02 -0.12546888099E+02  0.12736655578E+03  0.12500126961E+03 0.  0.
          5    1    3    3  501    0  0.42652398837E+02 -0.46954503350E+02 -0.11946824251E+02  0.64549896367E+02  0.10000000000E+00 0. -1.
         -5    1    3    3    0  501 -0.24686940912E+02  0.57759134092E+02 -0.60006384798E+00  0.62816659408E+02  0.10000000000E+00 0. -1.
         21    1    1    2  504  503 -0.17965457925E+02 -0.10804630742E+02  0.30337701024E+03  0.30410049008E+03  0.00000000000E+00 0. -1.
<mgrwt>
<rscale>  1 0.12674705E+03</rscale>
<asrwt>0</asrwt>
<pdfrwt beam="1">  1       21 0.55561320E-01 0.12674705E+03</pdfrwt>
<pdfrwt beam="2">  1       21 0.10818225E-01 0.12674705E+03</pdfrwt>
<totfact> 0.21934241E+05</totfact>
</mgrwt>
</event>
<event>
 6    1  0.4261782E-002  0.2053544E+03  0.7546771E-02  0.1145299E+00
         21   -1    0    0  504  502  0.00000000000E+00  0.00000000000E+00  0.99790654073E+03  0.99790654073E+03  0.00000000000E+00 0. -1.
         21   -1    0    0  502  503 -0.00000000000E+00 -0.00000000000E+00 -0.44098543437E+02  0.44098543437E+02  0.00000000000E+00 0. -1.
         25    2    1    2    0    0 -0.99024777543E+01 -0.16263061433E+03  0.27094332375E+03  0.33997165323E+03  0.12499465800E+03 0.  0.
          5    1    3    3  501    0  0.35885385387E+02 -0.88965091028E+00  0.33888067510E+02  0.49365610324E+02  0.10000000000E+00 0. -1.
         -5    1    3    3    0  501 -0.45787863141E+02 -0.16174096342E+03  0.23705525624E+03  0.29060604290E+03  0.10000000000E+00 0. -1.
         21    1    1    2  504  503  0.99024777543E+01  0.16263061433E+03  0.68286467354E+03  0.70203343094E+03  0.00000000000E+00 0. -1.
<mgrwt>
<rscale>  1 0.20535443E+03</rscale>
<asrwt>0</asrwt>
<pdfrwt beam="1">  1       21 0.15352407E+00 0.20535443E+03</pdfrwt>
<pdfrwt beam="2">  1       21 0.67843920E-02 0.20535443E+03</pdfrwt>
<totfact> 0.44551080E+04</totfact>
</mgrwt>
</event>
<event>
 6    1  0.4261782E-002  0.1262939E+03  0.7546771E-02  0.1233061E+00
         21   -1    0    0  504  502  0.00000000000E+00  0.00000000000E+00  0.63867386698E+03  0.63867386698E+03  0.00000000000E+00 0. -1.
         21   -1    0    0  502  503 -0.00000000000E+00 -0.00000000000E+00 -0.82416932448E+01  0.82416932448E+01  0.00000000000E+00 0. -1.
         25    2    1    2    0    0  0.35870709638E+01  0.17663553026E+02  0.52676602317E+03  0.54169417952E+03  0.12500109112E+03 0.  0.
          5    1    3    3  501    0  0.30754761953E+02  0.44745648540E+02  0.10518937256E+03  0.11837585288E+03  0.10000000000E+00 0. -1.
         -5    1    3    3    0  501 -0.27167690989E+02 -0.27082095514E+02  0.42157665061E+03  0.42331832664E+03  0.10000000000E+00 0. -1.
         21    1    1    2  504  503 -0.35870709638E+01 -0.17663553026E+02  0.10366615057E+03  0.10522138070E+03  0.00000000000E+00 0. -1.
<mgrwt>
<rscale>  1 0.12629387E+03</rscale>
<asrwt>0</asrwt>
<pdfrwt beam="1">  1       21 0.98257479E-01 0.12629387E+03</pdfrwt>
<pdfrwt beam="2">  1       21 0.12679533E-02 0.12629387E+03</pdfrwt>
<totfact> 0.21945500E+06</totfact>
</mgrwt>
</event>
<event>
 6    1  0.4261782E-002  0.1267241E+03  0.7546771E-02  0.1232399E+00
         21   -1    0    0  504  502  0.00000000000E+00  0.00000000000E+00  0.89222581588E+02  0.89222581588E+02  0.00000000000E+00 0.  1.
         21   -1    0    0  502  503 -0.00000000000E+00 -0.00000000000E+00 -0.62727103798E+02  0.62727103798E+02  0.00000000000E+00 0.  1.
         25    2    1    2    0    0 -0.20299527586E+02 -0.50994173069E+01  0.31175625052E+02  0.13050257240E+03  0.12498370665E+03 0.  0.
          5    1    3    3  501    0 -0.57498090197E+02 -0.24278216992E+02 -0.18926396253E+02  0.65220247406E+02  0.10000000000E+00 0.  1.
         -5    1    3    3    0  501  0.37198562611E+02  0.19178799685E+02  0.50102021305E+02  0.65282324993E+02  0.10000000000E+00 0.  1.
         21    1    1    2  504  503  0.20299527586E+02  0.50994173069E+01 -0.46801472614E+01  0.21447112987E+02  0.00000000000E+00 0.  1.
<mgrwt>
<rscale>  1 0.12672412E+03</rscale>
<asrwt>0</asrwt>
<pdfrwt beam="1">  1       21 0.13726551E-01 0.12672412E+03</pdfrwt>
<pdfrwt beam="2">  1       21 0.96503236E-02 0.12672412E+03</pdfrwt>
<totfact> 0.39277593E+06</totfact>
</mgrwt>
</event>
<event>
 6    1  0.4261782E-002  0.1445926E+03  0.7546771E-02  0.1207280E+00
         21   -1    0    0  504  502  0.00000000000E+00  0.00000000000E+00  0.50919947381E+02  0.50919947381E+02  0.00000000000E+00 0. -1.
         21   -1    0    0  502  503 -0.00000000000E+00 -0.00000000000E+00 -0.23639982440E+03  0.23639982440E+03  0.00000000000E+00 0. -1.
         25    2    1    2    0    0  0.21620294877E+02  0.69377931075E+02 -0.10379903243E+03  0.17799230568E+03  0.12500514900E+03 0.  0.
          5    1    3    3  501    0 -0.25320580386E+02 -0.10194785068E+02  0.12031688348E+02  0.29830135068E+02  0.10000000000E+00 0.  1.
         -5    1    3    3    0  501  0.46940875264E+02  0.79572716143E+02 -0.11583072077E+03  0.14816217061E+03  0.10000000000E+00 0.  1.
         21    1    1    2  504  503 -0.21620294877E+02 -0.69377931075E+02 -0.81680844593E+02  0.10932746610E+03  0.00000000000E+00 0. -1.
<mgrwt>
<rscale>  1 0.14459261E+03</rscale>
<asrwt>0</asrwt>
<pdfrwt beam="1">  1       21 0.78338379E-02 0.14459261E+03</pdfrwt>
<pdfrwt beam="2">  1       21 0.36369204E-01 0.14459261E+03</pdfrwt>
<totfact> 0.90996234E+05</totfact>
</mgrwt>
</event>
<event>
 6    1  0.4261782E-002  0.1298030E+03  0.7546771E-02  0.1227748E+00
         21   -1    0    0  504  502  0.00000000000E+00  0.00000000000E+00  0.66689327592E+03  0.66689327592E+03  0.00000000000E+00 0.  1.
         21   -1    0    0  502  503 -0.00000000000E+00 -0.00000000000E+00 -0.24129810218E+03  0.24129810218E+03  0.00000000000E+00 0.  1.
         25    2    1    2    0    0  0.34200735264E+02  0.74833595840E+01 -0.22333561873E+03  0.25831687916E+03  0.12499248177E+03 0.  0.
          5    1    3    3  501    0  0.32097817198E+02 -0.54423886226E+02 -0.78344809628E+02  0.10064863862E+03  0.10000000000E+00 0. -1.
         -5    1    3    3    0  501  0.21029180656E+01  0.61907245810E+02 -0.14499080910E+03  0.15766824053E+03  0.10000000000E+00 0. -1.
         21    1    1    2  504  503 -0.34200735264E+02 -0.74833595840E+01  0.64893079247E+03  0.64987449894E+03  0.00000000000E+00 0.  1.
<mgrwt>
<rscale>  1 0.12980297E+03</rscale>
<asrwt>0</asrwt>
<pdfrwt beam="1">  1       21 0.10259896E+00 0.12980297E+03</pdfrwt>
<pdfrwt beam="2">  1       21 0.37122785E-01 0.12980297E+03</pdfrwt>
<totfact> 0.57121462E+03</totfact>
</mgrwt>
</event>
<event>
 6    1  0.4261782E-002  0.1271332E+03  0.7546771E-02  0.1231773E+00
         21   -1    0    0  503  502  0.00000000000E+00  0.00000000000E+00  0.27077510967E+02  0.27077510967E+02  0.00000000000E+00 0. -1.
         21   -1    0    0  504  503 -0.00000000000E+00 -0.00000000000E+00 -0.10210835829E+04  0.10210835829E+04  0.00000000000E+00 0. -1.
         25    2    1    2    0    0  0.55399619233E+00  0.23113094258E+02 -0.10113183013E+04  0.10192779617E+04  0.12501333731E+03 0.  0.
          5    1    3    3  501    0  0.55481433240E+02  0.30822832015E+02 -0.35573745350E+03  0.36135492556E+03  0.10000000000E+00 0.  1.
         -5    1    3    3    0  501 -0.54927437048E+02 -0.77097377567E+01 -0.65558084783E+03  0.65792303610E+03  0.10000000000E+00 0.  1.
         21    1    1    2  504  502 -0.55399619233E+00 -0.23113094258E+02  0.17312229406E+02  0.28883132187E+02  0.00000000000E+00 0. -1.
<mgrwt>
<rscale>  1 0.12713322E+03</rscale>
<asrwt>0</asrwt>
<pdfrwt beam="1">  1       21 0.41657715E-02 0.12713322E+03</pdfrwt>
<pdfrwt beam="2">  1       21 0.15708976E+00 0.12713322E+03</pdfrwt>
<totfact> 0.10012897E+05</totfact>
</mgrwt>
</event>
<event>
 6    1  0.4261782E-002  0.1272244E+03  0.7546771E-02  0.1231633E+00
         21   -1    0    0  504  502  0.00000000000E+00  0.00000000000E+00  0.11057224759E+04  0.11057224759E+04  0.00000000000E+00 0.  1.
         21   -1    0    0  502  503 -0.00000000000E+00 -0.00000000000E+00 -0.51698555006E+01  0.51698555006E+01  0.00000000000E+00 0.  1.
         25    2    1    2    0    0  0.99823516798E-01  0.23702899744E+02  0.90136694117E+03  0.91030127419E+03  0.12499683894E+03 0.  0.
          5    1    3    3  501    0 -0.13537716907E+02 -0.40437522691E+02  0.61698881774E+03  0.61846072974E+03  0.10000000000E+00 0. -1.
         -5    1    3    3    0  501  0.13637540423E+02  0.64140422435E+02  0.28437812343E+03  0.29184054445E+03  0.10000000000E+00 0. -1.
         21    1    1    2  504  503 -0.99823516798E-01 -0.23702899744E+02  0.19918567921E+03  0.20059105719E+03  0.00000000000E+00 0.  1.
<mgrwt>
<rscale>  1 0.12722440E+03</rscale>
<asrwt>0</asrwt>
<pdfrwt beam="1">  1       21 0.17011096E+00 0.12722440E+03</pdfrwt>
<pdfrwt beam="2">  1       21 0.79536327E-03 0.12722440E+03</pdfrwt>
<totfact> 0.11636786E+06</totfact>
</mgrwt>
</event>
<event>
 6    1  0.4261782E-002  0.1311834E+03  0.7546771E-02  0.1225710E+00
         21   -1    0    0  504  502  0.00000000000E+00  0.00000000000E+00  0.20849677481E+02  0.20849677481E+02  0.00000000000E+00 0.  1.
         21   -1    0    0  502  503 -0.00000000000E+00 -0.00000000000E+00 -0.73544112750E+03  0.73544112750E+03  0.00000000000E+00 0.  1.
         25    2    1    2    0    0 -0.42543308253E+01  0.39562189496E+02 -0.70258715802E+03  0.71472917370E+03  0.12500324378E+03 0.  0.
          5    1    3    3  501    0 -0.58062772365E+02  0.40048651299E+02 -0.28080516510E+03  0.28952846277E+03  0.10000000000E+00 0.  1.
         -5    1    3    3    0  501  0.53808441540E+02 -0.48646180315E+00 -0.42178199292E+03  0.42520071094E+03  0.10000000000E+00 0.  1.
         21    1    1    2  504  503  0.42543308253E+01 -0.39562189496E+02 -0.12004292002E+02  0.41561631284E+02  0.00000000000E+00 0.  1.
<mgrwt>
<rscale>  1 0.13118337E+03</rscale>
<asrwt>0</asrwt>
<pdfrwt beam="1">  1       21 0.32076435E-02 0.13118337E+03</pdfrwt>
<pdfrwt beam="2">  1       21 0.11314476E+00 0.13118337E+03</pdfrwt>
<totfact> 0.35090386E+05</totfact>
</mgrwt>
</event>
<event>
 6    1  0.4261782E-002  0.1265786E+03  0.7546771E-02  0.1232623E+00
         21   -1    0    0  503  502  0.00000000000E+00  0.00000000000E+00  0.14970002218E+03  0.14970002218E+03  0.00000000000E+00 0.  1.
         21   -1    0    0  504  503 -0.00000000000E+00 -0.00000000000E+00 -0.55312455616E+02  0.55312455616E+02  0.00000000000E+00 0.  1.
         25    2    1    2    0    0 -0.11870751916E+02 -0.15999356099E+02  0.20179838568E+02  0.12817706252E+03  0.12500095729E+03 0.  0.
          5    1    3    3  501    0  0.15046359434E+01  0.33758052748E+01 -0.52063244017E+02  0.52194361460E+02  0.10000000000E+00 0. -1.
         -5    1    3    3    0  501 -0.13375387859E+02 -0.19375161374E+02  0.72243082585E+02  0.75982701058E+02  0.10000000000E+00 0. -1.
         21    1    1    2  504  502  0.11870751916E+02  0.15999356099E+02  0.74207727996E+02  0.76835415278E+02  0.00000000000E+00 0.  1.
<mgrwt>
<rscale>  1 0.12657857E+03</rscale>
<asrwt>0</asrwt>
<pdfrwt beam="1">  1       21 0.23030772E-01 0.12657857E+03</pdfrwt>
<pdfrwt beam="2">  1       21 0.85096086E-02 0.12657857E+03</pdfrwt>
<totfact> 0.18964867E+06</totfact>
</mgrwt>
</event>
<event>
 6    1  0.4261782E-002  0.1282462E+03  0.7546771E-02  0.1230082E+00
         21   -1    0    0  503  502  0.00000000000E+00  0.00000000000E+00  0.13227129239E+03  0.13227129239E+03  0.00000000000E+00 0. -1.
         21   -1    0    0  504  503 -0.00000000000E+00 -0.00000000000E+00 -0.70981889489E+02  0.70981889489E+02  0.00000000000E+00 0. -1.
         25    2    1    2    0    0 -0.13096857440E+02  0.25488717650E+02 -0.77728809377E+01  0.12848151979E+03  0.12500352334E+03 0.  0.
          5    1    3    3  501    0  0.70750438472E+01  0.57499037539E+02 -0.46539596139E+02  0.74311099926E+02  0.10000000000E+00 0.  1.
         -5    1    3    3    0  501 -0.20171901287E+02 -0.32010319889E+02  0.38766715201E+02  0.54170419866E+02  0.10000000000E+00 0.  1.
         21    1    1    2  504  502  0.13096857440E+02 -0.25488717650E+02  0.69062283843E+02  0.74771662091E+02  0.00000000000E+00 0. -1.
<mgrwt>
<rscale>  1 0.12824618E+03</rscale>
<asrwt>0</asrwt>
<pdfrwt beam="1">  1       21 0.20349430E-01 0.12824618E+03</pdfrwt>
<pdfrwt beam="2">  1       21 0.10920291E-01 0.12824618E+03</pdfrwt>
<totfact> 0.15460295E+06</totfact>
</mgrwt>
</event>
<event>
 6    1  0.4261782E-002  0.1261973E+03  0.7546771E-02  0.1233210E+00
         21   -1    0    0  504  502  0.00000000000E+00  0.00000000000E+00  0.57585255980E+03  0.57585255980E+03  0.00000000000E+00 0.  1.
         21   -1    0    0  502  503 -0.00000000000E+00 -0.00000000000E+00 -0.96452125670E+01  0.96452125670E+01  0.00000000000E+00 0.  1.
         25    2    1    2    0    0 -0.96237201620E+01 -0.14393442823E+02  0.42821387872E+03  0.44642230890E+03  0.12500385902E+03 0.  0.
          5    1    3    3  501    0 -0.43586641470E+02 -0.72582705505E+00  0.39370715924E+03  0.39611319011E+03  0.10000000000E+00 0.  1.
         -5    1    3    3    0  501  0.33962921308E+02 -0.13667615767E+02  0.34506719478E+02  0.50309118792E+02  0.10000000000E+00 0.  1.
         21    1    1    2  504  503  0.96237201620E+01  0.14393442823E+02  0.13799346851E+03  0.13907546346E+03  0.00000000000E+00 0.  1.
<mgrwt>
<rscale>  1 0.12619727E+03</rscale>
<asrwt>0</asrwt>
<pdfrwt beam="1">  1       21 0.88592674E-01 0.12619727E+03</pdfrwt>
<pdfrwt beam="2">  1       21 0.14838793E-02 0.12619727E+03</pdfrwt>
<totfact> 0.21686414E+06</totfact>
</mgrwt>
</event>
<event>
 6    1  0.4261782E-002  0.2204562E+03  0.7546771E-02  0.1133543E+00
         21   -1    0    0  503  502  0.00000000000E+00  0.00000000000E+00  0.90204013925E+03  0.90204013925E+03  0.00000000000E+00 0. -1.
         21   -1    0    0  504  503 -0.00000000000E+00 -0.00000000000E+00 -0.58420146186E+02  0.58420146186E+02  0.00000000000E+00 0. -1.
         25    2    1    2    0    0 -0.17574575474E+03 -0.45708301467E+02  0.68412870814E+03  0.71877187219E+03  0.12500038326E+03 0.  0.
          5    1    3    3  501    0 -0.96436541913E+02 -0.45508042448E+02  0.56939994918E+03  0.57929897348E+03  0.10000000000E+00 0. -1.
         -5    1    3    3    0  501 -0.79309212824E+02 -0.20025901910E+00  0.11472875896E+03  0.13947289871E+03  0.10000000000E+00 0. -1.
         21    1    1    2  504  502  0.17574575474E+03  0.45708301467E+02  0.15949128492E+03  0.24168841324E+03  0.00000000000E+00 0. -1.
<mgrwt>
<rscale>  1 0.22045615E+03</rscale>
<asrwt>0</asrwt>
<pdfrwt beam="1">  1       21 0.13877540E+00 0.22045615E+03</pdfrwt>
<pdfrwt beam="2">  1       21 0.89877155E-02 0.22045615E+03</pdfrwt>
<totfact> 0.35272883E+04</totfact>
</mgrwt>
</event>
<event>
 6    1  0.4261782E-002  0.1279557E+03  0.7546771E-02  0.1230521E+00
         21   -1    0    0  504  502  0.00000000000E+00  0.00000000000E+00  0.21655409054E+03  0.21655409054E+03  0.00000000000E+00 0.  1.
         21   -1    0    0  502  503 -0.00000000000E+00 -0.00000000000E+00 -0.29345473207E+02  0.29345473207E+02  0.00000000000E+00 0.  1.
         25    2    1    2    0    0 -0.22623922059E+02  0.15343338643E+02  0.12954176960E+03  0.18208165703E+03  0.12500159945E+03 0.  0.
          5    1    3    3  501    0 -0.26103617506E+02  0.11104271997E+02  0.15421688372E+03  0.15680421208E+03  0.10000000000E+00 0.  1.
         -5    1    3    3    0  501  0.34796954468E+01  0.42390666467E+01 -0.24675114118E+02  0.25277444949E+02  0.10000000000E+00 0.  1.
         21    1    1    2  504  503  0.22623922059E+02 -0.15343338643E+02  0.57666847733E+02  0.63817906715E+02  0.00000000000E+00 0.  1.
<mgrwt>
<rscale>  1 0.12795569E+03</rscale>
<asrwt>0</asrwt>
<pdfrwt beam="1">  1       21 0.33316013E-01 0.12795569E+03</pdfrwt>
<pdfrwt beam="2">  1       21 0.45146883E-02 0.12795569E+03</pdfrwt>
<totfact> 0.27498778E+06</totfact>
</mgrwt>
</event>
<event>
 6    1  0.4261782E-002  0.1471902E+03  0.7546771E-02  0.1203969E+00
         21   -1    0    0  504  502  0.00000000000E+00  0.00000000000E+00  0.18821940799E+03  0.18821940799E+03  0.00000000000E+00 0. -1.
         21   -1    0    0  502  503 -0.00000000000E+00 -0.00000000000E+00 -0.23092610557E+03  0.23092610557E+03  0.00000000000E+00 0. -1.
         25    2    1    2    0    0 -0.40367405841E+02 -0.66416946178E+02 -0.19727598243E+03  0.24613568142E+03  0.12499688888E+03 0.  0.
          5    1    3    3  501    0 -0.39557929629E+02 -0.24694774303E+02 -0.22419401400E+01  0.46687235622E+02  0.10000000000E+00 0.  1.
         -5    1    3    3    0  501 -0.80947621233E+00 -0.41722171874E+02 -0.19503404229E+03  0.19944844580E+03  0.10000000000E+00 0.  1.
         21    1    1    2  504  503  0.40367405841E+02  0.66416946178E+02  0.15456928486E+03  0.17300983214E+03  0.00000000000E+00 0. -1.
<mgrwt>
<rscale>  1 0.14719022E+03</rscale>
<asrwt>0</asrwt>
<pdfrwt beam="1">  1       21 0.28956832E-01 0.14719022E+03</pdfrwt>
<pdfrwt beam="2">  1       21 0.35527093E-01 0.14719022E+03</pdfrwt>
<totfact> 0.88809799E+04</totfact>
</mgrwt>
</event>
<event>
 6    1  0.4261782E-002  0.1261082E+03  0.7546771E-02  0.1233347E+00
         21   -1    0    0  504  502  0.00000000000E+00  0.00000000000E+00  0.30794073780E+02  0.30794073780E+02  0.00000000000E+00 0. -1.
         21   -1    0    0  502  503 -0.00000000000E+00 -0.00000000000E+00 -0.17799030572E+03  0.17799030572E+03  0.00000000000E+00 0. -1.
         25    2    1    2    0    0  0.16513755793E+02  0.23654881376E+01 -0.10744132121E+03  0.16567112641E+03  0.12499993984E+03 0.  0.
          5    1    3    3  501    0  0.21192535115E+02  0.20126929129E+02 -0.13189112650E+03  0.13509069572E+03  0.10000000000E+00 0.  1.
         -5    1    3    3    0  501 -0.46787793217E+01 -0.17761440991E+02  0.24449805296E+02  0.30580430688E+02  0.10000000000E+00 0.  1.
         21    1    1    2  504  503 -0.16513755793E+02 -0.23654881376E+01 -0.39754910729E+02  0.43113253085E+02  0.00000000000E+00 0. -1.
<mgrwt>
<rscale>  1 0.12610823E+03</rscale>
<asrwt>0</asrwt>
<pdfrwt beam="1">  1       21 0.47375498E-02 0.12610823E+03</pdfrwt>
<pdfrwt beam="2">  1       21 0.27383124E-01 0.12610823E+03</pdfrwt>
<totfact> 0.37019564E+06</totfact>
</mgrwt>
</event>
<event>
 6    1  0.4261782E-002  0.1296421E+03  0.7546771E-02  0.1227988E+00
         21   -1    0    0  503  502  0.00000000000E+00  0.00000000000E+00  0.23990900025E+03  0.23990900025E+03  0.00000000000E+00 0.  1.
         21   -1    0    0  504  503 -0.00000000000E+00 -0.00000000000E+00 -0.32029889772E+03  0.32029889772E+03  0.00000000000E+00 0.  1.
         25    2    1    2    0    0 -0.32048073425E+02  0.12437919350E+02 -0.30582400429E+03  0.33216773184E+03  0.12500119850E+03 0.  0.
          5    1    3    3  501    0  0.31966207741E+02 -0.86078072449E+01 -0.22276701448E+03  0.22521342217E+03  0.10000000000E+00 0. -1.
         -5    1    3    3    0  501 -0.64014281166E+02  0.21045726595E+02 -0.83056989806E+02  0.10695430967E+03  0.10000000000E+00 0. -1.
         21    1    1    2  504  502  0.32048073425E+02 -0.12437919350E+02  0.22543410682E+03  0.22804016613E+03  0.00000000000E+00 0.  1.
<mgrwt>
<rscale>  1 0.12964212E+03</rscale>
<asrwt>0</asrwt>
<pdfrwt beam="1">  1       21 0.36909077E-01 0.12964212E+03</pdfrwt>
<pdfrwt beam="2">  1       21 0.49276753E-01 0.12964212E+03</pdfrwt>
<totfact> 0.28860226E+04</totfact>
</mgrwt>
</event>
<event>
 6    1  0.4261782E-002  0.1280201E+03  0.7546771E-02  0.1230423E+00
         21   -1    0    0  503  502  0.00000000000E+00  0.00000000000E+00  0.68882605716E+03  0.68882605716E+03  0.00000000000E+00 0. -1.
         21   -1    0    0  504  503 -0.00000000000E+00 -0.00000000000E+00 -0.38950545449E+03  0.38950545449E+03  0.00000000000E+00 0.  1.
         25    2    1    2    0    0  0.25986208317E+02 -0.93816712702E+01 -0.37869732164E+03  0.39975093097E+03  0.12500338641E+03 0.  0.
          5    1    3    3  501    0  0.30286451057E+02 -0.57032644975E+02 -0.11628000803E+03  0.13300767639E+03  0.10000000000E+00 0. -1.
         -5    1    3    3    0  501 -0.43002427392E+01  0.47650973705E+02 -0.26241731361E+03  0.26674325458E+03  0.10000000000E+00 0. -1.
         21    1    1    2  504  502 -0.25986208317E+02  0.93816712702E+01  0.67801792431E+03  0.67858058067E+03  0.00000000000E+00 0. -1.
<mgrwt>
<rscale>  1 0.12802010E+03</rscale>
<asrwt>0</asrwt>
<pdfrwt beam="1">  1       21 0.10597324E+00 0.12802010E+03</pdfrwt>
<pdfrwt beam="2">  1       21 0.59923916E-01 0.12802010E+03</pdfrwt>
<totfact> 0.19892288E+03</totfact>
</mgrwt>
</event>
<event>
 6    1  0.4261782E-002  0.1264267E+03  0.7546771E-02  0.1232856E+00
         21   -1    0    0  504  502  0.00000000000E+00  0.00000000000E+00  0.37381899747E+03  0.37381899747E+03  0.00000000000E+00 0. -1.
         21   -1    0    0  502  503 -0.00000000000E+00 -0.00000000000E+00 -0.15354078609E+02  0.15354078609E+02  0.00000000000E+00 0. -1.
         25    2    1    2    0    0  0.18455077405E+02  0.43679195487E+01  0.26258334173E+03  0.29143390565E+03  0.12499616556E+03 0.  0.
          5    1    3    3  501    0 -0.80065263280E+01  0.47059510251E+02  0.22138084161E+03  0.22646895814E+03  0.10000000000E+00 0.  1.
         -5    1    3    3    0  501  0.26461603733E+02 -0.42691590702E+02  0.41202500118E+02  0.64964947509E+02  0.10000000000E+00 0.  1.
         21    1    1    2  504  503 -0.18455077405E+02 -0.43679195487E+01  0.95881577133E+02  0.97739170432E+02  0.00000000000E+00 0. -1.
<mgrwt>
<rscale>  1 0.12642670E+03</rscale>
<asrwt>0</asrwt>
<pdfrwt beam="1">  1       21 0.57510608E-01 0.12642670E+03</pdfrwt>
<pdfrwt beam="2">  1       21 0.23621662E-02 0.12642670E+03</pdfrwt>
<totfact> 0.26425344E+06</totfact>
</mgrwt>
</event>
<event>
 6    1  0.4261782E-002  0.1259315E+03  0.7546771E-02  0.1233621E+00
         21   -1    0    0  504  502  0.00000000000E+00  0.00000000000E+00  0.71554915327E+02  0.71554915327E+02  0.00000000000E+00 0. -1.
         21   -1    0    0  502  503 -0.00000000000E+00 -0.00000000000E+00 -0.69767791386E+02  0.69767791386E+02  0.00000000000E+00 0. -1.
         25    2    1    2    0    0  0.67497929586E+01  0.13726049240E+02  0.77331582831E-01  0.12593155592E+03  0.12499914666E+03 0.  0.
          5    1    3    3  501    0  0.31217625334E+02  0.63208894029E+02 -0.37497127752E+01  0.70597271631E+02  0.10000000000E+00 0. -1.
         -5    1    3    3    0  501 -0.24467832376E+02 -0.49482844790E+02  0.38270443580E+01  0.55334284292E+02  0.10000000000E+00 0. -1.
         21    1    1    2  504  503 -0.67497929586E+01 -0.13726049240E+02  0.17097923586E+01  0.15391150789E+02  0.00000000000E+00 0. -1.
<mgrwt>
<rscale>  1 0.12593153E+03</rscale>
<asrwt>0</asrwt>
<pdfrwt beam="1">  1       21 0.11008449E-01 0.12593153E+03</pdfrwt>
<pdfrwt beam="2">  1       21 0.10733506E-01 0.12593153E+03</pdfrwt>
<totfact> 0.48211534E+06</totfact>
</mgrwt>
</event>
<event>
 6    1  0.4261782E-002  0.1481934E+03  0.7546771E-02  0.1202711E+00
         21   -1    0    0  504  502  0.00000000000E+00  0.00000000000E+00  0.89157562538E+02  0.89157562538E+02  0.00000000000E+00 0.  1.
         21   -1    0    0  502  503 -0.00000000000E+00 -0.00000000000E+00 -0.14720548953E+03  0.14720548953E+03  0.00000000000E+00 0.  1.
         25    2    1    2    0    0  0.55287908727E+02 -0.57293306677E+02 -0.49707969706E+02  0.15630787904E+03  0.12498797924E+03 0.  0.
          5    1    3    3  501    0  0.40866983084E+02 -0.27365918435E+01  0.35436853661E+02  0.54160685360E+02  0.10000000000E+00 0.  1.
         -5    1    3    3    0  501  0.14420925643E+02 -0.54556714833E+02 -0.85144823367E+02  0.10214719368E+03  0.10000000000E+00 0.  1.
         21    1    1    2  504  503 -0.55287908727E+02  0.57293306677E+02 -0.83399572838E+01  0.80055173030E+02  0.00000000000E+00 0.  1.
<mgrwt>
<rscale>  1 0.14819336E+03</rscale>
<asrwt>0</asrwt>
<pdfrwt beam="1">  1       21 0.13716548E-01 0.14819336E+03</pdfrwt>
<pdfrwt beam="2">  1       21 0.22646998E-01 0.14819336E+03</pdfrwt>
<totfact> 0.84573405E+05</totfact>
</mgrwt>
</event>
<event>
 6    1  0.4261782E-002  0.1279431E+03  0.7546771E-02  0.1230540E+00
         21   -1    0    0  504  502  0.00000000000E+00  0.00000000000E+00  0.52043500957E+01  0.52043500957E+01  0.00000000000E+00 0.  1.
         21   -1    0    0  502  503 -0.00000000000E+00 -0.00000000000E+00 -0.23417617945E+04  0.23417617945E+04  0.00000000000E+00 0.  1.
         25    2    1    2    0    0  0.22932919551E+02 -0.14776410983E+02 -0.22854905902E+04  0.22890689537E+04  0.12500070233E+03 0.  0.
          5    1    3    3  501    0  0.45516498261E+02 -0.91357996090E+01 -0.31143623747E+03  0.31487736416E+03  0.10000000000E+00 0. -1.
         -5    1    3    3    0  501 -0.22583578710E+02 -0.56406113744E+01 -0.19740543527E+04  0.19741915895E+04  0.10000000000E+00 0. -1.
         21    1    1    2  504  503 -0.22932919551E+02  0.14776410983E+02 -0.51066854236E+02  0.57897190970E+02  0.00000000000E+00 0.  1.
<mgrwt>
<rscale>  1 0.12794310E+03</rscale>
<asrwt>0</asrwt>
<pdfrwt beam="1">  1       21 0.80066809E-03 0.12794310E+03</pdfrwt>
<pdfrwt beam="2">  1       21 0.36027157E+00 0.12794310E+03</pdfrwt>
<totfact> 0.87325883E+04</totfact>
</mgrwt>
</event>
<event>
 6    1  0.4261782E-002  0.1289173E+03  0.7546771E-02  0.1229071E+00
         21   -1    0    0  504  502  0.00000000000E+00  0.00000000000E+00  0.50939559474E+03  0.50939559474E+03  0.00000000000E+00 0. -1.
         21   -1    0    0  502  503 -0.00000000000E+00 -0.00000000000E+00 -0.13828863351E+02  0.13828863351E+02  0.00000000000E+00 0. -1.
         25    2    1    2    0    0  0.12921893047E+02 -0.28751767858E+02  0.32253549165E+03  0.34734538201E+03  0.12500412617E+03 0.  0.
          5    1    3    3  501    0  0.15817870295E+02  0.45627860672E+02  0.78071987032E+02  0.91800609199E+02  0.10000000000E+00 0.  1.
         -5    1    3    3    0  501 -0.28959772482E+01 -0.74379628530E+02  0.24446350462E+03  0.25554477282E+03  0.10000000000E+00 0.  1.
         21    1    1    2  504  503 -0.12921893047E+02  0.28751767858E+02  0.17303123974E+03  0.17587907607E+03  0.00000000000E+00 0. -1.
<mgrwt>
<rscale>  1 0.12891730E+03</rscale>
<asrwt>0</asrwt>
<pdfrwt beam="1">  1       21 0.78368539E-01 0.12891730E+03</pdfrwt>
<pdfrwt beam="2">  1       21 0.21275178E-02 0.12891730E+03</pdfrwt>
<totfact> 0.16028483E+06</totfact>
</mgrwt>
</event>
<event>
 6    1  0.4261782E-002  0.1267109E+03  0.7546771E-02  0.1232419E+00
         21   -1    0    0  504  502  0.00000000000E+00  0.00000000000E+00  0.18864892349E+02  0.18864892349E+02  0.00000000000E+00 0.  1.
         21   -1    0    0  502  503 -0.00000000000E+00 -0.00000000000E+00 -0.29228339868E+03  0.29228339868E+03  0.00000000000E+00 0.  1.
         25    2    1    2    0    0 -0.86826910463E+01 -0.18847894061E+02 -0.24649065286E+03  0.27715209231E+03  0.12500003237E+03 0.  0.
          5    1    3    3  501    0  0.27914590913E+02  0.28364032576E+02 -0.23321212871E+02  0.46126258244E+02  0.10000000000E+00 0.  1.
         -5    1    3    3    0  501 -0.36597281959E+02 -0.47211926637E+02 -0.22316943999E+03  0.23102583407E+03  0.10000000000E+00 0.  1.
         21    1    1    2  504  503  0.86826910463E+01  0.18847894061E+02 -0.26927853472E+02  0.33996198713E+02  0.00000000000E+00 0.  1.
<mgrwt>
<rscale>  1 0.12671085E+03</rscale>
<asrwt>0</asrwt>
<pdfrwt beam="1">  1       21 0.29022915E-02 0.12671085E+03</pdfrwt>
<pdfrwt beam="2">  1       21 0.44966671E-01 0.12671085E+03</pdfrwt>
<totfact> 0.31422094E+06</totfact>
</mgrwt>
</event>
<event>
 6    1  0.4261782E-002  0.1264162E+03  0.7546771E-02  0.1232872E+00
         21   -1    0    0  503  502  0.00000000000E+00  0.00000000000E+00  0.71149973498E+01  0.71149973498E+01  0.00000000000E+00 0. -1.
         21   -1    0    0  504  503 -0.00000000000E+00 -0.00000000000E+00 -0.10175675265E+04  0.10175675265E+04  0.00000000000E+00 0. -1.
         25    2    1    2    0    0  0.10760660297E+02 -0.15511152238E+02 -0.98453807096E+03  0.99262091447E+03  0.12499871601E+03 0.  0.
          5    1    3    3  501    0 -0.53953776653E+02  0.12635332804E+02 -0.47415508556E+03  0.47738214966E+03  0.10000000000E+00 0. -1.
         -5    1    3    3    0  501  0.64714436950E+02 -0.28146485042E+02 -0.51038298541E+03  0.51523876481E+03  0.10000000000E+00 0. -1.
         21    1    1    2  504  502 -0.10760660297E+02  0.15511152238E+02 -0.25914458232E+02  0.32061609430E+02  0.00000000000E+00 0. -1.
<mgrwt>
<rscale>  1 0.12641624E+03</rscale>
<asrwt>0</asrwt>
<pdfrwt beam="1">  1       21 0.10946151E-02 0.12641624E+03</pdfrwt>
<pdfrwt beam="2">  1       21 0.15654883E+00 0.12641624E+03</pdfrwt>
<totfact> 0.87911721E+05</totfact>
</mgrwt>
</event>
<event>
 6    1  0.4261782E-002  0.1282179E+03  0.7546771E-02  0.1230124E+00
         21   -1    0    0  504  502  0.00000000000E+00  0.00000000000E+00  0.50510470083E+02  0.50510470083E+02  0.00000000000E+00 0.  1.
         21   -1    0    0  502  503 -0.00000000000E+00 -0.00000000000E+00 -0.22421685144E+03  0.22421685144E+03  0.00000000000E+00 0.  1.
         25    2    1    2    0    0  0.25044070951E+02  0.13699528589E+02 -0.19890554035E+03  0.23665002925E+03  0.12499975916E+03 0.  0.
          5    1    3    3  501    0 -0.56779535739E+00  0.64968536425E+02 -0.69596365974E+02  0.95209754089E+02  0.10000000000E+00 0. -1.
         -5    1    3    3    0  501  0.25611866308E+02 -0.51269007836E+02 -0.12930917438E+03  0.14144027516E+03  0.10000000000E+00 0. -1.
         21    1    1    2  504  503 -0.25044070951E+02 -0.13699528589E+02  0.25199158989E+02  0.38077292276E+02  0.00000000000E+00 0.  1.
<mgrwt>
<rscale>  1 0.12821787E+03</rscale>
<asrwt>0</asrwt>
<pdfrwt beam="1">  1       21 0.77708415E-02 0.12821787E+03</pdfrwt>
<pdfrwt beam="2">  1       21 0.34494900E-01 0.12821787E+03</pdfrwt>
<totfact> 0.10235059E+06</totfact>
</mgrwt>
</event>
<event>
 6    1  0.4261782E-002  0.1278573E+03  0.7546771E-02  0.1230670E+00
         21   -1    0    0  503  502  0.00000000000E+00  0.00000000000E+00  0.16878330909E+02  0.16878330909E+02  0.00000000000E+00 0. -1.
         21   -1    0    0  504  503 -0.00000000000E+00 -0.00000000000E+00 -0.61826278599E+03  0.61826278599E+03  0.00000000000E+00 0. -1.
         25    2    1    2    0    0 -0.24771069580E+02  0.10430224691E+02 -0.59352180871E+03  0.60713724782E+03  0.12500041922E+03 0.  0.
          5    1    3    3  501    0  0.59980867253E+01  0.47580765180E+02 -0.49624469595E+03  0.49855663120E+03  0.10000000000E+00 0.  1.
         -5    1    3    3    0  501 -0.30769156305E+02 -0.37150540489E+02 -0.97277112763E+02  0.10858061662E+03  0.10000000000E+00 0.  1.
         21    1    1    2  504  502  0.24771069580E+02 -0.10430224691E+02 -0.78626463687E+01  0.28003869075E+02  0.00000000000E+00 0. -1.
<mgrwt>
<rscale>  1 0.12785734E+03</rscale>
<asrwt>0</asrwt>
<pdfrwt beam="1">  1       21 0.25966662E-02 0.12785734E+03</pdfrwt>
<pdfrwt beam="2">  1       21 0.95117355E-01 0.12785734E+03</pdfrwt>
<totfact> 0.74751638E+05</totfact>
</mgrwt>
</event>
<event>
 6    1  0.4261782E-002  0.1281496E+03  0.7546771E-02  0.1230228E+00
         21   -1    0    0  504  502  0.00000000000E+00  0.00000000000E+00  0.12926211240E+03  0.12926211240E+03  0.00000000000E+00 0.  1.
         21   -1    0    0  502  503 -0.00000000000E+00 -0.00000000000E+00 -0.47308886552E+02  0.47308886552E+02  0.00000000000E+00 0.  1.
         25    2    1    2    0    0 -0.57001768792E+01  0.27666761309E+02  0.67546009294E+02  0.14486122780E+03  0.12499748098E+03 0.  0.
          5    1    3    3  501    0 -0.55524023801E+02 -0.18432157993E+02  0.43291174364E+02  0.72779100332E+02  0.10000000000E+00 0. -1.
         -5    1    3    3    0  501  0.49823846922E+02  0.46098919302E+02  0.24254834930E+02  0.72082127469E+02  0.10000000000E+00 0. -1.
         21    1    1    2  504  503  0.57001768792E+01 -0.27666761309E+02  0.14407216559E+02  0.31709771156E+02  0.00000000000E+00 0.  1.
<mgrwt>
<rscale>  1 0.12814957E+03</rscale>
<asrwt>0</asrwt>
<pdfrwt beam="1">  1       21 0.19886479E-01 0.12814957E+03</pdfrwt>
<pdfrwt beam="2">  1       21 0.72782903E-02 0.12814957E+03</pdfrwt>
<totfact> 0.32629124E+06</totfact>
</mgrwt>
</event>
<event>
 6    1  0.4261782E-002  0.1267464E+03  0.7546771E-02  0.1232365E+00
         21   -1    0    0  504  502  0.00000000000E+00  0.00000000000E+00  0.12290356387E+03  0.12290356387E+03  0.00000000000E+00 0. -1.
         21   -1    0    0  502  503 -0.00000000000E+00 -0.00000000000E+00 -0.60473717525E+02  0.60473717525E+02  0.00000000000E+00 0. -1.
         25    2    1    2    0    0 -0.20916981440E+02  0.10266113832E+01  0.10259992790E+02  0.12716102339E+03  0.12500433743E+03 0.  0.
          5    1    3    3  501    0 -0.50489414413E+02  0.32577610236E+02  0.42178649354E+02  0.73413419194E+02  0.10000000000E+00 0.  1.
         -5    1    3    3    0  501  0.29572432972E+02 -0.31550998852E+02 -0.31918656564E+02  0.53747604201E+02  0.10000000000E+00 0.  1.
         21    1    1    2  504  503  0.20916981440E+02 -0.10266113832E+01  0.52169853556E+02  0.56216258000E+02  0.00000000000E+00 0. -1.
<mgrwt>
<rscale>  1 0.12674643E+03</rscale>
<asrwt>0</asrwt>
<pdfrwt beam="1">  1       21 0.18908241E-01 0.12674643E+03</pdfrwt>
<pdfrwt beam="2">  1       21 0.93036489E-02 0.12674643E+03</pdfrwt>
<totfact> 0.23425819E+06</totfact>
</mgrwt>
</event>
<event>
 6    1  0.4261782E-002  0.1287817E+03  0.7546771E-02  0.1229275E+00
         21   -1    0    0  503  502  0.00000000000E+00  0.00000000000E+00  0.55181952158E+01  0.55181952158E+01  0.00000000000E+00 0.  1.
         21   -1    0    0  504  503 -0.00000000000E+00 -0.00000000000E+00 -0.14233998125E+04  0.14233998125E+04  0.00000000000E+00 0.  1.
         25    2    1    2    0    0 -0.30082374671E+02 -0.75703182973E+01 -0.13193126120E+04  0.13255830776E+04  0.12498987310E+03 0.  0.
          5    1    3    3  501    0 -0.58160592280E+02 -0.45655736500E+01 -0.12403800984E+04  0.12417513026E+04  0.10000000000E+00 0. -1.
         -5    1    3    3    0  501  0.28078217609E+02 -0.30047446474E+01 -0.78932513576E+02  0.83831774966E+02  0.10000000000E+00 0. -1.
         21    1    1    2  504  502  0.30082374671E+02  0.75703182973E+01 -0.98569005261E+02  0.10333493012E+03  0.00000000000E+00 0.  1.
<mgrwt>
<rscale>  1 0.12878170E+03</rscale>
<asrwt>0</asrwt>
<pdfrwt beam="1">  1       21 0.84895267E-03 0.12878170E+03</pdfrwt>
<pdfrwt beam="2">  1       21 0.21898470E+00 0.12878170E+03</pdfrwt>
<totfact> 0.51079788E+05</totfact>
</mgrwt>
</event>
<event>
 6    1  0.4261782E-002  0.1353326E+03  0.7546771E-02  0.1219751E+00
         21   -1    0    0  504  502  0.00000000000E+00  0.00000000000E+00  0.53321236151E+03  0.53321236151E+03  0.00000000000E+00 0.  1.
         21   -1    0    0  502  503 -0.00000000000E+00 -0.00000000000E+00 -0.22518417636E+02  0.22518417636E+02  0.00000000000E+00 0.  1.
         25    2    1    2    0    0 -0.10813149431E+02 -0.50692934403E+02  0.20479076826E+03  0.24546726106E+03  0.12501287811E+03 0.  0.
          5    1    3    3  501    0  0.36167272520E+02 -0.58404659778E+02  0.54120519136E+02  0.87454082105E+02  0.10000000000E+00 0.  1.
         -5    1    3    3    0  501 -0.46980421951E+02  0.77117253747E+01  0.15067024912E+03  0.15801317896E+03  0.10000000000E+00 0.  1.
         21    1    1    2  504  503  0.10813149431E+02  0.50692934403E+02  0.30590317562E+03  0.31026351809E+03  0.00000000000E+00 0.  1.
<mgrwt>
<rscale>  1 0.13533262E+03</rscale>
<asrwt>0</asrwt>
<pdfrwt beam="1">  1       21 0.82032661E-01 0.13533262E+03</pdfrwt>
<pdfrwt beam="2">  1       21 0.34643724E-02 0.13533262E+03</pdfrwt>
<totfact> 0.65232459E+05</totfact>
</mgrwt>
</event>
<event>
 6    1  0.4261782E-002  0.1272740E+03  0.7546771E-02  0.1231558E+00
         21   -1    0    0  503  502  0.00000000000E+00  0.00000000000E+00  0.47793215312E+02  0.47793215312E+02  0.00000000000E+00 0.  1.
         21   -1    0    0  504  503 -0.00000000000E+00 -0.00000000000E+00 -0.12219896567E+03  0.12219896567E+03  0.00000000000E+00 0.  1.
         25    2    1    2    0    0  0.99497951577E+01 -0.21792443718E+02 -0.71161592799E+02  0.14581711975E+03  0.12499900438E+03 0.  0.
          5    1    3    3  501    0  0.27977919135E+02 -0.67803163978E+02 -0.60924694748E+02  0.95351252926E+02  0.10000000000E+00 0.  1.
         -5    1    3    3    0  501 -0.18028123977E+02  0.46010720260E+02 -0.10236898051E+02  0.50465866828E+02  0.10000000000E+00 0.  1.
         21    1    1    2  504  502 -0.99497951577E+01  0.21792443718E+02 -0.32441575546E+01  0.24175061223E+02  0.00000000000E+00 0.  1.
<mgrwt>
<rscale>  1 0.12727396E+03</rscale>
<asrwt>0</asrwt>
<pdfrwt beam="1">  1       21 0.73528024E-02 0.12727396E+03</pdfrwt>
<pdfrwt beam="2">  1       21 0.18799841E-01 0.12727396E+03</pdfrwt>
<totfact> 0.35552155E+06</totfact>
</mgrwt>
</event>
<event>
 6    1  0.4261782E-002  0.1265814E+03  0.7546771E-02  0.1232618E+00
         21   -1    0    0  503  502  0.00000000000E+00  0.00000000000E+00  0.18946267753E+03  0.18946267753E+03  0.00000000000E+00 0. -1.
         21   -1    0    0  504  503 -0.00000000000E+00 -0.00000000000E+00 -0.33742032033E+02  0.33742032033E+02  0.00000000000E+00 0. -1.
         25    2    1    2    0    0 -0.16554843422E+02 -0.11221393192E+02  0.92173840508E+02  0.15658505083E+03  0.12499151476E+03 0.  0.
          5    1    3    3  501    0 -0.52188159342E+02  0.15268832173E+02  0.97728724086E+02  0.11183762660E+03  0.10000000000E+00 0. -1.
         -5    1    3    3    0  501  0.35633315921E+02 -0.26490225366E+02 -0.55548835784E+01  0.44747424228E+02  0.10000000000E+00 0. -1.
         21    1    1    2  504  502  0.16554843422E+02  0.11221393192E+02  0.63546804993E+02  0.66619658740E+02  0.00000000000E+00 0. -1.
<mgrwt>
<rscale>  1 0.12658144E+03</rscale>
<asrwt>0</asrwt>
<pdfrwt beam="1">  1       21 0.29148104E-01 0.12658144E+03</pdfrwt>
<pdfrwt beam="2">  1       21 0.51910820E-02 0.12658144E+03</pdfrwt>
<totfact> 0.28179036E+06</totfact>
</mgrwt>
</event>
<event>
 6    1  0.4261782E-002  0.1364141E+03  0.7546771E-02  0.1218237E+00
         21   -1    0    0  503  502  0.00000000000E+00  0.00000000000E+00  0.32669076413E+03  0.32669076413E+03  0.00000000000E+00 0. -1.
         21   -1    0    0  504  503 -0.00000000000E+00 -0.00000000000E+00 -0.28451115559E+02  0.28451115559E+02  0.00000000000E+00 0. -1.
         25    2    1    2    0    0  0.54499802408E+02 -0.35420388418E+01  0.18993854681E+03  0.23384924535E+03  0.12500417387E+03 0.  0.
          5    1    3    3  501    0  0.17218821151E+01 -0.43402287176E+02  0.15094684488E+03  0.15707222348E+03  0.10000000000E+00 0.  1.
         -5    1    3    3    0  501  0.52777920293E+02  0.39860248334E+02  0.38991701929E+02  0.76777021869E+02  0.10000000000E+00 0.  1.
         21    1    1    2  504  502 -0.54499802408E+02  0.35420388418E+01  0.10830110176E+03  0.12129263433E+03  0.00000000000E+00 0. -1.
<mgrwt>
<rscale>  1 0.13641414E+03</rscale>
<asrwt>0</asrwt>
<pdfrwt beam="1">  1       21 0.50260115E-01 0.13641414E+03</pdfrwt>
<pdfrwt beam="2">  1       21 0.43770949E-02 0.13641414E+03</pdfrwt>
<totfact> 0.12702188E+06</totfact>
</mgrwt>
</event>
<event>
 6    1  0.4261782E-002  0.1315778E+03  0.7546771E-02  0.1225133E+00
         21   -1    0    0  503  502  0.00000000000E+00  0.00000000000E+00  0.79826422180E+02  0.79826422180E+02  0.00000000000E+00 0.  1.
         21   -1    0    0  504  503 -0.00000000000E+00 -0.00000000000E+00 -0.16141420184E+03  0.16141420184E+03  0.00000000000E+00 0.  1.
         25    2    1    2    0    0 -0.38424416566E+02  0.14546553664E+02 -0.12498682887E+03  0.18147846639E+03  0.12499875343E+03 0.  0.
          5    1    3    3  501    0  0.48803455134E+01  0.62693816177E+02 -0.39601071298E+02  0.74314111763E+02  0.10000000000E+00 0. -1.
         -5    1    3    3    0  501 -0.43304762079E+02 -0.48147262513E+02 -0.85385757571E+02  0.10716435463E+03  0.10000000000E+00 0. -1.
         21    1    1    2  504  502  0.38424416566E+02 -0.14546553664E+02  0.43399049212E+02  0.59762157629E+02  0.00000000000E+00 0.  1.
<mgrwt>
<rscale>  1 0.13157783E+03</rscale>
<asrwt>0</asrwt>
<pdfrwt beam="1">  1       21 0.12280988E-01 0.13157783E+03</pdfrwt>
<pdfrwt beam="2">  1       21 0.24832954E-01 0.13157783E+03</pdfrwt>
<totfact> 0.86598874E+05</totfact>
</mgrwt>
</event>
<event>
 6    1  0.4261782E-002  0.1263985E+03  0.7546771E-02  0.1232900E+00
         21   -1    0    0  504  502  0.00000000000E+00  0.00000000000E+00  0.81501029150E+02  0.81501029150E+02  0.00000000000E+00 0.  1.
         21   -1    0    0  502  503 -0.00000000000E+00 -0.00000000000E+00 -0.15716556308E+03  0.15716556308E+03  0.00000000000E+00 0.  1.
         25    2    1    2    0    0  0.99982498419E+01 -0.15867066080E+02 -0.12991971325E+03  0.18126142462E+03  0.12499937351E+03 0.  0.
          5    1    3    3  501    0  0.44453163075E+02 -0.41054102489E+02 -0.12425744472E+03  0.13820797953E+03  0.10000000000E+00 0.  1.
         -5    1    3    3    0  501 -0.34454913233E+02  0.25187036409E+02 -0.56622685333E+01  0.43053445087E+02  0.10000000000E+00 0.  1.
         21    1    1    2  504  503 -0.99982498419E+01  0.15867066080E+02  0.54255179318E+02  0.57405167613E+02  0.00000000000E+00 0.  1.
<mgrwt>
<rscale>  1 0.12639847E+03</rscale>
<asrwt>0</asrwt>
<pdfrwt beam="1">  1       21 0.12538620E-01 0.12639847E+03</pdfrwt>
<pdfrwt beam="2">  1       21 0.24179317E-01 0.12639847E+03</pdfrwt>
<totfact> 0.87747020E+05</totfact>
</mgrwt>
</event>
<event>
 6    1  0.4261782E-002  0.1361361E+03  0.7546771E-02  0.1218625E+00
         21   -1    0    0  504  502  0.00000000000E+00  0.00000000000E+00  0.50665590602E+02  0.50665590602E+02  0.00000000000E+00 0.  1.
         21   -1    0    0  502  503 -0.00000000000E+00 -0.00000000000E+00 -0.51293520563E+03  0.51293520563E+03  0.00000000000E+00 0.  1.
         25    2    1    2    0    0 -0.95806255642E+01  0.53068350974E+02 -0.48598336986E+03  0.50469086134E+03  0.12499996589E+03 0.  0.
          5    1    3    3  501    0  0.57381797763E+01  0.27156191336E+02 -0.12824659760E+02  0.30575600288E+02  0.10000000000E+00 0.  1.
         -5    1    3    3    0  501 -0.15318805340E+02  0.25912159638E+02 -0.47315871010E+03  0.47411526105E+03  0.10000000000E+00 0.  1.
         21    1    1    2  504  503  0.95806255642E+01 -0.53068350974E+02  0.23713754832E+02  0.58909934897E+02  0.00000000000E+00 0.  1.
<mgrwt>
<rscale>  1 0.13613607E+03</rscale>
<asrwt>0</asrwt>
<pdfrwt beam="1">  1       21 0.77947064E-02 0.13613607E+03</pdfrwt>
<pdfrwt beam="2">  1       21 0.78913107E-01 0.13613607E+03</pdfrwt>
<totfact> 0.18128538E+05</totfact>
</mgrwt>
</event>
<event>
 6    1  0.4261782E-002  0.1271792E+03  0.7546771E-02  0.1231702E+00
         21   -1    0    0  503  502  0.00000000000E+00  0.00000000000E+00  0.30825721354E+02  0.30825721354E+02  0.00000000000E+00 0.  1.
         21   -1    0    0  504  503 -0.00000000000E+00 -0.00000000000E+00 -0.28489052925E+03  0.28489052925E+03  0.00000000000E+00 0.  1.
         25    2    1    2    0    0 -0.19328789350E+02  0.13266743209E+02 -0.26177775734E+03  0.29103633646E+03  0.12499978531E+03 0.  0.
          5    1    3    3  501    0 -0.20433440789E+02  0.22564808609E+02 -0.27397396034E+03  0.27566000260E+03  0.10000000000E+00 0. -1.
         -5    1    3    3    0  501  0.11046514386E+01 -0.92980654004E+01  0.12196203005E+02  0.15376333852E+02  0.10000000000E+00 0. -1.
         21    1    1    2  504  502  0.19328789350E+02 -0.13266743209E+02  0.77129494438E+01  0.24679914145E+02  0.00000000000E+00 0.  1.
<mgrwt>
<rscale>  1 0.12717922E+03</rscale>
<asrwt>0</asrwt>
<pdfrwt beam="1">  1       21 0.47424184E-02 0.12717922E+03</pdfrwt>
<pdfrwt beam="2">  1       21 0.43829314E-01 0.12717922E+03</pdfrwt>
<totfact> 0.14684479E+06</totfact>
</mgrwt>
</event>
<event>
 6    1  0.4261782E-002  0.1732277E+03  0.7546771E-02  0.1174523E+00
         21   -1    0    0  504  502  0.00000000000E+00  0.00000000000E+00  0.75158346424E+03  0.75158346424E+03  0.00000000000E+00 0. -1.
         21   -1    0    0  502  503 -0.00000000000E+00 -0.00000000000E+00 -0.76170636251E+02  0.76170636251E+02  0.00000000000E+00 0. -1.
         25    2    1    2    0    0  0.11940347027E+03 -0.11228492854E+02  0.35663750308E+02  0.17686075273E+03  0.12499822001E+03 0.  0.
          5    1    3    3  501    0  0.14601521820E+03 -0.64977784543E+01  0.31450251305E+02  0.14950516171E+03  0.10000000000E+00 0. -1.
         -5    1    3    3    0  501 -0.26611747925E+02 -0.47307143995E+01  0.42134990024E+01  0.27355591023E+02  0.10000000000E+00 0. -1.
         21    1    1    2  504  503 -0.11940347027E+03  0.11228492854E+02  0.63974907768E+03  0.65089334776E+03  0.00000000000E+00 0. -1.
<mgrwt>
<rscale>  1 0.17322766E+03</rscale>
<asrwt>0</asrwt>
<pdfrwt beam="1">  1       21 0.11562822E+00 0.17322766E+03</pdfrwt>
<pdfrwt beam="2">  1       21 0.11718560E-01 0.17322766E+03</pdfrwt>
<totfact> 0.35811598E+04</totfact>
</mgrwt>
</event>
<event>
 6    1  0.4261782E-002  0.1328818E+03  0.7546771E-02  0.1223241E+00
         21   -1    0    0  503  502  0.00000000000E+00  0.00000000000E+00  0.16180951421E+04  0.16180951421E+04  0.00000000000E+00 0.  1.
         21   -1    0    0  504  503 -0.00000000000E+00 -0.00000000000E+00 -0.49031375270E+01  0.49031375270E+01  0.00000000000E+00 0.  1.
         25    2    1    2    0    0  0.24285768581E+01 -0.45084622951E+02  0.12285422891E+04  0.12357077881E+04  0.12497623877E+03 0.  0.
          5    1    3    3  501    0  0.49376844942E+02 -0.48320702720E+02  0.99928465368E+03  0.10016700017E+04  0.10000000000E+00 0.  1.
         -5    1    3    3    0  501 -0.46948268083E+02  0.32360797684E+01  0.22925763541E+03  0.23403778644E+03  0.10000000000E+00 0.  1.
         21    1    1    2  504  502 -0.24285768581E+01  0.45084622951E+02  0.38464971548E+03  0.38729049154E+03  0.00000000000E+00 0.  1.
<mgrwt>
<rscale>  1 0.13288183E+03</rscale>
<asrwt>0</asrwt>
<pdfrwt beam="1">  1       21 0.24893729E+00 0.13288183E+03</pdfrwt>
<pdfrwt beam="2">  1       21 0.75433014E-03 0.13288183E+03</pdfrwt>
<totfact> 0.40905684E+05</totfact>
</mgrwt>
</event>
<event>
 6    1  0.4261782E-002  0.1298728E+03  0.7546771E-02  0.1227645E+00
         21   -1    0    0  504  502  0.00000000000E+00  0.00000000000E+00  0.12947835832E+03  0.12947835832E+03  0.00000000000E+00 0.  1.
         21   -1    0    0  502  503 -0.00000000000E+00 -0.00000000000E+00 -0.58041273692E+02  0.58041273692E+02  0.00000000000E+00 0.  1.
         25    2    1    2    0    0 -0.11224131525E+02 -0.33410982163E+02  0.30323052217E+02  0.13336579079E+03  0.12499868720E+03 0.  0.
          5    1    3    3  501    0 -0.15056227638E+02 -0.52653825127E+01  0.77049263047E+02  0.78682991681E+02  0.10000000000E+00 0.  1.
         -5    1    3    3    0  501  0.38320961126E+01 -0.28145599650E+02 -0.46726210830E+02  0.54682799113E+02  0.10000000000E+00 0.  1.
         21    1    1    2  504  503  0.11224131525E+02  0.33410982163E+02  0.41114032411E+02  0.54153841218E+02  0.00000000000E+00 0.  1.
<mgrwt>
<rscale>  1 0.12987281E+03</rscale>
<asrwt>0</asrwt>
<pdfrwt beam="1">  1       21 0.19919747E-01 0.12987281E+03</pdfrwt>
<pdfrwt beam="2">  1       21 0.89294267E-02 0.12987281E+03</pdfrwt>
<totfact> 0.22872254E+06</totfact>
</mgrwt>
</event>
<event>
 6    1  0.4261782E-002  0.1304530E+03  0.7546771E-02  0.1226785E+00
         21   -1    0    0  504  502  0.00000000000E+00  0.00000000000E+00  0.42289118652E+03  0.42289118652E+03  0.00000000000E+00 0. -1.
         21   -1    0    0  502  503 -0.00000000000E+00 -0.00000000000E+00 -0.90103199523E+02  0.90103199523E+02  0.00000000000E+00 0. -1.
         25    2    1    2    0    0 -0.28390303624E+02  0.24223004073E+02 -0.41465668683E+02  0.13688461210E+03  0.12500092833E+03 0.  0.
          5    1    3    3  501    0  0.41942555580E+02  0.40395013540E+02 -0.16579654682E+02  0.60546098444E+02  0.10000000000E+00 0. -1.
         -5    1    3    3    0  501 -0.70332859204E+02 -0.16172009467E+02 -0.24886014001E+02  0.76338513654E+02  0.10000000000E+00 0. -1.
         21    1    1    2  504  503  0.28390303624E+02 -0.24223004073E+02  0.37425365568E+03  0.37610977394E+03  0.00000000000E+00 0. -1.
<mgrwt>
<rscale>  1 0.13045304E+03</rscale>
<asrwt>0</asrwt>
<pdfrwt beam="1">  1       21 0.65060181E-01 0.13045304E+03</pdfrwt>
<pdfrwt beam="2">  1       21 0.13862031E-01 0.13045304E+03</pdfrwt>
<totfact> 0.10090848E+05</totfact>
</mgrwt>
</event>
<event>
 6    1  0.4261782E-002  0.1289474E+03  0.7546771E-02  0.1229026E+00
         21   -1    0    0  503  502  0.00000000000E+00  0.00000000000E+00  0.88587195273E+02  0.88587195273E+02  0.00000000000E+00 0.  1.
         21   -1    0    0  504  503 -0.00000000000E+00 -0.00000000000E+00 -0.74480751769E+02  0.74480751769E+02  0.00000000000E+00 0.  1.
         25    2    1    2    0    0 -0.19776696298E+01 -0.31567347584E+02  0.13259921116E+01  0.12895418811E+03  0.12500806280E+03 0.  0.
          5    1    3    3  501    0 -0.62117822948E+02 -0.74682773195E+01  0.10754259396E+02  0.63482778681E+02  0.10000000000E+00 0. -1.
         -5    1    3    3    0  501  0.60140153318E+02 -0.24099070264E+02 -0.94282672849E+01  0.65471409430E+02  0.10000000000E+00 0. -1.
         21    1    1    2  504  502  0.19776696298E+01  0.31567347584E+02  0.12780451392E+02  0.34113758931E+02  0.00000000000E+00 0.  1.
<mgrwt>
<rscale>  1 0.12894737E+03</rscale>
<asrwt>0</asrwt>
<pdfrwt beam="1">  1       21 0.13628799E-01 0.12894737E+03</pdfrwt>
<pdfrwt beam="2">  1       21 0.11458577E-01 0.12894737E+03</pdfrwt>
<totfact> 0.29452537E+06</totfact>
</mgrwt>
</event>
<event>
 6    1  0.4261782E-002  0.1292242E+03  0.7546771E-02  0.1228611E+00
         21   -1    0    0  504  502  0.00000000000E+00  0.00000000000E+00  0.82555042153E+02  0.82555042153E+02  0.00000000000E+00 0.  1.
         21   -1    0    0  502  503 -0.00000000000E+00 -0.00000000000E+00 -0.11054782851E+03  0.11054782851E+03  0.00000000000E+00 0.  1.
         25    2    1    2    0    0 -0.24839488865E+02 -0.21258840024E+02 -0.64221440508E+02  0.14430272858E+03  0.12501978071E+03 0.  0.
          5    1    3    3  501    0  0.24827424026E+02 -0.40502130316E+02 -0.76117634402E+02  0.89725848064E+02  0.10000000000E+00 0.  1.
         -5    1    3    3    0  501 -0.49666912891E+02  0.19243290292E+02  0.11896193894E+02  0.54576880513E+02  0.10000000000E+00 0.  1.
         21    1    1    2  504  503  0.24839488865E+02  0.21258840024E+02  0.36228654150E+02  0.48800142087E+02  0.00000000000E+00 0.  1.
<mgrwt>
<rscale>  1 0.12922416E+03</rscale>
<asrwt>0</asrwt>
<pdfrwt beam="1">  1       21 0.12700776E-01 0.12922416E+03</pdfrwt>
<pdfrwt beam="2">  1       21 0.17007358E-01 0.12922416E+03</pdfrwt>
<totfact> 0.16455947E+06</totfact>
</mgrwt>
</event>
<event>
 6    1  0.4261782E-002  0.1319901E+03  0.7546771E-02  0.1224532E+00
         21   -1    0    0  503  502  0.00000000000E+00  0.00000000000E+00  0.94723332610E+01  0.94723332610E+01  0.00000000000E+00 0. -1.
         21   -1    0    0  504  503 -0.00000000000E+00 -0.00000000000E+00 -0.98294378279E+03  0.98294378279E+03  0.00000000000E+00 0. -1.
         25    2    1    2    0    0 -0.36729281960E+02  0.21148578366E+02 -0.50264322535E+03  0.51968414210E+03  0.12500037212E+03 0.  0.
          5    1    3    3  501    0 -0.33378289353E+02  0.36356211675E+02 -0.50165825493E+03  0.50408025063E+03  0.10000000000E+00 0.  1.
         -5    1    3    3    0  501 -0.33509926063E+01 -0.15207633308E+02 -0.98497042059E+00  0.15603891470E+02  0.10000000000E+00 0.  1.
         21    1    1    2  504  502  0.36729281960E+02 -0.21148578366E+02 -0.47082822417E+03  0.47273197395E+03  0.00000000000E+00 0. -1.
<mgrwt>
<rscale>  1 0.13199013E+03</rscale>
<asrwt>0</asrwt>
<pdfrwt beam="1">  1       21 0.14572822E-02 0.13199013E+03</pdfrwt>
<pdfrwt beam="2">  1       21 0.15122210E+00 0.13199013E+03</pdfrwt>
<totfact> 0.61021726E+05</totfact>
</mgrwt>
</event>
<event>
 6    1  0.4261782E-002  0.1259865E+03  0.7546771E-02  0.1233535E+00
         21   -1    0    0  503  502  0.00000000000E+00  0.00000000000E+00  0.33094552355E+02  0.33094552355E+02  0.00000000000E+00 0.  1.
         21   -1    0    0  504  503 -0.00000000000E+00 -0.00000000000E+00 -0.15334852559E+03  0.15334852559E+03  0.00000000000E+00 0.  1.
         25    2    1    2    0    0  0.14906641860E+02  0.51329475625E+01 -0.11235958159E+03  0.16881138654E+03  0.12499621406E+03 0.  0.
          5    1    3    3  501    0  0.32668487456E+02 -0.28045491660E+02  0.70345011852E+01  0.43626527275E+02  0.10000000000E+00 0.  1.
         -5    1    3    3    0  501 -0.17761845596E+02  0.33178439223E+02 -0.11939408278E+03  0.12518485927E+03  0.10000000000E+00 0.  1.
         21    1    1    2  504  502 -0.14906641860E+02 -0.51329475625E+01 -0.78943916432E+01  0.17631691400E+02  0.00000000000E+00 0.  1.
<mgrwt>
<rscale>  1 0.12598654E+03</rscale>
<asrwt>0</asrwt>
<pdfrwt beam="1">  1       21 0.50914697E-02 0.12598654E+03</pdfrwt>
<pdfrwt beam="2">  1       21 0.23592081E-01 0.12598654E+03</pdfrwt>
<totfact> 0.43488814E+06</totfact>
</mgrwt>
</event>
<event>
 6    1  0.4261782E-002  0.1383623E+03  0.7546771E-02  0.1215550E+00
         21   -1    0    0  504  502  0.00000000000E+00  0.00000000000E+00  0.11947230515E+03  0.11947230515E+03  0.00000000000E+00 0.  1.
         21   -1    0    0  502  503 -0.00000000000E+00 -0.00000000000E+00 -0.39805853570E+03  0.39805853570E+03  0.00000000000E+00 0.  1.
         25    2    1    2    0    0  0.49415027435E+02  0.32770232558E+02 -0.37758291173E+03  0.40213553781E+03  0.12501360911E+03 0.  0.
          5    1    3    3  501    0  0.31679075239E+02 -0.25726245399E+02 -0.30285386039E+03  0.30559102452E+03  0.10000000000E+00 0. -1.
         -5    1    3    3    0  501  0.17735952196E+02  0.58496477957E+02 -0.74729051336E+02  0.96544513294E+02  0.10000000000E+00 0. -1.
         21    1    1    2  504  503 -0.49415027435E+02 -0.32770232558E+02  0.98996681185E+02  0.11539530304E+03  0.00000000000E+00 0.  1.
<mgrwt>
<rscale>  1 0.13836233E+03</rscale>
<asrwt>0</asrwt>
<pdfrwt beam="1">  1       21 0.18380355E-01 0.13836233E+03</pdfrwt>
<pdfrwt beam="2">  1       21 0.61239774E-01 0.13836233E+03</pdfrwt>
<totfact> 0.68627147E+04</totfact>
</mgrwt>
</event>
<event>
 6    1  0.4261782E-002  0.1285612E+03  0.7546771E-02  0.1229606E+00
         21   -1    0    0  504  502  0.00000000000E+00  0.00000000000E+00  0.36062886618E+02  0.36062886618E+02  0.00000000000E+00 0. -1.
         21   -1    0    0  502  503 -0.00000000000E+00 -0.00000000000E+00 -0.22423656959E+03  0.22423656959E+03  0.00000000000E+00 0. -1.
         25    2    1    2    0    0 -0.24821802860E+01  0.29948275087E+02 -0.19086867645E+03  0.23012789030E+03  0.12499973537E+03 0.  0.
          5    1    3    3  501    0  0.51198912404E+00  0.59424898699E+02 -0.19148333973E+03  0.20049304255E+03  0.10000000000E+00 0.  1.
         -5    1    3    3    0  501 -0.29941694100E+01 -0.29476623612E+02  0.61466327583E+00  0.29634847746E+02  0.10000000000E+00 0.  1.
         21    1    1    2  504  503  0.24821802860E+01 -0.29948275087E+02  0.26949934789E+01  0.30171565911E+02  0.00000000000E+00 0. -1.
<mgrwt>
<rscale>  1 0.12856125E+03</rscale>
<asrwt>0</asrwt>
<pdfrwt beam="1">  1       21 0.55481364E-02 0.12856125E+03</pdfrwt>
<pdfrwt beam="2">  1       21 0.34497934E-01 0.12856125E+03</pdfrwt>
<totfact> 0.18172272E+06</totfact>
</mgrwt>
</event>
<event>
 6    1  0.4261782E-002  0.1286644E+03  0.7546771E-02  0.1229451E+00
         21   -1    0    0  503  502  0.00000000000E+00  0.00000000000E+00  0.52093594857E+03  0.52093594857E+03  0.00000000000E+00 0.  1.
         21   -1    0    0  504  503 -0.00000000000E+00 -0.00000000000E+00 -0.12410252913E+02  0.12410252913E+02  0.00000000000E+00 0.  1.
         25    2    1    2    0    0  0.20887822524E+02 -0.22126775545E+02  0.37716048772E+03  0.39850291028E+03  0.12501456187E+03 0.  0.
          5    1    3    3  501    0  0.10723169128E+02  0.47741126396E+02  0.86402641880E+02  0.99295659671E+02  0.10000000000E+00 0. -1.
         -5    1    3    3    0  501  0.10164653396E+02 -0.69867901941E+02  0.29075784584E+03  0.29920725061E+03  0.10000000000E+00 0. -1.
         21    1    1    2  504  502 -0.20887822524E+02  0.22126775545E+02  0.13136520793E+03  0.13484329120E+03  0.00000000000E+00 0. -1.
<mgrwt>
<rscale>  1 0.12866443E+03</rscale>
<asrwt>0</asrwt>
<pdfrwt beam="1">  1       21 0.80143975E-01 0.12866443E+03</pdfrwt>
<pdfrwt beam="2">  1       21 0.19092701E-02 0.12866443E+03</pdfrwt>
<totfact> 0.18157230E+06</totfact>
</mgrwt>
</event>
<event>
 6    1  0.4261782E-002  0.1275238E+03  0.7546771E-02  0.1231177E+00
         21   -1    0    0  503  502  0.00000000000E+00  0.00000000000E+00  0.30846106168E+03  0.30846106168E+03  0.00000000000E+00 0. -1.
         21   -1    0    0  504  503 -0.00000000000E+00 -0.00000000000E+00 -0.19956249415E+02  0.19956249415E+02  0.00000000000E+00 0. -1.
         25    2    1    2    0    0 -0.23884233708E+02 -0.85886464277E+01  0.20774416720E+03  0.24376210890E+03  0.12497241801E+03 0.  0.
          5    1    3    3  501    0 -0.28403812570E+00  0.48805200674E+02  0.15439643198E+03  0.16192682452E+03  0.10000000000E+00 0. -1.
         -5    1    3    3    0  501 -0.23600195582E+02 -0.57393847102E+02  0.53347735219E+02  0.81835284381E+02  0.10000000000E+00 0. -1.
         21    1    1    2  504  502  0.23884233708E+02  0.85886464277E+01  0.80760645065E+02  0.84655202195E+02  0.00000000000E+00 0. -1.
<mgrwt>
<rscale>  1 0.12752383E+03</rscale>
<asrwt>0</asrwt>
<pdfrwt beam="1">  1       21 0.47455545E-01 0.12752383E+03</pdfrwt>
<pdfrwt beam="2">  1       21 0.30701924E-02 0.12752383E+03</pdfrwt>
<totfact> 0.25679809E+06</totfact>
</mgrwt>
</event>
<event>
 6    1  0.4261782E-002  0.1382917E+03  0.7546771E-02  0.1215646E+00
         21   -1    0    0  503  502  0.00000000000E+00  0.00000000000E+00  0.11898056341E+03  0.11898056341E+03  0.00000000000E+00 0. -1.
         21   -1    0    0  504  503 -0.00000000000E+00 -0.00000000000E+00 -0.85970058331E+02  0.85970058331E+02  0.00000000000E+00 0. -1.
         25    2    1    2    0    0 -0.58304827401E+02  0.10152602492E+02  0.23813586040E+01  0.13831224804E+03  0.12498831487E+03 0.  0.
          5    1    3    3  501    0  0.20819898352E+02 -0.16957314467E+02 -0.37119509621E+02  0.45813607976E+02  0.10000000000E+00 0. -1.
         -5    1    3    3    0  501 -0.79124725753E+02  0.27109916959E+02  0.39500868225E+02  0.92498640063E+02  0.10000000000E+00 0. -1.
         21    1    1    2  504  502  0.58304827401E+02 -0.10152602492E+02  0.30629146472E+02  0.66638373699E+02  0.00000000000E+00 0. -1.
<mgrwt>
<rscale>  1 0.13829175E+03</rscale>
<asrwt>0</asrwt>
<pdfrwt beam="1">  1       21 0.18304702E-01 0.13829175E+03</pdfrwt>
<pdfrwt beam="2">  1       21 0.13226163E-01 0.13829175E+03</pdfrwt>
<totfact> 0.13398398E+06</totfact>
</mgrwt>
</event>
<event>
 6    1  0.4261782E-002  0.1453695E+03  0.7546771E-02  0.1206281E+00
         21   -1    0    0  504  502  0.00000000000E+00  0.00000000000E+00  0.83953597953E+02  0.83953597953E+02  0.00000000000E+00 0. -1.
         21   -1    0    0  502  503 -0.00000000000E+00 -0.00000000000E+00 -0.18851776966E+03  0.18851776966E+03  0.00000000000E+00 0. -1.
         25    2    1    2    0    0  0.74181452202E+02  0.20745517175E+01 -0.12898753086E+03  0.19434523826E+03  0.12500038760E+03 0.  0.
          5    1    3    3  501    0  0.25995799975E+02  0.62628418772E+02 -0.55509643238E+02  0.87632362439E+02  0.10000000000E+00 0. -1.
         -5    1    3    3    0  501  0.48185652227E+02 -0.60553867055E+02 -0.73477887625E+02  0.10671287582E+03  0.10000000000E+00 0. -1.
         21    1    1    2  504  503 -0.74181452202E+02 -0.20745517175E+01  0.24423359156E+02  0.78126129355E+02  0.00000000000E+00 0. -1.
<mgrwt>
<rscale>  1 0.14536949E+03</rscale>
<asrwt>0</asrwt>
<pdfrwt beam="1">  1       21 0.12915938E-01 0.14536949E+03</pdfrwt>
<pdfrwt beam="2">  1       21 0.29002734E-01 0.14536949E+03</pdfrwt>
<totfact> 0.58853173E+05</totfact>
</mgrwt>
</event>
<event>
 6    1  0.4261782E-002  0.1292102E+03  0.7546771E-02  0.1228632E+00
         21   -1    0    0  504  502  0.00000000000E+00  0.00000000000E+00  0.62020095670E+02  0.62020095670E+02  0.00000000000E+00 0. -1.
         21   -1    0    0  502  503 -0.00000000000E+00 -0.00000000000E+00 -0.99820839443E+03  0.99820839443E+03  0.00000000000E+00 0.  1.
         25    2    1    2    0    0  0.31059769085E+02 -0.10268849215E+02 -0.98938044256E+03  0.99778201157E+03  0.12500049589E+03 0.  0.
          5    1    3    3  501    0  0.43808733068E+01 -0.66652987207E+02 -0.52336046383E+03  0.52760591150E+03  0.10000000000E+00 0. -1.
         -5    1    3    3    0  501  0.26678895778E+02  0.56384137993E+02 -0.46601997873E+03  0.47017610006E+03  0.10000000000E+00 0. -1.
         21    1    1    2  504  503 -0.31059769085E+02  0.10268849215E+02  0.53192143796E+02  0.62446478535E+02  0.00000000000E+00 0. -1.
<mgrwt>
<rscale>  1 0.12921023E+03</rscale>
<asrwt>0</asrwt>
<pdfrwt beam="1">  1       21 0.95415542E-02 0.12921023E+03</pdfrwt>
<pdfrwt beam="2">  1       21 0.15357051E+00 0.12921023E+03</pdfrwt>
<totfact> 0.25903366E+04</totfact>
</mgrwt>
</event>
<event>
 6    1  0.4261782E-002  0.1421559E+03  0.7546771E-02  0.1210457E+00
         21   -1    0    0  503  502  0.00000000000E+00  0.00000000000E+00  0.16322574875E+03  0.16322574875E+03  0.00000000000E+00 0.  1.
         21   -1    0    0  504  503 -0.00000000000E+00 -0.00000000000E+00 -0.67640364862E+02  0.67640364862E+02  0.00000000000E+00 0.  1.
         25    2    1    2    0    0  0.65332330838E+02 -0.17543116099E+02  0.58515101469E+02  0.15372805418E+03  0.12502888932E+03 0.  0.
          5    1    3    3  501    0  0.87758519627E+02  0.91223755765E+01  0.31202155923E+01  0.88286585892E+02  0.10000000000E+00 0. -1.
         -5    1    3    3    0  501 -0.22426188789E+02 -0.26665491675E+02  0.55394885877E+02  0.65441468284E+02  0.10000000000E+00 0. -1.
         21    1    1    2  504  502 -0.65332330838E+02  0.17543116099E+02  0.37070282421E+02  0.77138059438E+02  0.00000000000E+00 0.  1.
<mgrwt>
<rscale>  1 0.14215589E+03</rscale>
<asrwt>0</asrwt>
<pdfrwt beam="1">  1       21 0.25111654E-01 0.14215589E+03</pdfrwt>
<pdfrwt beam="2">  1       21 0.10406210E-01 0.14215589E+03</pdfrwt>
<totfact> 0.11366420E+06</totfact>
</mgrwt>
</event>
<event>
 6    1  0.4261782E-002  0.1263306E+03  0.7546771E-02  0.1233004E+00
         21   -1    0    0  503  502  0.00000000000E+00  0.00000000000E+00  0.38586805461E+02  0.38586805461E+02  0.00000000000E+00 0. -1.
         21   -1    0    0  504  503 -0.00000000000E+00 -0.00000000000E+00 -0.13620476262E+03  0.13620476262E+03  0.00000000000E+00 0. -1.
         25    2    1    2    0    0  0.89420787220E+01 -0.16066768147E+02 -0.88665025500E+02  0.15434024060E+03  0.12498528437E+03 0.  0.
          5    1    3    3  501    0  0.52395735975E+02  0.33741485704E+01 -0.92730124495E+02  0.10656258263E+03  0.10000000000E+00 0. -1.
         -5    1    3    3    0  501 -0.43453657253E+02 -0.19440916717E+02  0.40650989950E+01  0.47777657972E+02  0.10000000000E+00 0. -1.
         21    1    1    2  504  502 -0.89420787220E+01  0.16066768147E+02 -0.89529316605E+01  0.20451327485E+02  0.00000000000E+00 0. -1.
<mgrwt>
<rscale>  1 0.12633061E+03</rscale>
<asrwt>0</asrwt>
<pdfrwt beam="1">  1       21 0.59364315E-02 0.12633061E+03</pdfrwt>
<pdfrwt beam="2">  1       21 0.20954579E-01 0.12633061E+03</pdfrwt>
<totfact> 0.41885574E+06</totfact>
</mgrwt>
</event>
<event>
 6    1  0.4261782E-002  0.1270157E+03  0.7546771E-02  0.1231952E+00
         21   -1    0    0  504  502  0.00000000000E+00  0.00000000000E+00  0.53356568097E+02  0.53356568097E+02  0.00000000000E+00 0. -1.
         21   -1    0    0  502  503 -0.00000000000E+00 -0.00000000000E+00 -0.19038906305E+03  0.19038906305E+03  0.00000000000E+00 0. -1.
         25    2    1    2    0    0 -0.85597957207E+00  0.22501624125E+02 -0.16475403301E+03  0.20803093583E+03  0.12500369227E+03 0.  0.
          5    1    3    3  501    0 -0.42437613480E+02 -0.12680126246E+02 -0.12047143159E+02  0.45900765764E+02  0.10000000000E+00 0. -1.
         -5    1    3    3    0  501  0.41581633907E+02  0.35181750371E+02 -0.15270688985E+03  0.16213017007E+03  0.10000000000E+00 0. -1.
         21    1    1    2  504  503  0.85597957207E+00 -0.22501624125E+02  0.27721538057E+02  0.35714695317E+02  0.00000000000E+00 0. -1.
<mgrwt>
<rscale>  1 0.12701566E+03</rscale>
<asrwt>0</asrwt>
<pdfrwt beam="1">  1       21 0.82087027E-02 0.12701566E+03</pdfrwt>
<pdfrwt beam="2">  1       21 0.29290625E-01 0.12701566E+03</pdfrwt>
<totfact> 0.12790895E+06</totfact>
</mgrwt>
</event>
<event>
 6    1  0.4261782E-002  0.1259597E+03  0.7546771E-02  0.1233577E+00
         21   -1    0    0  504  502  0.00000000000E+00  0.00000000000E+00  0.41493537076E+02  0.41493537076E+02  0.00000000000E+00 0.  1.
         21   -1    0    0  502  503 -0.00000000000E+00 -0.00000000000E+00 -0.16703132860E+03  0.16703132860E+03  0.00000000000E+00 0.  1.
         25    2    1    2    0    0  0.11949018992E+02 -0.99255539876E+01 -0.13927700570E+03  0.18778693707E+03  0.12499821494E+03 0.  0.
          5    1    3    3  501    0  0.55147295135E+01 -0.35579545685E+02 -0.15356243680E+03  0.15772681544E+03  0.10000000000E+00 0. -1.
         -5    1    3    3    0  501  0.64342894784E+01  0.25653991698E+02  0.14285431092E+02  0.30060121633E+02  0.10000000000E+00 0. -1.
         21    1    1    2  504  503 -0.11949018992E+02  0.99255539876E+01  0.13739214178E+02  0.20737928610E+02  0.00000000000E+00 0.  1.
<mgrwt>
<rscale>  1 0.12595971E+03</rscale>
<asrwt>0</asrwt>
<pdfrwt beam="1">  1       21 0.63836211E-02 0.12595971E+03</pdfrwt>
<pdfrwt beam="2">  1       21 0.25697128E-01 0.12595971E+03</pdfrwt>
<totfact> 0.25256920E+06</totfact>
</mgrwt>
</event>
<event>
 6    1  0.4261782E-002  0.1349626E+03  0.7546771E-02  0.1220273E+00
         21   -1    0    0  503  502  0.00000000000E+00  0.00000000000E+00  0.34263146233E+03  0.34263146233E+03  0.00000000000E+00 0. -1.
         21   -1    0    0  504  503 -0.00000000000E+00 -0.00000000000E+00 -0.41896651971E+03  0.41896651971E+03  0.00000000000E+00 0. -1.
         25    2    1    2    0    0  0.12582283302E+02  0.49301995736E+02 -0.40609547726E+03  0.42793507557E+03  0.12500356641E+03 0.  0.
          5    1    3    3  501    0  0.66201116737E+02  0.42842810460E+02 -0.20288488043E+03  0.21767034472E+03  0.10000000000E+00 0. -1.
         -5    1    3    3    0  501 -0.53618833434E+02  0.64591852764E+01 -0.20321059683E+03  0.21026473084E+03  0.10000000000E+00 0. -1.
         21    1    1    2  504  502 -0.12582283302E+02 -0.49301995736E+02  0.32976041988E+03  0.33366290647E+03  0.00000000000E+00 0. -1.
<mgrwt>
<rscale>  1 0.13496256E+03</rscale>
<asrwt>0</asrwt>
<pdfrwt beam="1">  1       21 0.52712533E-01 0.13496256E+03</pdfrwt>
<pdfrwt beam="2">  1       21 0.64456388E-01 0.13496256E+03</pdfrwt>
<totfact> 0.79279091E+03</totfact>
</mgrwt>
</event>
<event>
 6    1  0.4261782E-002  0.1263888E+03  0.7546771E-02  0.1232915E+00
         21   -1    0    0  504  502  0.00000000000E+00  0.00000000000E+00  0.20646471186E+02  0.20646471186E+02  0.00000000000E+00 0.  1.
         21   -1    0    0  502  503 -0.00000000000E+00 -0.00000000000E+00 -0.26295911716E+03  0.26295911716E+03  0.00000000000E+00 0.  1.
         25    2    1    2    0    0  0.18265494224E+02 -0.52122792671E+01 -0.22413616906E+03  0.25731527744E+03  0.12495332564E+03 0.  0.
          5    1    3    3  501    0 -0.22861973307E+02  0.16188262799E+02  0.42671324770E+00  0.28016455167E+02  0.10000000000E+00 0.  1.
         -5    1    3    3    0  501  0.41127467531E+02 -0.21400542066E+02 -0.22456288231E+03  0.22929882227E+03  0.10000000000E+00 0.  1.
         21    1    1    2  504  503 -0.18265494224E+02  0.52122792671E+01 -0.18176476913E+02  0.26290310903E+02  0.00000000000E+00 0.  1.
<mgrwt>
<rscale>  1 0.12638880E+03</rscale>
<asrwt>0</asrwt>
<pdfrwt beam="1">  1       21 0.31763803E-02 0.12638880E+03</pdfrwt>
<pdfrwt beam="2">  1       21 0.40455247E-01 0.12638880E+03</pdfrwt>
<totfact> 0.33533091E+06</totfact>
</mgrwt>
</event>
<event>
 6    1  0.4261782E-002  0.1267060E+03  0.7546771E-02  0.1232427E+00
         21   -1    0    0  504  502  0.00000000000E+00  0.00000000000E+00  0.27701990338E+02  0.27701990338E+02  0.00000000000E+00 0.  1.
         21   -1    0    0  502  503 -0.00000000000E+00 -0.00000000000E+00 -0.35401609087E+03  0.35401609087E+03  0.00000000000E+00 0.  1.
         25    2    1    2    0    0 -0.15159663964E+02 -0.14052471371E+02 -0.33584800590E+03  0.35895445419E+03  0.12500851872E+03 0.  0.
          5    1    3    3  501    0  0.33593254995E+02  0.22421208167E+02 -0.25264492077E+03  0.25585285488E+03  0.10000000000E+00 0. -1.
         -5    1    3    3    0  501 -0.48752918959E+02 -0.36473679538E+02 -0.83203085128E+02  0.10310159931E+03  0.10000000000E+00 0. -1.
         21    1    1    2  504  503  0.15159663964E+02  0.14052471371E+02  0.95339053733E+01  0.22763627013E+02  0.00000000000E+00 0.  1.
<mgrwt>
<rscale>  1 0.12670603E+03</rscale>
<asrwt>0</asrwt>
<pdfrwt beam="1">  1       21 0.42618448E-02 0.12670603E+03</pdfrwt>
<pdfrwt beam="2">  1       21 0.54464012E-01 0.12670603E+03</pdfrwt>
<totfact> 0.11230838E+06</totfact>
</mgrwt>
</event>
<event>
 6    1  0.4261782E-002  0.1394032E+03  0.7546771E-02  0.1214134E+00
         21   -1    0    0  504  502  0.00000000000E+00  0.00000000000E+00  0.32284632579E+03  0.32284632579E+03  0.00000000000E+00 0. -1.
         21   -1    0    0  502  503 -0.00000000000E+00 -0.00000000000E+00 -0.36838342408E+02  0.36838342408E+02  0.00000000000E+00 0. -1.
         25    2    1    2    0    0 -0.60092814034E+02 -0.14037610289E+02  0.12493549619E+03  0.18719540206E+03  0.12500015818E+03 0.  0.
          5    1    3    3  501    0 -0.11136003733E+02  0.25618317958E+02  0.12087602037E+03  0.12406180353E+03  0.10000000000E+00 0. -1.
         -5    1    3    3    0  501 -0.48956810302E+02 -0.39655928247E+02  0.40594758187E+01  0.63133598535E+02  0.10000000000E+00 0. -1.
         21    1    1    2  504  503  0.60092814034E+02  0.14037610289E+02  0.16107248719E+03  0.17248926613E+03  0.00000000000E+00 0. -1.
<mgrwt>
<rscale>  1 0.13940316E+03</rscale>
<asrwt>0</asrwt>
<pdfrwt beam="1">  1       21 0.49668664E-01 0.13940316E+03</pdfrwt>
<pdfrwt beam="2">  1       21 0.56674375E-02 0.13940316E+03</pdfrwt>
<totfact> 0.84296689E+05</totfact>
</mgrwt>
</event>
<event>
 6    1  0.4261782E-002  0.1268191E+03  0.7546771E-02  0.1232253E+00
         21   -1    0    0  504  502  0.00000000000E+00  0.00000000000E+00  0.88510691784E+02  0.88510691784E+02  0.00000000000E+00 0.  1.
         21   -1    0    0  502  503 -0.00000000000E+00 -0.00000000000E+00 -0.27184486888E+03  0.27184486888E+03  0.00000000000E+00 0.  1.
         25    2    1    2    0    0 -0.70928323842E+01  0.20224668590E+02 -0.25540930583E+03  0.28516134763E+03  0.12499494064E+03 0.  0.
          5    1    3    3  501    0  0.20055657443E+02  0.11104192180E+01 -0.25084344802E+03  0.25164639445E+03  0.10000000000E+00 0. -1.
         -5    1    3    3    0  501 -0.27148489827E+02  0.19114249372E+02 -0.45658578145E+01  0.33514953178E+02  0.10000000000E+00 0. -1.
         21    1    1    2  504  503  0.70928323842E+01 -0.20224668590E+02  0.72075128739E+02  0.75194213033E+02  0.00000000000E+00 0.  1.
<mgrwt>
<rscale>  1 0.12681909E+03</rscale>
<asrwt>0</asrwt>
<pdfrwt beam="1">  1       21 0.13617030E-01 0.12681909E+03</pdfrwt>
<pdfrwt beam="2">  1       21 0.41822287E-01 0.12681909E+03</pdfrwt>
<totfact> 0.26127375E+05</totfact>
</mgrwt>
</event>
<event>
 6    1  0.4261782E-002  0.1262906E+03  0.7546771E-02  0.1233066E+00
         21   -1    0    0  504  502  0.00000000000E+00  0.00000000000E+00  0.13573186345E+04  0.13573186345E+04  0.00000000000E+00 0.  1.
         21   -1    0    0  502  503 -0.00000000000E+00 -0.00000000000E+00 -0.41871176436E+01  0.41871176436E+01  0.00000000000E+00 0.  1.
         25    2    1    2    0    0  0.13781011330E+02  0.11626228015E+02  0.10044216741E+04  0.10123300945E+04  0.12499694152E+03 0.  0.
          5    1    3    3  501    0 -0.14926288984E+02 -0.29620156737E+02  0.83385782013E+03  0.83451723887E+03  0.10000000000E+00 0. -1.
         -5    1    3    3    0  501  0.28707300314E+02  0.41246384752E+02  0.17056385396E+03  0.17781285562E+03  0.10000000000E+00 0. -1.
         21    1    1    2  504  503 -0.13781011330E+02 -0.11626228015E+02  0.34870984276E+03  0.34917565764E+03  0.00000000000E+00 0.  1.
<mgrwt>
<rscale>  1 0.12629062E+03</rscale>
<asrwt>0</asrwt>
<pdfrwt beam="1">  1       21 0.20881790E+00 0.12629062E+03</pdfrwt>
<pdfrwt beam="2">  1       21 0.64417303E-03 0.12629062E+03</pdfrwt>
<totfact> 0.90709021E+05</totfact>
</mgrwt>
</event>
<event>
 6    1  0.4261782E-002  0.1430567E+03  0.7546771E-02  0.1209274E+00
         21   -1    0    0  503  502  0.00000000000E+00  0.00000000000E+00  0.63860449957E+02  0.63860449957E+02  0.00000000000E+00 0. -1.
         21   -1    0    0  504  503 -0.00000000000E+00 -0.00000000000E+00 -0.13367909100E+04  0.13367909100E+04  0.00000000000E+00 0. -1.
         25    2    1    2    0    0 -0.69524623113E+02  0.28864812832E+01 -0.13127213250E+04  0.13204932792E+04  0.12499287267E+03 0.  0.
          5    1    3    3  501    0  0.18963723886E+02  0.14111198558E+02 -0.77984744561E+03  0.78020561211E+03  0.10000000000E+00 0. -1.
         -5    1    3    3    0  501 -0.88488346999E+02 -0.11224717275E+02 -0.53287387939E+03  0.54028766706E+03  0.10000000000E+00 0. -1.
         21    1    1    2  504  502  0.69524623113E+02 -0.28864812832E+01  0.39790864912E+02  0.80158080838E+02  0.00000000000E+00 0. -1.
<mgrwt>
<rscale>  1 0.14305671E+03</rscale>
<asrwt>0</asrwt>
<pdfrwt beam="1">  1       21 0.98246852E-02 0.14305671E+03</pdfrwt>
<pdfrwt beam="2">  1       21 0.20566013E+00 0.14305671E+03</pdfrwt>
<totfact> 0.10833469E+04</totfact>
</mgrwt>
</event>
<event>
 6    1  0.4261782E-002  0.1902296E+03  0.7546771E-02  0.1158254E+00
         21   -1    0    0  504  502  0.00000000000E+00  0.00000000000E+00  0.97211979821E+02  0.97211979821E+02  0.00000000000E+00 0.  1.
         21   -1    0    0  502  503 -0.00000000000E+00 -0.00000000000E+00 -0.34790576474E+03  0.34790576474E+03  0.00000000000E+00 0.  1.
         25    2    1    2    0    0  0.39567484438E+02  0.13782746066E+03 -0.46890497100E+02  0.19592349330E+03  0.12500120708E+03 0.  0.
          5    1    3    3  501    0 -0.10814170551E+02  0.12913572368E+03 -0.60503343657E+02  0.14301624387E+03  0.10000000000E+00 0.  1.
         -5    1    3    3    0  501  0.50381654989E+02  0.86917369787E+01  0.13612846556E+02  0.52907249432E+02  0.10000000000E+00 0.  1.
         21    1    1    2  504  503 -0.39567484438E+02 -0.13782746066E+03 -0.20380328782E+03  0.24919425126E+03  0.00000000000E+00 0.  1.
<mgrwt>
<rscale>  1 0.19022959E+03</rscale>
<asrwt>0</asrwt>
<pdfrwt beam="1">  1       21 0.14955689E-01 0.19022959E+03</pdfrwt>
<pdfrwt beam="2">  1       21 0.53523963E-01 0.19022959E+03</pdfrwt>
<totfact> 0.13040573E+05</totfact>
</mgrwt>
</event>
<event>
 6    1  0.4261782E-002  0.1260774E+03  0.7546771E-02  0.1233395E+00
         21   -1    0    0  504  502  0.00000000000E+00  0.00000000000E+00  0.11036461761E+03  0.11036461761E+03  0.00000000000E+00 0.  1.
         21   -1    0    0  502  503 -0.00000000000E+00 -0.00000000000E+00 -0.83415532213E+02  0.83415532213E+02  0.00000000000E+00 0.  1.
         25    2    1    2    0    0  0.16278810347E+02  0.19900335193E+01 -0.34066690802E+02  0.13059878513E+03  0.12500617327E+03 0.  0.
          5    1    3    3  501    0  0.67206611836E+02  0.21758099775E+02 -0.11868480319E+02  0.71631099429E+02  0.10000000000E+00 0. -1.
         -5    1    3    3    0  501 -0.50927801489E+02 -0.19768066255E+02 -0.22198210483E+02  0.58967685698E+02  0.10000000000E+00 0. -1.
         21    1    1    2  504  503 -0.16278810347E+02 -0.19900335193E+01  0.61015776199E+02  0.63181364696E+02  0.00000000000E+00 0.  1.
<mgrwt>
<rscale>  1 0.12607737E+03</rscale>
<asrwt>0</asrwt>
<pdfrwt beam="1">  1       21 0.16979172E-01 0.12607737E+03</pdfrwt>
<pdfrwt beam="2">  1       21 0.12833159E-01 0.12607737E+03</pdfrwt>
<totfact> 0.16194661E+06</totfact>
</mgrwt>
</event>
<event>
 6    1  0.4261782E-002  0.1300218E+03  0.7546771E-02  0.1227423E+00
         21   -1    0    0  504  502  0.00000000000E+00  0.00000000000E+00  0.60509658868E+03  0.60509658868E+03  0.00000000000E+00 0.  1.
         21   -1    0    0  502  503 -0.00000000000E+00 -0.00000000000E+00 -0.11379547241E+02  0.11379547241E+02  0.00000000000E+00 0.  1.
         25    2    1    2    0    0 -0.35570411613E+02 -0.39091868835E+01  0.45433491054E+03  0.47257368863E+03  0.12500057728E+03 0.  0.
          5    1    3    3  501    0  0.26839083035E+02  0.32756768191E+02  0.72696509457E+02  0.84131651165E+02  0.10000000000E+00 0. -1.
         -5    1    3    3    0  501 -0.62409494648E+02 -0.36665955075E+02  0.38163840109E+03  0.38844203746E+03  0.10000000000E+00 0. -1.
         21    1    1    2  504  503  0.35570411613E+02  0.39091868835E+01  0.13938213089E+03  0.14390244729E+03  0.00000000000E+00 0.  1.
<mgrwt>
<rscale>  1 0.13002185E+03</rscale>
<asrwt>0</asrwt>
<pdfrwt beam="1">  1       21 0.93091758E-01 0.13002185E+03</pdfrwt>
<pdfrwt beam="2">  1       21 0.17507000E-02 0.13002185E+03</pdfrwt>
<totfact> 0.14863918E+06</totfact>
</mgrwt>
</event>
<event>
 6    1  0.4261782E-002  0.1317562E+03  0.7546771E-02  0.1224873E+00
         21   -1    0    0  504  502  0.00000000000E+00  0.00000000000E+00  0.83356983865E+02  0.83356983865E+02  0.00000000000E+00 0. -1.
         21   -1    0    0  502  503 -0.00000000000E+00 -0.00000000000E+00 -0.93698424351E+02  0.93698424351E+02  0.00000000000E+00 0. -1.
         25    2    1    2    0    0 -0.33754011503E+02 -0.24386819394E+02  0.70112436514E+01  0.13194259519E+03  0.12500256251E+03 0.  0.
          5    1    3    3  501    0 -0.29045644258E+02 -0.58573421346E+01  0.64703294658E+02  0.71165189853E+02  0.10000000000E+00 0.  1.
         -5    1    3    3    0  501 -0.47083672452E+01 -0.18529477259E+02 -0.57692051007E+02  0.60777405333E+02  0.10000000000E+00 0.  1.
         21    1    1    2  504  503  0.33754011503E+02  0.24386819394E+02 -0.17352684137E+02  0.45112813029E+02  0.00000000000E+00 0. -1.
<mgrwt>
<rscale>  1 0.13175618E+03</rscale>
<asrwt>0</asrwt>
<pdfrwt beam="1">  1       21 0.12824151E-01 0.13175618E+03</pdfrwt>
<pdfrwt beam="2">  1       21 0.14415142E-01 0.13175618E+03</pdfrwt>
<totfact> 0.21829548E+06</totfact>
</mgrwt>
</event>
<event>
 6    1  0.4261782E-002  0.1260407E+03  0.7546771E-02  0.1233452E+00
         21   -1    0    0  503  502  0.00000000000E+00  0.00000000000E+00  0.22356677361E+03  0.22356677361E+03  0.00000000000E+00 0. -1.
         21   -1    0    0  504  503 -0.00000000000E+00 -0.00000000000E+00 -0.51710549034E+02  0.51710549034E+02  0.00000000000E+00 0. -1.
         25    2    1    2    0    0 -0.11961387299E+02 -0.10869911067E+02  0.26210025238E+02  0.12873707174E+03  0.12500015386E+03 0.  0.
          5    1    3    3  501    0  0.18700682076E+02 -0.16687852158E+02  0.70348118037E+02  0.74679767214E+02  0.10000000000E+00 0.  1.
         -5    1    3    3    0  501 -0.30662069375E+02  0.58179410907E+01 -0.44138092799E+02  0.54057304528E+02  0.10000000000E+00 0.  1.
         21    1    1    2  504  502  0.11961387299E+02  0.10869911067E+02  0.14564619934E+03  0.14654025091E+03  0.00000000000E+00 0. -1.
<mgrwt>
<rscale>  1 0.12604074E+03</rscale>
<asrwt>0</asrwt>
<pdfrwt beam="1">  1       21 0.34394888E-01 0.12604074E+03</pdfrwt>
<pdfrwt beam="2">  1       21 0.79554692E-02 0.12604074E+03</pdfrwt>
<totfact> 0.98840693E+05</totfact>
</mgrwt>
</event>
<event>
 6    1  0.4261782E-002  0.1309168E+03  0.7546771E-02  0.1226102E+00
         21   -1    0    0  503  502  0.00000000000E+00  0.00000000000E+00  0.75979964806E+02  0.75979964806E+02  0.00000000000E+00 0. -1.
         21   -1    0    0  504  503 -0.00000000000E+00 -0.00000000000E+00 -0.19511433503E+03  0.19511433503E+03  0.00000000000E+00 0. -1.
         25    2    1    2    0    0 -0.22705051005E+01  0.38846806894E+02 -0.16520515582E+03  0.21078885328E+03  0.12499987024E+03 0.  0.
          5    1    3    3  501    0  0.18567496826E+02  0.79009031890E+02 -0.13085269800E+03  0.15397927663E+03  0.10000000000E+00 0. -1.
         -5    1    3    3    0  501 -0.20838001927E+02 -0.40162224996E+02 -0.34352457815E+02  0.56809576647E+02  0.10000000000E+00 0. -1.
         21    1    1    2  504  502  0.22705051005E+01 -0.38846806894E+02  0.46070785591E+02  0.60305446556E+02  0.00000000000E+00 0. -1.
<mgrwt>
<rscale>  1 0.13091676E+03</rscale>
<asrwt>0</asrwt>
<pdfrwt beam="1">  1       21 0.11689226E-01 0.13091676E+03</pdfrwt>
<pdfrwt beam="2">  1       21 0.30017590E-01 0.13091676E+03</pdfrwt>
<totfact> 0.65810249E+05</totfact>
</mgrwt>
</event>
<event>
 6    1  0.4261782E-002  0.1259555E+03  0.7546771E-02  0.1233584E+00
         21   -1    0    0  504  502  0.00000000000E+00  0.00000000000E+00  0.13468704287E+02  0.13468704287E+02  0.00000000000E+00 0. -1.
         21   -1    0    0  502  503 -0.00000000000E+00 -0.00000000000E+00 -0.41397303129E+03  0.41397303129E+03  0.00000000000E+00 0. -1.
         25    2    1    2    0    0 -0.57573267324E+01 -0.14429240966E+02 -0.38657104211E+03  0.40657342866E+03  0.12499372978E+03 0.  0.
          5    1    3    3  501    0  0.90258309263E+01 -0.56803658753E+02 -0.32683378745E+03  0.33185607707E+03  0.10000000000E+00 0. -1.
         -5    1    3    3    0  501 -0.14783157659E+02  0.42374417787E+02 -0.59737254667E+02  0.74717351588E+02  0.10000000000E+00 0. -1.
         21    1    1    2  504  503  0.57573267324E+01  0.14429240966E+02 -0.13933284893E+02  0.20868306923E+02  0.00000000000E+00 0. -1.
<mgrwt>
<rscale>  1 0.12595548E+03</rscale>
<asrwt>0</asrwt>
<pdfrwt beam="1">  1       21 0.20721085E-02 0.12595548E+03</pdfrwt>
<pdfrwt beam="2">  1       21 0.63688153E-01 0.12595548E+03</pdfrwt>
<totfact> 0.26297080E+06</totfact>
</mgrwt>
</event>
<event>
 6    1  0.4261782E-002  0.1264780E+03  0.7546771E-02  0.1232777E+00
         21   -1    0    0  503  502  0.00000000000E+00  0.00000000000E+00  0.11334257021E+03  0.11334257021E+03  0.00000000000E+00 0.  1.
         21   -1    0    0  504  503 -0.00000000000E+00 -0.00000000000E+00 -0.58294725636E+03  0.58294725636E+03  0.00000000000E+00 0. -1.
         25    2    1    2    0    0  0.31007849230E+01  0.19036742518E+02 -0.57520320528E+03  0.58894431118E+03  0.12499864750E+03 0.  0.
          5    1    3    3  501    0 -0.25599569937E+02 -0.20839067106E+02 -0.41700112634E+02  0.53183776591E+02  0.10000000000E+00 0. -1.
         -5    1    3    3    0  501  0.28700354860E+02  0.39875809624E+02 -0.53350309264E+03  0.53576053459E+03  0.10000000000E+00 0. -1.
         21    1    1    2  504  502 -0.31007849230E+01 -0.19036742518E+02  0.10559851913E+03  0.10734551540E+03  0.00000000000E+00 0.  1.
<mgrwt>
<rscale>  1 0.12647796E+03</rscale>
<asrwt>0</asrwt>
<pdfrwt beam="1">  1       21 0.17437319E-01 0.12647796E+03</pdfrwt>
<pdfrwt beam="2">  1       21 0.89684192E-01 0.12647796E+03</pdfrwt>
<totfact> 0.32793764E+04</totfact>
</mgrwt>
</event>
<event>
 6    1  0.4261782E-002  0.1346353E+03  0.7546771E-02  0.1220735E+00
         21   -1    0    0  504  502  0.00000000000E+00  0.00000000000E+00  0.13893431955E+03  0.13893431955E+03  0.00000000000E+00 0. -1.
         21   -1    0    0  502  503 -0.00000000000E+00 -0.00000000000E+00 -0.11554336390E+03  0.11554336390E+03  0.00000000000E+00 0. -1.
         25    2    1    2    0    0  0.49436919731E+02  0.74409417493E+01 -0.67602807656E+02  0.15065455689E+03  0.12500911671E+03 0.  0.
          5    1    3    3  501    0  0.64594656190E+01  0.62374794709E+02 -0.18584543292E+02  0.65404395574E+02  0.10000000000E+00 0. -1.
         -5    1    3    3    0  501  0.42977454112E+02 -0.54933852959E+02 -0.49018264364E+02  0.85250161315E+02  0.10000000000E+00 0. -1.
         21    1    1    2  504  503 -0.49436919731E+02 -0.74409417493E+01  0.90993763314E+02  0.10382312656E+03  0.00000000000E+00 0. -1.
<mgrwt>
<rscale>  1 0.13463527E+03</rscale>
<asrwt>0</asrwt>
<pdfrwt beam="1">  1       21 0.21374511E-01 0.13463527E+03</pdfrwt>
<pdfrwt beam="2">  1       21 0.17775902E-01 0.13463527E+03</pdfrwt>
<totfact> 0.58914439E+05</totfact>
</mgrwt>
</event>
<event>
 6    1  0.4261782E-002  0.1383670E+03  0.7546771E-02  0.1215543E+00
         21   -1    0    0  504  502  0.00000000000E+00  0.00000000000E+00  0.21738774993E+03  0.21738774993E+03  0.00000000000E+00 0. -1.
         21   -1    0    0  502  503 -0.00000000000E+00 -0.00000000000E+00 -0.17932419040E+03  0.17932419040E+03  0.00000000000E+00 0. -1.
         25    2    1    2    0    0 -0.10551967820E+02  0.58396334591E+02 -0.14729132473E+03  0.20208946209E+03  0.12499576163E+03 0.  0.
          5    1    3    3  501    0  0.31899252750E+02 -0.24598490553E+02 -0.21925898287E+02  0.45862872557E+02  0.10000000000E+00 0.  1.
         -5    1    3    3    0  501 -0.42451220569E+02  0.82994825144E+02 -0.12536542644E+03  0.15622658953E+03  0.10000000000E+00 0.  1.
         21    1    1    2  504  503  0.10551967820E+02 -0.58396334591E+02  0.18535488426E+03  0.19462247824E+03  0.00000000000E+00 0. -1.
<mgrwt>
<rscale>  1 0.13836696E+03</rscale>
<asrwt>0</asrwt>
<pdfrwt beam="1">  1       21 0.33444269E-01 0.13836696E+03</pdfrwt>
<pdfrwt beam="2">  1       21 0.27588337E-01 0.13836696E+03</pdfrwt>
<totfact> 0.11012730E+05</totfact>
</mgrwt>
</event>
<event>
 6    1  0.4261782E-002  0.1268196E+03  0.7546771E-02  0.1232253E+00
         21   -1    0    0  504  502  0.00000000000E+00  0.00000000000E+00  0.13638447190E+03  0.13638447190E+03  0.00000000000E+00 0.  1.
         21   -1    0    0  502  503 -0.00000000000E+00 -0.00000000000E+00 -0.55018286159E+02  0.55018286159E+02  0.00000000000E+00 0.  1.
         25    2    1    2    0    0 -0.21315411322E+02  0.11707039500E+00  0.22505171988E+02  0.12880100565E+03  0.12501542234E+03 0.  0.
          5    1    3    3  501    0 -0.49970961272E+01 -0.39482339885E+02  0.59918703197E+02  0.71931127652E+02  0.10000000000E+00 0.  1.
         -5    1    3    3    0  501 -0.16318315194E+02  0.39599410280E+02 -0.37413531209E+02  0.56869877993E+02  0.10000000000E+00 0.  1.
         21    1    1    2  504  503  0.21315411322E+02 -0.11707039500E+00  0.58861013755E+02  0.62601752416E+02  0.00000000000E+00 0. -1.
<mgrwt>
<rscale>  1 0.12681962E+03</rscale>
<asrwt>0</asrwt>
<pdfrwt beam="1">  1       21 0.20982226E-01 0.12681962E+03</pdfrwt>
<pdfrwt beam="2">  1       21 0.84643518E-02 0.12681962E+03</pdfrwt>
<totfact> 0.22773084E+06</totfact>
</mgrwt>
</event>
<event>
 6    1  0.4261782E-002  0.1272981E+03  0.7546771E-02  0.1231521E+00
         21   -1    0    0  504  502  0.00000000000E+00  0.00000000000E+00  0.27791587098E+02  0.27791587098E+02  0.00000000000E+00 0.  1.
         21   -1    0    0  502  503 -0.00000000000E+00 -0.00000000000E+00 -0.96751346395E+03  0.96751346395E+03  0.00000000000E+00 0.  1.
         25    2    1    2    0    0 -0.83770031558E+01 -0.22531107446E+02 -0.95717272158E+03  0.96560055700E+03  0.12500796681E+03 0.  0.
          5    1    3    3  501    0 -0.51007125764E+02  0.16437833567E+02 -0.23101382527E+03  0.23714832218E+03  0.10000000000E+00 0. -1.
         -5    1    3    3    0  501  0.42630122608E+02 -0.38968941013E+02 -0.72615889631E+03  0.72845223482E+03  0.10000000000E+00 0. -1.
         21    1    1    2  504  503  0.83770031558E+01  0.22531107446E+02  0.17450844728E+02  0.29704494043E+02  0.00000000000E+00 0.  1.
<mgrwt>
<rscale>  1 0.12729814E+03</rscale>
<asrwt>0</asrwt>
<pdfrwt beam="1">  1       21 0.42756282E-02 0.12729814E+03</pdfrwt>
<pdfrwt beam="2">  1       21 0.14884825E+00 0.12729814E+03</pdfrwt>
<totfact> 0.11031885E+05</totfact>
</mgrwt>
</event>
<event>
 6    1  0.4261782E-002  0.1267533E+03  0.7546771E-02  0.1232354E+00
         21   -1    0    0  503  502  0.00000000000E+00  0.00000000000E+00  0.64304511259E+03  0.64304511259E+03  0.00000000000E+00 0. -1.
         21   -1    0    0  504  503 -0.00000000000E+00 -0.00000000000E+00 -0.86028602689E+01  0.86028602689E+01  0.00000000000E+00 0. -1.
         25    2    1    2    0    0 -0.12192186962E+02 -0.17163950228E+02  0.51534264881E+03  0.53070184367E+03  0.12499260209E+03 0.  0.
          5    1    3    3  501    0 -0.37113237116E+02 -0.45256664132E+02  0.11930918775E+03  0.13289187446E+03  0.10000000000E+00 0.  1.
         -5    1    3    3    0  501  0.24921050154E+02  0.28092713904E+02  0.39603346106E+03  0.39780996920E+03  0.10000000000E+00 0.  1.
         21    1    1    2  504  502  0.12192186962E+02  0.17163950228E+02  0.11909960351E+03  0.12094612920E+03  0.00000000000E+00 0. -1.
<mgrwt>
<rscale>  1 0.12675331E+03</rscale>
<asrwt>0</asrwt>
<pdfrwt beam="1">  1       21 0.98929979E-01 0.12675331E+03</pdfrwt>
<pdfrwt beam="2">  1       21 0.13235175E-02 0.12675331E+03</pdfrwt>
<totfact> 0.20178469E+06</totfact>
</mgrwt>
</event>
<event>
 6    1  0.4261782E-002  0.1437082E+03  0.7546771E-02  0.1208425E+00
         21   -1    0    0  504  502  0.00000000000E+00  0.00000000000E+00  0.68273847332E+03  0.68273847332E+03  0.00000000000E+00 0.  1.
         21   -1    0    0  502  503 -0.00000000000E+00 -0.00000000000E+00 -0.17220452001E+02  0.17220452001E+02  0.00000000000E+00 0.  1.
         25    2    1    2    0    0 -0.57594953252E+02  0.41325699074E+02  0.39581451855E+03  0.42109521049E+03  0.12500820436E+03 0.  0.
          5    1    3    3  501    0  0.36627817660E+02 -0.23662195515E+01  0.68724797174E+02  0.77912154175E+02  0.10000000000E+00 0. -1.
         -5    1    3    3    0  501 -0.94222770911E+02  0.43691918625E+02  0.32708972138E+03  0.34318305632E+03  0.10000000000E+00 0. -1.
         21    1    1    2  504  503  0.57594953252E+02 -0.41325699074E+02  0.26970350276E+03  0.27886371483E+03  0.00000000000E+00 0.  1.
<mgrwt>
<rscale>  1 0.14370819E+03</rscale>
<asrwt>0</asrwt>
<pdfrwt beam="1">  1       21 0.10503667E+00 0.14370819E+03</pdfrwt>
<pdfrwt beam="2">  1       21 0.26493008E-02 0.14370819E+03</pdfrwt>
<totfact> 0.57226988E+05</totfact>
</mgrwt>
</event>
<event>
 6    1  0.4261782E-002  0.1302547E+03  0.7546771E-02  0.1227078E+00
         21   -1    0    0  504  502  0.00000000000E+00  0.00000000000E+00  0.43324381364E+02  0.43324381364E+02  0.00000000000E+00 0.  1.
         21   -1    0    0  502  503 -0.00000000000E+00 -0.00000000000E+00 -0.16330917563E+03  0.16330917563E+03  0.00000000000E+00 0.  1.
         25    2    1    2    0    0  0.32638115165E+02  0.16441266213E+02 -0.10428693381E+03  0.16685938674E+03  0.12502291224E+03 0.  0.
          5    1    3    3  501    0  0.46488923445E+02  0.63924535070E+02 -0.77102494150E+02  0.11041906897E+03  0.10000000000E+00 0. -1.
         -5    1    3    3    0  501 -0.13850808280E+02 -0.47483268857E+02 -0.27184439655E+02  0.56440317777E+02  0.10000000000E+00 0. -1.
         21    1    1    2  504  503 -0.32638115165E+02 -0.16441266213E+02 -0.15697860461E+02  0.39774170252E+02  0.00000000000E+00 0.  1.
<mgrwt>
<rscale>  1 0.13025471E+03</rscale>
<asrwt>0</asrwt>
<pdfrwt beam="1">  1       21 0.66652893E-02 0.13025471E+03</pdfrwt>
<pdfrwt beam="2">  1       21 0.25124489E-01 0.13025471E+03</pdfrwt>
<totfact> 0.24515648E+06</totfact>
</mgrwt>
</event>
<event>
 6    1  0.4261782E-002  0.1282357E+03  0.7546771E-02  0.1230097E+00
         21   -1    0    0  503  502  0.00000000000E+00  0.00000000000E+00  0.25673476520E+03  0.25673476520E+03  0.00000000000E+00 0.  1.
         21   -1    0    0  504  503 -0.00000000000E+00 -0.00000000000E+00 -0.69763773088E+02  0.69763773088E+02  0.00000000000E+00 0.  1.
         25    2    1    2    0    0  0.15337657702E+01  0.28642177874E+02 -0.88946273702E+01  0.12854382709E+03  0.12498669648E+03 0.  0.
          5    1    3    3  501    0  0.55570311950E+02  0.40377217759E+02  0.11421481724E+02  0.69633609191E+02  0.10000000000E+00 0.  1.
         -5    1    3    3    0  501 -0.54036546180E+02 -0.11735039884E+02 -0.20316109094E+02  0.58910217899E+02  0.10000000000E+00 0.  1.
         21    1    1    2  504  502 -0.15337657702E+01 -0.28642177874E+02  0.19586561948E+03  0.19795471120E+03  0.00000000000E+00 0.  1.
<mgrwt>
<rscale>  1 0.12823572E+03</rscale>
<asrwt>0</asrwt>
<pdfrwt beam="1">  1       21 0.39497656E-01 0.12823572E+03</pdfrwt>
<pdfrwt beam="2">  1       21 0.10732888E-01 0.12823572E+03</pdfrwt>
<totfact> 0.44662996E+05</totfact>
</mgrwt>
</event>
<event>
 6    1  0.4261782E-002  0.1265724E+03  0.7546771E-02  0.1232632E+00
         21   -1    0    0  503  502  0.00000000000E+00  0.00000000000E+00  0.91580478840E+03  0.91580478840E+03  0.00000000000E+00 0.  1.
         21   -1    0    0  504  503 -0.00000000000E+00 -0.00000000000E+00 -0.68290399830E+02  0.68290399830E+02  0.00000000000E+00 0.  1.
         25    2    1    2    0    0  0.78076351846E+01  0.18309454348E+02 -0.94266845744E+01  0.12692297792E+03  0.12499753860E+03 0.  0.
          5    1    3    3  501    0  0.21683673621E+02  0.69414211848E+02 -0.12885361870E+02  0.73854973148E+02  0.10000000000E+00 0. -1.
         -5    1    3    3    0  501 -0.13876038436E+02 -0.51104757500E+02  0.34586772960E+01  0.53068004772E+02  0.10000000000E+00 0. -1.
         21    1    1    2  504  502 -0.78076351846E+01 -0.18309454348E+02  0.85694107314E+03  0.85717221031E+03  0.00000000000E+00 0.  1.
<mgrwt>
<rscale>  1 0.12657243E+03</rscale>
<asrwt>0</asrwt>
<pdfrwt beam="1">  1       21 0.14089304E+00 0.12657243E+03</pdfrwt>
<pdfrwt beam="2">  1       21 0.10506216E-01 0.12657243E+03</pdfrwt>
<totfact> 0.27383769E+04</totfact>
</mgrwt>
</event>
<event>
 6    1  0.4261782E-002  0.1260147E+03  0.7546771E-02  0.1233492E+00
         21   -1    0    0  503  502  0.00000000000E+00  0.00000000000E+00  0.10779816225E+02  0.10779816225E+02  0.00000000000E+00 0. -1.
         21   -1    0    0  504  503 -0.00000000000E+00 -0.00000000000E+00 -0.50125787398E+03  0.50125787398E+03  0.00000000000E+00 0. -1.
         25    2    1    2    0    0  0.15814482368E+02 -0.18970833520E+01 -0.46673269413E+03  0.48344505004E+03  0.12500404738E+03 0.  0.
          5    1    3    3  501    0  0.17730028763E+02  0.55514046812E+02 -0.13909400794E+03  0.15080887360E+03  0.10000000000E+00 0.  1.
         -5    1    3    3    0  501 -0.19155463946E+01 -0.57411130164E+02 -0.32763868619E+03  0.33263617644E+03  0.10000000000E+00 0.  1.
         21    1    1    2  504  502 -0.15814482368E+02  0.18970833520E+01 -0.23745363620E+02  0.28592640159E+02  0.00000000000E+00 0. -1.
<mgrwt>
<rscale>  1 0.12601472E+03</rscale>
<asrwt>0</asrwt>
<pdfrwt beam="1">  1       21 0.16584338E-02 0.12601472E+03</pdfrwt>
<pdfrwt beam="2">  1       21 0.77116573E-01 0.12601472E+03</pdfrwt>
<totfact> 0.24793401E+06</totfact>
</mgrwt>
</event>
<event>
 6    1  0.4261782E-002  0.1337398E+03  0.7546771E-02  0.1222010E+00
         21   -1    0    0  504  502  0.00000000000E+00  0.00000000000E+00  0.10150866157E+03  0.10150866157E+03  0.00000000000E+00 0.  1.
         21   -1    0    0  502  503 -0.00000000000E+00 -0.00000000000E+00 -0.10912159308E+03  0.10912159308E+03  0.00000000000E+00 0.  1.
         25    2    1    2    0    0  0.30545347937E+02  0.36452166491E+02 -0.53967955378E+02  0.14421815514E+03  0.12499822936E+03 0.  0.
          5    1    3    3  501    0 -0.40846144330E+02 -0.73258846922E+01  0.49955268918E+01  0.41797624120E+02  0.10000000000E+00 0. -1.
         -5    1    3    3    0  501  0.71391492267E+02  0.43778051183E+02 -0.58963482270E+02  0.10242053102E+03  0.10000000000E+00 0. -1.
         21    1    1    2  504  503 -0.30545347937E+02 -0.36452166491E+02  0.46355023867E+02  0.66412099501E+02  0.00000000000E+00 0.  1.
<mgrwt>
<rscale>  1 0.13373981E+03</rscale>
<asrwt>0</asrwt>
<pdfrwt beam="1">  1       21 0.15616717E-01 0.13373981E+03</pdfrwt>
<pdfrwt beam="2">  1       21 0.16787937E-01 0.13373981E+03</pdfrwt>
<totfact> 0.11634946E+06</totfact>
</mgrwt>
</event>
<event>
 6    1  0.4261782E-002  0.1284804E+03  0.7546771E-02  0.1229728E+00
         21   -1    0    0  504  502  0.00000000000E+00  0.00000000000E+00  0.79623789905E+03  0.79623789905E+03  0.00000000000E+00 0.  1.
         21   -1    0    0  502  503 -0.00000000000E+00 -0.00000000000E+00 -0.34517364445E+02  0.34517364445E+02  0.00000000000E+00 0. -1.
         25    2    1    2    0    0  0.27455571697E+02 -0.11305418881E+02  0.86507043019E+02  0.15488924117E+03  0.12500235048E+03 0.  0.
          5    1    3    3  501    0  0.46899622877E+02 -0.46288870262E+02  0.74980287988E+01  0.66320921073E+02  0.10000000000E+00 0.  1.
         -5    1    3    3    0  501 -0.19444051180E+02  0.34983451382E+02  0.79009014220E+02  0.88568320098E+02  0.10000000000E+00 0.  1.
         21    1    1    2  504  503 -0.27455571697E+02  0.11305418881E+02  0.67521349158E+03  0.67586602232E+03  0.00000000000E+00 0.  1.
<mgrwt>
<rscale>  1 0.12848038E+03</rscale>
<asrwt>0</asrwt>
<pdfrwt beam="1">  1       21 0.12249812E+00 0.12848038E+03</pdfrwt>
<pdfrwt beam="2">  1       21 0.53103644E-02 0.12848038E+03</pdfrwt>
<totfact> 0.12517545E+05</totfact>
</mgrwt>
</event>
<event>
 6    1  0.4261782E-002  0.1354568E+03  0.7546771E-02  0.1219576E+00
         21   -1    0    0  503  502  0.00000000000E+00  0.00000000000E+00  0.30087083955E+03  0.30087083955E+03  0.00000000000E+00 0.  1.
         21   -1    0    0  504  503 -0.00000000000E+00 -0.00000000000E+00 -0.12846783647E+03  0.12846783647E+03  0.00000000000E+00 0.  1.
         25    2    1    2    0    0  0.16780376475E+02 -0.49436114309E+02 -0.89453742450E+02  0.16232844099E+03  0.12499216088E+03 0.  0.
          5    1    3    3  501    0 -0.17405029964E+02  0.13412692474E+02  0.21217486571E+02  0.30545492693E+02  0.10000000000E+00 0. -1.
         -5    1    3    3    0  501  0.34185406440E+02 -0.62848806782E+02 -0.11067122902E+03  0.13178294829E+03  0.10000000000E+00 0. -1.
         21    1    1    2  504  502 -0.16780376475E+02  0.49436114309E+02  0.26185674553E+03  0.26701023503E+03  0.00000000000E+00 0.  1.
<mgrwt>
<rscale>  1 0.13545682E+03</rscale>
<asrwt>0</asrwt>
<pdfrwt beam="1">  1       21 0.46287821E-01 0.13545682E+03</pdfrwt>
<pdfrwt beam="2">  1       21 0.19764283E-01 0.13545682E+03</pdfrwt>
<totfact> 0.10780571E+05</totfact>
</mgrwt>
</event>
<event>
 6    1  0.4261782E-002  0.1265506E+03  0.7546771E-02  0.1232666E+00
         21   -1    0    0  503  502  0.00000000000E+00  0.00000000000E+00  0.36230666346E+03  0.36230666346E+03  0.00000000000E+00 0. -1.
         21   -1    0    0  504  503 -0.00000000000E+00 -0.00000000000E+00 -0.33182470659E+02  0.33182470659E+02  0.00000000000E+00 0. -1.
         25    2    1    2    0    0 -0.18553815292E+02 -0.67416238763E+01  0.89375621955E+02  0.15492922313E+03  0.12500147529E+03 0.  0.
          5    1    3    3  501    0  0.11860153749E+02  0.52943568309E+02  0.18294969254E+02  0.57257318940E+02  0.10000000000E+00 0. -1.
         -5    1    3    3    0  501 -0.30413969040E+02 -0.59685192185E+02  0.71080652702E+02  0.97671904187E+02  0.10000000000E+00 0. -1.
         21    1    1    2  504  502  0.18553815292E+02  0.67416238763E+01  0.23974857084E+03  0.24055991099E+03  0.00000000000E+00 0. -1.
<mgrwt>
<rscale>  1 0.12655063E+03</rscale>
<asrwt>0</asrwt>
<pdfrwt beam="1">  1       21 0.55739484E-01 0.12655063E+03</pdfrwt>
<pdfrwt beam="2">  1       21 0.51049957E-02 0.12655063E+03</pdfrwt>
<totfact> 0.79105604E+05</totfact>
</mgrwt>
</event>
<event>
 6    1  0.4261782E-002  0.1260344E+03  0.7546771E-02  0.1233462E+00
         21   -1    0    0  503  502  0.00000000000E+00  0.00000000000E+00  0.64526620227E+03  0.64526620227E+03  0.00000000000E+00 0.  1.
         21   -1    0    0  504  503 -0.00000000000E+00 -0.00000000000E+00 -0.16422574686E+04  0.16422574686E+04  0.00000000000E+00 0.  1.
         25    2    1    2    0    0  0.25719231426E+01  0.15915930756E+02 -0.16397381193E+04  0.16445746460E+04  0.12499893950E+03 0.  0.
          5    1    3    3  501    0 -0.59244945760E+02  0.22844627503E+02 -0.88803296216E+03  0.89030016988E+03  0.10000000000E+00 0.  1.
         -5    1    3    3    0  501  0.61816868903E+02 -0.69286967470E+01 -0.75170515713E+03  0.75427447615E+03  0.10000000000E+00 0.  1.
         21    1    1    2  504  502 -0.25719231426E+01 -0.15915930756E+02  0.64274685292E+03  0.64294902487E+03  0.00000000000E+00 0.  1.
<mgrwt>
<rscale>  1 0.12603439E+03</rscale>
<asrwt>0</asrwt>
<pdfrwt beam="1">  1       21 0.99271725E-01 0.12603439E+03</pdfrwt>
<pdfrwt beam="2">  1       21 0.25265499E+00 0.12603439E+03</pdfrwt>
<totfact> 0.61144120E+01</totfact>
</mgrwt>
</event>
<event>
 6    1  0.4261782E-002  0.1276751E+03  0.7546771E-02  0.1230947E+00
         21   -1    0    0  503  502  0.00000000000E+00  0.00000000000E+00  0.38677589648E+02  0.38677589648E+02  0.00000000000E+00 0.  1.
         21   -1    0    0  504  503 -0.00000000000E+00 -0.00000000000E+00 -0.40239940128E+03  0.40239940128E+03  0.00000000000E+00 0.  1.
         25    2    1    2    0    0 -0.24686896838E+02  0.79331227389E+01 -0.38620186817E+03  0.40675891619E+03  0.12501422164E+03 0.  0.
          5    1    3    3  501    0 -0.16707373135E+02  0.22958403851E+02 -0.38854870804E+03  0.38958482150E+03  0.10000000000E+00 0.  1.
         -5    1    3    3    0  501 -0.79795237029E+01 -0.15025281112E+02  0.23468398727E+01  0.17174094690E+02  0.10000000000E+00 0.  1.
         21    1    1    2  504  502  0.24686896838E+02 -0.79331227389E+01  0.22480056535E+02  0.34318074738E+02  0.00000000000E+00 0.  1.
<mgrwt>
<rscale>  1 0.12767511E+03</rscale>
<asrwt>0</asrwt>
<pdfrwt beam="1">  1       21 0.59503988E-02 0.12767511E+03</pdfrwt>
<pdfrwt beam="2">  1       21 0.61907596E-01 0.12767511E+03</pdfrwt>
<totfact> 0.48918333E+05</totfact>
</mgrwt>
</event>
<event>
 6    1  0.4261782E-002  0.1277461E+03  0.7546771E-02  0.1230839E+00
         21   -1    0    0  503  502  0.00000000000E+00  0.00000000000E+00  0.23174969674E+03  0.23174969674E+03  0.00000000000E+00 0. -1.
         21   -1    0    0  504  503 -0.00000000000E+00 -0.00000000000E+00 -0.54859289562E+02  0.54859289562E+02  0.00000000000E+00 0.  1.
         25    2    1    2    0    0  0.19943156821E+02  0.17471026045E+02  0.22197450608E+02  0.12966034162E+03  0.12496443942E+03 0.  0.
          5    1    3    3  501    0  0.20041321210E+02 -0.31712386276E+02  0.57825381684E+02  0.68928330649E+02  0.10000000000E+00 0.  1.
         -5    1    3    3    0  501 -0.98164389292E-01  0.49183412321E+02 -0.35627931077E+02  0.60732010971E+02  0.10000000000E+00 0.  1.
         21    1    1    2  504  502 -0.19943156821E+02 -0.17471026045E+02  0.15469295657E+03  0.15694864469E+03  0.00000000000E+00 0. -1.
<mgrwt>
<rscale>  1 0.12774614E+03</rscale>
<asrwt>0</asrwt>
<pdfrwt beam="1">  1       21 0.35653799E-01 0.12774614E+03</pdfrwt>
<pdfrwt beam="2">  1       21 0.84398908E-02 0.12774614E+03</pdfrwt>
<totfact> 0.83179193E+05</totfact>
</mgrwt>
</event>
<event>
 6    1  0.4261782E-002  0.1559561E+03  0.7546771E-02  0.1193339E+00
         21   -1    0    0  504  502  0.00000000000E+00  0.00000000000E+00  0.12641237408E+02  0.12641237408E+02  0.00000000000E+00 0. -1.
         21   -1    0    0  502  503 -0.00000000000E+00 -0.00000000000E+00 -0.18227476785E+04  0.18227476785E+04  0.00000000000E+00 0. -1.
         25    2    1    2    0    0  0.71503762197E+02  0.59871679642E+02 -0.15712632675E+04  0.15789840259E+04  0.12499956932E+03 0.  0.
          5    1    3    3  501    0  0.68983787596E+02  0.74463263824E+02 -0.15485299331E+04  0.15518532483E+04  0.10000000000E+00 0. -1.
         -5    1    3    3    0  501  0.25199746015E+01 -0.14591584182E+02 -0.22733334379E+02  0.27130777596E+02  0.10000000000E+00 0. -1.
         21    1    1    2  504  503 -0.71503762197E+02 -0.59871679642E+02 -0.23884317362E+03  0.25640489000E+03  0.00000000000E+00 0. -1.
<mgrwt>
<rscale>  1 0.15595608E+03</rscale>
<asrwt>0</asrwt>
<pdfrwt beam="1">  1       21 0.19448070E-02 0.15595608E+03</pdfrwt>
<pdfrwt beam="2">  1       21 0.28042254E+00 0.15595608E+03</pdfrwt>
<totfact> 0.58898299E+04</totfact>
</mgrwt>
</event>
<event>
 6    1  0.4261782E-002  0.1261713E+03  0.7546771E-02  0.1233250E+00
         21   -1    0    0  503  502  0.00000000000E+00  0.00000000000E+00  0.14327624505E+03  0.14327624505E+03  0.00000000000E+00 0.  1.
         21   -1    0    0  504  503 -0.00000000000E+00 -0.00000000000E+00 -0.38739897909E+02  0.38739897909E+02  0.00000000000E+00 0.  1.
         25    2    1    2    0    0 -0.21258039282E+01  0.16978826909E+02  0.72038074145E+02  0.14528826045E+03  0.12500557945E+03 0.  0.
          5    1    3    3  501    0 -0.31479031920E+02  0.63446610748E+02  0.34929311635E+02  0.78971315535E+02  0.10000000000E+00 0. -1.
         -5    1    3    3    0  501  0.29353227992E+02 -0.46467783839E+02  0.37108762510E+02  0.66316944920E+02  0.10000000000E+00 0. -1.
         21    1    1    2  504  502  0.21258039282E+01 -0.16978826909E+02  0.32498272999E+02  0.36727882507E+02  0.00000000000E+00 0. -1.
<mgrwt>
<rscale>  1 0.12617129E+03</rscale>
<asrwt>0</asrwt>
<pdfrwt beam="1">  1       21 0.22042499E-01 0.12617129E+03</pdfrwt>
<pdfrwt beam="2">  1       21 0.59599844E-02 0.12617129E+03</pdfrwt>
<totfact> 0.37864227E+06</totfact>
</mgrwt>
</event>
<event>
 6    1  0.4261782E-002  0.1259889E+03  0.7546771E-02  0.1233532E+00
         21   -1    0    0  503  502  0.00000000000E+00  0.00000000000E+00  0.40674255241E+01  0.40674255241E+01  0.00000000000E+00 0. -1.
         21   -1    0    0  504  503 -0.00000000000E+00 -0.00000000000E+00 -0.20013851347E+04  0.20013851347E+04  0.00000000000E+00 0. -1.
         25    2    1    2    0    0 -0.47883693047E+01 -0.15019856951E+02 -0.19691263762E+04  0.19731527794E+04  0.12499872394E+03 0.  0.
          5    1    3    3  501    0  0.34724277558E+02  0.25412773579E+02 -0.30010532395E+03  0.30317453715E+03  0.10000000000E+00 0.  1.
         -5    1    3    3    0  501 -0.39512646862E+02 -0.40432630530E+02 -0.16690210522E+04  0.16699782423E+04  0.10000000000E+00 0.  1.
         21    1    1    2  504  502  0.47883693047E+01  0.15019856951E+02 -0.28191332949E+02  0.32299780756E+02  0.00000000000E+00 0. -1.
<mgrwt>
<rscale>  1 0.12598891E+03</rscale>
<asrwt>0</asrwt>
<pdfrwt beam="1">  1       21 0.62575878E-03 0.12598891E+03</pdfrwt>
<pdfrwt beam="2">  1       21 0.30790491E+00 0.12598891E+03</pdfrwt>
<totfact> 0.25563311E+05</totfact>
</mgrwt>
</event>
<event>
 6    1  0.4261782E-002  0.1441399E+03  0.7546771E-02  0.1207864E+00
         21   -1    0    0  503  502  0.00000000000E+00  0.00000000000E+00  0.13082550503E+04  0.13082550503E+04  0.00000000000E+00 0.  1.
         21   -1    0    0  504  503 -0.00000000000E+00 -0.00000000000E+00 -0.10241140602E+02  0.10241140602E+02  0.00000000000E+00 0.  1.
         25    2    1    2    0    0 -0.11862893584E+02  0.70802746656E+02  0.61241706385E+03  0.62915100000E+03  0.12499025375E+03 0.  0.
          5    1    3    3  501    0  0.20541019920E+02 -0.29653978869E+02  0.10994057602E+03  0.11570752878E+03  0.10000000000E+00 0.  1.
         -5    1    3    3    0  501 -0.32403913505E+02  0.10045672553E+03  0.50247648783E+03  0.51344347122E+03  0.10000000000E+00 0.  1.
         21    1    1    2  504  502  0.11862893584E+02 -0.70802746656E+02  0.68559684586E+03  0.68934519091E+03  0.00000000000E+00 0.  1.
<mgrwt>
<rscale>  1 0.14413993E+03</rscale>
<asrwt>0</asrwt>
<pdfrwt beam="1">  1       21 0.20126987E+00 0.14413993E+03</pdfrwt>
<pdfrwt beam="2">  1       21 0.15755611E-02 0.14413993E+03</pdfrwt>
<totfact> 0.24449080E+05</totfact>
</mgrwt>
</event>
<event>
 6    1  0.4261782E-002  0.2205856E+03  0.7546771E-02  0.1133447E+00
         21   -1    0    0  504  502  0.00000000000E+00  0.00000000000E+00  0.25647681404E+03  0.25647681404E+03  0.00000000000E+00 0.  1.
         21   -1    0    0  502  503 -0.00000000000E+00 -0.00000000000E+00 -0.47382436753E+03  0.47382436753E+03  0.00000000000E+00 0.  1.
         25    2    1    2    0    0  0.10392621147E+03  0.14910523510E+03 -0.40992148517E+03  0.46550362167E+03  0.12499987686E+03 0.  0.
          5    1    3    3  501    0  0.10244000658E+03  0.16175842985E+03 -0.41028044982E+03  0.45275799505E+03  0.10000000000E+00 0. -1.
         -5    1    3    3    0  501  0.14862048876E+01 -0.12653194748E+02  0.35896464724E+00  0.12745626619E+02  0.10000000000E+00 0. -1.
         21    1    1    2  504  503 -0.10392621147E+03 -0.14910523510E+03  0.19257393169E+03  0.26479755990E+03  0.00000000000E+00 0.  1.
<mgrwt>
<rscale>  1 0.22058558E+03</rscale>
<asrwt>0</asrwt>
<pdfrwt beam="1">  1       21 0.39457971E-01 0.22058558E+03</pdfrwt>
<pdfrwt beam="2">  1       21 0.72896056E-01 0.22058558E+03</pdfrwt>
<totfact> 0.10295380E+04</totfact>
</mgrwt>
</event>
<event>
 6    1  0.4261782E-002  0.1288831E+03  0.7546771E-02  0.1229122E+00
         21   -1    0    0  503  502  0.00000000000E+00  0.00000000000E+00  0.54070642954E+02  0.54070642954E+02  0.00000000000E+00 0. -1.
         21   -1    0    0  504  503 -0.00000000000E+00 -0.00000000000E+00 -0.19658341144E+03  0.19658341144E+03  0.00000000000E+00 0. -1.
         25    2    1    2    0    0  0.71608697947E+00 -0.31428636620E+02 -0.16689735275E+03  0.21086863081E+03  0.12499032412E+03 0.  0.
          5    1    3    3  501    0  0.54183042073E+01 -0.40261851970E+02  0.29451668142E+01  0.40731544926E+02  0.10000000000E+00 0. -1.
         -5    1    3    3    0  501 -0.47022172278E+01  0.88332153501E+01 -0.16984251956E+03  0.17013708588E+03  0.10000000000E+00 0. -1.
         21    1    1    2  504  502 -0.71608697947E+00  0.31428636620E+02  0.24384584263E+02  0.39785423587E+02  0.00000000000E+00 0. -1.
<mgrwt>
<rscale>  1 0.12888310E+03</rscale>
<asrwt>0</asrwt>
<pdfrwt beam="1">  1       21 0.83185603E-02 0.12888310E+03</pdfrwt>
<pdfrwt beam="2">  1       21 0.30243602E-01 0.12888310E+03</pdfrwt>
<totfact> 0.11755263E+06</totfact>
</mgrwt>
</event>
<event>
 6    1  0.4261782E-002  0.1284267E+03  0.7546771E-02  0.1229809E+00
         21   -1    0    0  503  502  0.00000000000E+00  0.00000000000E+00  0.34756155029E+02  0.34756155029E+02  0.00000000000E+00 0. -1.
         21   -1    0    0  504  503 -0.00000000000E+00 -0.00000000000E+00 -0.25645280824E+03  0.25645280824E+03  0.00000000000E+00 0. -1.
         25    2    1    2    0    0  0.19092434469E+02 -0.22441753395E+02 -0.22743611928E+03  0.26119072182E+03  0.12500100584E+03 0.  0.
          5    1    3    3  501    0  0.33601058480E+02 -0.11743147337E+02 -0.23776491499E+03  0.24041442852E+03  0.10000000000E+00 0.  1.
         -5    1    3    3    0  501 -0.14508624011E+02 -0.10698606058E+02  0.10328795711E+02  0.20776293296E+02  0.10000000000E+00 0.  1.
         21    1    1    2  504  502 -0.19092434469E+02  0.22441753395E+02  0.57394660649E+01  0.30018241456E+02  0.00000000000E+00 0. -1.
<mgrwt>
<rscale>  1 0.12842665E+03</rscale>
<asrwt>0</asrwt>
<pdfrwt beam="1">  1       21 0.53471009E-02 0.12842665E+03</pdfrwt>
<pdfrwt beam="2">  1       21 0.39454277E-01 0.12842665E+03</pdfrwt>
<totfact> 0.14830747E+06</totfact>
</mgrwt>
</event>
<event>
 6    1  0.4261782E-002  0.1261743E+03  0.7546771E-02  0.1233245E+00
         21   -1    0    0  503  502  0.00000000000E+00  0.00000000000E+00  0.20186666319E+03  0.20186666319E+03  0.00000000000E+00 0.  1.
         21   -1    0    0  504  503 -0.00000000000E+00 -0.00000000000E+00 -0.31848760533E+02  0.31848760533E+02  0.00000000000E+00 0.  1.
         25    2    1    2    0    0 -0.79240129337E+01 -0.15232990359E+02  0.98232139448E+02  0.15990465367E+03  0.12500044428E+03 0.  0.
          5    1    3    3  501    0 -0.43468204623E+02 -0.20725155173E+02  0.11159046749E+03  0.12153789247E+03  0.10000000000E+00 0.  1.
         -5    1    3    3    0  501  0.35544191689E+02  0.54921648139E+01 -0.13358328045E+02  0.38366761205E+02  0.10000000000E+00 0.  1.
         21    1    1    2  504  502  0.79240129337E+01  0.15232990359E+02  0.71785763213E+02  0.73810770056E+02  0.00000000000E+00 0.  1.
<mgrwt>
<rscale>  1 0.12617426E+03</rscale>
<asrwt>0</asrwt>
<pdfrwt beam="1">  1       21 0.31056409E-01 0.12617426E+03</pdfrwt>
<pdfrwt beam="2">  1       21 0.48998095E-02 0.12617426E+03</pdfrwt>
<totfact> 0.27471465E+06</totfact>
</mgrwt>
</event>
<event>
 6    1  0.4261782E-002  0.1384951E+03  0.7546771E-02  0.1215368E+00
         21   -1    0    0  503  502  0.00000000000E+00  0.00000000000E+00  0.71334864371E+02  0.71334864371E+02  0.00000000000E+00 0. -1.
         21   -1    0    0  504  503 -0.00000000000E+00 -0.00000000000E+00 -0.14506811148E+03  0.14506811148E+03  0.00000000000E+00 0. -1.
         25    2    1    2    0    0 -0.24167051448E+02  0.54524915558E+02 -0.73439010339E+02  0.15676155260E+03  0.12499553329E+03 0.  0.
          5    1    3    3  501    0 -0.15085004673E+02 -0.37392872668E+02 -0.44314841467E+02  0.59913266199E+02  0.10000000000E+00 0.  1.
         -5    1    3    3    0  501 -0.90820467744E+01  0.91917788227E+02 -0.29124168872E+02  0.96848286400E+02  0.10000000000E+00 0.  1.
         21    1    1    2  504  502  0.24167051448E+02 -0.54524915558E+02 -0.29423677075E+00  0.59641423252E+02  0.00000000000E+00 0. -1.
<mgrwt>
<rscale>  1 0.13849511E+03</rscale>
<asrwt>0</asrwt>
<pdfrwt beam="1">  1       21 0.10974595E-01 0.13849511E+03</pdfrwt>
<pdfrwt beam="2">  1       21 0.22318171E-01 0.13849511E+03</pdfrwt>
<totfact> 0.12921255E+06</totfact>
</mgrwt>
</event>
<event>
 6    1  0.4261782E-002  0.1270618E+03  0.7546771E-02  0.1231882E+00
         21   -1    0    0  504  502  0.00000000000E+00  0.00000000000E+00  0.61387627522E+01  0.61387627522E+01  0.00000000000E+00 0. -1.
         21   -1    0    0  502  503 -0.00000000000E+00 -0.00000000000E+00 -0.11359842459E+04  0.11359842459E+04  0.00000000000E+00 0. -1.
         25    2    1    2    0    0 -0.14472581798E+02  0.17623894194E+02 -0.10782720898E+04  0.10857326533E+04  0.12499855048E+03 0.  0.
          5    1    3    3  501    0  0.64080451640E+01 -0.33038370923E+02 -0.92385367312E+02  0.98324275179E+02  0.10000000000E+00 0. -1.
         -5    1    3    3    0  501 -0.20880626962E+02  0.50662265117E+02 -0.98588672247E+03  0.98740837814E+03  0.10000000000E+00 0. -1.
         21    1    1    2  504  503  0.14472581798E+02 -0.17623894194E+02 -0.51573393337E+02  0.56390355299E+02  0.00000000000E+00 0. -1.
<mgrwt>
<rscale>  1 0.12706178E+03</rscale>
<asrwt>0</asrwt>
<pdfrwt beam="1">  1       21 0.94442433E-03 0.12706178E+03</pdfrwt>
<pdfrwt beam="2">  1       21 0.17476694E+00 0.12706178E+03</pdfrwt>
<totfact> 0.82604155E+05</totfact>
</mgrwt>
</event>
<event>
 6    1  0.4261782E-002  0.1280762E+03  0.7546771E-02  0.1230339E+00
         21   -1    0    0  503  502  0.00000000000E+00  0.00000000000E+00  0.40072850550E+03  0.40072850550E+03  0.00000000000E+00 0. -1.
         21   -1    0    0  504  503 -0.00000000000E+00 -0.00000000000E+00 -0.28318892145E+02  0.28318892145E+02  0.00000000000E+00 0. -1.
         25    2    1    2    0    0  0.26138565092E+01 -0.27771606556E+02  0.12132442433E+03  0.17641749735E+03  0.12500169221E+03 0.  0.
          5    1    3    3  501    0 -0.24716047868E+02  0.27339589903E+02  0.10712022022E+03  0.11328321932E+03  0.10000000000E+00 0. -1.
         -5    1    3    3    0  501  0.27329904378E+02 -0.55111196459E+02  0.14204204112E+02  0.63134278034E+02  0.10000000000E+00 0. -1.
         21    1    1    2  504  502 -0.26138565092E+01  0.27771606556E+02  0.25108518902E+03  0.25262990029E+03  0.00000000000E+00 0. -1.
<mgrwt>
<rscale>  1 0.12807622E+03</rscale>
<asrwt>0</asrwt>
<pdfrwt beam="1">  1       21 0.61650535E-01 0.12807622E+03</pdfrwt>
<pdfrwt beam="2">  1       21 0.43567529E-02 0.12807622E+03</pdfrwt>
<totfact> 0.83344718E+05</totfact>
</mgrwt>
</event>
<event>
 6    1  0.4261782E-002  0.1271050E+03  0.7546771E-02  0.1231816E+00
         21   -1    0    0  503  502  0.00000000000E+00  0.00000000000E+00  0.50225291222E+02  0.50225291222E+02  0.00000000000E+00 0.  1.
         21   -1    0    0  504  503 -0.00000000000E+00 -0.00000000000E+00 -0.11423764200E+03  0.11423764200E+03  0.00000000000E+00 0.  1.
         25    2    1    2    0    0 -0.16826504214E+02 -0.15740236978E+02 -0.61751154057E+02  0.14131127422E+03  0.12499913955E+03 0.  0.
          5    1    3    3  501    0 -0.67573838782E+02 -0.29771807354E+02 -0.42824896656E+02  0.85361384563E+02  0.10000000000E+00 0.  1.
         -5    1    3    3    0  501  0.50747334568E+02  0.14031570376E+02 -0.18926257401E+02  0.55949889653E+02  0.10000000000E+00 0.  1.
         21    1    1    2  504  502  0.16826504214E+02  0.15740236978E+02 -0.22611967222E+01  0.23151659007E+02  0.00000000000E+00 0. -1.
<mgrwt>
<rscale>  1 0.12710496E+03</rscale>
<asrwt>0</asrwt>
<pdfrwt beam="1">  1       21 0.77269679E-02 0.12710496E+03</pdfrwt>
<pdfrwt beam="2">  1       21 0.17575022E-01 0.12710496E+03</pdfrwt>
<totfact> 0.36931943E+06</totfact>
</mgrwt>
</event>
<event>
 6    1  0.4261782E-002  0.1267563E+03  0.7546771E-02  0.1232350E+00
         21   -1    0    0  503  502  0.00000000000E+00  0.00000000000E+00  0.23027933166E+03  0.23027933166E+03  0.00000000000E+00 0.  1.
         21   -1    0    0  504  503 -0.00000000000E+00 -0.00000000000E+00 -0.13068528842E+03  0.13068528842E+03  0.00000000000E+00 0.  1.
         25    2    1    2    0    0  0.76936737355E+01  0.19585467137E+02 -0.99262690149E+02  0.16099766392E+03  0.12499753195E+03 0.  0.
          5    1    3    3  501    0 -0.16012675090E+02  0.40928444720E+02 -0.11665947690E+03  0.12466349466E+03  0.10000000000E+00 0. -1.
         -5    1    3    3    0  501  0.23706348826E+02 -0.21342977583E+02  0.17396786747E+02  0.36334169261E+02  0.10000000000E+00 0. -1.
         21    1    1    2  504  502 -0.76936737355E+01 -0.19585467137E+02  0.19885673340E+03  0.19996695616E+03  0.00000000000E+00 0.  1.
<mgrwt>
<rscale>  1 0.12675633E+03</rscale>
<asrwt>0</asrwt>
<pdfrwt beam="1">  1       21 0.35427590E-01 0.12675633E+03</pdfrwt>
<pdfrwt beam="2">  1       21 0.20105429E-01 0.12675633E+03</pdfrwt>
<totfact> 0.17899120E+05</totfact>
</mgrwt>
</event>
<event>
 6    1  0.4261782E-002  0.1308494E+03  0.7546771E-02  0.1226201E+00
         21   -1    0    0  503  502  0.00000000000E+00  0.00000000000E+00  0.24453098928E+03  0.24453098928E+03  0.00000000000E+00 0.  1.
         21   -1    0    0  504  503 -0.00000000000E+00 -0.00000000000E+00 -0.38125712931E+02  0.38125712931E+02  0.00000000000E+00 0.  1.
         25    2    1    2    0    0 -0.49917867072E+01 -0.38364660964E+02  0.86980196904E+02  0.15712138947E+03  0.12499924491E+03 0.  0.
          5    1    3    3  501    0  0.34186711669E+02 -0.37645928049E+02  0.10293620543E+03  0.11481210538E+03  0.10000000000E+00 0. -1.
         -5    1    3    3    0  501 -0.39178498376E+02 -0.71873291521E+00 -0.15956008524E+02  0.42309284088E+02  0.10000000000E+00 0. -1.
         21    1    1    2  504  502  0.49917867072E+01  0.38364660964E+02  0.11942507944E+03  0.12553531274E+03  0.00000000000E+00 0.  1.
<mgrwt>
<rscale>  1 0.13084944E+03</rscale>
<asrwt>0</asrwt>
<pdfrwt beam="1">  1       21 0.37620151E-01 0.13084944E+03</pdfrwt>
<pdfrwt beam="2">  1       21 0.58654945E-02 0.13084944E+03</pdfrwt>
<totfact> 0.13948332E+06</totfact>
</mgrwt>
</event>
<event>
 6    1  0.4261782E-002  0.1316479E+03  0.7546771E-02  0.1225031E+00
         21   -1    0    0  504  502  0.00000000000E+00  0.00000000000E+00  0.15362232577E+04  0.15362232577E+04  0.00000000000E+00 0.  1.
         21   -1    0    0  502  503 -0.00000000000E+00 -0.00000000000E+00 -0.63028864380E+01  0.63028864380E+01  0.00000000000E+00 0.  1.
         25    2    1    2    0    0 -0.41197711399E+02 -0.29767289912E+01  0.74662770245E+03  0.75814516697E+03  0.12500022313E+03 0.  0.
          5    1    3    3  501    0  0.72049719155E+01  0.14667647727E+02  0.88761259152E+01  0.18596965382E+02  0.10000000000E+00 0.  1.
         -5    1    3    3    0  501 -0.48402683315E+02 -0.17644376718E+02  0.73775157654E+03  0.73954820159E+03  0.10000000000E+00 0.  1.
         21    1    1    2  504  503  0.41197711399E+02  0.29767289912E+01  0.78329266880E+03  0.78438097716E+03  0.00000000000E+00 0.  1.
<mgrwt>
<rscale>  1 0.13164789E+03</rscale>
<asrwt>0</asrwt>
<pdfrwt beam="1">  1       21 0.23634174E+00 0.13164789E+03</pdfrwt>
<pdfrwt beam="2">  1       21 0.96967606E-03 0.13164789E+03</pdfrwt>
<totfact> 0.32659328E+05</totfact>
</mgrwt>
</event>
<event>
 6    1  0.4261782E-002  0.1268225E+03  0.7546771E-02  0.1232248E+00
         21   -1    0    0  503  502  0.00000000000E+00  0.00000000000E+00  0.10512004172E+03  0.10512004172E+03  0.00000000000E+00 0. -1.
         21   -1    0    0  504  503 -0.00000000000E+00 -0.00000000000E+00 -0.43172682025E+03  0.43172682025E+03  0.00000000000E+00 0.  1.
         25    2    1    2    0    0  0.20288064835E+02  0.65735877366E+01 -0.42120027393E+03  0.43987909927E+03  0.12501653325E+03 0.  0.
          5    1    3    3  501    0  0.40865405373E+02 -0.47666920660E+02 -0.15122128570E+03  0.16373760695E+03  0.10000000000E+00 0.  1.
         -5    1    3    3    0  501 -0.20577340538E+02  0.54240508396E+02 -0.26997898823E+03  0.27614149232E+03  0.10000000000E+00 0.  1.
         21    1    1    2  504  502 -0.20288064835E+02 -0.65735877366E+01  0.94593495402E+02  0.96967762699E+02  0.00000000000E+00 0. -1.
<mgrwt>
<rscale>  1 0.12682252E+03</rscale>
<asrwt>0</asrwt>
<pdfrwt beam="1">  1       21 0.16172314E-01 0.12682252E+03</pdfrwt>
<pdfrwt beam="2">  1       21 0.66419511E-01 0.12682252E+03</pdfrwt>
<totfact> 0.73215646E+04</totfact>
</mgrwt>
</event>
<event>
 6    1  0.4261782E-002  0.1436750E+03  0.7546771E-02  0.1208468E+00
         21   -1    0    0  503  502  0.00000000000E+00  0.00000000000E+00  0.79336972186E+02  0.79336972186E+02  0.00000000000E+00 0.  1.
         21   -1    0    0  504  503 -0.00000000000E+00 -0.00000000000E+00 -0.25433612987E+03  0.25433612987E+03  0.00000000000E+00 0.  1.
         25    2    1    2    0    0 -0.69846547664E+02  0.11793205584E+02 -0.21017096447E+03  0.25458659302E+03  0.12499951647E+03 0.  0.
          5    1    3    3  501    0 -0.31704343273E+02  0.40589207588E+02 -0.19893205249E+03  0.20549116930E+03  0.10000000000E+00 0. -1.
         -5    1    3    3    0  501 -0.38142204392E+02 -0.28796002003E+02 -0.11238911987E+02  0.49095423716E+02  0.10000000000E+00 0. -1.
         21    1    1    2  504  502  0.69846547664E+02 -0.11793205584E+02  0.35171806790E+02  0.79086509036E+02  0.00000000000E+00 0.  1.
<mgrwt>
<rscale>  1 0.14367498E+03</rscale>
<asrwt>0</asrwt>
<pdfrwt beam="1">  1       21 0.12205688E-01 0.14367498E+03</pdfrwt>
<pdfrwt beam="2">  1       21 0.39128635E-01 0.14367498E+03</pdfrwt>
<totfact> 0.36182331E+05</totfact>
</mgrwt>
</event>
<event>
 6    1  0.4261782E-002  0.1259371E+03  0.7546771E-02  0.1233612E+00
         21   -1    0    0  503  502  0.00000000000E+00  0.00000000000E+00  0.29319720866E+03  0.29319720866E+03  0.00000000000E+00 0. -1.
         21   -1    0    0  504  503 -0.00000000000E+00 -0.00000000000E+00 -0.73488362626E+02  0.73488362626E+02  0.00000000000E+00 0.  1.
         25    2    1    2    0    0  0.86102934247E+01  0.12758119028E+02 -0.19103474174E+02  0.12737775479E+03  0.12499297154E+03 0.  0.
          5    1    3    3  501    0 -0.49863564896E+02  0.29855530095E+02  0.11430933000E+02  0.59231782099E+02  0.10000000000E+00 0.  1.
         -5    1    3    3    0  501  0.58473858321E+02 -0.17097411067E+02 -0.30534407174E+02  0.68145972688E+02  0.10000000000E+00 0.  1.
         21    1    1    2  504  502 -0.86102934247E+01 -0.12758119028E+02  0.23881232020E+03  0.23930781649E+03  0.00000000000E+00 0. -1.
<mgrwt>
<rscale>  1 0.12593709E+03</rscale>
<asrwt>0</asrwt>
<pdfrwt beam="1">  1       21 0.45107262E-01 0.12593709E+03</pdfrwt>
<pdfrwt beam="2">  1       21 0.11305902E-01 0.12593709E+03</pdfrwt>
<totfact> 0.31203396E+05</totfact>
</mgrwt>
</event>
<event>
 6    1  0.4261782E-002  0.1263713E+03  0.7546771E-02  0.1232942E+00
         21   -1    0    0  504  502  0.00000000000E+00  0.00000000000E+00  0.99414578301E+03  0.99414578301E+03  0.00000000000E+00 0. -1.
         21   -1    0    0  502  503 -0.00000000000E+00 -0.00000000000E+00 -0.59776607534E+01  0.59776607534E+01  0.00000000000E+00 0. -1.
         25    2    1    2    0    0 -0.18554740070E+02 -0.12030550979E+01  0.69708339656E+03  0.70844546507E+03  0.12499595793E+03 0.  0.
          5    1    3    3  501    0  0.43735311266E+02  0.32941273021E+02  0.33756572927E+03  0.34197739179E+03  0.10000000000E+00 0. -1.
         -5    1    3    3    0  501 -0.62290051336E+02 -0.34144328119E+02  0.35951766729E+03  0.36646807328E+03  0.10000000000E+00 0. -1.
         21    1    1    2  504  503  0.18554740070E+02  0.12030550979E+01  0.29108472569E+03  0.29167797869E+03  0.00000000000E+00 0. -1.
<mgrwt>
<rscale>  1 0.12637134E+03</rscale>
<asrwt>0</asrwt>
<pdfrwt beam="1">  1       21 0.15294537E+00 0.12637134E+03</pdfrwt>
<pdfrwt beam="2">  1       21 0.91964091E-03 0.12637134E+03</pdfrwt>
<totfact> 0.12292711E+06</totfact>
</mgrwt>
</event>
<event>
 6    1  0.4261782E-002  0.1340939E+03  0.7546771E-02  0.1221504E+00
         21   -1    0    0  503  502  0.00000000000E+00  0.00000000000E+00  0.49574339408E+02  0.49574339408E+02  0.00000000000E+00 0.  1.
         21   -1    0    0  504  503 -0.00000000000E+00 -0.00000000000E+00 -0.21190178911E+03  0.21190178911E+03  0.00000000000E+00 0.  1.
         25    2    1    2    0    0 -0.57554248382E+01  0.48307861643E+02 -0.57485000513E+02  0.14589622731E+03  0.12495763061E+03 0.  0.
          5    1    3    3  501    0  0.48804726694E+02 -0.38383860817E+01 -0.50125997871E+02  0.70066113193E+02  0.10000000000E+00 0.  1.
         -5    1    3    3    0  501 -0.54560151532E+02  0.52146247724E+02 -0.73590026416E+01  0.75830114116E+02  0.10000000000E+00 0.  1.
         21    1    1    2  504  502  0.57554248382E+01 -0.48307861643E+02 -0.10484244919E+03  0.11557990121E+03  0.00000000000E+00 0.  1.
<mgrwt>
<rscale>  1 0.13409394E+03</rscale>
<asrwt>0</asrwt>
<pdfrwt beam="1">  1       21 0.76268215E-02 0.13409394E+03</pdfrwt>
<pdfrwt beam="2">  1       21 0.32600275E-01 0.13409394E+03</pdfrwt>
<totfact> 0.11809692E+06</totfact>
</mgrwt>
</event>
<event>
 6    1  0.4261782E-002  0.1272205E+03  0.7546771E-02  0.1231639E+00
         21   -1    0    0  504  502  0.00000000000E+00  0.00000000000E+00  0.55381749263E+03  0.55381749263E+03  0.00000000000E+00 0.  1.
         21   -1    0    0  502  503 -0.00000000000E+00 -0.00000000000E+00 -0.30993589702E+02  0.30993589702E+02  0.00000000000E+00 0.  1.
         25    2    1    2    0    0 -0.10087585403E+02  0.21408693576E+02  0.10130325966E+03  0.16262659157E+03  0.12499986531E+03 0.  0.
          5    1    3    3  501    0  0.34254120186E+02 -0.38662548968E+02  0.32048374220E+02  0.60788532904E+02  0.10000000000E+00 0.  1.
         -5    1    3    3    0  501 -0.44341705589E+02  0.60071242544E+02  0.69254885440E+02  0.10183805866E+03  0.10000000000E+00 0.  1.
         21    1    1    2  504  503  0.10087585403E+02 -0.21408693576E+02  0.42152064327E+03  0.42218449077E+03  0.00000000000E+00 0.  1.
<mgrwt>
<rscale>  1 0.12722051E+03</rscale>
<asrwt>0</asrwt>
<pdfrwt beam="1">  1       21 0.85202684E-01 0.12722051E+03</pdfrwt>
<pdfrwt beam="2">  1       21 0.47682450E-02 0.12722051E+03</pdfrwt>
<totfact> 0.35241357E+05</totfact>
</mgrwt>
</event>
<event>
 6    1  0.4261782E-002  0.1300858E+03  0.7546771E-02  0.1227329E+00
         21   -1    0    0  504  502  0.00000000000E+00  0.00000000000E+00  0.12527314994E+04  0.12527314994E+04  0.00000000000E+00 0. -1.
         21   -1    0    0  502  503 -0.00000000000E+00 -0.00000000000E+00 -0.59816638623E+01  0.59816638623E+01  0.00000000000E+00 0. -1.
         25    2    1    2    0    0  0.21330442891E+02  0.29083517172E+02  0.79975724365E+03  0.81026783107E+03  0.12498588131E+03 0.  0.
          5    1    3    3  501    0  0.27137774488E+02 -0.46057007613E+02  0.27766734266E+03  0.28276645829E+03  0.10000000000E+00 0.  1.
         -5    1    3    3    0  501 -0.58073315970E+01  0.75140524785E+02  0.52208990099E+03  0.52750137278E+03  0.10000000000E+00 0.  1.
         21    1    1    2  504  503 -0.21330442891E+02 -0.29083517172E+02  0.44699259184E+03  0.44844533215E+03  0.00000000000E+00 0. -1.
<mgrwt>
<rscale>  1 0.13008578E+03</rscale>
<asrwt>0</asrwt>
<pdfrwt beam="1">  1       21 0.19272771E+00 0.13008578E+03</pdfrwt>
<pdfrwt beam="2">  1       21 0.92025698E-03 0.13008578E+03</pdfrwt>
<totfact> 0.65442501E+05</totfact>
</mgrwt>
</event>
<event>
 6    1  0.4261782E-002  0.1723579E+03  0.7546771E-02  0.1175411E+00
         21   -1    0    0  504  502  0.00000000000E+00  0.00000000000E+00  0.45134411955E+02  0.45134411955E+02  0.00000000000E+00 0. -1.
         21   -1    0    0  502  503 -0.00000000000E+00 -0.00000000000E+00 -0.66363049854E+03  0.66363049854E+03  0.00000000000E+00 0. -1.
         25    2    1    2    0    0 -0.36582969615E+01 -0.11860761111E+03 -0.53911735096E+03  0.56599890537E+03  0.12500437680E+03 0.  0.
          5    1    3    3  501    0 -0.34370927464E+02  0.13262649611E+02 -0.12408371540E+03  0.12943738624E+03  0.10000000000E+00 0. -1.
         -5    1    3    3    0  501  0.30712630503E+02 -0.13187026072E+03 -0.41503363556E+03  0.43656151912E+03  0.10000000000E+00 0. -1.
         21    1    1    2  504  503  0.36582969615E+01  0.11860761111E+03 -0.79378735619E+02  0.14276600512E+03  0.00000000000E+00 0. -1.
<mgrwt>
<rscale>  1 0.17235789E+03</rscale>
<asrwt>0</asrwt>
<pdfrwt beam="1">  1       21 0.69437560E-02 0.17235789E+03</pdfrwt>
<pdfrwt beam="2">  1       21 0.10209700E+00 0.17235789E+03</pdfrwt>
<totfact> 0.12081587E+05</totfact>
</mgrwt>
</event>
<event>
 6    1  0.4261782E-002  0.1276534E+03  0.7546771E-02  0.1230980E+00
         21   -1    0    0  504  502  0.00000000000E+00  0.00000000000E+00  0.18496730969E+02  0.18496730969E+02  0.00000000000E+00 0.  1.
         21   -1    0    0  502  503 -0.00000000000E+00 -0.00000000000E+00 -0.51963500475E+03  0.51963500475E+03  0.00000000000E+00 0.  1.
         25    2    1    2    0    0  0.24994480565E+02 -0.67197238060E+01 -0.49545160263E+03  0.51163235883E+03  0.12500200520E+03 0.  0.
          5    1    3    3  501    0 -0.23078063701E+01 -0.63817973630E+02 -0.22612850352E+03  0.23497270019E+03  0.10000000000E+00 0. -1.
         -5    1    3    3    0  501  0.27302286935E+02  0.57098249824E+02 -0.26932309911E+03  0.27665965864E+03  0.10000000000E+00 0. -1.
         21    1    1    2  504  503 -0.24994480565E+02  0.67197238060E+01 -0.56866711460E+01  0.26499376889E+02  0.00000000000E+00 0.  1.
<mgrwt>
<rscale>  1 0.12765336E+03</rscale>
<asrwt>0</asrwt>
<pdfrwt beam="1">  1       21 0.28456514E-02 0.12765336E+03</pdfrwt>
<pdfrwt beam="2">  1       21 0.79943833E-01 0.12765336E+03</pdfrwt>
<totfact> 0.95535061E+05</totfact>
</mgrwt>
</event>
<event>
 6    1  0.4261782E-002  0.1260576E+03  0.7546771E-02  0.1233426E+00
         21   -1    0    0  503  502  0.00000000000E+00  0.00000000000E+00  0.42065941418E+02  0.42065941418E+02  0.00000000000E+00 0. -1.
         21   -1    0    0  504  503 -0.00000000000E+00 -0.00000000000E+00 -0.19015542548E+03  0.19015542548E+03  0.00000000000E+00 0. -1.
         25    2    1    2    0    0 -0.11903441707E+02 -0.10849738412E+02 -0.16580221638E+03  0.20828082317E+03  0.12502446799E+03 0.  0.
          5    1    3    3  501    0 -0.52476286144E+02  0.18778366328E+02 -0.29598111924E+02  0.63106623099E+02  0.10000000000E+00 0. -1.
         -5    1    3    3    0  501  0.40572844438E+02 -0.29628104741E+02 -0.13620410445E+03  0.14517420007E+03  0.10000000000E+00 0. -1.
         21    1    1    2  504  502  0.11903441707E+02  0.10849738412E+02  0.17712732313E+02  0.23940543730E+02  0.00000000000E+00 0. -1.
<mgrwt>
<rscale>  1 0.12605763E+03</rscale>
<asrwt>0</asrwt>
<pdfrwt beam="1">  1       21 0.64716831E-02 0.12605763E+03</pdfrwt>
<pdfrwt beam="2">  1       21 0.29254682E-01 0.12605763E+03</pdfrwt>
<totfact> 0.19267673E+06</totfact>
</mgrwt>
</event>
<event>
 6    1  0.4261782E-002  0.1305847E+03  0.7546771E-02  0.1226591E+00
         21   -1    0    0  504  502  0.00000000000E+00  0.00000000000E+00  0.65494900959E+03  0.65494900959E+03  0.00000000000E+00 0.  1.
         21   -1    0    0  502  503 -0.00000000000E+00 -0.00000000000E+00 -0.17390624761E+02  0.17390624761E+02  0.00000000000E+00 0.  1.
         25    2    1    2    0    0  0.33616481022E+02  0.17302073336E+02  0.24205018459E+03  0.27502846412E+03  0.12499173843E+03 0.  0.
          5    1    3    3  501    0 -0.12146509281E+02 -0.32551234165E+02  0.17964531986E+03  0.18297423720E+03  0.10000000000E+00 0.  1.
         -5    1    3    3    0  501  0.45762990304E+02  0.49853307500E+02  0.62404864734E+02  0.92054226914E+02  0.10000000000E+00 0.  1.
         21    1    1    2  504  503 -0.33616481022E+02 -0.17302073336E+02  0.39550820023E+03  0.39731117023E+03  0.00000000000E+00 0.  1.
<mgrwt>
<rscale>  1 0.13058470E+03</rscale>
<asrwt>0</asrwt>
<pdfrwt beam="1">  1       21 0.10076137E+00 0.13058470E+03</pdfrwt>
<pdfrwt beam="2">  1       21 0.26754812E-02 0.13058470E+03</pdfrwt>
<totfact> 0.62235970E+05</totfact>
</mgrwt>
</event>
<event>
 6    1  0.4261782E-002  0.1308889E+03  0.7546771E-02  0.1226143E+00
         21   -1    0    0  503  502  0.00000000000E+00  0.00000000000E+00  0.86232278683E+02  0.86232278683E+02  0.00000000000E+00 0. -1.
         21   -1    0    0  504  503 -0.00000000000E+00 -0.00000000000E+00 -0.19706746401E+03  0.19706746401E+03  0.00000000000E+00 0. -1.
         25    2    1    2    0    0  0.35693697326E+02  0.15246237219E+02 -0.16876247774E+03  0.21357127660E+03  0.12500171405E+03 0.  0.
          5    1    3    3  501    0 -0.20990560975E+02 -0.43381684999E+02 -0.49430521594E+02  0.69035937804E+02  0.10000000000E+00 0.  1.
         -5    1    3    3    0  501  0.56684258301E+02  0.58627922218E+02 -0.11933195615E+03  0.14453533879E+03  0.10000000000E+00 0.  1.
         21    1    1    2  504  502 -0.35693697326E+02 -0.15246237219E+02  0.57927292412E+02  0.69728466097E+02  0.00000000000E+00 0. -1.
<mgrwt>
<rscale>  1 0.13088895E+03</rscale>
<asrwt>0</asrwt>
<pdfrwt beam="1">  1       21 0.13266504E-01 0.13088895E+03</pdfrwt>
<pdfrwt beam="2">  1       21 0.30318071E-01 0.13088895E+03</pdfrwt>
<totfact> 0.51552379E+05</totfact>
</mgrwt>
</event>
<event>
 6    1  0.4261782E-002  0.1272234E+03  0.7546771E-02  0.1231635E+00
         21   -1    0    0  504  502  0.00000000000E+00  0.00000000000E+00  0.78635412247E+02  0.78635412247E+02  0.00000000000E+00 0. -1.
         21   -1    0    0  502  503 -0.00000000000E+00 -0.00000000000E+00 -0.21980876147E+03  0.21980876147E+03  0.00000000000E+00 0.  1.
         25    2    1    2    0    0  0.14928838575E+02  0.18390203415E+02 -0.19886533015E+03  0.23607884308E+03  0.12499892325E+03 0.  0.
          5    1    3    3  501    0 -0.15555812208E+02 -0.35981464884E+02 -0.15494122530E+03  0.15982315980E+03  0.10000000000E+00 0. -1.
         -5    1    3    3    0  501  0.30484650783E+02  0.54371668299E+02 -0.43924104843E+02  0.76255683285E+02  0.10000000000E+00 0. -1.
         21    1    1    2  504  503 -0.14928838575E+02 -0.18390203415E+02  0.57691980922E+02  0.62365330638E+02  0.00000000000E+00 0. -1.
<mgrwt>
<rscale>  1 0.12722343E+03</rscale>
<asrwt>0</asrwt>
<pdfrwt beam="1">  1       21 0.12097756E-01 0.12722343E+03</pdfrwt>
<pdfrwt beam="2">  1       21 0.33816732E-01 0.12722343E+03</pdfrwt>
<totfact> 0.49137273E+05</totfact>
</mgrwt>
</event>
<event>
 6    1  0.4261782E-002  0.1840091E+03  0.7546771E-02  0.1163978E+00
         21   -1    0    0  503  502  0.00000000000E+00  0.00000000000E+00  0.18388444839E+04  0.18388444839E+04  0.00000000000E+00 0. -1.
         21   -1    0    0  504  503 -0.00000000000E+00 -0.00000000000E+00 -0.15985547439E+02  0.15985547439E+02  0.00000000000E+00 0. -1.
         25    2    1    2    0    0  0.13083238405E+03 -0.33425029849E+02  0.69616376300E+03  0.72007174905E+03  0.12499997408E+03 0.  0.
          5    1    3    3  501    0 -0.65352507515E+00 -0.46423624267E+02  0.26776863846E+03  0.27176393014E+03  0.10000000000E+00 0.  1.
         -5    1    3    3    0  501  0.13148590913E+03  0.12998594419E+02  0.42839512454E+03  0.44830781890E+03  0.10000000000E+00 0.  1.
         21    1    1    2  504  502 -0.13083238405E+03  0.33425029849E+02  0.11266951734E+04  0.11347582823E+04  0.00000000000E+00 0. -1.
<mgrwt>
<rscale>  1 0.18400907E+03</rscale>
<asrwt>0</asrwt>
<pdfrwt beam="1">  1       21 0.28289898E+00 0.18400907E+03</pdfrwt>
<pdfrwt beam="2">  1       21 0.24593164E-02 0.18400907E+03</pdfrwt>
<totfact> 0.37887965E+04</totfact>
</mgrwt>
</event>
<event>
 6    1  0.4261782E-002  0.1403130E+03  0.7546771E-02  0.1212908E+00
         21   -1    0    0  504  502  0.00000000000E+00  0.00000000000E+00  0.41545957728E+03  0.41545957728E+03  0.00000000000E+00 0. -1.
         21   -1    0    0  502  503 -0.00000000000E+00 -0.00000000000E+00 -0.42897747788E+02  0.42897747788E+02  0.00000000000E+00 0. -1.
         25    2    1    2    0    0 -0.39356705327E+02 -0.50136772379E+02  0.85513792482E+02  0.16431783495E+03  0.12500038391E+03 0.  0.
          5    1    3    3  501    0 -0.35039016313E+02 -0.51925791677E+02  0.11687832861E+03  0.13260684072E+03  0.10000000000E+00 0. -1.
         -5    1    3    3    0  501 -0.43176890134E+01  0.17890192983E+01 -0.31364536130E+02  0.31710994231E+02  0.10000000000E+00 0. -1.
         21    1    1    2  504  503  0.39356705327E+02  0.50136772379E+02  0.28704803701E+03  0.29403949012E+03  0.00000000000E+00 0. -1.
<mgrwt>
<rscale>  1 0.14031301E+03</rscale>
<asrwt>0</asrwt>
<pdfrwt beam="1">  1       21 0.63916855E-01 0.14031301E+03</pdfrwt>
<pdfrwt beam="2">  1       21 0.65996538E-02 0.14031301E+03</pdfrwt>
<totfact> 0.38238526E+05</totfact>
</mgrwt>
</event>
<event>
 6    1  0.4261782E-002  0.1259685E+03  0.7546771E-02  0.1233563E+00
         21   -1    0    0  503  502  0.00000000000E+00  0.00000000000E+00  0.22748343595E+03  0.22748343595E+03  0.00000000000E+00 0.  1.
         21   -1    0    0  504  503 -0.00000000000E+00 -0.00000000000E+00 -0.22115185259E+02  0.22115185259E+02  0.00000000000E+00 0.  1.
         25    2    1    2    0    0 -0.62621706542E+00 -0.15495310087E+02  0.17669728978E+03  0.21700229041E+03  0.12501025975E+03 0.  0.
          5    1    3    3  501    0 -0.27137476741E+02  0.22855937369E+02  0.12889436484E+01  0.35503632105E+02  0.10000000000E+00 0. -1.
         -5    1    3    3    0  501  0.26511259676E+02 -0.38351247457E+02  0.17540834614E+03  0.18149865830E+03  0.10000000000E+00 0. -1.
         21    1    1    2  504  502  0.62621706542E+00  0.15495310087E+02  0.28670960904E+02  0.32596330800E+02  0.00000000000E+00 0. -1.
<mgrwt>
<rscale>  1 0.12596850E+03</rscale>
<asrwt>0</asrwt>
<pdfrwt beam="1">  1       21 0.34997450E-01 0.12596850E+03</pdfrwt>
<pdfrwt beam="2">  1       21 0.34023364E-02 0.12596850E+03</pdfrwt>
<totfact> 0.39903038E+06</totfact>
</mgrwt>
</event>
<event>
 6    1  0.4261782E-002  0.1265527E+03  0.7546771E-02  0.1232662E+00
         21   -1    0    0  504  502  0.00000000000E+00  0.00000000000E+00  0.36745314226E+02  0.36745314226E+02  0.00000000000E+00 0.  1.
         21   -1    0    0  502  503 -0.00000000000E+00 -0.00000000000E+00 -0.23192796910E+03  0.23192796910E+03  0.00000000000E+00 0.  1.
         25    2    1    2    0    0  0.44383791212E+00 -0.19661987288E+02 -0.20921547549E+03  0.24451317591E+03  0.12501514817E+03 0.  0.
          5    1    3    3  501    0 -0.23711712484E+01 -0.44195945706E+02 -0.12137109584E+02  0.45893610656E+02  0.10000000000E+00 0. -1.
         -5    1    3    3    0  501  0.28150091605E+01  0.24533958418E+02 -0.19707836591E+03  0.19861956525E+03  0.10000000000E+00 0. -1.
         21    1    1    2  504  503 -0.44383791212E+00  0.19661987288E+02  0.14032820615E+02  0.24160107421E+02  0.00000000000E+00 0.  1.
<mgrwt>
<rscale>  1 0.12655267E+03</rscale>
<asrwt>0</asrwt>
<pdfrwt beam="1">  1       21 0.56531252E-02 0.12655267E+03</pdfrwt>
<pdfrwt beam="2">  1       21 0.35681226E-01 0.12655267E+03</pdfrwt>
<totfact> 0.16471489E+06</totfact>
</mgrwt>
</event>
<event>
 6    1  0.4261782E-002  0.1266083E+03  0.7546771E-02  0.1232577E+00
         21   -1    0    0  504  502  0.00000000000E+00  0.00000000000E+00  0.18822687937E+03  0.18822687937E+03  0.00000000000E+00 0. -1.
         21   -1    0    0  502  503 -0.00000000000E+00 -0.00000000000E+00 -0.53747579154E+02  0.53747579154E+02  0.00000000000E+00 0. -1.
         25    2    1    2    0    0  0.11724308659E+02 -0.16282069027E+02  0.22970784164E+02  0.12867523374E+03  0.12500837439E+03 0.  0.
          5    1    3    3  501    0 -0.23318408616E+02  0.47368433563E+02  0.11483649360E+01  0.52809520170E+02  0.10000000000E+00 0.  1.
         -5    1    3    3    0  501  0.35042717276E+02 -0.63650502590E+02  0.21822419228E+02  0.75865713567E+02  0.10000000000E+00 0.  1.
         21    1    1    2  504  503 -0.11724308659E+02  0.16282069027E+02  0.11150851605E+03  0.11329922479E+03  0.00000000000E+00 0.  1.
<mgrwt>
<rscale>  1 0.12660829E+03</rscale>
<asrwt>0</asrwt>
<pdfrwt beam="1">  1       21 0.28957981E-01 0.12660829E+03</pdfrwt>
<pdfrwt beam="2">  1       21 0.82688584E-02 0.12660829E+03</pdfrwt>
<totfact> 0.12910280E+06</totfact>
</mgrwt>
</event>
<event>
 6    1  0.4261782E-002  0.1260774E+03  0.7546771E-02  0.1233395E+00
         21   -1    0    0  504  502  0.00000000000E+00  0.00000000000E+00  0.26916856068E+03  0.26916856068E+03  0.00000000000E+00 0.  1.
         21   -1    0    0  502  503 -0.00000000000E+00 -0.00000000000E+00 -0.34435439610E+03  0.34435439610E+03  0.00000000000E+00 0. -1.
         25    2    1    2    0    0  0.12623015114E+02  0.10608708717E+02 -0.33254162635E+03  0.35563947857E+03  0.12499448088E+03 0.  0.
          5    1    3    3  501    0  0.26598043311E+02 -0.20750434997E+02 -0.31552161377E+03  0.31731992565E+03  0.10000000000E+00 0. -1.
         -5    1    3    3    0  501 -0.13975028197E+02  0.31359143713E+02 -0.17020012578E+02  0.38319552916E+02  0.10000000000E+00 0. -1.
         21    1    1    2  504  503 -0.12623015114E+02 -0.10608708717E+02  0.25735579092E+03  0.25788347821E+03  0.00000000000E+00 0.  1.
<mgrwt>
<rscale>  1 0.12607738E+03</rscale>
<asrwt>0</asrwt>
<pdfrwt beam="1">  1       21 0.41410548E-01 0.12607738E+03</pdfrwt>
<pdfrwt beam="2">  1       21 0.52977599E-01 0.12607738E+03</pdfrwt>
<totfact> 0.19804316E+04</totfact>
</mgrwt>
</event>
<event>
 6    1  0.4261782E-002  0.1289330E+03  0.7546771E-02  0.1229048E+00
         21   -1    0    0  504  502  0.00000000000E+00  0.00000000000E+00  0.65072982820E+02  0.65072982820E+02  0.00000000000E+00 0.  1.
         21   -1    0    0  502  503 -0.00000000000E+00 -0.00000000000E+00 -0.11377259858E+03  0.11377259858E+03  0.00000000000E+00 0.  1.
         25    2    1    2    0    0  0.29707977502E+02  0.10598965325E+02 -0.63823564144E+02  0.14386507529E+03  0.12501524129E+03 0.  0.
          5    1    3    3  501    0  0.47233124338E+02  0.36977713561E+02 -0.86249888844E+02  0.10505890091E+03  0.10000000000E+00 0.  1.
         -5    1    3    3    0  501 -0.17525146836E+02 -0.26378748235E+02  0.22426324700E+02  0.38806174375E+02  0.10000000000E+00 0.  1.
         21    1    1    2  504  503 -0.29707977502E+02 -0.10598965325E+02  0.15123948385E+02  0.34980506114E+02  0.00000000000E+00 0.  1.
<mgrwt>
<rscale>  1 0.12893298E+03</rscale>
<asrwt>0</asrwt>
<pdfrwt beam="1">  1       21 0.10011228E-01 0.12893298E+03</pdfrwt>
<pdfrwt beam="2">  1       21 0.17503477E-01 0.12893298E+03</pdfrwt>
<totfact> 0.23757826E+06</totfact>
</mgrwt>
</event>
<event>
 6    1  0.4261782E-002  0.1346572E+03  0.7546771E-02  0.1220704E+00
         21   -1    0    0  504  502  0.00000000000E+00  0.00000000000E+00  0.17204459736E+02  0.17204459736E+02  0.00000000000E+00 0.  1.
         21   -1    0    0  502  503 -0.00000000000E+00 -0.00000000000E+00 -0.51514931392E+03  0.51514931392E+03  0.00000000000E+00 0.  1.
         25    2    1    2    0    0  0.25468719045E+02  0.43126143512E+02 -0.40461797990E+03  0.42643670531E+03  0.12499613622E+03 0.  0.
          5    1    3    3  501    0 -0.46669560197E+01 -0.37964483080E+02 -0.60229855662E+02  0.71349337538E+02  0.10000000000E+00 0. -1.
         -5    1    3    3    0  501  0.30135675065E+02  0.81090626592E+02 -0.34438812424E+03  0.35508736777E+03  0.10000000000E+00 0. -1.
         21    1    1    2  504  503 -0.25468719045E+02 -0.43126143512E+02 -0.93326874275E+02  0.10591706834E+03  0.00000000000E+00 0.  1.
<mgrwt>
<rscale>  1 0.13465717E+03</rscale>
<asrwt>0</asrwt>
<pdfrwt beam="1">  1       21 0.26468398E-02 0.13465717E+03</pdfrwt>
<pdfrwt beam="2">  1       21 0.79253747E-01 0.13465717E+03</pdfrwt>
<totfact> 0.10965058E+06</totfact>
</mgrwt>
</event>
<event>
 6    1  0.4261782E-002  0.1287486E+03  0.7546771E-02  0.1229325E+00
         21   -1    0    0  503  502  0.00000000000E+00  0.00000000000E+00  0.85662663126E+02  0.85662663126E+02  0.00000000000E+00 0.  1.
         21   -1    0    0  504  503 -0.00000000000E+00 -0.00000000000E+00 -0.85391640459E+02  0.85391640459E+02  0.00000000000E+00 0.  1.
         25    2    1    2    0    0 -0.30820210121E+02 -0.12616640188E+01 -0.25030188300E+02  0.13115908552E+03  0.12499887296E+03 0.  0.
          5    1    3    3  501    0 -0.42194181555E+02  0.54215370919E+02  0.12866555897E+01  0.68711868579E+02  0.10000000000E+00 0.  1.
         -5    1    3    3    0  501  0.11373971434E+02 -0.55477034938E+02 -0.26316843889E+02  0.62447216943E+02  0.10000000000E+00 0.  1.
         21    1    1    2  504  502  0.30820210121E+02  0.12616640188E+01  0.25301210966E+02  0.39895218064E+02  0.00000000000E+00 0.  1.
<mgrwt>
<rscale>  1 0.12874857E+03</rscale>
<asrwt>0</asrwt>
<pdfrwt beam="1">  1       21 0.13178871E-01 0.12874857E+03</pdfrwt>
<pdfrwt beam="2">  1       21 0.13137175E-01 0.12874857E+03</pdfrwt>
<totfact> 0.24535743E+06</totfact>
</mgrwt>
</event>
<event>
 6    1  0.4261782E-002  0.1291851E+03  0.7546771E-02  0.1228670E+00
         21   -1    0    0  504  502  0.00000000000E+00  0.00000000000E+00  0.28798146517E+03  0.28798146517E+03  0.00000000000E+00 0. -1.
         21   -1    0    0  502  503 -0.00000000000E+00 -0.00000000000E+00 -0.23903234545E+02  0.23903234545E+02  0.00000000000E+00 0. -1.
         25    2    1    2    0    0  0.31942424675E+02 -0.66328349727E+01  0.17885570607E+03  0.22063125219E+03  0.12499789140E+03 0.  0.
          5    1    3    3  501    0 -0.32969666719E+02  0.20721830949E+02  0.12788853385E+03  0.13368575201E+03  0.10000000000E+00 0. -1.
         -5    1    3    3    0  501  0.64912091393E+02 -0.27354665922E+02  0.50967172226E+02  0.86945500179E+02  0.10000000000E+00 0. -1.
         21    1    1    2  504  503 -0.31942424675E+02  0.66328349727E+01  0.85222524556E+02  0.91253447527E+02  0.00000000000E+00 0. -1.
<mgrwt>
<rscale>  1 0.12918508E+03</rscale>
<asrwt>0</asrwt>
<pdfrwt beam="1">  1       21 0.44304838E-01 0.12918508E+03</pdfrwt>
<pdfrwt beam="2">  1       21 0.36774209E-02 0.12918508E+03</pdfrwt>
<totfact> 0.21946557E+06</totfact>
</mgrwt>
</event>
<event>
 6    1  0.4261782E-002  0.1325487E+03  0.7546771E-02  0.1223722E+00
         21   -1    0    0  503  502  0.00000000000E+00  0.00000000000E+00  0.12179848039E+03  0.12179848039E+03  0.00000000000E+00 0.  1.
         21   -1    0    0  504  503 -0.00000000000E+00 -0.00000000000E+00 -0.64115371530E+03  0.64115371530E+03  0.00000000000E+00 0. -1.
         25    2    1    2    0    0 -0.81536688146E+01  0.43241481916E+02 -0.63004486563E+03  0.64383669535E+03  0.12503139405E+03 0.  0.
          5    1    3    3  501    0 -0.64319015037E+02  0.19617594765E+02 -0.24761759305E+03  0.25658579093E+03  0.10000000000E+00 0.  1.
         -5    1    3    3    0  501  0.56165346223E+02  0.23623887150E+02 -0.38242727258E+03  0.38725090442E+03  0.10000000000E+00 0.  1.
         21    1    1    2  504  502  0.81536688146E+01 -0.43241481916E+02  0.11068963072E+03  0.11911550035E+03  0.00000000000E+00 0.  1.
<mgrwt>
<rscale>  1 0.13254870E+03</rscale>
<asrwt>0</asrwt>
<pdfrwt beam="1">  1       21 0.18738228E-01 0.13254870E+03</pdfrwt>
<pdfrwt beam="2">  1       21 0.98639033E-01 0.13254870E+03</pdfrwt>
<totfact> 0.22978223E+04</totfact>
</mgrwt>
</event>
<event>
 6    1  0.4261782E-002  0.1273249E+03  0.7546771E-02  0.1231480E+00
         21   -1    0    0  503  502  0.00000000000E+00  0.00000000000E+00  0.99892987549E+03  0.99892987549E+03  0.00000000000E+00 0. -1.
         21   -1    0    0  504  503 -0.00000000000E+00 -0.00000000000E+00 -0.82984593030E+01  0.82984593030E+01  0.00000000000E+00 0. -1.
         25    2    1    2    0    0 -0.13520549630E+02 -0.20092694126E+02  0.49857210070E+03  0.51457339310E+03  0.12500046267E+03 0.  0.
          5    1    3    3  501    0  0.30673545657E+02 -0.58704337207E+02  0.21411071097E+03  0.22412155667E+03  0.10000000000E+00 0. -1.
         -5    1    3    3    0  501 -0.44194095287E+02  0.38611643081E+02  0.28446138973E+03  0.29045183644E+03  0.10000000000E+00 0. -1.
         21    1    1    2  504  502  0.13520549630E+02  0.20092694126E+02  0.49205931548E+03  0.49265494169E+03  0.00000000000E+00 0. -1.
<mgrwt>
<rscale>  1 0.12732493E+03</rscale>
<asrwt>0</asrwt>
<pdfrwt beam="1">  1       21 0.15368142E+00 0.12732493E+03</pdfrwt>
<pdfrwt beam="2">  1       21 0.12766868E-02 0.12732493E+03</pdfrwt>
<totfact> 0.72304585E+05</totfact>
</mgrwt>
</event>
<event>
 6    1  0.4261782E-002  0.1266569E+03  0.7546771E-02  0.1232502E+00
         21   -1    0    0  504  502  0.00000000000E+00  0.00000000000E+00  0.27804357527E+02  0.27804357527E+02  0.00000000000E+00 0.  1.
         21   -1    0    0  502  503 -0.00000000000E+00 -0.00000000000E+00 -0.29472955412E+03  0.29472955412E+03  0.00000000000E+00 0.  1.
         25    2    1    2    0    0  0.63807095487E+01 -0.19393440642E+02 -0.27323636480E+03  0.30116454482E+03  0.12500061207E+03 0.  0.
          5    1    3    3  501    0 -0.44972867024E+02  0.74354129992E+01 -0.21206761773E+03  0.21691133817E+03  0.10000000000E+00 0. -1.
         -5    1    3    3    0  501  0.51353576572E+02 -0.26828853641E+02 -0.61168747064E+02  0.84253206657E+02  0.10000000000E+00 0. -1.
         21    1    1    2  504  503 -0.63807095487E+01  0.19393440642E+02  0.63111682049E+01  0.21369366823E+02  0.00000000000E+00 0.  1.
<mgrwt>
<rscale>  1 0.12665691E+03</rscale>
<asrwt>0</asrwt>
<pdfrwt beam="1">  1       21 0.42775935E-02 0.12665691E+03</pdfrwt>
<pdfrwt beam="2">  1       21 0.45343008E-01 0.12665691E+03</pdfrwt>
<totfact> 0.16283424E+06</totfact>
</mgrwt>
</event>
<event>
 6    1  0.4261782E-002  0.1261937E+03  0.7546771E-02  0.1233215E+00
         21   -1    0    0  504  502  0.00000000000E+00  0.00000000000E+00  0.22468201119E+02  0.22468201119E+02  0.00000000000E+00 0.  1.
         21   -1    0    0  502  503 -0.00000000000E+00 -0.00000000000E+00 -0.36817155898E+03  0.36817155898E+03  0.00000000000E+00 0.  1.
         25    2    1    2    0    0  0.17275954446E+02  0.20948420823E+01 -0.35055215625E+03  0.37257438406E+03  0.12498804119E+03 0.  0.
          5    1    3    3  501    0  0.18969127317E+00  0.11371517408E+02  0.77385534915E+01  0.13756547571E+02  0.10000000000E+00 0.  1.
         -5    1    3    3    0  501  0.17086263173E+02 -0.92766753256E+01 -0.35829070974E+03  0.35881783649E+03  0.10000000000E+00 0.  1.
         21    1    1    2  504  503 -0.17275954446E+02 -0.20948420823E+01  0.48487983951E+01  0.18065376034E+02  0.00000000000E+00 0.  1.
<mgrwt>
<rscale>  1 0.12619373E+03</rscale>
<asrwt>0</asrwt>
<pdfrwt beam="1">  1       21 0.34566468E-02 0.12619373E+03</pdfrwt>
<pdfrwt beam="2">  1       21 0.56641771E-01 0.12619373E+03</pdfrwt>
<totfact> 0.14636075E+06</totfact>
</mgrwt>
</event>
<event>
 6    1  0.4261782E-002  0.2004280E+03  0.7546771E-02  0.1149378E+00
         21   -1    0    0  503  502  0.00000000000E+00  0.00000000000E+00  0.27804173962E+02  0.27804173962E+02  0.00000000000E+00 0.  1.
         21   -1    0    0  504  503 -0.00000000000E+00 -0.00000000000E+00 -0.17039534855E+04  0.17039534855E+04  0.00000000000E+00 0.  1.
         25    2    1    2    0    0  0.66360563066E+02 -0.14192211524E+03 -0.13998914938E+04  0.14141667386E+04  0.12500303667E+03 0.  0.
          5    1    3    3  501    0 -0.58518724376E+01  0.20927103526E+02 -0.18814163527E+03  0.18939237840E+03  0.10000000000E+00 0.  1.
         -5    1    3    3    0  501  0.72212435503E+02 -0.16284921877E+03 -0.12117498585E+04  0.12247743602E+04  0.10000000000E+00 0.  1.
         21    1    1    2  504  502 -0.66360563066E+02  0.14192211524E+03 -0.27625781781E+03  0.31759092088E+03  0.00000000000E+00 0.  1.
<mgrwt>
<rscale>  1 0.20042797E+03</rscale>
<asrwt>0</asrwt>
<pdfrwt beam="1">  1       21 0.42775636E-02 0.20042797E+03</pdfrwt>
<pdfrwt beam="2">  1       21 0.26214679E+00 0.20042797E+03</pdfrwt>
<totfact> 0.19629449E+04</totfact>
</mgrwt>
</event>
<event>
 6    1  0.4261782E-002  0.1338182E+03  0.7546771E-02  0.1221898E+00
         21   -1    0    0  503  502  0.00000000000E+00  0.00000000000E+00  0.21267929435E+02  0.21267929435E+02  0.00000000000E+00 0. -1.
         21   -1    0    0  504  503 -0.00000000000E+00 -0.00000000000E+00 -0.38770086286E+03  0.38770086286E+03  0.00000000000E+00 0. -1.
         25    2    1    2    0    0 -0.43000236948E+02  0.20835251397E+02 -0.26809381871E+03  0.29963577093E+03  0.12499668600E+03 0.  0.
          5    1    3    3  501    0 -0.46273207256E+02  0.51373095632E+02 -0.67231868308E+02  0.96439301017E+02  0.10000000000E+00 0. -1.
         -5    1    3    3    0  501  0.32729703082E+01 -0.30537844235E+02 -0.20086195041E+03  0.20319646992E+03  0.10000000000E+00 0. -1.
         21    1    1    2  504  502  0.43000236948E+02 -0.20835251397E+02 -0.98339114713E+02  0.10933302137E+03  0.00000000000E+00 0. -1.
<mgrwt>
<rscale>  1 0.13381816E+03</rscale>
<asrwt>0</asrwt>
<pdfrwt beam="1">  1       21 0.32719889E-02 0.13381816E+03</pdfrwt>
<pdfrwt beam="2">  1       21 0.59646291E-01 0.13381816E+03</pdfrwt>
<totfact> 0.14376611E+06</totfact>
</mgrwt>
</event>
<event>
 6    1  0.4261782E-002  0.1554959E+03  0.7546771E-02  0.1193878E+00
         21   -1    0    0  503  502  0.00000000000E+00  0.00000000000E+00  0.34416976329E+03  0.34416976329E+03  0.00000000000E+00 0. -1.
         21   -1    0    0  504  503 -0.00000000000E+00 -0.00000000000E+00 -0.84615765777E+02  0.84615765777E+02  0.00000000000E+00 0. -1.
         25    2    1    2    0    0 -0.14644732025E+02 -0.91320651153E+02  0.24098716676E+01  0.15551454459E+03  0.12500014637E+03 0.  0.
          5    1    3    3  501    0 -0.38474545062E+02 -0.23452196134E+01 -0.38721845291E+02  0.54636818863E+02  0.10000000000E+00 0.  1.
         -5    1    3    3    0  501  0.23829813037E+02 -0.88975431540E+02  0.41131716958E+02  0.10087772572E+03  0.10000000000E+00 0.  1.
         21    1    1    2  504  502  0.14644732025E+02  0.91320651153E+02  0.25714412585E+03  0.27327098448E+03  0.00000000000E+00 0. -1.
<mgrwt>
<rscale>  1 0.15549587E+03</rscale>
<asrwt>0</asrwt>
<pdfrwt beam="1">  1       21 0.52949194E-01 0.15549587E+03</pdfrwt>
<pdfrwt beam="2">  1       21 0.13017810E-01 0.15549587E+03</pdfrwt>
<totfact> 0.17337876E+05</totfact>
</mgrwt>
</event>
<event>
 6    1  0.4261782E-002  0.1307818E+03  0.7546771E-02  0.1226300E+00
         21   -1    0    0  503  502  0.00000000000E+00  0.00000000000E+00  0.24508602448E+03  0.24508602448E+03  0.00000000000E+00 0.  1.
         21   -1    0    0  504  503 -0.00000000000E+00 -0.00000000000E+00 -0.72119429044E+02  0.72119429044E+02  0.00000000000E+00 0.  1.
         25    2    1    2    0    0  0.36980354375E+02  0.10547330467E+02 -0.91229633792E+01  0.13109956909E+03  0.12500030306E+03 0.  0.
          5    1    3    3  501    0  0.53069097384E+02  0.14942725984E+02  0.47064294935E+02  0.72489116526E+02  0.10000000000E+00 0.  1.
         -5    1    3    3    0  501 -0.16088743010E+02 -0.43953955177E+01 -0.56187258314E+02  0.58610452568E+02  0.10000000000E+00 0.  1.
         21    1    1    2  504  502 -0.36980354375E+02 -0.10547330467E+02  0.18208955881E+03  0.18610588442E+03  0.00000000000E+00 0.  1.
<mgrwt>
<rscale>  1 0.13078176E+03</rscale>
<asrwt>0</asrwt>
<pdfrwt beam="1">  1       21 0.37705542E-01 0.13078176E+03</pdfrwt>
<pdfrwt beam="2">  1       21 0.11095297E-01 0.13078176E+03</pdfrwt>
<totfact> 0.46193040E+05</totfact>
</mgrwt>
</event>
<event>
 6    1  0.4261782E-002  0.1275216E+03  0.7546771E-02  0.1231180E+00
         21   -1    0    0  503  502  0.00000000000E+00  0.00000000000E+00  0.13407024759E+03  0.13407024759E+03  0.00000000000E+00 0.  1.
         21   -1    0    0  504  503 -0.00000000000E+00 -0.00000000000E+00 -0.14532678535E+03  0.14532678535E+03  0.00000000000E+00 0.  1.
         25    2    1    2    0    0  0.23424267768E+02 -0.93713199911E+01 -0.11555575104E+03  0.17208979251E+03  0.12500098851E+03 0.  0.
          5    1    3    3  501    0 -0.34264847097E+02 -0.37559390927E+02 -0.89224469723E+02  0.10269276309E+03  0.10000000000E+00 0.  1.
         -5    1    3    3    0  501  0.57689114865E+02  0.28188070935E+02 -0.26331281319E+02  0.69397029424E+02  0.10000000000E+00 0.  1.
         21    1    1    2  504  502 -0.23424267768E+02  0.93713199911E+01  0.10429921328E+03  0.10730724043E+03  0.00000000000E+00 0.  1.
<mgrwt>
<rscale>  1 0.12752163E+03</rscale>
<asrwt>0</asrwt>
<pdfrwt beam="1">  1       21 0.20626192E-01 0.12752163E+03</pdfrwt>
<pdfrwt beam="2">  1       21 0.22357967E-01 0.12752163E+03</pdfrwt>
<totfact> 0.41212593E+05</totfact>
</mgrwt>
</event>
<event>
 6    1  0.4261782E-002  0.1259424E+03  0.7546771E-02  0.1233604E+00
         21   -1    0    0  503  502  0.00000000000E+00  0.00000000000E+00  0.62233357718E+02  0.62233357718E+02  0.00000000000E+00 0. -1.
         21   -1    0    0  504  503 -0.00000000000E+00 -0.00000000000E+00 -0.92886404916E+02  0.92886404916E+02  0.00000000000E+00 0. -1.
         25    2    1    2    0    0  0.69526705381E+01 -0.13708373576E+02 -0.45344967898E+02  0.13385684497E+03  0.12500091879E+03 0.  0.
          5    1    3    3  501    0 -0.21573763719E+02  0.46928967472E+02 -0.42324083905E+02  0.66776443057E+02  0.10000000000E+00 0.  1.
         -5    1    3    3    0  501  0.28526434257E+02 -0.60637341048E+02 -0.30208839928E+01  0.67080401913E+02  0.10000000000E+00 0.  1.
         21    1    1    2  504  502 -0.69526705381E+01  0.13708373576E+02  0.14691920700E+02  0.21262917664E+02  0.00000000000E+00 0. -1.
<mgrwt>
<rscale>  1 0.12594240E+03</rscale>
<asrwt>0</asrwt>
<pdfrwt beam="1">  1       21 0.95743628E-02 0.12594240E+03</pdfrwt>
<pdfrwt beam="2">  1       21 0.14290216E-01 0.12594240E+03</pdfrwt>
<totfact> 0.37041347E+06</totfact>
</mgrwt>
</event>
<event>
 6    1  0.4261782E-002  0.1317746E+03  0.7546771E-02  0.1224846E+00
         21   -1    0    0  503  502  0.00000000000E+00  0.00000000000E+00  0.64323333837E+03  0.64323333837E+03  0.00000000000E+00 0.  1.
         21   -1    0    0  504  503 -0.00000000000E+00 -0.00000000000E+00 -0.35650265365E+02  0.35650265365E+02  0.00000000000E+00 0.  1.
         25    2    1    2    0    0  0.43650597268E+01  0.41475594321E+02  0.89891596672E+02  0.15951500309E+03  0.12500103354E+03 0.  0.
          5    1    3    3  501    0  0.53291301726E+02 -0.83831643043E+01  0.66970442119E+02  0.85995874326E+02  0.10000000000E+00 0.  1.
         -5    1    3    3    0  501 -0.48926242000E+02  0.49858758626E+02  0.22921154553E+02  0.73519128762E+02  0.10000000000E+00 0.  1.
         21    1    1    2  504  502 -0.43650597268E+01 -0.41475594321E+02  0.51769147633E+03  0.51936860065E+03  0.00000000000E+00 0.  1.
<mgrwt>
<rscale>  1 0.13177457E+03</rscale>
<asrwt>0</asrwt>
<pdfrwt beam="1">  1       21 0.98958967E-01 0.13177457E+03</pdfrwt>
<pdfrwt beam="2">  1       21 0.54846567E-02 0.13177457E+03</pdfrwt>
<totfact> 0.19725993E+05</totfact>
</mgrwt>
</event>
<event>
 6    1  0.4261782E-002  0.1277651E+03  0.7546771E-02  0.1230810E+00
         21   -1    0    0  503  502  0.00000000000E+00  0.00000000000E+00  0.24242102581E+03  0.24242102581E+03  0.00000000000E+00 0.  1.
         21   -1    0    0  504  503 -0.00000000000E+00 -0.00000000000E+00 -0.32954658621E+02  0.32954658621E+02  0.00000000000E+00 0.  1.
         25    2    1    2    0    0 -0.12332910226E+02  0.23348700104E+02  0.98542739454E+02  0.16135238128E+03  0.12500662773E+03 0.  0.
          5    1    3    3  501    0 -0.14068365352E+02 -0.72685730897E+01  0.12182451308E+03  0.12284939172E+03  0.10000000000E+00 0.  1.
         -5    1    3    3    0  501  0.17354551268E+01  0.30617273193E+02 -0.23281773625E+02  0.38502989565E+02  0.10000000000E+00 0.  1.
         21    1    1    2  504  502  0.12332910226E+02 -0.23348700104E+02  0.11092362774E+03  0.11402330315E+03  0.00000000000E+00 0.  1.
<mgrwt>
<rscale>  1 0.12776509E+03</rscale>
<asrwt>0</asrwt>
<pdfrwt beam="1">  1       21 0.37295541E-01 0.12776509E+03</pdfrwt>
<pdfrwt beam="2">  1       21 0.50699476E-02 0.12776509E+03</pdfrwt>
<totfact> 0.18136861E+06</totfact>
</mgrwt>
</event>
<event>
 6    1  0.4261782E-002  0.1567637E+03  0.7546771E-02  0.1192400E+00
         21   -1    0    0  504  502  0.00000000000E+00  0.00000000000E+00  0.14993453277E+02  0.14993453277E+02  0.00000000000E+00 0. -1.
         21   -1    0    0  502  503 -0.00000000000E+00 -0.00000000000E+00 -0.11236581571E+04  0.11236581571E+04  0.00000000000E+00 0. -1.
         25    2    1    2    0    0 -0.82239907216E+02  0.46801165973E+02 -0.82073008205E+03  0.83556730215E+03  0.12498438852E+03 0.  0.
          5    1    3    3  501    0  0.22017531460E+02  0.44728538579E+02 -0.19880146604E+03  0.20495718274E+03  0.10000000000E+00 0.  1.
         -5    1    3    3    0  501 -0.10425743868E+03  0.20726273939E+01 -0.62192861601E+03  0.63061011942E+03  0.10000000000E+00 0.  1.
         21    1    1    2  504  503  0.82239907216E+02 -0.46801165973E+02 -0.28793462179E+03  0.30308430824E+03  0.00000000000E+00 0. -1.
<mgrwt>
<rscale>  1 0.15676367E+03</rscale>
<asrwt>0</asrwt>
<pdfrwt beam="1">  1       21 0.23066853E-02 0.15676367E+03</pdfrwt>
<pdfrwt beam="2">  1       21 0.17287047E+00 0.15676367E+03</pdfrwt>
<totfact> 0.20190840E+05</totfact>
</mgrwt>
</event>
<event>
 6    1  0.4261782E-002  0.1274831E+03  0.7546771E-02  0.1231239E+00
         21   -1    0    0  504  502  0.00000000000E+00  0.00000000000E+00  0.45531826796E+03  0.45531826796E+03  0.00000000000E+00 0.  1.
         21   -1    0    0  502  503 -0.00000000000E+00 -0.00000000000E+00 -0.10605554976E+03  0.10605554976E+03  0.00000000000E+00 0.  1.
         25    2    1    2    0    0  0.14510211009E+01  0.24995866455E+02 -0.67233341342E+02  0.14412585019E+03  0.12500015881E+03 0.  0.
          5    1    3    3  501    0  0.26613481014E+02 -0.45364310337E+02 -0.24189152534E+02  0.57890613439E+02  0.10000000000E+00 0.  1.
         -5    1    3    3    0  501 -0.25162459913E+02  0.70360176792E+02 -0.43044188808E+02  0.86235236749E+02  0.10000000000E+00 0.  1.
         21    1    1    2  504  503 -0.14510211009E+01 -0.24995866455E+02  0.41649605954E+03  0.41724796754E+03  0.00000000000E+00 0.  1.
<mgrwt>
<rscale>  1 0.12748309E+03</rscale>
<asrwt>0</asrwt>
<pdfrwt beam="1">  1       21 0.70048963E-01 0.12748309E+03</pdfrwt>
<pdfrwt beam="2">  1       21 0.16316239E-01 0.12748309E+03</pdfrwt>
<totfact> 0.64172866E+04</totfact>
</mgrwt>
</event>
<event>
 6    1  0.4261782E-002  0.1446296E+03  0.7546771E-02  0.1207232E+00
         21   -1    0    0  503  502  0.00000000000E+00  0.00000000000E+00  0.23057197295E+03  0.23057197295E+03  0.00000000000E+00 0.  1.
         21   -1    0    0  504  503 -0.00000000000E+00 -0.00000000000E+00 -0.19659321804E+03  0.19659321804E+03  0.00000000000E+00 0. -1.
         25    2    1    2    0    0 -0.16153744166E+02  0.70946599256E+02 -0.16256252720E+03  0.21758742744E+03  0.12499339955E+03 0.  0.
          5    1    3    3  501    0  0.24502942318E+02  0.63511108950E+02 -0.22720602718E+02  0.71765527450E+02  0.10000000000E+00 0. -1.
         -5    1    3    3    0  501 -0.40656686484E+02  0.74354903057E+01 -0.13984192449E+03  0.14582189999E+03  0.10000000000E+00 0. -1.
         21    1    1    2  504  502  0.16153744166E+02 -0.70946599256E+02  0.19654128212E+03  0.20957776355E+03  0.00000000000E+00 0.  1.
<mgrwt>
<rscale>  1 0.14462957E+03</rscale>
<asrwt>0</asrwt>
<pdfrwt beam="1">  1       21 0.35472611E-01 0.14462957E+03</pdfrwt>
<pdfrwt beam="2">  1       21 0.30245110E-01 0.14462957E+03</pdfrwt>
<totfact> 0.81977140E+04</totfact>
</mgrwt>
</event>
<event>
 6    1  0.4261782E-002  0.1270853E+03  0.7546771E-02  0.1231846E+00
         21   -1    0    0  504  502  0.00000000000E+00  0.00000000000E+00  0.10849589598E+03  0.10849589598E+03  0.00000000000E+00 0.  1.
         21   -1    0    0  502  503 -0.00000000000E+00 -0.00000000000E+00 -0.60096055945E+03  0.60096055945E+03  0.00000000000E+00 0. -1.
         25    2    1    2    0    0  0.21065858475E+02  0.90552539447E+01 -0.59293574375E+03  0.60640207178E+03  0.12499963373E+03 0.  0.
          5    1    3    3  501    0  0.89914559943E+01 -0.58117671257E+02 -0.28063160677E+03  0.28672742930E+03  0.10000000000E+00 0.  1.
         -5    1    3    3    0  501  0.12074402481E+02  0.67172925202E+02 -0.31230413698E+03  0.31967464248E+03  0.10000000000E+00 0.  1.
         21    1    1    2  504  503 -0.21065858475E+02 -0.90552539447E+01  0.10047108028E+03  0.10305438365E+03  0.00000000000E+00 0.  1.
<mgrwt>
<rscale>  1 0.12708531E+03</rscale>
<asrwt>0</asrwt>
<pdfrwt beam="1">  1       21 0.16691676E-01 0.12708531E+03</pdfrwt>
<pdfrwt beam="2">  1       21 0.92455472E-01 0.12708531E+03</pdfrwt>
<totfact> 0.33105537E+04</totfact>
</mgrwt>
</event>
<event>
 6    1  0.4261782E-002  0.1309496E+03  0.7546771E-02  0.1226053E+00
         21   -1    0    0  503  502  0.00000000000E+00  0.00000000000E+00  0.50331732158E+03  0.50331732158E+03  0.00000000000E+00 0.  1.
         21   -1    0    0  504  503 -0.00000000000E+00 -0.00000000000E+00 -0.12756026240E+04  0.12756026240E+04  0.00000000000E+00 0. -1.
         25    2    1    2    0    0 -0.30627453689E+02  0.24166937598E+02 -0.12714787819E+04  0.12782042461E+04  0.12500288094E+03 0.  0.
          5    1    3    3  501    0 -0.69569618389E+02  0.34628970610E+02 -0.10645876249E+04  0.10674202164E+04  0.10000000000E+00 0. -1.
         -5    1    3    3    0  501  0.38942164700E+02 -0.10462033013E+02 -0.20689115697E+03  0.21078402966E+03  0.10000000000E+00 0. -1.
         21    1    1    2  504  502  0.30627453689E+02 -0.24166937598E+02  0.49919347944E+03  0.50071569948E+03  0.00000000000E+00 0.  1.
<mgrwt>
<rscale>  1 0.13094962E+03</rscale>
<asrwt>0</asrwt>
<pdfrwt beam="1">  1       21 0.77433435E-01 0.13094962E+03</pdfrwt>
<pdfrwt beam="2">  1       21 0.19624655E+00 0.13094962E+03</pdfrwt>
<totfact> 0.23138544E+02</totfact>
</mgrwt>
</event>
<event>
 6    1  0.4261782E-002  0.1262784E+03  0.7546771E-02  0.1233085E+00
         21   -1    0    0  503  502  0.00000000000E+00  0.00000000000E+00  0.14450880832E+04  0.14450880832E+04  0.00000000000E+00 0.  1.
         21   -1    0    0  504  503 -0.00000000000E+00 -0.00000000000E+00 -0.44202648408E+01  0.44202648408E+01  0.00000000000E+00 0.  1.
         25    2    1    2    0    0  0.12460792394E+02  0.12870223040E+02  0.93090554558E+03  0.93943140411E+03  0.12500125693E+03 0.  0.
          5    1    3    3  501    0  0.42660214763E+02  0.57770206570E+02  0.49578182617E+03  0.50095600590E+03  0.10000000000E+00 0. -1.
         -5    1    3    3    0  501 -0.30199422369E+02 -0.44899983530E+02  0.43512371941E+03  0.43847539820E+03  0.10000000000E+00 0. -1.
         21    1    1    2  504  502 -0.12460792394E+02 -0.12870223040E+02  0.50976227277E+03  0.51007694393E+03  0.00000000000E+00 0.  1.
<mgrwt>
<rscale>  1 0.12627838E+03</rscale>
<asrwt>0</asrwt>
<pdfrwt beam="1">  1       21 0.22232087E+00 0.12627838E+03</pdfrwt>
<pdfrwt beam="2">  1       21 0.68004190E-03 0.12627838E+03</pdfrwt>
<totfact> 0.69076442E+05</totfact>
</mgrwt>
</event>
<event>
 6    1  0.4261782E-002  0.1691119E+03  0.7546771E-02  0.1178777E+00
         21   -1    0    0  504  502  0.00000000000E+00  0.00000000000E+00  0.77374606338E+03  0.77374606338E+03  0.00000000000E+00 0. -1.
         21   -1    0    0  502  503 -0.00000000000E+00 -0.00000000000E+00 -0.25950336754E+02  0.25950336754E+02  0.00000000000E+00 0. -1.
         25    2    1    2    0    0  0.93097266823E+02  0.65637844755E+02  0.46690562499E+03  0.49658804170E+03  0.12499357087E+03 0.  0.
          5    1    3    3  501    0  0.10001478176E+03  0.46902844636E+02  0.19631016549E+03  0.22525657477E+03  0.10000000000E+00 0.  1.
         -5    1    3    3    0  501 -0.69175149339E+01  0.18735000119E+02  0.27059545950E+03  0.27133146693E+03  0.10000000000E+00 0.  1.
         21    1    1    2  504  503 -0.93097266823E+02 -0.65637844755E+02  0.28089010164E+03  0.30310835843E+03  0.00000000000E+00 0. -1.
<mgrwt>
<rscale>  1 0.16911186E+03</rscale>
<asrwt>0</asrwt>
<pdfrwt beam="1">  1       21 0.11903784E+00 0.16911186E+03</pdfrwt>
<pdfrwt beam="2">  1       21 0.39923601E-02 0.16911186E+03</pdfrwt>
<totfact> 0.21351478E+05</totfact>
</mgrwt>
</event>
<event>
 6    1  0.4261782E-002  0.1260299E+03  0.7546771E-02  0.1233468E+00
         21   -1    0    0  504  502  0.00000000000E+00  0.00000000000E+00  0.29029138842E+02  0.29029138842E+02  0.00000000000E+00 0.  1.
         21   -1    0    0  502  503 -0.00000000000E+00 -0.00000000000E+00 -0.52519122325E+03  0.52519122325E+03  0.00000000000E+00 0.  1.
         25    2    1    2    0    0  0.13678478850E+02 -0.86106662638E+01 -0.51453776854E+03  0.52974772177E+03  0.12498915595E+03 0.  0.
          5    1    3    3  501    0  0.36386680542E+02 -0.59780437696E+02 -0.29422439197E+03  0.30243295799E+03  0.10000000000E+00 0.  1.
         -5    1    3    3    0  501 -0.22708201691E+02  0.51169771433E+02 -0.22031337658E+03  0.22731476378E+03  0.10000000000E+00 0.  1.
         21    1    1    2  504  503 -0.13678478850E+02  0.86106662638E+01  0.18375684132E+02  0.24472640325E+02  0.00000000000E+00 0.  1.
<mgrwt>
<rscale>  1 0.12602989E+03</rscale>
<asrwt>0</asrwt>
<pdfrwt beam="1">  1       21 0.44660214E-02 0.12602989E+03</pdfrwt>
<pdfrwt beam="2">  1       21 0.80798648E-01 0.12602989E+03</pdfrwt>
<totfact> 0.44311838E+05</totfact>
</mgrwt>
</event>
<event>
 6    1  0.4261782E-002  0.1293453E+03  0.7546771E-02  0.1228430E+00
         21   -1    0    0  503  502  0.00000000000E+00  0.00000000000E+00  0.23216373199E+03  0.23216373199E+03  0.00000000000E+00 0.  1.
         21   -1    0    0  504  503 -0.00000000000E+00 -0.00000000000E+00 -0.28575000856E+02  0.28575000856E+02  0.00000000000E+00 0.  1.
         25    2    1    2    0    0 -0.26808390227E+02  0.19643723723E+02  0.16832308694E+03  0.21228018016E+03  0.12500259046E+03 0.  0.
          5    1    3    3  501    0 -0.36630566391E+02 -0.46256509533E+02  0.54137899062E+02  0.80077369981E+02  0.10000000000E+00 0. -1.
         -5    1    3    3    0  501  0.98221761638E+01  0.65900233256E+02  0.11418518788E+03  0.13220281018E+03  0.10000000000E+00 0. -1.
         21    1    1    2  504  502  0.26808390227E+02 -0.19643723723E+02  0.35265644194E+02  0.48458552689E+02  0.00000000000E+00 0.  1.
<mgrwt>
<rscale>  1 0.12934533E+03</rscale>
<asrwt>0</asrwt>
<pdfrwt beam="1">  1       21 0.35717496E-01 0.12934533E+03</pdfrwt>
<pdfrwt beam="2">  1       21 0.43961541E-02 0.12934533E+03</pdfrwt>
<totfact> 0.25089694E+06</totfact>
</mgrwt>
</event>
<event>
 6    1  0.4261782E-002  0.1818130E+03  0.7546771E-02  0.1166060E+00
         21   -1    0    0  504  502  0.00000000000E+00  0.00000000000E+00  0.45318922607E+03  0.45318922607E+03  0.00000000000E+00 0.  1.
         21   -1    0    0  502  503 -0.00000000000E+00 -0.00000000000E+00 -0.13442284601E+03  0.13442284601E+03  0.00000000000E+00 0. -1.
         25    2    1    2    0    0 -0.10147075500E+03  0.84468520748E+02 -0.56022377310E+02  0.19024843791E+03  0.12499886500E+03 0.  0.
          5    1    3    3  501    0 -0.99397166142E+02  0.19310414773E+02 -0.70611124399E+02  0.12344484454E+03  0.10000000000E+00 0. -1.
         -5    1    3    3    0  501 -0.20735888531E+01  0.65158105975E+02  0.14588747089E+02  0.66803593366E+02  0.10000000000E+00 0. -1.
         21    1    1    2  504  503  0.10147075500E+03 -0.84468520748E+02  0.37478875737E+03  0.39736363418E+03  0.00000000000E+00 0.  1.
<mgrwt>
<rscale>  1 0.18181298E+03</rscale>
<asrwt>0</asrwt>
<pdfrwt beam="1">  1       21 0.69721418E-01 0.18181298E+03</pdfrwt>
<pdfrwt beam="2">  1       21 0.20680438E-01 0.18181298E+03</pdfrwt>
<totfact> 0.40752563E+04</totfact>
</mgrwt>
</event>
<event>
 6    1  0.4261782E-002  0.1285281E+03  0.7546771E-02  0.1229656E+00
         21   -1    0    0  504  502  0.00000000000E+00  0.00000000000E+00  0.77631781686E+02  0.77631781686E+02  0.00000000000E+00 0. -1.
         21   -1    0    0  502  503 -0.00000000000E+00 -0.00000000000E+00 -0.11250512515E+03  0.11250512515E+03  0.00000000000E+00 0. -1.
         25    2    1    2    0    0  0.29532175365E+02 -0.46763799951E+01 -0.68085863948E+02  0.14544810032E+03  0.12500178841E+03 0.  0.
          5    1    3    3  501    0 -0.15589274545E+02 -0.82093440158E+01 -0.92404198895E+02  0.94068936337E+02  0.10000000000E+00 0. -1.
         -5    1    3    3    0  501  0.45121449910E+02  0.35329640207E+01  0.24318334947E+02  0.51379163980E+02  0.10000000000E+00 0. -1.
         21    1    1    2  504  503 -0.29532175365E+02  0.46763799951E+01  0.33212520481E+02  0.44688806522E+02  0.00000000000E+00 0. -1.
<mgrwt>
<rscale>  1 0.12852807E+03</rscale>
<asrwt>0</asrwt>
<pdfrwt beam="1">  1       21 0.11943351E-01 0.12852807E+03</pdfrwt>
<pdfrwt beam="2">  1       21 0.17308481E-01 0.12852807E+03</pdfrwt>
<totfact> 0.17773201E+06</totfact>
</mgrwt>
</event>
<event>
 6    1  0.4261782E-002  0.1276263E+03  0.7546771E-02  0.1231021E+00
         21   -1    0    0  503  502  0.00000000000E+00  0.00000000000E+00  0.15499949383E+03  0.15499949383E+03  0.00000000000E+00 0.  1.
         21   -1    0    0  504  503 -0.00000000000E+00 -0.00000000000E+00 -0.42887052580E+02  0.42887052580E+02  0.00000000000E+00 0.  1.
         25    2    1    2    0    0 -0.25026557093E+02  0.61692847937E+01  0.62791914240E+02  0.14223672144E+03  0.12499628713E+03 0.  0.
          5    1    3    3  501    0 -0.47076093765E+02  0.41742696531E+02 -0.44052283616E+01  0.63071604980E+02  0.10000000000E+00 0. -1.
         -5    1    3    3    0  501  0.22049536672E+02 -0.35573411737E+02  0.67197142602E+02  0.79165116459E+02  0.10000000000E+00 0. -1.
         21    1    1    2  504  502  0.25026557093E+02 -0.61692847937E+01  0.49320527008E+02  0.55649824970E+02  0.00000000000E+00 0. -1.
<mgrwt>
<rscale>  1 0.12762625E+03</rscale>
<asrwt>0</asrwt>
<pdfrwt beam="1">  1       21 0.23846076E-01 0.12762625E+03</pdfrwt>
<pdfrwt beam="2">  1       21 0.65980082E-02 0.12762625E+03</pdfrwt>
<totfact> 0.27505417E+06</totfact>
</mgrwt>
</event>
<event>
 6    1  0.4261782E-002  0.1289335E+03  0.7546771E-02  0.1229047E+00
         21   -1    0    0  503  502  0.00000000000E+00  0.00000000000E+00  0.25659366091E+04  0.25659366091E+04  0.00000000000E+00 0. -1.
         21   -1    0    0  504  503 -0.00000000000E+00 -0.00000000000E+00 -0.26199866791E+01  0.26199866791E+01  0.00000000000E+00 0. -1.
         25    2    1    2    0    0 -0.74105209511E+01  0.30702443418E+02  0.18150458801E+04  0.18196195759E+04  0.12500519377E+03 0.  0.
          5    1    3    3  501    0  0.52074107249E+02 -0.44413881521E+01  0.49132589774E+03  0.49409774981E+03  0.10000000000E+00 0. -1.
         -5    1    3    3    0  501 -0.59484628201E+02  0.35143831570E+02  0.13237199823E+04  0.13255218261E+04  0.10000000000E+00 0. -1.
         21    1    1    2  504  502  0.74105209511E+01 -0.30702443418E+02  0.74827074233E+03  0.74893701984E+03  0.00000000000E+00 0. -1.
<mgrwt>
<rscale>  1 0.12893353E+03</rscale>
<asrwt>0</asrwt>
<pdfrwt beam="1">  1       21 0.39475747E+00 0.12893353E+03</pdfrwt>
<pdfrwt beam="2">  1       21 0.40307692E-03 0.12893353E+03</pdfrwt>
<totfact> 0.15759790E+05</totfact>
</mgrwt>
</event>
<event>
 6    1  0.4261782E-002  0.1291545E+03  0.7546771E-02  0.1228716E+00
         21   -1    0    0  504  502  0.00000000000E+00  0.00000000000E+00  0.50421292554E+02  0.50421292554E+02  0.00000000000E+00 0.  1.
         21   -1    0    0  502  503 -0.00000000000E+00 -0.00000000000E+00 -0.15896310980E+03  0.15896310980E+03  0.00000000000E+00 0.  1.
         25    2    1    2    0    0 -0.62624837913E+01 -0.31881622600E+02 -0.11862523131E+03  0.17536482266E+03  0.12500087584E+03 0.  0.
          5    1    3    3  501    0 -0.39820209868E+02 -0.63102024861E+02 -0.40791639408E+02  0.85038123810E+02  0.10000000000E+00 0. -1.
         -5    1    3    3    0  501  0.33557726076E+02  0.31220402261E+02 -0.77833591907E+02  0.90326698854E+02  0.10000000000E+00 0. -1.
         21    1    1    2  504  503  0.62624837913E+01  0.31881622600E+02  0.10083414071E+02  0.34019579689E+02  0.00000000000E+00 0.  1.
<mgrwt>
<rscale>  1 0.12915446E+03</rscale>
<asrwt>0</asrwt>
<pdfrwt beam="1">  1       21 0.77571219E-02 0.12915446E+03</pdfrwt>
<pdfrwt beam="2">  1       21 0.24455863E-01 0.12915446E+03</pdfrwt>
<totfact> 0.19886519E+06</totfact>
</mgrwt>
</event>
<event>
 6    1  0.4261782E-002  0.1264070E+03  0.7546771E-02  0.1232887E+00
         21   -1    0    0  503  502  0.00000000000E+00  0.00000000000E+00  0.17076794860E+03  0.17076794860E+03  0.00000000000E+00 0.  1.
         21   -1    0    0  504  503 -0.00000000000E+00 -0.00000000000E+00 -0.21643313437E+04  0.21643313437E+04  0.00000000000E+00 0.  1.
         25    2    1    2    0    0 -0.47932515086E+01  0.18302390945E+02 -0.21619554407E+04  0.21656477247E+04  0.12498314678E+03 0.  0.
          5    1    3    3  501    0 -0.35181359611E+01 -0.52687255770E+02 -0.71230921172E+03  0.71426377992E+03  0.10000000000E+00 0.  1.
         -5    1    3    3    0  501 -0.12751155475E+01  0.70989646714E+02 -0.14496462290E+04  0.14513839448E+04  0.10000000000E+00 0.  1.
         21    1    1    2  504  502  0.47932515086E+01 -0.18302390945E+02  0.16839204557E+03  0.16945156767E+03  0.00000000000E+00 0.  1.
<mgrwt>
<rscale>  1 0.12640704E+03</rscale>
<asrwt>0</asrwt>
<pdfrwt beam="1">  1       21 0.26271994E-01 0.12640704E+03</pdfrwt>
<pdfrwt beam="2">  1       21 0.33297403E+00 0.12640704E+03</pdfrwt>
<totfact> 0.34384823E+02</totfact>
</mgrwt>
</event>
<event>
 6    1  0.4261782E-002  0.1278030E+03  0.7546771E-02  0.1230753E+00
         21   -1    0    0  503  502  0.00000000000E+00  0.00000000000E+00  0.42250522134E+02  0.42250522134E+02  0.00000000000E+00 0.  1.
         21   -1    0    0  504  503 -0.00000000000E+00 -0.00000000000E+00 -0.14275371132E+03  0.14275371132E+03  0.00000000000E+00 0.  1.
         25    2    1    2    0    0  0.17956775200E+02  0.19640393575E+02 -0.90381571936E+02  0.15653252871E+03  0.12500165264E+03 0.  0.
          5    1    3    3  501    0 -0.34981294255E+02  0.20702637367E+02 -0.95051300061E+02  0.10337818815E+03  0.10000000000E+00 0.  1.
         -5    1    3    3    0  501  0.52938069456E+02 -0.10622437922E+01  0.46697281251E+01  0.53154340560E+02  0.10000000000E+00 0.  1.
         21    1    1    2  504  502 -0.17956775200E+02 -0.19640393575E+02 -0.10121617250E+02  0.28471704745E+02  0.00000000000E+00 0.  1.
<mgrwt>
<rscale>  1 0.12780299E+03</rscale>
<asrwt>0</asrwt>
<pdfrwt beam="1">  1       21 0.65000804E-02 0.12780299E+03</pdfrwt>
<pdfrwt beam="2">  1       21 0.21962109E-01 0.12780299E+03</pdfrwt>
<totfact> 0.32918071E+06</totfact>
</mgrwt>
</event>
<event>
 6    1  0.4261782E-002  0.1317829E+03  0.7546771E-02  0.1224834E+00
         21   -1    0    0  504  502  0.00000000000E+00  0.00000000000E+00  0.91546543502E+02  0.91546543502E+02  0.00000000000E+00 0. -1.
         21   -1    0    0  502  503 -0.00000000000E+00 -0.00000000000E+00 -0.51166626223E+03  0.51166626223E+03  0.00000000000E+00 0.  1.
         25    2    1    2    0    0  0.34801428760E+02 -0.23012564225E+02 -0.49784819152E+03  0.51499470646E+03  0.12500403324E+03 0.  0.
          5    1    3    3  501    0  0.53208226954E+02 -0.33200902058E+02 -0.11036181820E+03  0.12693760763E+03  0.10000000000E+00 0. -1.
         -5    1    3    3    0  501 -0.18406798194E+02  0.10188337833E+02 -0.38748637332E+03  0.38805709884E+03  0.10000000000E+00 0. -1.
         21    1    1    2  504  503 -0.34801428760E+02  0.23012564225E+02  0.77728472794E+02  0.88218099270E+02  0.00000000000E+00 0. -1.
<mgrwt>
<rscale>  1 0.13178287E+03</rscale>
<asrwt>0</asrwt>
<pdfrwt beam="1">  1       21 0.14084084E-01 0.13178287E+03</pdfrwt>
<pdfrwt beam="2">  1       21 0.78717886E-01 0.13178287E+03</pdfrwt>
<totfact> 0.64567948E+04</totfact>
</mgrwt>
</event>
<event>
 6    1  0.4261782E-002  0.1322194E+03  0.7546771E-02  0.1224199E+00
         21   -1    0    0  503  502  0.00000000000E+00  0.00000000000E+00  0.10612232860E+02  0.10612232860E+02  0.00000000000E+00 0. -1.
         21   -1    0    0  504  503 -0.00000000000E+00 -0.00000000000E+00 -0.74659088089E+03  0.74659088089E+03  0.00000000000E+00 0. -1.
         25    2    1    2    0    0 -0.70970302118E+00  0.43121898853E+02 -0.60599426570E+03  0.62025078084E+03  0.12498791636E+03 0.  0.
          5    1    3    3  501    0 -0.98939236413E+01 -0.17826611489E+01  0.22332126322E+01  0.10298778785E+02  0.10000000000E+00 0. -1.
         -5    1    3    3    0  501  0.91842206201E+01  0.44904560001E+02 -0.60822747833E+03  0.60995200205E+03  0.10000000000E+00 0. -1.
         21    1    1    2  504  502  0.70970302118E+00 -0.43121898853E+02 -0.12998438233E+03  0.13695233291E+03  0.00000000000E+00 0. -1.
<mgrwt>
<rscale>  1 0.13221944E+03</rscale>
<asrwt>0</asrwt>
<pdfrwt beam="1">  1       21 0.16326508E-02 0.13221944E+03</pdfrwt>
<pdfrwt beam="2">  1       21 0.11486017E+00 0.13221944E+03</pdfrwt>
<totfact> 0.10126556E+06</totfact>
</mgrwt>
</event>
<event>
 6    1  0.4261782E-002  0.1269928E+03  0.7546771E-02  0.1231987E+00
         21   -1    0    0  504  502  0.00000000000E+00  0.00000000000E+00  0.88819406229E+02  0.88819406229E+02  0.00000000000E+00 0. -1.
         21   -1    0    0  502  503 -0.00000000000E+00 -0.00000000000E+00 -0.69323924016E+02  0.69323924016E+02  0.00000000000E+00 0. -1.
         25    2    1    2    0    0  0.18703481165E+02  0.12361080981E+02 -0.21065656382E+01  0.12701030916E+03  0.12499825792E+03 0.  0.
          5    1    3    3  501    0  0.37559537224E+02  0.23872805899E+02 -0.54374330978E+02  0.70265265723E+02  0.10000000000E+00 0. -1.
         -5    1    3    3    0  501 -0.18856056058E+02 -0.11511724918E+02  0.52267765339E+02  0.56745043433E+02  0.10000000000E+00 0. -1.
         21    1    1    2  504  503 -0.18703481165E+02 -0.12361080981E+02  0.21602047851E+02  0.31133021088E+02  0.00000000000E+00 0. -1.
<mgrwt>
<rscale>  1 0.12699284E+03</rscale>
<asrwt>0</asrwt>
<pdfrwt beam="1">  1       21 0.13664524E-01 0.12699284E+03</pdfrwt>
<pdfrwt beam="2">  1       21 0.10665219E-01 0.12699284E+03</pdfrwt>
<totfact> 0.33242364E+06</totfact>
</mgrwt>
</event>
<event>
 6    1  0.4261782E-002  0.1634077E+03  0.7546771E-02  0.1184902E+00
         21   -1    0    0  503  502  0.00000000000E+00  0.00000000000E+00  0.87105327801E+03  0.87105327801E+03  0.00000000000E+00 0. -1.
         21   -1    0    0  504  503 -0.00000000000E+00 -0.00000000000E+00 -0.20757926996E+02  0.20757926996E+02  0.00000000000E+00 0. -1.
         25    2    1    2    0    0  0.34783961373E+02  0.99329688701E+02  0.53691071013E+03  0.56122650456E+03  0.12500307094E+03 0.  0.
          5    1    3    3  501    0 -0.28484124446E+02  0.36062540013E+02  0.57848255843E+02  0.73880192486E+02  0.10000000000E+00 0.  1.
         -5    1    3    3    0  501  0.63268085819E+02  0.63267148688E+02  0.47906245429E+03  0.48734631207E+03  0.10000000000E+00 0.  1.
         21    1    1    2  504  502 -0.34783961373E+02 -0.99329688701E+02  0.31338464089E+03  0.33058470045E+03  0.00000000000E+00 0. -1.
<mgrwt>
<rscale>  1 0.16340771E+03</rscale>
<asrwt>0</asrwt>
<pdfrwt beam="1">  1       21 0.13400817E+00 0.16340771E+03</pdfrwt>
<pdfrwt beam="2">  1       21 0.31935279E-02 0.16340771E+03</pdfrwt>
<totfact> 0.23076679E+05</totfact>
</mgrwt>
</event>
<event>
 6    1  0.4261782E-002  0.1263680E+03  0.7546771E-02  0.1232947E+00
         21   -1    0    0  504  502  0.00000000000E+00  0.00000000000E+00  0.11956352870E+02  0.11956352870E+02  0.00000000000E+00 0.  1.
         21   -1    0    0  502  503 -0.00000000000E+00 -0.00000000000E+00 -0.44708168775E+03  0.44708168775E+03  0.00000000000E+00 0.  1.
         25    2    1    2    0    0  0.65804771181E+01 -0.17333305561E+02 -0.39731008799E+03  0.41692225904E+03  0.12500047161E+03 0.  0.
          5    1    3    3  501    0 -0.45070010609E+02 -0.48310222035E+02 -0.21480635907E+03  0.22473754761E+03  0.10000000000E+00 0. -1.
         -5    1    3    3    0  501  0.51650487727E+02  0.30976916474E+02 -0.18250372893E+03  0.19218471143E+03  0.10000000000E+00 0. -1.
         21    1    1    2  504  503 -0.65804771181E+01  0.17333305561E+02 -0.37815246883E+02  0.42115781574E+02  0.00000000000E+00 0. -1.
<mgrwt>
<rscale>  1 0.12636797E+03</rscale>
<asrwt>0</asrwt>
<pdfrwt beam="1">  1       21 0.18394392E-02 0.12636797E+03</pdfrwt>
<pdfrwt beam="2">  1       21 0.68781786E-01 0.12636797E+03</pdfrwt>
<totfact> 0.26988977E+06</totfact>
</mgrwt>
</event>
<event>
 6    1  0.4261782E-002  0.1271330E+03  0.7546771E-02  0.1231773E+00
         21   -1    0    0  504  502  0.00000000000E+00  0.00000000000E+00  0.26900671863E+03  0.26900671863E+03  0.00000000000E+00 0. -1.
         21   -1    0    0  502  503 -0.00000000000E+00 -0.00000000000E+00 -0.84129946365E+02  0.84129946365E+02  0.00000000000E+00 0. -1.
         25    2    1    2    0    0  0.21994171027E+02  0.73576603386E+01 -0.35140705078E+02  0.13190020990E+03  0.12499966998E+03 0.  0.
          5    1    3    3  501    0 -0.44501260735E+02  0.29823238489E+02 -0.30299216874E+02  0.61545432845E+02  0.10000000000E+00 0. -1.
         -5    1    3    3    0  501  0.66495431762E+02 -0.22465578151E+02 -0.48414882045E+01  0.70354777058E+02  0.10000000000E+00 0. -1.
         21    1    1    2  504  503 -0.21994171027E+02 -0.73576603386E+01  0.22001747734E+03  0.22123645509E+03  0.00000000000E+00 0. -1.
<mgrwt>
<rscale>  1 0.12713299E+03</rscale>
<asrwt>0</asrwt>
<pdfrwt beam="1">  1       21 0.41385648E-01 0.12713299E+03</pdfrwt>
<pdfrwt beam="2">  1       21 0.12943069E-01 0.12713299E+03</pdfrwt>
<totfact> 0.29213007E+05</totfact>
</mgrwt>
</event>
<event>
 6    1  0.4261782E-002  0.1261866E+03  0.7546771E-02  0.1233226E+00
         21   -1    0    0  503  502  0.00000000000E+00  0.00000000000E+00  0.84904324859E+02  0.84904324859E+02  0.00000000000E+00 0. -1.
         21   -1    0    0  504  503 -0.00000000000E+00 -0.00000000000E+00 -0.18091734897E+03  0.18091734897E+03  0.00000000000E+00 0. -1.
         25    2    1    2    0    0  0.14729034446E+02 -0.89955927534E+01 -0.15758224483E+03  0.20187924595E+03  0.12500080365E+03 0.  0.
          5    1    3    3  501    0  0.54412815023E+02 -0.11662207888E+02 -0.15181132410E+03  0.16168936161E+03  0.10000000000E+00 0. -1.
         -5    1    3    3    0  501 -0.39683780577E+02  0.26666151349E+01 -0.57709207316E+01  0.40189884340E+02  0.10000000000E+00 0. -1.
         21    1    1    2  504  502 -0.14729034446E+02  0.89955927534E+01  0.61569220715E+02  0.63942427888E+02  0.00000000000E+00 0. -1.
<mgrwt>
<rscale>  1 0.12618663E+03</rscale>
<asrwt>0</asrwt>
<pdfrwt beam="1">  1       21 0.13062204E-01 0.12618663E+03</pdfrwt>
<pdfrwt beam="2">  1       21 0.27833438E-01 0.12618663E+03</pdfrwt>
<totfact> 0.62476639E+05</totfact>
</mgrwt>
</event>
<event>
 6    1  0.4261782E-002  0.1932586E+03  0.7546771E-02  0.1155555E+00
         21   -1    0    0  503  502  0.00000000000E+00  0.00000000000E+00  0.55888251661E+02  0.55888251661E+02  0.00000000000E+00 0. -1.
         21   -1    0    0  504  503 -0.00000000000E+00 -0.00000000000E+00 -0.53665418137E+03  0.53665418137E+03  0.00000000000E+00 0. -1.
         25    2    1    2    0    0  0.10630996046E+03 -0.10208743258E+03 -0.21854362129E+03  0.29173653113E+03  0.12500095042E+03 0.  0.
          5    1    3    3  501    0  0.33658025726E+02  0.20653904684E+02 -0.13043216106E+02  0.41588243060E+02  0.10000000000E+00 0. -1.
         -5    1    3    3    0  501  0.72651934732E+02 -0.12274133727E+03 -0.20550040518E+03  0.25014828807E+03  0.10000000000E+00 0. -1.
         21    1    1    2  504  502 -0.10630996046E+03  0.10208743258E+03 -0.26222230842E+03  0.30080590190E+03  0.00000000000E+00 0. -1.
<mgrwt>
<rscale>  1 0.19325861E+03</rscale>
<asrwt>0</asrwt>
<pdfrwt beam="1">  1       21 0.85981928E-02 0.19325861E+03</pdfrwt>
<pdfrwt beam="2">  1       21 0.82562180E-01 0.19325861E+03</pdfrwt>
<totfact> 0.13547472E+05</totfact>
</mgrwt>
</event>
<event>
 6    1  0.4261782E-002  0.1350113E+03  0.7546771E-02  0.1220204E+00
         21   -1    0    0  504  502  0.00000000000E+00  0.00000000000E+00  0.11175326879E+03  0.11175326879E+03  0.00000000000E+00 0. -1.
         21   -1    0    0  502  503 -0.00000000000E+00 -0.00000000000E+00 -0.11749370483E+03  0.11749370483E+03  0.00000000000E+00 0. -1.
         25    2    1    2    0    0 -0.40990777819E+02  0.30382121956E+02 -0.66006679861E+02  0.15028282135E+03  0.12499890961E+03 0.  0.
          5    1    3    3  501    0  0.53050692269E+01  0.69273895637E+02 -0.55477826527E+02  0.88909029982E+02  0.10000000000E+00 0.  1.
         -5    1    3    3    0  501 -0.46295847046E+02 -0.38891773681E+02 -0.10528853334E+02  0.61373791363E+02  0.10000000000E+00 0.  1.
         21    1    1    2  504  503  0.40990777819E+02 -0.30382121956E+02  0.60266243816E+02  0.78964152274E+02  0.00000000000E+00 0. -1.
<mgrwt>
<rscale>  1 0.13501128E+03</rscale>
<asrwt>0</asrwt>
<pdfrwt beam="1">  1       21 0.17192811E-01 0.13501128E+03</pdfrwt>
<pdfrwt beam="2">  1       21 0.18075955E-01 0.13501128E+03</pdfrwt>
<totfact> 0.85354012E+05</totfact>
</mgrwt>
</event>
<event>
 6    1  0.4261782E-002  0.1281544E+03  0.7546771E-02  0.1230220E+00
         21   -1    0    0  503  502  0.00000000000E+00  0.00000000000E+00  0.10753798701E+03  0.10753798701E+03  0.00000000000E+00 0. -1.
         21   -1    0    0  504  503 -0.00000000000E+00 -0.00000000000E+00 -0.98585714584E+02  0.98585714584E+02  0.00000000000E+00 0. -1.
         25    2    1    2    0    0  0.19049097789E+02 -0.20833203484E+02 -0.52505083503E+02  0.13849310872E+03  0.12500666733E+03 0.  0.
          5    1    3    3  501    0 -0.12779262843E+01 -0.60954116429E+02 -0.67618114381E+02  0.91045355717E+02  0.10000000000E+00 0.  1.
         -5    1    3    3    0  501  0.20327024074E+02  0.40120912945E+02  0.15113030877E+02  0.47447753008E+02  0.10000000000E+00 0.  1.
         21    1    1    2  504  502 -0.19049097789E+02  0.20833203484E+02  0.61457355926E+02  0.67630592866E+02  0.00000000000E+00 0. -1.
<mgrwt>
<rscale>  1 0.12815443E+03</rscale>
<asrwt>0</asrwt>
<pdfrwt beam="1">  1       21 0.16544306E-01 0.12815443E+03</pdfrwt>
<pdfrwt beam="2">  1       21 0.15167033E-01 0.12815443E+03</pdfrwt>
<totfact> 0.12588547E+06</totfact>
</mgrwt>
</event>
<event>
 6    1  0.4261782E-002  0.1740919E+03  0.7546771E-02  0.1173647E+00
         21   -1    0    0  504  502  0.00000000000E+00  0.00000000000E+00  0.13868433358E+02  0.13868433358E+02  0.00000000000E+00 0. -1.
         21   -1    0    0  502  503 -0.00000000000E+00 -0.00000000000E+00 -0.17741268200E+04  0.17741268200E+04  0.00000000000E+00 0. -1.
         25    2    1    2    0    0  0.50254830188E+02  0.11026480063E+03 -0.13175631935E+04  0.13290149616E+04  0.12499649997E+03 0.  0.
          5    1    3    3  501    0  0.66188772631E+02  0.11584972664E+03 -0.79046894575E+03  0.80165034584E+03  0.10000000000E+00 0.  1.
         -5    1    3    3    0  501 -0.15933942443E+02 -0.55849260070E+01 -0.52709424776E+03  0.52736461575E+03  0.10000000000E+00 0.  1.
         21    1    1    2  504  503 -0.50254830188E+02 -0.11026480063E+03 -0.44269519314E+03  0.45898029178E+03  0.00000000000E+00 0. -1.
<mgrwt>
<rscale>  1 0.17409193E+03</rscale>
<asrwt>0</asrwt>
<pdfrwt beam="1">  1       21 0.21336059E-02 0.17409193E+03</pdfrwt>
<pdfrwt beam="2">  1       21 0.27294248E+00 0.17409193E+03</pdfrwt>
<totfact> 0.55002978E+04</totfact>
</mgrwt>
</event>
<event>
 6    1  0.4261782E-002  0.1262965E+03  0.7546771E-02  0.1233057E+00
         21   -1    0    0  504  502  0.00000000000E+00  0.00000000000E+00  0.41322910744E+03  0.41322910744E+03  0.00000000000E+00 0. -1.
         21   -1    0    0  502  503 -0.00000000000E+00 -0.00000000000E+00 -0.14608327479E+02  0.14608327479E+02  0.00000000000E+00 0. -1.
         25    2    1    2    0    0 -0.91632068158E+01  0.15565231777E+02  0.27147626463E+03  0.29941637521E+03  0.12499825072E+03 0.  0.
          5    1    3    3  501    0  0.20909114315E+02 -0.13563868658E+00  0.26380881548E+03  0.26463618533E+03  0.10000000000E+00 0.  1.
         -5    1    3    3    0  501 -0.30072321131E+02  0.15700870463E+02  0.76674491521E+01  0.34780189879E+02  0.10000000000E+00 0.  1.
         21    1    1    2  504  503  0.91632068158E+01 -0.15565231777E+02  0.12714451533E+03  0.12842105971E+03  0.00000000000E+00 0. -1.
<mgrwt>
<rscale>  1 0.12629649E+03</rscale>
<asrwt>0</asrwt>
<pdfrwt beam="1">  1       21 0.63573700E-01 0.12629649E+03</pdfrwt>
<pdfrwt beam="2">  1       21 0.22474353E-02 0.12629649E+03</pdfrwt>
<totfact> 0.23150191E+06</totfact>
</mgrwt>
</event>
<event>
 6    1  0.4261782E-002  0.1262874E+03  0.7546771E-02  0.1233071E+00
         21   -1    0    0  503  502  0.00000000000E+00  0.00000000000E+00  0.10791857346E+03  0.10791857346E+03  0.00000000000E+00 0.  1.
         21   -1    0    0  504  503 -0.00000000000E+00 -0.00000000000E+00 -0.10294782164E+03  0.10294782164E+03  0.00000000000E+00 0. -1.
         25    2    1    2    0    0 -0.51762052250E+01  0.17230876139E+02 -0.62592997826E+02  0.14094818246E+03  0.12499924227E+03 0.  0.
          5    1    3    3  501    0  0.38398030219E+02  0.46823691417E+02 -0.64197320881E+02  0.88250624988E+02  0.10000000000E+00 0. -1.
         -5    1    3    3    0  501 -0.43574235444E+02 -0.29592815278E+02  0.16043230548E+01  0.52697557467E+02  0.10000000000E+00 0. -1.
         21    1    1    2  504  502  0.51762052250E+01 -0.17230876139E+02  0.67563749645E+02  0.69918212643E+02  0.00000000000E+00 0.  1.
<mgrwt>
<rscale>  1 0.12628740E+03</rscale>
<asrwt>0</asrwt>
<pdfrwt beam="1">  1       21 0.16602858E-01 0.12628740E+03</pdfrwt>
<pdfrwt beam="2">  1       21 0.15838126E-01 0.12628740E+03</pdfrwt>
<totfact> 0.11564182E+06</totfact>
</mgrwt>
</event>
<event>
 6    1  0.4261782E-002  0.1263594E+03  0.7546771E-02  0.1232960E+00
         21   -1    0    0  504  502  0.00000000000E+00  0.00000000000E+00  0.10184687271E+03  0.10184687271E+03  0.00000000000E+00 0. -1.
         21   -1    0    0  502  503 -0.00000000000E+00 -0.00000000000E+00 -0.53281406977E+02  0.53281406977E+02  0.00000000000E+00 0. -1.
         25    2    1    2    0    0 -0.69829981909E+01  0.17093217400E+02  0.51463880835E+02  0.13643760942E+03  0.12500299952E+03 0.  0.
          5    1    3    3  501    0 -0.20801930175E+01 -0.48153221981E+02 -0.69861574456E+01  0.48701913576E+02  0.10000000000E+00 0. -1.
         -5    1    3    3    0  501 -0.49028051734E+01  0.65246439381E+02  0.58450038281E+02  0.87735695845E+02  0.10000000000E+00 0. -1.
         21    1    1    2  504  503  0.69829981909E+01 -0.17093217400E+02 -0.28984151036E+01  0.18690670265E+02  0.00000000000E+00 0. -1.
<mgrwt>
<rscale>  1 0.12635937E+03</rscale>
<asrwt>0</asrwt>
<pdfrwt beam="1">  1       21 0.15668750E-01 0.12635937E+03</pdfrwt>
<pdfrwt beam="2">  1       21 0.81971396E-02 0.12635937E+03</pdfrwt>
<totfact> 0.41085011E+06</totfact>
</mgrwt>
</event>
<event>
 6    1  0.4261782E-002  0.1344332E+03  0.7546771E-02  0.1221022E+00
         21   -1    0    0  504  502  0.00000000000E+00  0.00000000000E+00  0.43311341637E+02  0.43311341637E+02  0.00000000000E+00 0. -1.
         21   -1    0    0  502  503 -0.00000000000E+00 -0.00000000000E+00 -0.20139499118E+03  0.20139499118E+03  0.00000000000E+00 0. -1.
         25    2    1    2    0    0 -0.40875050165E+02 -0.27861157558E+02 -0.13353303036E+03  0.18948182079E+03  0.12500110554E+03 0.  0.
          5    1    3    3  501    0 -0.67133294945E+01  0.48293501984E+02 -0.33286560307E+02  0.59036736223E+02  0.10000000000E+00 0. -1.
         -5    1    3    3    0  501 -0.34161720670E+02 -0.76154659542E+02 -0.10024647005E+03  0.13044508457E+03  0.10000000000E+00 0. -1.
         21    1    1    2  504  503  0.40875050165E+02  0.27861157558E+02 -0.24550619181E+02  0.55224512027E+02  0.00000000000E+00 0. -1.
<mgrwt>
<rscale>  1 0.13443322E+03</rscale>
<asrwt>0</asrwt>
<pdfrwt beam="1">  1       21 0.66632835E-02 0.13443322E+03</pdfrwt>
<pdfrwt beam="2">  1       21 0.30983844E-01 0.13443322E+03</pdfrwt>
<totfact> 0.16433613E+06</totfact>
</mgrwt>
</event>
<event>
 6    1  0.4261782E-002  0.1310119E+03  0.7546771E-02  0.1225962E+00
         21   -1    0    0  504  502  0.00000000000E+00  0.00000000000E+00  0.51612744311E+02  0.51612744311E+02  0.00000000000E+00 0. -1.
         21   -1    0    0  502  503 -0.00000000000E+00 -0.00000000000E+00 -0.44160732828E+03  0.44160732828E+03  0.00000000000E+00 0. -1.
         25    2    1    2    0    0 -0.28133830004E+02 -0.27347888699E+02 -0.42245131963E+03  0.44229994793E+03  0.12499882829E+03 0.  0.
          5    1    3    3  501    0 -0.25287779943E+02  0.48451770906E+02 -0.15803884962E+03  0.16722240851E+03  0.10000000000E+00 0. -1.
         -5    1    3    3    0  501 -0.28460500613E+01 -0.75799659605E+02 -0.26441247000E+03  0.27507753941E+03  0.10000000000E+00 0. -1.
         21    1    1    2  504  503  0.28133830004E+02  0.27347888699E+02  0.32456735653E+02  0.50920124669E+02  0.00000000000E+00 0. -1.
<mgrwt>
<rscale>  1 0.13101193E+03</rscale>
<asrwt>0</asrwt>
<pdfrwt beam="1">  1       21 0.79404223E-02 0.13101193E+03</pdfrwt>
<pdfrwt beam="2">  1       21 0.67939588E-01 0.13101193E+03</pdfrwt>
<totfact> 0.24445225E+05</totfact>
</mgrwt>
</event>
<event>
 6    1  0.4261782E-002  0.1321364E+03  0.7546771E-02  0.1224320E+00
         21   -1    0    0  504  502  0.00000000000E+00  0.00000000000E+00  0.51309431021E+03  0.51309431021E+03  0.00000000000E+00 0. -1.
         21   -1    0    0  502  503 -0.00000000000E+00 -0.00000000000E+00 -0.39044347927E+02  0.39044347927E+02  0.00000000000E+00 0.  1.
         25    2    1    2    0    0  0.35121007724E+02 -0.24555494488E+02  0.77310194257E+02  0.15309116594E+03  0.12499432571E+03 0.  0.
          5    1    3    3  501    0 -0.42298643275E+01  0.16032498410E+02  0.92964448440E+02  0.94431623047E+02  0.10000000000E+00 0.  1.
         -5    1    3    3    0  501  0.39350872051E+02 -0.40587992898E+02 -0.15654254183E+02  0.58659542895E+02  0.10000000000E+00 0.  1.
         21    1    1    2  504  503 -0.35121007724E+02  0.24555494488E+02  0.39673976803E+03  0.39904749220E+03  0.00000000000E+00 0. -1.
<mgrwt>
<rscale>  1 0.13213644E+03</rscale>
<asrwt>0</asrwt>
<pdfrwt beam="1">  1       21 0.78937581E-01 0.13213644E+03</pdfrwt>
<pdfrwt beam="2">  1       21 0.60068231E-02 0.13213644E+03</pdfrwt>
<totfact> 0.28316915E+05</totfact>
</mgrwt>
</event>
<event>
 6    1  0.4261782E-002  0.1450693E+03  0.7546771E-02  0.1206666E+00
         21   -1    0    0  504  502  0.00000000000E+00  0.00000000000E+00  0.60188333796E+03  0.60188333796E+03  0.00000000000E+00 0. -1.
         21   -1    0    0  502  503 -0.00000000000E+00 -0.00000000000E+00 -0.19955973447E+02  0.19955973447E+02  0.00000000000E+00 0. -1.
         25    2    1    2    0    0 -0.51202602413E+02  0.52895105822E+02  0.40551009510E+03  0.43067798776E+03  0.12500197276E+03 0.  0.
          5    1    3    3  501    0 -0.45359806187E+02  0.23419017816E+02  0.42495225008E+02  0.66421506768E+02  0.10000000000E+00 0. -1.
         -5    1    3    3    0  501 -0.58427962258E+01  0.29476088006E+02  0.36301487010E+03  0.36425648099E+03  0.10000000000E+00 0. -1.
         21    1    1    2  504  503  0.51202602413E+02 -0.52895105822E+02  0.17641726941E+03  0.19116132365E+03  0.00000000000E+00 0. -1.
<mgrwt>
<rscale>  1 0.14506927E+03</rscale>
<asrwt>0</asrwt>
<pdfrwt beam="1">  1       21 0.92597423E-01 0.14506927E+03</pdfrwt>
<pdfrwt beam="2">  1       21 0.30701502E-02 0.14506927E+03</pdfrwt>
<totfact> 0.60358523E+05</totfact>
</mgrwt>
</event>
<event>
 6    1  0.4261782E-002  0.1697525E+03  0.7546771E-02  0.1178106E+00
         21   -1    0    0  503  502  0.00000000000E+00  0.00000000000E+00  0.37433742671E+03  0.37433742671E+03  0.00000000000E+00 0. -1.
         21   -1    0    0  504  503 -0.00000000000E+00 -0.00000000000E+00 -0.11141530777E+03  0.11141530777E+03  0.00000000000E+00 0. -1.
         25    2    1    2    0    0  0.62318189740E+01  0.11468744901E+03 -0.28850985712E+02  0.17218680660E+03  0.12499548177E+03 0.  0.
          5    1    3    3  501    0 -0.32846163937E+02  0.76711106132E+01 -0.45930754387E+02  0.56985617676E+02  0.10000000000E+00 0.  1.
         -5    1    3    3    0  501  0.39077982911E+02  0.10701633839E+03  0.17079768675E+02  0.11520118893E+03  0.10000000000E+00 0.  1.
         21    1    1    2  504  502 -0.62318189740E+01 -0.11468744901E+03  0.29177310465E+03  0.31356592787E+03  0.00000000000E+00 0. -1.
<mgrwt>
<rscale>  1 0.16975252E+03</rscale>
<asrwt>0</asrwt>
<pdfrwt beam="1">  1       21 0.57590373E-01 0.16975252E+03</pdfrwt>
<pdfrwt beam="2">  1       21 0.17140817E-01 0.16975252E+03</pdfrwt>
<totfact> 0.87735208E+04</totfact>
</mgrwt>
</event>
<event>
 6    1  0.4261782E-002  0.1407926E+03  0.7546771E-02  0.1212266E+00
         21   -1    0    0  503  502  0.00000000000E+00  0.00000000000E+00  0.42212056161E+02  0.42212056161E+02  0.00000000000E+00 0. -1.
         21   -1    0    0  504  503 -0.00000000000E+00 -0.00000000000E+00 -0.57706507231E+03  0.57706507231E+03  0.00000000000E+00 0. -1.
         25    2    1    2    0    0  0.64222987283E+02 -0.85010386214E+01 -0.53630489930E+03  0.55447768620E+03  0.12500279891E+03 0.  0.
          5    1    3    3  501    0  0.79003759171E+02  0.15220392213E+02 -0.18101501167E+03  0.19809012785E+03  0.10000000000E+00 0.  1.
         -5    1    3    3    0  501 -0.14780771888E+02 -0.23721430834E+02 -0.35528988763E+03  0.35638755835E+03  0.10000000000E+00 0.  1.
         21    1    1    2  504  502 -0.64222987283E+02  0.85010386214E+01  0.14518831497E+01  0.64799442265E+02  0.00000000000E+00 0. -1.
<mgrwt>
<rscale>  1 0.14079261E+03</rscale>
<asrwt>0</asrwt>
<pdfrwt beam="1">  1       21 0.64941624E-02 0.14079261E+03</pdfrwt>
<pdfrwt beam="2">  1       21 0.88779243E-01 0.14079261E+03</pdfrwt>
<totfact> 0.18974412E+05</totfact>
</mgrwt>
</event>
<event>
 6    1  0.4261782E-002  0.1271880E+03  0.7546771E-02  0.1231689E+00
         21   -1    0    0  503  502  0.00000000000E+00  0.00000000000E+00  0.21229604405E+03  0.21229604405E+03  0.00000000000E+00 0. -1.
         21   -1    0    0  504  503 -0.00000000000E+00 -0.00000000000E+00 -0.26793969089E+02  0.26793969089E+02  0.00000000000E+00 0. -1.
         25    2    1    2    0    0 -0.10980090733E+02 -0.20742180093E+02  0.15216415028E+03  0.19831970961E+03  0.12500391259E+03 0.  0.
          5    1    3    3  501    0  0.41319299053E+02  0.97827591704E+01  0.12487919699E+03  0.13190076077E+03  0.10000000000E+00 0.  1.
         -5    1    3    3    0  501 -0.52299389785E+02 -0.30524939263E+02  0.27284953285E+02  0.66418948838E+02  0.10000000000E+00 0.  1.
         21    1    1    2  504  502  0.10980090733E+02  0.20742180093E+02  0.33337924679E+02  0.40770303524E+02  0.00000000000E+00 0. -1.
<mgrwt>
<rscale>  1 0.12718797E+03</rscale>
<asrwt>0</asrwt>
<pdfrwt beam="1">  1       21 0.32660929E-01 0.12718797E+03</pdfrwt>
<pdfrwt beam="2">  1       21 0.41221492E-02 0.12718797E+03</pdfrwt>
<totfact> 0.33256890E+06</totfact>
</mgrwt>
</event>
<event>
 6    1  0.4261782E-002  0.1264702E+03  0.7546771E-02  0.1232789E+00
         21   -1    0    0  504  502  0.00000000000E+00  0.00000000000E+00  0.12717669588E+03  0.12717669588E+03  0.00000000000E+00 0. -1.
         21   -1    0    0  502  503 -0.00000000000E+00 -0.00000000000E+00 -0.10088175889E+03  0.10088175889E+03  0.00000000000E+00 0. -1.
         25    2    1    2    0    0  0.19164561504E+02 -0.14424499299E+01 -0.59763674685E+02  0.13987996690E+03  0.12500138899E+03 0.  0.
          5    1    3    3  501    0  0.69900399839E+02  0.47903962263E+01 -0.14383847216E+02  0.71525651723E+02  0.10000000000E+00 0.  1.
         -5    1    3    3    0  501 -0.50735838336E+02 -0.62328461562E+01 -0.45379827468E+02  0.68354315181E+02  0.10000000000E+00 0.  1.
         21    1    1    2  504  503 -0.19164561504E+02  0.14424499299E+01  0.86058611674E+02  0.88178487868E+02  0.00000000000E+00 0. -1.
<mgrwt>
<rscale>  1 0.12647019E+03</rscale>
<asrwt>0</asrwt>
<pdfrwt beam="1">  1       21 0.19565646E-01 0.12647019E+03</pdfrwt>
<pdfrwt beam="2">  1       21 0.15520271E-01 0.12647019E+03</pdfrwt>
<totfact> 0.88826480E+05</totfact>
</mgrwt>
</event>
<event>
 6    1  0.4261782E-002  0.1263721E+03  0.7546771E-02  0.1232940E+00
         21   -1    0    0  503  502  0.00000000000E+00  0.00000000000E+00  0.22629550255E+02  0.22629550255E+02  0.00000000000E+00 0.  1.
         21   -1    0    0  504  503 -0.00000000000E+00 -0.00000000000E+00 -0.23648322903E+03  0.23648322903E+03  0.00000000000E+00 0.  1.
         25    2    1    2    0    0  0.14620418967E+02 -0.11427100547E+02 -0.19697819501E+03  0.23403056986E+03  0.12500225213E+03 0.  0.
          5    1    3    3  501    0  0.19584652150E+02  0.83254781947E+00  0.13073897420E+02  0.23562438954E+02  0.10000000000E+00 0.  1.
         -5    1    3    3    0  501 -0.49642331832E+01 -0.12259648366E+02 -0.21005209243E+03  0.21046813090E+03  0.10000000000E+00 0.  1.
         21    1    1    2  504  502 -0.14620418967E+02  0.11427100547E+02 -0.16875483759E+02  0.25082209428E+02  0.00000000000E+00 0.  1.
<mgrwt>
<rscale>  1 0.12637206E+03</rscale>
<asrwt>0</asrwt>
<pdfrwt beam="1">  1       21 0.34814694E-02 0.12637206E+03</pdfrwt>
<pdfrwt beam="2">  1       21 0.36382033E-01 0.12637206E+03</pdfrwt>
<totfact> 0.35599092E+06</totfact>
</mgrwt>
</event>
<event>
 6    1  0.4261782E-002  0.1281152E+03  0.7546771E-02  0.1230280E+00
         21   -1    0    0  503  502  0.00000000000E+00  0.00000000000E+00  0.53360759443E+02  0.53360759443E+02  0.00000000000E+00 0. -1.
         21   -1    0    0  504  503 -0.00000000000E+00 -0.00000000000E+00 -0.15783426809E+03  0.15783426809E+03  0.00000000000E+00 0.  1.
         25    2    1    2    0    0 -0.28039760591E+02  0.14848291170E+01 -0.12296196108E+03  0.17757575084E+03  0.12500028209E+03 0.  0.
          5    1    3    3  501    0 -0.46354223623E+02  0.51975206118E+02 -0.45045217274E+02  0.82941049535E+02  0.10000000000E+00 0.  1.
         -5    1    3    3    0  501  0.18314463032E+02 -0.50490377001E+02 -0.77916743810E+02  0.94634701309E+02  0.10000000000E+00 0.  1.
         21    1    1    2  504  502  0.28039760591E+02 -0.14848291170E+01  0.18488452436E+02  0.33619276688E+02  0.00000000000E+00 0. -1.
<mgrwt>
<rscale>  1 0.12811520E+03</rscale>
<asrwt>0</asrwt>
<pdfrwt beam="1">  1       21 0.82093477E-02 0.12811520E+03</pdfrwt>
<pdfrwt beam="2">  1       21 0.24282195E-01 0.12811520E+03</pdfrwt>
<totfact> 0.18276019E+06</totfact>
</mgrwt>
</event>
<event>
 6    1  0.4261782E-002  0.1388067E+03  0.7546771E-02  0.1214944E+00
         21   -1    0    0  504  502  0.00000000000E+00  0.00000000000E+00  0.39203212568E+03  0.39203212568E+03  0.00000000000E+00 0.  1.
         21   -1    0    0  502  503 -0.00000000000E+00 -0.00000000000E+00 -0.27633798907E+02  0.27633798907E+02  0.00000000000E+00 0.  1.
         25    2    1    2    0    0 -0.60346335281E+02 -0.83219852975E+00  0.30445141346E+03  0.33460121304E+03  0.12499974347E+03 0.  0.
          5    1    3    3  501    0 -0.64882185321E+02  0.53389936066E+02  0.17268647007E+03  0.19204377154E+03  0.10000000000E+00 0.  1.
         -5    1    3    3    0  501  0.45358500399E+01 -0.54222134596E+02  0.13176494340E+03  0.14255744149E+03  0.10000000000E+00 0.  1.
         21    1    1    2  504  503  0.60346335281E+02  0.83219852975E+00  0.59946913308E+02  0.85064711552E+02  0.00000000000E+00 0.  1.
<mgrwt>
<rscale>  1 0.13880673E+03</rscale>
<asrwt>0</asrwt>
<pdfrwt beam="1">  1       21 0.60312631E-01 0.13880673E+03</pdfrwt>
<pdfrwt beam="2">  1       21 0.42513539E-02 0.13880673E+03</pdfrwt>
<totfact> 0.90976191E+05</totfact>
</mgrwt>
</event>
<event>
 6    1  0.4261782E-002  0.1462729E+03  0.7546771E-02  0.1205129E+00
         21   -1    0    0  504  502  0.00000000000E+00  0.00000000000E+00  0.45995419424E+03  0.45995419424E+03  0.00000000000E+00 0.  1.
         21   -1    0    0  502  503 -0.00000000000E+00 -0.00000000000E+00 -0.32273954472E+02  0.32273954472E+02  0.00000000000E+00 0.  1.
         25    2    1    2    0    0  0.72693238273E+02 -0.22094357183E+02  0.36673010647E+03  0.39482493389E+03  0.12499315947E+03 0.  0.
          5    1    3    3  501    0  0.24573876831E+02 -0.28370387679E+02  0.33443340462E+03  0.33653300945E+03  0.10000000000E+00 0. -1.
         -5    1    3    3    0  501  0.48119361442E+02  0.62760304963E+01  0.32296701849E+02  0.58291924438E+02  0.10000000000E+00 0. -1.
         21    1    1    2  504  503 -0.72693238273E+02  0.22094357183E+02  0.60950133297E+02  0.97403214828E+02  0.00000000000E+00 0.  1.
<mgrwt>
<rscale>  1 0.14627289E+03</rscale>
<asrwt>0</asrwt>
<pdfrwt beam="1">  1       21 0.70762179E-01 0.14627289E+03</pdfrwt>
<pdfrwt beam="2">  1       21 0.49652241E-02 0.14627289E+03</pdfrwt>
<totfact> 0.49632584E+05</totfact>
</mgrwt>
</event>
<event>
 6    1  0.4261782E-002  0.1308772E+03  0.7546771E-02  0.1226160E+00
         21   -1    0    0  503  502  0.00000000000E+00  0.00000000000E+00  0.11268322560E+03  0.11268322560E+03  0.00000000000E+00 0. -1.
         21   -1    0    0  504  503 -0.00000000000E+00 -0.00000000000E+00 -0.37900782836E+03  0.37900782836E+03  0.00000000000E+00 0. -1.
         25    2    1    2    0    0 -0.35482652312E+02 -0.15650442194E+02 -0.36388495351E+03  0.38670545022E+03  0.12499956353E+03 0.  0.
          5    1    3    3  501    0 -0.25258581811E+02 -0.12113375394E+02 -0.37207997810E+03  0.37313301907E+03  0.10000000000E+00 0. -1.
         -5    1    3    3    0  501 -0.10224070501E+02 -0.35370667999E+01  0.81950245916E+01  0.13572431146E+02  0.10000000000E+00 0. -1.
         21    1    1    2  504  502  0.35482652312E+02  0.15650442194E+02  0.97560350741E+02  0.10498560374E+03  0.00000000000E+00 0. -1.
<mgrwt>
<rscale>  1 0.13087722E+03</rscale>
<asrwt>0</asrwt>
<pdfrwt beam="1">  1       21 0.17335881E-01 0.13087722E+03</pdfrwt>
<pdfrwt beam="2">  1       21 0.58308897E-01 0.13087722E+03</pdfrwt>
<totfact> 0.85068052E+04</totfact>
</mgrwt>
</event>
<event>
 6    1  0.4261782E-002  0.1279746E+03  0.7546771E-02  0.1230492E+00
         21   -1    0    0  503  502  0.00000000000E+00  0.00000000000E+00  0.85657353575E+02  0.85657353575E+02  0.00000000000E+00 0. -1.
         21   -1    0    0  504  503 -0.00000000000E+00 -0.00000000000E+00 -0.70677221926E+02  0.70677221926E+02  0.00000000000E+00 0. -1.
         25    2    1    2    0    0 -0.25328283181E+02  0.10896941321E+02  0.14081608952E+02  0.12874703117E+03  0.12496896041E+03 0.  0.
          5    1    3    3  501    0  0.11639029343E+02 -0.50892367940E+02  0.21296162990E+02  0.56382946683E+02  0.10000000000E+00 0. -1.
         -5    1    3    3    0  501 -0.36967312523E+02  0.61789309261E+02 -0.72145540377E+01  0.72364084490E+02  0.10000000000E+00 0. -1.
         21    1    1    2  504  502  0.25328283181E+02 -0.10896941321E+02  0.89852269647E+00  0.27587544328E+02  0.00000000000E+00 0. -1.
<mgrwt>
<rscale>  1 0.12797463E+03</rscale>
<asrwt>0</asrwt>
<pdfrwt beam="1">  1       21 0.13178054E-01 0.12797463E+03</pdfrwt>
<pdfrwt beam="2">  1       21 0.10873419E-01 0.12797463E+03</pdfrwt>
<totfact> 0.34292839E+06</totfact>
</mgrwt>
</event>
<event>
 6    1  0.4261782E-002  0.1335468E+03  0.7546771E-02  0.1222286E+00
         21   -1    0    0  503  502  0.00000000000E+00  0.00000000000E+00  0.32504995380E+02  0.32504995380E+02  0.00000000000E+00 0. -1.
         21   -1    0    0  504  503 -0.00000000000E+00 -0.00000000000E+00 -0.27547646452E+03  0.27547646452E+03  0.00000000000E+00 0. -1.
         25    2    1    2    0    0  0.40338910211E+02 -0.24123975132E+02 -0.21554297282E+03  0.25356164491E+03  0.12500216312E+03 0.  0.
          5    1    3    3  501    0  0.55103229772E+02  0.55123271578E+01 -0.26053027442E+02  0.61200669285E+02  0.10000000000E+00 0.  1.
         -5    1    3    3    0  501 -0.14764319561E+02 -0.29636302290E+02 -0.18948994537E+03  0.19236097562E+03  0.10000000000E+00 0.  1.
         21    1    1    2  504  502 -0.40338910211E+02  0.24123975132E+02 -0.27428496328E+02  0.54419814994E+02  0.00000000000E+00 0. -1.
<mgrwt>
<rscale>  1 0.13354675E+03</rscale>
<asrwt>0</asrwt>
<pdfrwt beam="1">  1       21 0.50007684E-02 0.13354675E+03</pdfrwt>
<pdfrwt beam="2">  1       21 0.42380996E-01 0.13354675E+03</pdfrwt>
<totfact> 0.14389417E+06</totfact>
</mgrwt>
</event>
<event>
 6    1  0.4261782E-002  0.1271272E+03  0.7546771E-02  0.1231782E+00
         21   -1    0    0  503  502  0.00000000000E+00  0.00000000000E+00  0.11386518281E+04  0.11386518281E+04  0.00000000000E+00 0. -1.
         21   -1    0    0  504  503 -0.00000000000E+00 -0.00000000000E+00 -0.23684129048E+02  0.23684129048E+02  0.00000000000E+00 0.  1.
         25    2    1    2    0    0 -0.13831095362E+02  0.18568945051E+02  0.14805103468E+03  0.19514210855E+03  0.12500091496E+03 0.  0.
          5    1    3    3  501    0 -0.23835751195E+02 -0.12080616808E+02 -0.13824692439E+02  0.30086815360E+02  0.10000000000E+00 0. -1.
         -5    1    3    3    0  501  0.10004655834E+02  0.30649561859E+02  0.16187572712E+03  0.16505529319E+03  0.10000000000E+00 0. -1.
         21    1    1    2  504  502  0.13831095362E+02 -0.18568945051E+02  0.96691666442E+03  0.96719384864E+03  0.00000000000E+00 0. -1.
<mgrwt>
<rscale>  1 0.12712723E+03</rscale>
<asrwt>0</asrwt>
<pdfrwt beam="1">  1       21 0.17517716E+00 0.12712723E+03</pdfrwt>
<pdfrwt beam="2">  1       21 0.36437130E-02 0.12712723E+03</pdfrwt>
<totfact> 0.93354768E+04</totfact>
</mgrwt>
</event>
<event>
 6    1  0.4261782E-002  0.1392729E+03  0.7546771E-02  0.1214311E+00
         21   -1    0    0  503  502  0.00000000000E+00  0.00000000000E+00  0.12419900145E+03  0.12419900145E+03  0.00000000000E+00 0. -1.
         21   -1    0    0  504  503 -0.00000000000E+00 -0.00000000000E+00 -0.39962503674E+03  0.39962503674E+03  0.00000000000E+00 0.  1.
         25    2    1    2    0    0  0.26176342198E+02  0.55585002352E+02 -0.37878776432E+03  0.40358036724E+03  0.12498819563E+03 0.  0.
          5    1    3    3  501    0  0.55071949557E+02  0.79999610699E+02 -0.31265276896E+03  0.32739062491E+03  0.10000000000E+00 0.  1.
         -5    1    3    3    0  501 -0.28895607358E+02 -0.24414608347E+02 -0.66134995359E+02  0.76189742331E+02  0.10000000000E+00 0.  1.
         21    1    1    2  504  502 -0.26176342198E+02 -0.55585002352E+02  0.10336172903E+03  0.12024367096E+03  0.00000000000E+00 0. -1.
<mgrwt>
<rscale>  1 0.13927291E+03</rscale>
<asrwt>0</asrwt>
<pdfrwt beam="1">  1       21 0.19107539E-01 0.13927291E+03</pdfrwt>
<pdfrwt beam="2">  1       21 0.61480774E-01 0.13927291E+03</pdfrwt>
<totfact> 0.63334770E+04</totfact>
</mgrwt>
</event>
<event>
 6    1  0.4261782E-002  0.1300823E+03  0.7546771E-02  0.1227334E+00
         21   -1    0    0  503  502  0.00000000000E+00  0.00000000000E+00  0.31023446843E+03  0.31023446843E+03  0.00000000000E+00 0. -1.
         21   -1    0    0  504  503 -0.00000000000E+00 -0.00000000000E+00 -0.62102085370E+02  0.62102085370E+02  0.00000000000E+00 0.  1.
         25    2    1    2    0    0 -0.36008856935E+02 -0.14676712637E+00  0.88750890592E+01  0.13038467418E+03  0.12499894694E+03 0.  0.
          5    1    3    3  501    0 -0.19859308879E+02 -0.43616097487E+02 -0.40428692108E+02  0.62699643179E+02  0.10000000000E+00 0. -1.
         -5    1    3    3    0  501 -0.16149548057E+02  0.43469330361E+02  0.49303781167E+02  0.67685031003E+02  0.10000000000E+00 0. -1.
         21    1    1    2  504  502  0.36008856935E+02  0.14676712637E+00  0.23925729400E+03  0.24195187962E+03  0.00000000000E+00 0. -1.
<mgrwt>
<rscale>  1 0.13008227E+03</rscale>
<asrwt>0</asrwt>
<pdfrwt beam="1">  1       21 0.47728379E-01 0.13008227E+03</pdfrwt>
<pdfrwt beam="2">  1       21 0.95541672E-02 0.13008227E+03</pdfrwt>
<totfact> 0.37332208E+05</totfact>
</mgrwt>
</event>
<event>
 6    1  0.4261782E-002  0.1298025E+03  0.7546771E-02  0.1227749E+00
         21   -1    0    0  504  502  0.00000000000E+00  0.00000000000E+00  0.18110309820E+03  0.18110309820E+03  0.00000000000E+00 0.  1.
         21   -1    0    0  502  503 -0.00000000000E+00 -0.00000000000E+00 -0.47332072034E+02  0.47332072034E+02  0.00000000000E+00 0.  1.
         25    2    1    2    0    0  0.33954577590E+02 -0.83939953696E+01  0.52611216509E+02  0.14005934095E+03  0.12500122555E+03 0.  0.
          5    1    3    3  501    0  0.11890025398E+02  0.56746514542E+02  0.39202366349E+02  0.69988392924E+02  0.10000000000E+00 0. -1.
         -5    1    3    3    0  501  0.22064552191E+02 -0.65140509912E+02  0.13408850161E+02  0.70070948029E+02  0.10000000000E+00 0. -1.
         21    1    1    2  504  503 -0.33954577590E+02  0.83939953696E+01  0.81159809655E+02  0.88375829279E+02  0.00000000000E+00 0.  1.
<mgrwt>
<rscale>  1 0.12980246E+03</rscale>
<asrwt>0</asrwt>
<pdfrwt beam="1">  1       21 0.27862015E-01 0.12980246E+03</pdfrwt>
<pdfrwt beam="2">  1       21 0.72818573E-02 0.12980246E+03</pdfrwt>
<totfact> 0.17308415E+06</totfact>
</mgrwt>
</event>
<event>
 6    1  0.4261782E-002  0.1423752E+03  0.7546771E-02  0.1210168E+00
         21   -1    0    0  504  502  0.00000000000E+00  0.00000000000E+00  0.78715994803E+02  0.78715994803E+02  0.00000000000E+00 0.  1.
         21   -1    0    0  502  503 -0.00000000000E+00 -0.00000000000E+00 -0.19050759692E+03  0.19050759692E+03  0.00000000000E+00 0.  1.
         25    2    1    2    0    0 -0.38648500691E+02 -0.56128109421E+02 -0.13601116832E+03  0.19690029907E+03  0.12500647421E+03 0.  0.
          5    1    3    3  501    0  0.24476344552E+02  0.21176554410E+02 -0.70338845708E+02  0.77428038299E+02  0.10000000000E+00 0. -1.
         -5    1    3    3    0  501 -0.63124845243E+02 -0.77304663831E+02 -0.65672322608E+02  0.11947226077E+03  0.10000000000E+00 0. -1.
         21    1    1    2  504  503  0.38648500691E+02  0.56128109421E+02  0.24219566202E+02  0.72323292651E+02  0.00000000000E+00 0.  1.
<mgrwt>
<rscale>  1 0.14237517E+03</rscale>
<asrwt>0</asrwt>
<pdfrwt beam="1">  1       21 0.12110153E-01 0.14237517E+03</pdfrwt>
<pdfrwt beam="2">  1       21 0.29308861E-01 0.14237517E+03</pdfrwt>
<totfact> 0.64697626E+05</totfact>
</mgrwt>
</event>
<event>
 6    1  0.4261782E-002  0.1324563E+03  0.7546771E-02  0.1223856E+00
         21   -1    0    0  504  502  0.00000000000E+00  0.00000000000E+00  0.75802539670E+02  0.75802539670E+02  0.00000000000E+00 0. -1.
         21   -1    0    0  502  503 -0.00000000000E+00 -0.00000000000E+00 -0.22948091294E+03  0.22948091294E+03  0.00000000000E+00 0. -1.
         25    2    1    2    0    0 -0.40890704522E+02  0.15759468059E+02 -0.20104352460E+03  0.24075541134E+03  0.12499703499E+03 0.  0.
          5    1    3    3  501    0  0.27640741028E+02  0.14138483665E+02 -0.15523143167E+03  0.15830576321E+03  0.10000000000E+00 0. -1.
         -5    1    3    3    0  501 -0.68531445549E+02  0.16209843938E+01 -0.45812092926E+02  0.82449648136E+02  0.10000000000E+00 0. -1.
         21    1    1    2  504  503  0.40890704522E+02 -0.15759468059E+02  0.47365151328E+02  0.64528041269E+02  0.00000000000E+00 0. -1.
<mgrwt>
<rscale>  1 0.13245629E+03</rscale>
<asrwt>0</asrwt>
<pdfrwt beam="1">  1       21 0.11661929E-01 0.13245629E+03</pdfrwt>
<pdfrwt beam="2">  1       21 0.35304755E-01 0.13245629E+03</pdfrwt>
<totfact> 0.48169440E+05</totfact>
</mgrwt>
</event>
<event>
 6    1  0.4261782E-002  0.1273430E+03  0.7546771E-02  0.1231452E+00
         21   -1    0    0  504  502  0.00000000000E+00  0.00000000000E+00  0.33675349218E+02  0.33675349218E+02  0.00000000000E+00 0.  1.
         21   -1    0    0  502  503 -0.00000000000E+00 -0.00000000000E+00 -0.17096450511E+03  0.17096450511E+03  0.00000000000E+00 0.  1.
         25    2    1    2    0    0  0.22896510292E+02  0.82004292352E+01 -0.11780354673E+03  0.17347599405E+03  0.12499899066E+03 0.  0.
          5    1    3    3  501    0  0.98698141498E+01  0.36161091736E+02 -0.13364318308E+03  0.13880038966E+03  0.10000000000E+00 0. -1.
         -5    1    3    3    0  501  0.13026696142E+02 -0.27960662501E+02  0.15839636347E+02  0.34675604385E+02  0.10000000000E+00 0. -1.
         21    1    1    2  504  503 -0.22896510292E+02 -0.82004292352E+01 -0.19485609156E+02  0.31163860277E+02  0.00000000000E+00 0.  1.
<mgrwt>
<rscale>  1 0.12734302E+03</rscale>
<asrwt>0</asrwt>
<pdfrwt beam="1">  1       21 0.51808228E-02 0.12734302E+03</pdfrwt>
<pdfrwt beam="2">  1       21 0.26302232E-01 0.12734302E+03</pdfrwt>
<totfact> 0.34412246E+06</totfact>
</mgrwt>
</event>
<event>
 6    1  0.4261782E-002  0.1260995E+03  0.7546771E-02  0.1233361E+00
         21   -1    0    0  503  502  0.00000000000E+00  0.00000000000E+00  0.58832062854E+03  0.58832062854E+03  0.00000000000E+00 0.  1.
         21   -1    0    0  504  503 -0.00000000000E+00 -0.00000000000E+00 -0.93569690820E+01  0.93569690820E+01  0.00000000000E+00 0.  1.
         25    2    1    2    0    0 -0.15560797599E+02  0.58858173512E+01  0.43972429915E+03  0.45744785496E+03  0.12499719788E+03 0.  0.
          5    1    3    3  501    0 -0.27953529303E+02  0.58210194744E+02  0.31621237259E+03  0.32273844078E+03  0.10000000000E+00 0.  1.
         -5    1    3    3    0  501  0.12392731704E+02 -0.52324377393E+02  0.12351192656E+03  0.13470941419E+03  0.10000000000E+00 0.  1.
         21    1    1    2  504  502  0.15560797599E+02 -0.58858173512E+01  0.13923936030E+03  0.14022974266E+03  0.00000000000E+00 0.  1.
<mgrwt>
<rscale>  1 0.12609949E+03</rscale>
<asrwt>0</asrwt>
<pdfrwt beam="1">  1       21 0.90510837E-01 0.12609949E+03</pdfrwt>
<pdfrwt beam="2">  1       21 0.14395342E-02 0.12609949E+03</pdfrwt>
<totfact> 0.21675132E+06</totfact>
</mgrwt>
</event>
<event>
 6    1  0.4261782E-002  0.1507374E+03  0.7546771E-02  0.1199570E+00
         21   -1    0    0  503  502  0.00000000000E+00  0.00000000000E+00  0.50204567073E+03  0.50204567073E+03  0.00000000000E+00 0.  1.
         21   -1    0    0  504  503 -0.00000000000E+00 -0.00000000000E+00 -0.64842741770E+02  0.64842741770E+02  0.00000000000E+00 0.  1.
         25    2    1    2    0    0  0.77853708064E+01  0.83872777162E+02  0.33399915915E+02  0.15439340878E+03  0.12500606203E+03 0.  0.
          5    1    3    3  501    0 -0.40929138025E+02  0.86295486864E+02  0.41210303830E+00  0.95510655015E+02  0.10000000000E+00 0.  1.
         -5    1    3    3    0  501  0.48714508831E+02 -0.24227097020E+01  0.32987812876E+02  0.58882753768E+02  0.10000000000E+00 0.  1.
         21    1    1    2  504  502 -0.77853708064E+01 -0.83872777162E+02  0.40380301304E+03  0.41249500371E+03  0.00000000000E+00 0.  1.
<mgrwt>
<rscale>  1 0.15073742E+03</rscale>
<asrwt>0</asrwt>
<pdfrwt beam="1">  1       21 0.77237793E-01 0.15073742E+03</pdfrwt>
<pdfrwt beam="2">  1       21 0.99758068E-02 0.15073742E+03</pdfrwt>
<totfact> 0.12322387E+05</totfact>
</mgrwt>
</event>
<event>
 6    1  0.4261782E-002  0.1536358E+03  0.7546771E-02  0.1196075E+00
         21   -1    0    0  504  502  0.00000000000E+00  0.00000000000E+00  0.31697216698E+02  0.31697216698E+02  0.00000000000E+00 0. -1.
         21   -1    0    0  502  503 -0.00000000000E+00 -0.00000000000E+00 -0.47856073523E+03  0.47856073523E+03  0.00000000000E+00 0. -1.
         25    2    1    2    0    0  0.86330325881E+02 -0.22875684130E+02 -0.32163592023E+03  0.35644581500E+03  0.12501092654E+03 0.  0.
          5    1    3    3  501    0  0.94536582116E+02 -0.55174887114E+02 -0.17774049597E+03  0.20874177214E+03  0.10000000000E+00 0. -1.
         -5    1    3    3    0  501 -0.82062562353E+01  0.32299202984E+02 -0.14389542426E+03  0.14770404286E+03  0.10000000000E+00 0. -1.
         21    1    1    2  504  503 -0.86330325881E+02  0.22875684130E+02 -0.12522759830E+03  0.15381213693E+03  0.00000000000E+00 0. -1.
<mgrwt>
<rscale>  1 0.15363578E+03</rscale>
<asrwt>0</asrwt>
<pdfrwt beam="1">  1       21 0.48764952E-02 0.15363578E+03</pdfrwt>
<pdfrwt beam="2">  1       21 0.73624723E-01 0.15363578E+03</pdfrwt>
<totfact> 0.46843670E+05</totfact>
</mgrwt>
</event>
<event>
 6    1  0.4261782E-002  0.1261860E+03  0.7546771E-02  0.1233227E+00
         21   -1    0    0  504  502  0.00000000000E+00  0.00000000000E+00  0.11516998865E+03  0.11516998865E+03  0.00000000000E+00 0. -1.
         21   -1    0    0  502  503 -0.00000000000E+00 -0.00000000000E+00 -0.45922693287E+02  0.45922693287E+02  0.00000000000E+00 0. -1.
         25    2    1    2    0    0  0.11610930607E+02  0.12735529118E+02  0.51313169814E+02  0.13622020175E+03  0.12500357818E+03 0.  0.
          5    1    3    3  501    0  0.23405102697E+02  0.23945800112E+02 -0.34970020437E+02  0.48416035615E+02  0.10000000000E+00 0. -1.
         -5    1    3    3    0  501 -0.11794172090E+02 -0.11210270995E+02  0.86283190251E+02  0.87804166137E+02  0.10000000000E+00 0. -1.
         21    1    1    2  504  503 -0.11610930607E+02 -0.12735529118E+02  0.17934125552E+02  0.24872480190E+02  0.00000000000E+00 0. -1.
<mgrwt>
<rscale>  1 0.12618598E+03</rscale>
<asrwt>0</asrwt>
<pdfrwt beam="1">  1       21 0.17718460E-01 0.12618598E+03</pdfrwt>
<pdfrwt beam="2">  1       21 0.70650298E-02 0.12618598E+03</pdfrwt>
<totfact> 0.42415300E+06</totfact>
</mgrwt>
</event>
<event>
 6    1  0.4261782E-002  0.1270853E+03  0.7546771E-02  0.1231846E+00
         21   -1    0    0  503  502  0.00000000000E+00  0.00000000000E+00  0.14643991502E+04  0.14643991502E+04  0.00000000000E+00 0.  1.
         21   -1    0    0  504  503 -0.00000000000E+00 -0.00000000000E+00 -0.11642404359E+02  0.11642404359E+02  0.00000000000E+00 0.  1.
         25    2    1    2    0    0 -0.22954050342E+02  0.69255944480E-01  0.33884132700E+03  0.36188965577E+03  0.12499513932E+03 0.  0.
          5    1    3    3  501    0 -0.21592051843E+02  0.50426386819E+02  0.27575489560E+03  0.28115797986E+03  0.10000000000E+00 0. -1.
         -5    1    3    3    0  501 -0.13619984988E+01 -0.50357130875E+02  0.63086431391E+02  0.80731675912E+02  0.10000000000E+00 0. -1.
         21    1    1    2  504  502  0.22954050342E+02 -0.69255944480E-01  0.11139154189E+04  0.11141518988E+04  0.00000000000E+00 0.  1.
<mgrwt>
<rscale>  1 0.12708532E+03</rscale>
<asrwt>0</asrwt>
<pdfrwt beam="1">  1       21 0.22529203E+00 0.12708532E+03</pdfrwt>
<pdfrwt beam="2">  1       21 0.17911403E-02 0.12708532E+03</pdfrwt>
<totfact> 0.14343146E+05</totfact>
</mgrwt>
</event>
<event>
 6    1  0.4261782E-002  0.1259788E+03  0.7546771E-02  0.1233547E+00
         21   -1    0    0  504  502  0.00000000000E+00  0.00000000000E+00  0.45183515478E+03  0.45183515478E+03  0.00000000000E+00 0.  1.
         21   -1    0    0  502  503 -0.00000000000E+00 -0.00000000000E+00 -0.11456133025E+02  0.11456133025E+02  0.00000000000E+00 0.  1.
         25    2    1    2    0    0  0.13881111480E+02  0.72818144923E+01  0.36021538656E+03  0.38160947535E+03  0.12499982754E+03 0.  0.
          5    1    3    3  501    0 -0.54848936953E+01 -0.28451133958E+02  0.32922811861E+03  0.33050070373E+03  0.10000000000E+00 0.  1.
         -5    1    3    3    0  501  0.19366005175E+02  0.35732948450E+02  0.30987267947E+02  0.51108771617E+02  0.10000000000E+00 0.  1.
         21    1    1    2  504  503 -0.13881111480E+02 -0.72818144923E+01  0.80163635195E+02  0.81681812455E+02  0.00000000000E+00 0.  1.
<mgrwt>
<rscale>  1 0.12597884E+03</rscale>
<asrwt>0</asrwt>
<pdfrwt beam="1">  1       21 0.69513087E-01 0.12597884E+03</pdfrwt>
<pdfrwt beam="2">  1       21 0.17624824E-02 0.12597884E+03</pdfrwt>
<totfact> 0.28247364E+06</totfact>
</mgrwt>
</event>
<event>
 6    1  0.4261782E-002  0.1309010E+03  0.7546771E-02  0.1226125E+00
         21   -1    0    0  503  502  0.00000000000E+00  0.00000000000E+00  0.14999322539E+02  0.14999322539E+02  0.00000000000E+00 0. -1.
         21   -1    0    0  504  503 -0.00000000000E+00 -0.00000000000E+00 -0.19202625685E+04  0.19202625685E+04  0.00000000000E+00 0. -1.
         25    2    1    2    0    0 -0.38740603049E+02 -0.28614557640E+01 -0.18883698665E+04  0.18929014316E+04  0.12500421933E+03 0.  0.
          5    1    3    3  501    0  0.45967448398E+01  0.49121873381E+02 -0.12459543280E+04  0.12469307462E+04  0.10000000000E+00 0.  1.
         -5    1    3    3    0  501 -0.43337347889E+02 -0.51983329145E+02 -0.64241553854E+03  0.64597068539E+03  0.10000000000E+00 0.  1.
         21    1    1    2  504  502  0.38740603049E+02  0.28614557640E+01 -0.16893379473E+02  0.42360459437E+02  0.00000000000E+00 0. -1.
<mgrwt>
<rscale>  1 0.13090102E+03</rscale>
<asrwt>0</asrwt>
<pdfrwt beam="1">  1       21 0.23075866E-02 0.13090102E+03</pdfrwt>
<pdfrwt beam="2">  1       21 0.29542520E+00 0.13090102E+03</pdfrwt>
<totfact> 0.37704413E+04</totfact>
</mgrwt>
</event>
<event>
 6    1  0.4261782E-002  0.1295343E+03  0.7546771E-02  0.1228148E+00
         21   -1    0    0  503  502  0.00000000000E+00  0.00000000000E+00  0.51131164398E+03  0.51131164398E+03  0.00000000000E+00 0.  1.
         21   -1    0    0  504  503 -0.00000000000E+00 -0.00000000000E+00 -0.13076828906E+02  0.13076828906E+02  0.00000000000E+00 0.  1.
         25    2    1    2    0    0  0.19016381040E+02 -0.28177273400E+02  0.39720599455E+03  0.41779389488E+03  0.12499421989E+03 0.  0.
          5    1    3    3  501    0  0.64943985955E+02 -0.31183501208E+01  0.12817697362E+03  0.14372470903E+03  0.10000000000E+00 0. -1.
         -5    1    3    3    0  501 -0.45927604916E+02 -0.25058923279E+02  0.26902902093E+03  0.27406918585E+03  0.10000000000E+00 0. -1.
         21    1    1    2  504  502 -0.19016381040E+02  0.28177273400E+02  0.10102882052E+03  0.10659457800E+03  0.00000000000E+00 0.  1.
<mgrwt>
<rscale>  1 0.12953431E+03</rscale>
<asrwt>0</asrwt>
<pdfrwt beam="1">  1       21 0.78663314E-01 0.12953431E+03</pdfrwt>
<pdfrwt beam="2">  1       21 0.20118202E-02 0.12953431E+03</pdfrwt>
<totfact> 0.17399306E+06</totfact>
</mgrwt>
</event>
<event>
 6    1  0.4261782E-002  0.1273582E+03  0.7546771E-02  0.1231429E+00
         21   -1    0    0  504  502  0.00000000000E+00  0.00000000000E+00  0.16261001859E+04  0.16261001859E+04  0.00000000000E+00 0.  1.
         21   -1    0    0  502  503 -0.00000000000E+00 -0.00000000000E+00 -0.36192052329E+01  0.36192052329E+01  0.00000000000E+00 0.  1.
         25    2    1    2    0    0  0.24272869611E+02 -0.15784344539E+01  0.14406853668E+04  0.14463037188E+04  0.12501382764E+03 0.  0.
          5    1    3    3  501    0  0.61205534985E+02  0.37751417858E+02  0.93006768244E+03  0.93284360478E+03  0.10000000000E+00 0.  1.
         -5    1    3    3    0  501 -0.36932665374E+02 -0.39329852312E+02  0.51061768439E+03  0.51346011400E+03  0.10000000000E+00 0.  1.
         21    1    1    2  504  503 -0.24272869611E+02  0.15784344539E+01  0.18179561384E+03  0.18341567236E+03  0.00000000000E+00 0.  1.
<mgrwt>
<rscale>  1 0.12735824E+03</rscale>
<asrwt>0</asrwt>
<pdfrwt beam="1">  1       21 0.25016868E+00 0.12735824E+03</pdfrwt>
<pdfrwt beam="2">  1       21 0.55680210E-03 0.12735824E+03</pdfrwt>
<totfact> 0.64769991E+05</totfact>
</mgrwt>
</event>
<event>
 6    1  0.4261782E-002  0.1265547E+03  0.7546771E-02  0.1232659E+00
         21   -1    0    0  504  502  0.00000000000E+00  0.00000000000E+00  0.12827514582E+04  0.12827514582E+04  0.00000000000E+00 0. -1.
         21   -1    0    0  502  503 -0.00000000000E+00 -0.00000000000E+00 -0.43800091120E+01  0.43800091120E+01  0.00000000000E+00 0. -1.
         25    2    1    2    0    0  0.19249273742E+02  0.44352500079E+01  0.98516786737E+03  0.99326322078E+03  0.12500357151E+03 0.  0.
          5    1    3    3  501    0 -0.16312823860E+02  0.42774368590E+02  0.78640874724E+03  0.78774011106E+03  0.10000000000E+00 0.  1.
         -5    1    3    3    0  501  0.35562097601E+02 -0.38339118582E+02  0.19875912012E+03  0.20552310972E+03  0.10000000000E+00 0.  1.
         21    1    1    2  504  503 -0.19249273742E+02 -0.44352500079E+01  0.29320358172E+03  0.29386824652E+03  0.00000000000E+00 0. -1.
<mgrwt>
<rscale>  1 0.12655473E+03</rscale>
<asrwt>0</asrwt>
<pdfrwt beam="1">  1       21 0.19734608E+00 0.12655473E+03</pdfrwt>
<pdfrwt beam="2">  1       21 0.67384858E-03 0.12655473E+03</pdfrwt>
<totfact> 0.99686103E+05</totfact>
</mgrwt>
</event>
<event>
 6    1  0.4261782E-002  0.1287047E+03  0.7546771E-02  0.1229390E+00
         21   -1    0    0  504  502  0.00000000000E+00  0.00000000000E+00  0.14287409251E+03  0.14287409251E+03  0.00000000000E+00 0.  1.
         21   -1    0    0  502  503 -0.00000000000E+00 -0.00000000000E+00 -0.11847933084E+03  0.11847933084E+03  0.00000000000E+00 0.  1.
         25    2    1    2    0    0 -0.18591406318E+02  0.24371241504E+02 -0.80678005412E+02  0.15190076609E+03  0.12500121751E+03 0.  0.
          5    1    3    3  501    0 -0.21677562046E+02  0.39618069049E+02  0.20455603022E+02  0.49577714615E+02  0.10000000000E+00 0. -1.
         -5    1    3    3    0  501  0.30861557283E+01 -0.15246827545E+02 -0.10113360843E+03  0.10232305147E+03  0.10000000000E+00 0. -1.
         21    1    1    2  504  503  0.18591406318E+02 -0.24371241504E+02  0.10507276708E+03  0.10945265727E+03  0.00000000000E+00 0.  1.
<mgrwt>
<rscale>  1 0.12870471E+03</rscale>
<asrwt>0</asrwt>
<pdfrwt beam="1">  1       21 0.21980630E-01 0.12870471E+03</pdfrwt>
<pdfrwt beam="2">  1       21 0.18227589E-01 0.12870471E+03</pdfrwt>
<totfact> 0.53425930E+05</totfact>
</mgrwt>
</event>
<event>
 6    1  0.4261782E-002  0.1275538E+03  0.7546771E-02  0.1231131E+00
         21   -1    0    0  504  502  0.00000000000E+00  0.00000000000E+00  0.31197640603E+02  0.31197640603E+02  0.00000000000E+00 0.  1.
         21   -1    0    0  502  503 -0.00000000000E+00 -0.00000000000E+00 -0.18912338026E+03  0.18912338026E+03  0.00000000000E+00 0.  1.
         25    2    1    2    0    0 -0.20054105815E+02  0.15571453762E+02 -0.13898536369E+03  0.18864492303E+03  0.12500135332E+03 0.  0.
          5    1    3    3  501    0  0.23373254639E+02 -0.23946736987E+02 -0.12345426781E+03  0.12790903598E+03  0.10000000000E+00 0. -1.
         -5    1    3    3    0  501 -0.43427360454E+02  0.39518190748E+02 -0.15531095876E+02  0.60735887045E+02  0.10000000000E+00 0. -1.
         21    1    1    2  504  503  0.20054105815E+02 -0.15571453762E+02 -0.18940375969E+02  0.31676097837E+02  0.00000000000E+00 0.  1.
<mgrwt>
<rscale>  1 0.12755381E+03</rscale>
<asrwt>0</asrwt>
<pdfrwt beam="1">  1       21 0.47996369E-02 0.12755381E+03</pdfrwt>
<pdfrwt beam="2">  1       21 0.29095905E-01 0.12755381E+03</pdfrwt>
<totfact> 0.32263313E+06</totfact>
</mgrwt>
</event>
<event>
 6    1  0.4261782E-002  0.1261718E+03  0.7546771E-02  0.1233249E+00
         21   -1    0    0  504  502  0.00000000000E+00  0.00000000000E+00  0.69851046664E+03  0.69851046664E+03  0.00000000000E+00 0.  1.
         21   -1    0    0  502  503 -0.00000000000E+00 -0.00000000000E+00 -0.81797498461E+01  0.81797498461E+01  0.00000000000E+00 0.  1.
         25    2    1    2    0    0  0.69995204959E+01  0.15613520241E+02  0.50312782607E+03  0.51870697894E+03  0.12500618120E+03 0.  0.
          5    1    3    3  501    0 -0.30212364572E+02 -0.13279671227E+02  0.34595845280E+02  0.47812332630E+02  0.10000000000E+00 0.  1.
         -5    1    3    3    0  501  0.37211885068E+02  0.28893191469E+02  0.46853198079E+03  0.47089464631E+03  0.10000000000E+00 0.  1.
         21    1    1    2  504  503 -0.69995204959E+01 -0.15613520241E+02  0.18720289073E+03  0.18798323755E+03  0.00000000000E+00 0.  1.
<mgrwt>
<rscale>  1 0.12617179E+03</rscale>
<asrwt>0</asrwt>
<pdfrwt beam="1">  1       21 0.10746310E+00 0.12617179E+03</pdfrwt>
<pdfrwt beam="2">  1       21 0.12584236E-02 0.12617179E+03</pdfrwt>
<totfact> 0.17983905E+06</totfact>
</mgrwt>
</event>
<event>
 6    1  0.4261782E-002  0.1263174E+03  0.7546771E-02  0.1233025E+00
         21   -1    0    0  503  502  0.00000000000E+00  0.00000000000E+00  0.55217108036E+02  0.55217108036E+02  0.00000000000E+00 0.  1.
         21   -1    0    0  504  503 -0.00000000000E+00 -0.00000000000E+00 -0.11286618624E+03  0.11286618624E+03  0.00000000000E+00 0. -1.
         25    2    1    2    0    0 -0.80688381247E+01  0.16293470224E+02 -0.71570146868E+02  0.14518396081E+03  0.12500205292E+03 0.  0.
          5    1    3    3  501    0  0.17134398133E+02  0.60573401351E+02 -0.76064093741E+01  0.63408138391E+02  0.10000000000E+00 0.  1.
         -5    1    3    3    0  501 -0.25203236258E+02 -0.44279931127E+02 -0.63963737494E+02  0.81775822422E+02  0.10000000000E+00 0.  1.
         21    1    1    2  504  502  0.80688381247E+01 -0.16293470224E+02  0.13921068660E+02  0.22899333468E+02  0.00000000000E+00 0.  1.
<mgrwt>
<rscale>  1 0.12631744E+03</rscale>
<asrwt>0</asrwt>
<pdfrwt beam="1">  1       21 0.84949397E-02 0.12631744E+03</pdfrwt>
<pdfrwt beam="2">  1       21 0.17364029E-01 0.12631744E+03</pdfrwt>
<totfact> 0.32054509E+06</totfact>
</mgrwt>
</event>
<event>
 6    1  0.4261782E-002  0.1277699E+03  0.7546771E-02  0.1230803E+00
         21   -1    0    0  503  502  0.00000000000E+00  0.00000000000E+00  0.15297371188E+04  0.15297371188E+04  0.00000000000E+00 0. -1.
         21   -1    0    0  504  503 -0.00000000000E+00 -0.00000000000E+00 -0.39703428530E+01  0.39703428530E+01  0.00000000000E+00 0. -1.
         25    2    1    2    0    0 -0.65669961872E+01 -0.25599325998E+02  0.11685710684E+04  0.11755354018E+04  0.12500675254E+03 0.  0.
          5    1    3    3  501    0  0.20955602710E+02 -0.69541946446E+02  0.54613358660E+03  0.55094203326E+03  0.10000000000E+00 0. -1.
         -5    1    3    3    0  501 -0.27522598897E+02  0.43942620449E+02  0.62243748179E+03  0.62459336858E+03  0.10000000000E+00 0. -1.
         21    1    1    2  504  502  0.65669961872E+01  0.25599325998E+02  0.35719570756E+03  0.35817205981E+03  0.00000000000E+00 0. -1.
<mgrwt>
<rscale>  1 0.12776987E+03</rscale>
<asrwt>0</asrwt>
<pdfrwt beam="1">  1       21 0.23534370E+00 0.12776987E+03</pdfrwt>
<pdfrwt beam="2">  1       21 0.61082320E-03 0.12776987E+03</pdfrwt>
<totfact> 0.68337057E+05</totfact>
</mgrwt>
</event>
<event>
 6    1  0.4261782E-002  0.1322837E+03  0.7546771E-02  0.1224106E+00
         21   -1    0    0  504  502  0.00000000000E+00  0.00000000000E+00  0.47887438095E+03  0.47887438095E+03  0.00000000000E+00 0.  1.
         21   -1    0    0  502  503 -0.00000000000E+00 -0.00000000000E+00 -0.16898281143E+02  0.16898281143E+02  0.00000000000E+00 0.  1.
         25    2    1    2    0    0  0.34588013805E+02  0.26031194928E+02  0.38952438934E+03  0.41137358533E+03  0.12500009204E+03 0.  0.
          5    1    3    3  501    0 -0.15208467369E+01  0.33339814448E+02  0.17793648161E+02  0.37821688448E+02  0.10000000000E+00 0.  1.
         -5    1    3    3    0  501  0.36108860542E+02 -0.73086195196E+01  0.37173074118E+03  0.37355189688E+03  0.10000000000E+00 0.  1.
         21    1    1    2  504  503 -0.34588013805E+02 -0.26031194928E+02  0.72451710473E+02  0.84399076765E+02  0.00000000000E+00 0.  1.
<mgrwt>
<rscale>  1 0.13228370E+03</rscale>
<asrwt>0</asrwt>
<pdfrwt beam="1">  1       21 0.73672971E-01 0.13228370E+03</pdfrwt>
<pdfrwt beam="2">  1       21 0.25997359E-02 0.13228370E+03</pdfrwt>
<totfact> 0.13274614E+06</totfact>
</mgrwt>
</event>
<event>
 6    1  0.4261782E-002  0.1422918E+03  0.7546771E-02  0.1210278E+00
         21   -1    0    0  503  502  0.00000000000E+00  0.00000000000E+00  0.41203568517E+03  0.41203568517E+03  0.00000000000E+00 0. -1.
         21   -1    0    0  504  503 -0.00000000000E+00 -0.00000000000E+00 -0.80663472193E+02  0.80663472193E+02  0.00000000000E+00 0. -1.
         25    2    1    2    0    0 -0.28090424610E+02  0.61928068876E+02 -0.11869729730E+02  0.14278604114E+03  0.12499122126E+03 0.  0.
          5    1    3    3  501    0 -0.43278142620E+02  0.72257689791E+02  0.35936225038E+02  0.91572886995E+02  0.10000000000E+00 0. -1.
         -5    1    3    3    0  501  0.15187718010E+02 -0.10329620916E+02 -0.47805954768E+02  0.51213154149E+02  0.10000000000E+00 0. -1.
         21    1    1    2  504  502  0.28090424610E+02 -0.61928068876E+02  0.34324194271E+03  0.34991311622E+03  0.00000000000E+00 0. -1.
<mgrwt>
<rscale>  1 0.14229182E+03</rscale>
<asrwt>0</asrwt>
<pdfrwt beam="1">  1       21 0.63390104E-01 0.14229182E+03</pdfrwt>
<pdfrwt beam="2">  1       21 0.12409765E-01 0.14229182E+03</pdfrwt>
<totfact> 0.12945799E+05</totfact>
</mgrwt>
</event>
<event>
 6    1  0.4261782E-002  0.1258959E+03  0.7546771E-02  0.1233676E+00
         21   -1    0    0  503  502  0.00000000000E+00  0.00000000000E+00  0.43766283417E+02  0.43766283417E+02  0.00000000000E+00 0.  1.
         21   -1    0    0  504  503 -0.00000000000E+00 -0.00000000000E+00 -0.60572235546E+03  0.60572235546E+03  0.00000000000E+00 0.  1.
         25    2    1    2    0    0 -0.40149914817E+01  0.14482214543E+02 -0.59764673685E+03  0.61076295942E+03  0.12499566330E+03 0.  0.
          5    1    3    3  501    0  0.13368897778E+02  0.62796302612E+02 -0.20623380152E+03  0.21599651372E+03  0.10000000000E+00 0.  1.
         -5    1    3    3    0  501 -0.17383889260E+02 -0.48314088069E+02 -0.39141293533E+03  0.39476644571E+03  0.10000000000E+00 0.  1.
         21    1    1    2  504  502  0.40149914817E+01 -0.14482214543E+02  0.35690664807E+02  0.38725679452E+02  0.00000000000E+00 0.  1.
<mgrwt>
<rscale>  1 0.12589587E+03</rscale>
<asrwt>0</asrwt>
<pdfrwt beam="1">  1       21 0.67332747E-02 0.12589587E+03</pdfrwt>
<pdfrwt beam="2">  1       21 0.93188050E-01 0.12589587E+03</pdfrwt>
<totfact> 0.16040453E+05</totfact>
</mgrwt>
</event>
<event>
 6    1  0.4261782E-002  0.1292450E+03  0.7546771E-02  0.1228580E+00
         21   -1    0    0  504  502  0.00000000000E+00  0.00000000000E+00  0.27815981136E+03  0.27815981136E+03  0.00000000000E+00 0. -1.
         21   -1    0    0  502  503 -0.00000000000E+00 -0.00000000000E+00 -0.17028792996E+03  0.17028792996E+03  0.00000000000E+00 0. -1.
         25    2    1    2    0    0 -0.13084432055E+02 -0.30056500019E+02 -0.14455095827E+03  0.19390523889E+03  0.12501866492E+03 0.  0.
          5    1    3    3  501    0 -0.71383320936E+01 -0.28887351838E+02  0.15628653962E+02  0.33611005726E+02  0.10000000000E+00 0.  1.
         -5    1    3    3    0  501 -0.59460999610E+01 -0.11691481810E+01 -0.16017961223E+03  0.16029423316E+03  0.10000000000E+00 0.  1.
         21    1    1    2  504  503  0.13084432055E+02  0.30056500019E+02  0.25242283967E+03  0.25454250243E+03  0.00000000000E+00 0. -1.
<mgrwt>
<rscale>  1 0.12924497E+03</rscale>
<asrwt>0</asrwt>
<pdfrwt beam="1">  1       21 0.42793817E-01 0.12924497E+03</pdfrwt>
<pdfrwt beam="2">  1       21 0.26198143E-01 0.12924497E+03</pdfrwt>
<totfact> 0.74762804E+04</totfact>
</mgrwt>
</event>
<event>
 6    1  0.4261782E-002  0.1334014E+03  0.7546771E-02  0.1222494E+00
         21   -1    0    0  503  502  0.00000000000E+00  0.00000000000E+00  0.35058342116E+03  0.35058342116E+03  0.00000000000E+00 0. -1.
         21   -1    0    0  504  503 -0.00000000000E+00 -0.00000000000E+00 -0.33802789560E+03  0.33802789560E+03  0.00000000000E+00 0. -1.
         25    2    1    2    0    0  0.45729266480E+02 -0.88753269572E+01 -0.32319536473E+03  0.34964436029E+03  0.12500399057E+03 0.  0.
          5    1    3    3  501    0  0.39639902700E+02 -0.39932504318E+02 -0.31047939220E+03  0.31553666945E+03  0.10000000000E+00 0. -1.
         -5    1    3    3    0  501  0.60893637800E+01  0.31057177361E+02 -0.12715972529E+02  0.34107690837E+02  0.10000000000E+00 0. -1.
         21    1    1    2  504  502 -0.45729266480E+02  0.88753269572E+01  0.33575089029E+03  0.33896695646E+03  0.00000000000E+00 0. -1.
<mgrwt>
<rscale>  1 0.13340141E+03</rscale>
<asrwt>0</asrwt>
<pdfrwt beam="1">  1       21 0.53935910E-01 0.13340141E+03</pdfrwt>
<pdfrwt beam="2">  1       21 0.52004292E-01 0.13340141E+03</pdfrwt>
<totfact> 0.11913145E+04</totfact>
</mgrwt>
</event>
<event>
 6    1  0.4261782E-002  0.1268010E+03  0.7546771E-02  0.1232281E+00
         21   -1    0    0  504  502  0.00000000000E+00  0.00000000000E+00  0.21841013278E+02  0.21841013278E+02  0.00000000000E+00 0.  1.
         21   -1    0    0  502  503 -0.00000000000E+00 -0.00000000000E+00 -0.97070394374E+03  0.97070394374E+03  0.00000000000E+00 0.  1.
         25    2    1    2    0    0  0.20066767164E+02  0.71629494096E+01 -0.96011325812E+03  0.96845029244E+03  0.12499807009E+03 0.  0.
          5    1    3    3  501    0 -0.15342204676E+02 -0.53755692012E+02 -0.46501591399E+03  0.46836403356E+03  0.10000000000E+00 0.  1.
         -5    1    3    3    0  501  0.35408971840E+02  0.60918641421E+02 -0.49509734413E+03  0.50008625888E+03  0.10000000000E+00 0.  1.
         21    1    1    2  504  503 -0.20066767164E+02 -0.71629494096E+01  0.11250327657E+02  0.24094664577E+02  0.00000000000E+00 0.  1.
<mgrwt>
<rscale>  1 0.12680103E+03</rscale>
<asrwt>0</asrwt>
<pdfrwt beam="1">  1       21 0.33601571E-02 0.12680103E+03</pdfrwt>
<pdfrwt beam="2">  1       21 0.14933902E+00 0.12680103E+03</pdfrwt>
<totfact> 0.16307788E+05</totfact>
</mgrwt>
</event>
<event>
 6    1  0.4261782E-002  0.1301896E+03  0.7546771E-02  0.1227175E+00
         21   -1    0    0  504  502  0.00000000000E+00  0.00000000000E+00  0.41907329188E+02  0.41907329188E+02  0.00000000000E+00 0.  1.
         21   -1    0    0  502  503 -0.00000000000E+00 -0.00000000000E+00 -0.18043226199E+03  0.18043226199E+03  0.00000000000E+00 0.  1.
         25    2    1    2    0    0 -0.31651016391E+02  0.17956410873E+02 -0.13194196676E+03  0.18535912374E+03  0.12500041052E+03 0.  0.
          5    1    3    3  501    0 -0.56275299213E+02  0.54476675043E+02 -0.11281619638E+03  0.13733943931E+03  0.10000000000E+00 0. -1.
         -5    1    3    3    0  501  0.24624282822E+02 -0.36520264170E+02 -0.19125770379E+02  0.48019684424E+02  0.10000000000E+00 0. -1.
         21    1    1    2  504  503  0.31651016391E+02 -0.17956410873E+02 -0.65829660397E+01  0.36980467437E+02  0.00000000000E+00 0.  1.
<mgrwt>
<rscale>  1 0.13018956E+03</rscale>
<asrwt>0</asrwt>
<pdfrwt beam="1">  1       21 0.64472816E-02 0.13018956E+03</pdfrwt>
<pdfrwt beam="2">  1       21 0.27758809E-01 0.13018956E+03</pdfrwt>
<totfact> 0.21464433E+06</totfact>
</mgrwt>
</event>
<event>
 6    1  0.4261782E-002  0.1259471E+03  0.7546771E-02  0.1233597E+00
         21   -1    0    0  503  502  0.00000000000E+00  0.00000000000E+00  0.36263955354E+03  0.36263955354E+03  0.00000000000E+00 0. -1.
         21   -1    0    0  504  503 -0.00000000000E+00 -0.00000000000E+00 -0.22069165292E+02  0.22069165292E+02  0.00000000000E+00 0. -1.
         25    2    1    2    0    0  0.26168078861E+01 -0.15238224179E+02  0.16069665220E+03  0.20417170856E+03  0.12499448543E+03 0.  0.
          5    1    3    3  501    0 -0.30616262429E+02  0.32611895094E+02  0.13171306966E+03  0.13910152388E+03  0.10000000000E+00 0.  1.
         -5    1    3    3    0  501  0.33233070315E+02 -0.47850119273E+02  0.28983582543E+02  0.65070184678E+02  0.10000000000E+00 0.  1.
         21    1    1    2  504  502 -0.26168078861E+01  0.15238224179E+02  0.17987373605E+03  0.18053701028E+03  0.00000000000E+00 0. -1.
<mgrwt>
<rscale>  1 0.12594710E+03</rscale>
<asrwt>0</asrwt>
<pdfrwt beam="1">  1       21 0.55790696E-01 0.12594710E+03</pdfrwt>
<pdfrwt beam="2">  1       21 0.33952565E-02 0.12594710E+03</pdfrwt>
<totfact> 0.15561123E+06</totfact>
</mgrwt>
</event>
<event>
 6    1  0.4261782E-002  0.2286103E+03  0.7546771E-02  0.1127622E+00
         21   -1    0    0  504  502  0.00000000000E+00  0.00000000000E+00  0.29443970654E+03  0.29443970654E+03  0.00000000000E+00 0.  1.
         21   -1    0    0  502  503 -0.00000000000E+00 -0.00000000000E+00 -0.17060293015E+03  0.17060293015E+03  0.00000000000E+00 0.  1.
         25    2    1    2    0    0 -0.82327991393E+02 -0.17279025956E+03 -0.14211757555E+02  0.22905159938E+03  0.12501315596E+03 0.  0.
          5    1    3    3  501    0 -0.78706002116E+02 -0.18911523599E+03 -0.28807757767E+02  0.20685527347E+03  0.10000000000E+00 0. -1.
         -5    1    3    3    0  501 -0.36219892771E+01  0.16324976437E+02  0.14596000212E+02  0.22196325916E+02  0.10000000000E+00 0. -1.
         21    1    1    2  504  503  0.82327991393E+02  0.17279025956E+03  0.13804853394E+03  0.23599103730E+03  0.00000000000E+00 0.  1.
<mgrwt>
<rscale>  1 0.22861028E+03</rscale>
<asrwt>0</asrwt>
<pdfrwt beam="1">  1       21 0.45298416E-01 0.22861028E+03</pdfrwt>
<pdfrwt beam="2">  1       21 0.26246605E-01 0.22861028E+03</pdfrwt>
<totfact> 0.63502564E+04</totfact>
</mgrwt>
</event>
<event>
 6    1  0.4261782E-002  0.1264345E+03  0.7546771E-02  0.1232844E+00
         21   -1    0    0  503  502  0.00000000000E+00  0.00000000000E+00  0.35896200155E+03  0.35896200155E+03  0.00000000000E+00 0. -1.
         21   -1    0    0  504  503 -0.00000000000E+00 -0.00000000000E+00 -0.52293379846E+02  0.52293379846E+02  0.00000000000E+00 0. -1.
         25    2    1    2    0    0  0.88577141254E+01  0.16763705953E+02  0.24916731139E+02  0.12886627259E+03  0.12500476704E+03 0.  0.
          5    1    3    3  501    0 -0.53042551662E+02  0.32485033830E+02  0.73746783612E+01  0.62635338194E+02  0.10000000000E+00 0. -1.
         -5    1    3    3    0  501  0.61900265788E+02 -0.15721327877E+02  0.17542052778E+02  0.66230934392E+02  0.10000000000E+00 0. -1.
         21    1    1    2  504  502 -0.88577141254E+01 -0.16763705953E+02  0.28175189056E+03  0.28238910881E+03  0.00000000000E+00 0. -1.
<mgrwt>
<rscale>  1 0.12643446E+03</rscale>
<asrwt>0</asrwt>
<pdfrwt beam="1">  1       21 0.55224922E-01 0.12643446E+03</pdfrwt>
<pdfrwt beam="2">  1       21 0.80451356E-02 0.12643446E+03</pdfrwt>
<totfact> 0.37200084E+05</totfact>
</mgrwt>
</event>
<event>
 6    1  0.4261782E-002  0.1328432E+03  0.7546771E-02  0.1223297E+00
         21   -1    0    0  503  502  0.00000000000E+00  0.00000000000E+00  0.31267934980E+03  0.31267934980E+03  0.00000000000E+00 0.  1.
         21   -1    0    0  504  503 -0.00000000000E+00 -0.00000000000E+00 -0.35156006661E+02  0.35156006661E+02  0.00000000000E+00 0.  1.
         25    2    1    2    0    0 -0.41687583243E+02 -0.16863938761E+02  0.10437362169E+03  0.16894132899E+03  0.12500029084E+03 0.  0.
          5    1    3    3  501    0 -0.45852283932E+02  0.12380093626E+02 -0.11909677330E+02  0.48964773808E+02  0.10000000000E+00 0. -1.
         -5    1    3    3    0  501  0.41647006882E+01 -0.29244032387E+02  0.11628329902E+03  0.11997655518E+03  0.10000000000E+00 0. -1.
         21    1    1    2  504  502  0.41687583243E+02  0.16863938761E+02  0.17314972145E+03  0.17889402747E+03  0.00000000000E+00 0.  1.
<mgrwt>
<rscale>  1 0.13284321E+03</rscale>
<asrwt>0</asrwt>
<pdfrwt beam="1">  1       21 0.48104514E-01 0.13284321E+03</pdfrwt>
<pdfrwt beam="2">  1       21 0.54086166E-02 0.13284321E+03</pdfrwt>
<totfact> 0.97438724E+05</totfact>
</mgrwt>
</event>
<event>
 6    1  0.4261782E-002  0.1520402E+03  0.7546771E-02  0.1197988E+00
         21   -1    0    0  503  502  0.00000000000E+00  0.00000000000E+00  0.60223007338E+02  0.60223007338E+02  0.00000000000E+00 0.  1.
         21   -1    0    0  504  503 -0.00000000000E+00 -0.00000000000E+00 -0.25557384963E+03  0.25557384963E+03  0.00000000000E+00 0.  1.
         25    2    1    2    0    0  0.25615927437E+02  0.82673411176E+02 -0.80654460255E+02  0.17210855297E+03  0.12500057357E+03 0.  0.
          5    1    3    3  501    0 -0.24307598401E+01  0.41327979153E+02  0.29713701930E+02  0.50959047643E+02  0.10000000000E+00 0. -1.
         -5    1    3    3    0  501  0.28046687277E+02  0.41345432023E+02 -0.11036816219E+03  0.12114950533E+03  0.10000000000E+00 0. -1.
         21    1    1    2  504  502 -0.25615927437E+02 -0.82673411176E+02 -0.11469638204E+03  0.14368830400E+03  0.00000000000E+00 0.  1.
<mgrwt>
<rscale>  1 0.15204017E+03</rscale>
<asrwt>0</asrwt>
<pdfrwt beam="1">  1       21 0.92650780E-02 0.15204017E+03</pdfrwt>
<pdfrwt beam="2">  1       21 0.39319054E-01 0.15204017E+03</pdfrwt>
<totfact> 0.58201378E+05</totfact>
</mgrwt>
</event>
<event>
 6    1  0.4261782E-002  0.1270768E+03  0.7546771E-02  0.1231859E+00
         21   -1    0    0  504  502  0.00000000000E+00  0.00000000000E+00  0.50062339985E+02  0.50062339985E+02  0.00000000000E+00 0.  1.
         21   -1    0    0  502  503 -0.00000000000E+00 -0.00000000000E+00 -0.11738932025E+03  0.11738932025E+03  0.00000000000E+00 0.  1.
         25    2    1    2    0    0  0.19558398615E+02 -0.11441781373E+02 -0.69232523901E+02  0.14471234596E+03  0.12504029506E+03 0.  0.
          5    1    3    3  501    0  0.65248509204E+01 -0.56468433179E+00 -0.10495608043E+03  0.10516026515E+03  0.10000000000E+00 0.  1.
         -5    1    3    3    0  501  0.13033547694E+02 -0.10877097041E+02  0.35723556525E+02  0.39552080809E+02  0.10000000000E+00 0.  1.
         21    1    1    2  504  503 -0.19558398615E+02  0.11441781373E+02  0.19055436325E+01  0.22739314279E+02  0.00000000000E+00 0.  1.
<mgrwt>
<rscale>  1 0.12707683E+03</rscale>
<asrwt>0</asrwt>
<pdfrwt beam="1">  1       21 0.77018985E-02 0.12707683E+03</pdfrwt>
<pdfrwt beam="2">  1       21 0.18059895E-01 0.12707683E+03</pdfrwt>
<totfact> 0.35336133E+06</totfact>
</mgrwt>
</event>
<event>
 6    1  0.4261782E-002  0.1320548E+03  0.7546771E-02  0.1224438E+00
         21   -1    0    0  504  502  0.00000000000E+00  0.00000000000E+00  0.70298665793E+02  0.70298665793E+02  0.00000000000E+00 0.  1.
         21   -1    0    0  502  503 -0.00000000000E+00 -0.00000000000E+00 -0.28960773254E+03  0.28960773254E+03  0.00000000000E+00 0.  1.
         25    2    1    2    0    0 -0.31917079912E+02  0.28175485324E+02 -0.26584323475E+03  0.29683511522E+03  0.12500360876E+03 0.  0.
          5    1    3    3  501    0 -0.36758583166E+02  0.74684700287E+02 -0.19412739840E+03  0.21122134055E+03  0.10000000000E+00 0.  1.
         -5    1    3    3    0  501  0.48415032539E+01 -0.46509214963E+02 -0.71715836345E+02  0.85613774668E+02  0.10000000000E+00 0.  1.
         21    1    1    2  504  503  0.31917079912E+02 -0.28175485324E+02  0.46534167995E+02  0.63071283120E+02  0.00000000000E+00 0.  1.
<mgrwt>
<rscale>  1 0.13205476E+03</rscale>
<asrwt>0</asrwt>
<pdfrwt beam="1">  1       21 0.10815180E-01 0.13205476E+03</pdfrwt>
<pdfrwt beam="2">  1       21 0.44555035E-01 0.13205476E+03</pdfrwt>
<totfact> 0.34560928E+05</totfact>
</mgrwt>
</event>
<event>
 6    1  0.4261782E-002  0.1339133E+03  0.7546771E-02  0.1221762E+00
         21   -1    0    0  504  502  0.00000000000E+00  0.00000000000E+00  0.11848655993E+03  0.11848655993E+03  0.00000000000E+00 0. -1.
         21   -1    0    0  502  503 -0.00000000000E+00 -0.00000000000E+00 -0.93086899198E+02  0.93086899198E+02  0.00000000000E+00 0. -1.
         25    2    1    2    0    0 -0.45715459280E+01 -0.47820780295E+02 -0.31033901585E+02  0.13746223855E+03  0.12500015168E+03 0.  0.
          5    1    3    3  501    0  0.57501681578E+02 -0.37000940211E+01 -0.16445359019E+02  0.59921564677E+02  0.10000000000E+00 0.  1.
         -5    1    3    3    0  501 -0.62073227506E+02 -0.44120686273E+02 -0.14588542566E+02  0.77540673871E+02  0.10000000000E+00 0.  1.
         21    1    1    2  504  503  0.45715459280E+01  0.47820780295E+02  0.56433562317E+02  0.74111220581E+02  0.00000000000E+00 0. -1.
<mgrwt>
<rscale>  1 0.13391327E+03</rscale>
<asrwt>0</asrwt>
<pdfrwt beam="1">  1       21 0.18228701E-01 0.13391327E+03</pdfrwt>
<pdfrwt beam="2">  1       21 0.14321061E-01 0.13391327E+03</pdfrwt>
<totfact> 0.11702417E+06</totfact>
</mgrwt>
</event>
<event>
 6    1  0.4261782E-002  0.1259442E+03  0.7546771E-02  0.1233601E+00
         21   -1    0    0  503  502  0.00000000000E+00  0.00000000000E+00  0.67758687182E+01  0.67758687182E+01  0.00000000000E+00 0.  1.
         21   -1    0    0  504  503 -0.00000000000E+00 -0.00000000000E+00 -0.76083419839E+03  0.76083419839E+03  0.00000000000E+00 0.  1.
         25    2    1    2    0    0 -0.14974276812E+02  0.37324100168E+01 -0.70565656234E+03  0.71680759737E+03  0.12499515120E+03 0.  0.
          5    1    3    3  501    0  0.55095713458E+02  0.26971475499E+01 -0.34887108946E+03  0.35320512355E+03  0.10000000000E+00 0. -1.
         -5    1    3    3    0  501 -0.70069990270E+02  0.10352624668E+01 -0.35678547288E+03  0.36360247382E+03  0.10000000000E+00 0. -1.
         21    1    1    2  504  502  0.14974276812E+02 -0.37324100168E+01 -0.48401767334E+02  0.50802469740E+02  0.00000000000E+00 0.  1.
<mgrwt>
<rscale>  1 0.12594422E+03</rscale>
<asrwt>0</asrwt>
<pdfrwt beam="1">  1       21 0.10424416E-02 0.12594422E+03</pdfrwt>
<pdfrwt beam="2">  1       21 0.11705139E+00 0.12594422E+03</pdfrwt>
<totfact> 0.19740867E+06</totfact>
</mgrwt>
</event>
<event>
 6    1  0.4261782E-002  0.1601943E+03  0.7546771E-02  0.1188478E+00
         21   -1    0    0  503  502  0.00000000000E+00  0.00000000000E+00  0.21447204780E+02  0.21447204780E+02  0.00000000000E+00 0.  1.
         21   -1    0    0  504  503 -0.00000000000E+00 -0.00000000000E+00 -0.11396952644E+04  0.11396952644E+04  0.00000000000E+00 0.  1.
         25    2    1    2    0    0 -0.48052758550E+02 -0.87911521114E+02 -0.96395659360E+03  0.97717682121E+03  0.12499888966E+03 0.  0.
          5    1    3    3  501    0 -0.33593983180E+02 -0.67991926242E+02 -0.21800994179E+03  0.23082418084E+03  0.10000000000E+00 0. -1.
         -5    1    3    3    0  501 -0.14458775370E+02 -0.19919594873E+02 -0.74594665181E+03  0.74635264037E+03  0.10000000000E+00 0. -1.
         21    1    1    2  504  502  0.48052758550E+02  0.87911521114E+02 -0.15429146606E+03  0.18396564801E+03  0.00000000000E+00 0.  1.
<mgrwt>
<rscale>  1 0.16019434E+03</rscale>
<asrwt>0</asrwt>
<pdfrwt beam="1">  1       21 0.32995708E-02 0.16019434E+03</pdfrwt>
<pdfrwt beam="2">  1       21 0.17533769E+00 0.16019434E+03</pdfrwt>
<totfact> 0.10769252E+05</totfact>
</mgrwt>
</event>
<event>
 6    1  0.4261782E-002  0.1278190E+03  0.7546771E-02  0.1230728E+00
         21   -1    0    0  504  502  0.00000000000E+00  0.00000000000E+00  0.74752336259E+02  0.74752336259E+02  0.00000000000E+00 0. -1.
         21   -1    0    0  502  503 -0.00000000000E+00 -0.00000000000E+00 -0.56341391790E+03  0.56341391790E+03  0.00000000000E+00 0. -1.
         25    2    1    2    0    0  0.14163939131E+02  0.22676492331E+02 -0.55348147304E+03  0.56804878988E+03  0.12499138455E+03 0.  0.
          5    1    3    3  501    0  0.11058487987E+02  0.74071214922E+02 -0.36861047450E+03  0.37614163150E+03  0.10000000000E+00 0. -1.
         -5    1    3    3    0  501  0.31054511443E+01 -0.51394722591E+02 -0.18487099854E+03  0.19190715838E+03  0.10000000000E+00 0. -1.
         21    1    1    2  504  503 -0.14163939131E+02 -0.22676492331E+02  0.64819891397E+02  0.70117464279E+02  0.00000000000E+00 0. -1.
<mgrwt>
<rscale>  1 0.12781896E+03</rscale>
<asrwt>0</asrwt>
<pdfrwt beam="1">  1       21 0.11500359E-01 0.12781896E+03</pdfrwt>
<pdfrwt beam="2">  1       21 0.86679066E-01 0.12781896E+03</pdfrwt>
<totfact> 0.74724884E+04</totfact>
</mgrwt>
</event>
<event>
 6    1  0.4261782E-002  0.1260930E+03  0.7546771E-02  0.1233371E+00
         21   -1    0    0  503  502  0.00000000000E+00  0.00000000000E+00  0.61539223837E+03  0.61539223837E+03  0.00000000000E+00 0.  1.
         21   -1    0    0  504  503 -0.00000000000E+00 -0.00000000000E+00 -0.12524933874E+02  0.12524933874E+02  0.00000000000E+00 0.  1.
         25    2    1    2    0    0  0.73361298693E+01 -0.14857289509E+02  0.31113690324E+03  0.33571658212E+03  0.12499957239E+03 0.  0.
          5    1    3    3  501    0 -0.40784102783E+02  0.27002128330E+02  0.21395624568E+03  0.21947606485E+03  0.10000000000E+00 0. -1.
         -5    1    3    3    0  501  0.48120232653E+02 -0.41859417839E+02  0.97180657564E+02  0.11624051728E+03  0.10000000000E+00 0. -1.
         21    1    1    2  504  502 -0.73361298693E+01  0.14857289509E+02  0.29173040125E+03  0.29220059012E+03  0.00000000000E+00 0.  1.
<mgrwt>
<rscale>  1 0.12609302E+03</rscale>
<asrwt>0</asrwt>
<pdfrwt beam="1">  1       21 0.94675705E-01 0.12609302E+03</pdfrwt>
<pdfrwt beam="2">  1       21 0.19269134E-02 0.12609302E+03</pdfrwt>
<totfact> 0.12251251E+06</totfact>
</mgrwt>
</event>
<event>
 6    1  0.4261782E-002  0.1349063E+03  0.7546771E-02  0.1220352E+00
         21   -1    0    0  503  502  0.00000000000E+00  0.00000000000E+00  0.63047813809E+02  0.63047813809E+02  0.00000000000E+00 0. -1.
         21   -1    0    0  504  503 -0.00000000000E+00 -0.00000000000E+00 -0.10136915244E+04  0.10136915244E+04  0.00000000000E+00 0.  1.
         25    2    1    2    0    0  0.93610227191E+01 -0.49860388741E+02 -0.99815706545E+03  0.10072324608E+04  0.12500406252E+03 0.  0.
          5    1    3    3  501    0 -0.56841256647E+02 -0.20440192209E+02 -0.36796866089E+03  0.37289365148E+03  0.10000000000E+00 0. -1.
         -5    1    3    3    0  501  0.66202279366E+02 -0.29420196532E+02 -0.63018840456E+03  0.63433880931E+03  0.10000000000E+00 0. -1.
         21    1    1    2  504  502 -0.93610227191E+01  0.49860388741E+02  0.47513354889E+02  0.69506877390E+02  0.00000000000E+00 0. -1.
<mgrwt>
<rscale>  1 0.13490627E+03</rscale>
<asrwt>0</asrwt>
<pdfrwt beam="1">  1       21 0.96996634E-02 0.13490627E+03</pdfrwt>
<pdfrwt beam="2">  1       21 0.15595255E+00 0.13490627E+03</pdfrwt>
<totfact> 0.24064778E+04</totfact>
</mgrwt>
</event>
<event>
 6    1  0.4261782E-002  0.1358365E+03  0.7546771E-02  0.1219044E+00
         21   -1    0    0  503  502  0.00000000000E+00  0.00000000000E+00  0.66203901922E+03  0.66203901922E+03  0.00000000000E+00 0.  1.
         21   -1    0    0  504  503 -0.00000000000E+00 -0.00000000000E+00 -0.14326383181E+02  0.14326383181E+02  0.00000000000E+00 0.  1.
         25    2    1    2    0    0 -0.75243069139E+01  0.52619290790E+02  0.53133164621E+03  0.54842033704E+03  0.12500457133E+03 0.  0.
          5    1    3    3  501    0 -0.31639605495E+01  0.66915003577E+02  0.12504357121E+03  0.14185743918E+03  0.10000000000E+00 0. -1.
         -5    1    3    3    0  501 -0.43603463644E+01 -0.14295712787E+02  0.40628807501E+03  0.40656289786E+03  0.10000000000E+00 0. -1.
         21    1    1    2  504  502  0.75243069139E+01 -0.52619290790E+02  0.11638098983E+03  0.12794506536E+03  0.00000000000E+00 0.  1.
<mgrwt>
<rscale>  1 0.13583647E+03</rscale>
<asrwt>0</asrwt>
<pdfrwt beam="1">  1       21 0.10185213E+00 0.13583647E+03</pdfrwt>
<pdfrwt beam="2">  1       21 0.22040595E-02 0.13583647E+03</pdfrwt>
<totfact> 0.83132782E+05</totfact>
</mgrwt>
</event>
<event>
 6    1  0.4261782E-002  0.1370194E+03  0.7546771E-02  0.1217397E+00
         21   -1    0    0  503  502  0.00000000000E+00  0.00000000000E+00  0.51871868963E+03  0.51871868963E+03  0.00000000000E+00 0. -1.
         21   -1    0    0  504  503 -0.00000000000E+00 -0.00000000000E+00 -0.30021476706E+02  0.30021476706E+02  0.00000000000E+00 0. -1.
         25    2    1    2    0    0  0.48636438931E+02  0.28001970663E+02  0.14124732045E+03  0.19678698574E+03  0.12499879467E+03 0.  0.
          5    1    3    3  501    0 -0.14692279328E+02 -0.36794098079E+02  0.17242021201E+02  0.43208402197E+02  0.10000000000E+00 0.  1.
         -5    1    3    3    0  501  0.63328718259E+02  0.64796068743E+02  0.12400529925E+03  0.15357858354E+03  0.10000000000E+00 0.  1.
         21    1    1    2  504  502 -0.48636438931E+02 -0.28001970663E+02  0.34744989247E+03  0.35195318060E+03  0.00000000000E+00 0. -1.
<mgrwt>
<rscale>  1 0.13701939E+03</rscale>
<asrwt>0</asrwt>
<pdfrwt beam="1">  1       21 0.79802869E-01 0.13701939E+03</pdfrwt>
<pdfrwt beam="2">  1       21 0.46186891E-02 0.13701939E+03</pdfrwt>
<totfact> 0.42998868E+05</totfact>
</mgrwt>
</event>
<event>
 6    1  0.4261782E-002  0.1396366E+03  0.7546771E-02  0.1213819E+00
         21   -1    0    0  503  502  0.00000000000E+00  0.00000000000E+00  0.23052758325E+03  0.23052758325E+03  0.00000000000E+00 0.  1.
         21   -1    0    0  504  503 -0.00000000000E+00 -0.00000000000E+00 -0.22120700643E+03  0.22120700643E+03  0.00000000000E+00 0.  1.
         25    2    1    2    0    0  0.47918206866E+02  0.39691942965E+02 -0.19404419044E+03  0.23906387367E+03  0.12500713166E+03 0.  0.
          5    1    3    3  501    0 -0.16012117816E+02  0.55536362430E+02 -0.14748091660E+03  0.15840235551E+03  0.10000000000E+00 0. -1.
         -5    1    3    3    0  501  0.63930324682E+02 -0.15844419465E+02 -0.46563273840E+02  0.80661518165E+02  0.10000000000E+00 0. -1.
         21    1    1    2  504  502 -0.47918206866E+02 -0.39691942965E+02  0.20336476725E+03  0.21267071601E+03  0.00000000000E+00 0.  1.
<mgrwt>
<rscale>  1 0.13963663E+03</rscale>
<asrwt>0</asrwt>
<pdfrwt beam="1">  1       21 0.35465782E-01 0.13963663E+03</pdfrwt>
<pdfrwt beam="2">  1       21 0.34031847E-01 0.13963663E+03</pdfrwt>
<totfact> 0.65306469E+04</totfact>
</mgrwt>
</event>
<event>
 6    1  0.4261782E-002  0.1379802E+03  0.7546771E-02  0.1216073E+00
         21   -1    0    0  503  502  0.00000000000E+00  0.00000000000E+00  0.83438217605E+03  0.83438217605E+03  0.00000000000E+00 0. -1.
         21   -1    0    0  504  503 -0.00000000000E+00 -0.00000000000E+00 -0.16402525655E+02  0.16402525655E+02  0.00000000000E+00 0. -1.
         25    2    1    2    0    0  0.36783426036E+02 -0.45388430184E+02  0.30830770694E+03  0.33777532560E+03  0.12500159359E+03 0.  0.
          5    1    3    3  501    0  0.58309681243E+02 -0.79793644160E+01  0.54135590931E+02  0.79964750913E+02  0.10000000000E+00 0.  1.
         -5    1    3    3    0  501 -0.21526255207E+02 -0.37409065768E+02  0.25417211600E+03  0.25781057468E+03  0.10000000000E+00 0.  1.
         21    1    1    2  504  502 -0.36783426036E+02  0.45388430184E+02  0.50967194346E+03  0.51300937610E+03  0.00000000000E+00 0. -1.
<mgrwt>
<rscale>  1 0.13798017E+03</rscale>
<asrwt>0</asrwt>
<pdfrwt beam="1">  1       21 0.12836646E+00 0.13798017E+03</pdfrwt>
<pdfrwt beam="2">  1       21 0.25234661E-02 0.13798017E+03</pdfrwt>
<totfact> 0.38114892E+05</totfact>
</mgrwt>
</event>
<event>
 6    1  0.4261782E-002  0.1266341E+03  0.7546771E-02  0.1232537E+00
         21   -1    0    0  504  502  0.00000000000E+00  0.00000000000E+00  0.68719381424E+03  0.68719381424E+03  0.00000000000E+00 0. -1.
         21   -1    0    0  502  503 -0.00000000000E+00 -0.00000000000E+00 -0.78744135751E+01  0.78744135751E+01  0.00000000000E+00 0. -1.
         25    2    1    2    0    0 -0.47787599830E+01 -0.19724527256E+02  0.57253788285E+03  0.58637514584E+03  0.12499716332E+03 0.  0.
          5    1    3    3  501    0 -0.33793938446E+02  0.36470642166E+02  0.39073989811E+03  0.39389061425E+03  0.10000000000E+00 0. -1.
         -5    1    3    3    0  501  0.29015178463E+02 -0.56195169422E+02  0.18179798474E+03  0.19248453159E+03  0.10000000000E+00 0. -1.
         21    1    1    2  504  503  0.47787599830E+01  0.19724527256E+02  0.10678151782E+03  0.10869308198E+03  0.00000000000E+00 0. -1.
<mgrwt>
<rscale>  1 0.12663406E+03</rscale>
<asrwt>0</asrwt>
<pdfrwt beam="1">  1       21 0.10572208E+00 0.12663406E+03</pdfrwt>
<pdfrwt beam="2">  1       21 0.12114488E-02 0.12663406E+03</pdfrwt>
<totfact> 0.19858327E+06</totfact>
</mgrwt>
</event>
<event>
 6    1  0.4261782E-002  0.1338765E+03  0.7546771E-02  0.1221814E+00
         21   -1    0    0  503  502  0.00000000000E+00  0.00000000000E+00  0.16636722680E+02  0.16636722680E+02  0.00000000000E+00 0. -1.
         21   -1    0    0  504  503 -0.00000000000E+00 -0.00000000000E+00 -0.90410225538E+03  0.90410225538E+03  0.00000000000E+00 0. -1.
         25    2    1    2    0    0  0.34463164527E+02  0.33380937565E+02 -0.84831404141E+03  0.85881292561E+03  0.12498372549E+03 0.  0.
          5    1    3    3  501    0  0.72612762952E+02  0.41702034892E+02 -0.71534827177E+03  0.72023248537E+03  0.10000000000E+00 0.  1.
         -5    1    3    3    0  501 -0.38149598426E+02 -0.83210973277E+01 -0.13296576964E+03  0.13858044024E+03  0.10000000000E+00 0.  1.
         21    1    1    2  504  502 -0.34463164527E+02 -0.33380937565E+02 -0.39151491290E+02  0.61926052451E+02  0.00000000000E+00 0. -1.
<mgrwt>
<rscale>  1 0.13387654E+03</rscale>
<asrwt>0</asrwt>
<pdfrwt beam="1">  1       21 0.25594949E-02 0.13387654E+03</pdfrwt>
<pdfrwt beam="2">  1       21 0.13909270E+00 0.13387654E+03</pdfrwt>
<totfact> 0.30484660E+05</totfact>
</mgrwt>
</event>
<event>
 6    1  0.4261782E-002  0.1267034E+03  0.7546771E-02  0.1232431E+00
         21   -1    0    0  504  502  0.00000000000E+00  0.00000000000E+00  0.27139438327E+02  0.27139438327E+02  0.00000000000E+00 0.  1.
         21   -1    0    0  502  503 -0.00000000000E+00 -0.00000000000E+00 -0.24622552885E+03  0.24622552885E+03  0.00000000000E+00 0.  1.
         25    2    1    2    0    0 -0.20361675427E+02  0.40645620179E+01 -0.21851741925E+03  0.25259378816E+03  0.12499056289E+03 0.  0.
          5    1    3    3  501    0  0.93060730869E+00 -0.57390478562E+02 -0.70453570093E+02  0.90874906318E+02  0.10000000000E+00 0. -1.
         -5    1    3    3    0  501 -0.21292282735E+02  0.61455040579E+02 -0.14806384916E+03  0.16171888184E+03  0.10000000000E+00 0. -1.
         21    1    1    2  504  503  0.20361675427E+02 -0.40645620179E+01 -0.56867126835E+00  0.20771179013E+02  0.00000000000E+00 0.  1.
<mgrwt>
<rscale>  1 0.12670343E+03</rscale>
<asrwt>0</asrwt>
<pdfrwt beam="1">  1       21 0.41752982E-02 0.12670343E+03</pdfrwt>
<pdfrwt beam="2">  1       21 0.37880851E-01 0.12670343E+03</pdfrwt>
<totfact> 0.24324958E+06</totfact>
</mgrwt>
</event>
<event>
 6    1  0.4261782E-002  0.1258806E+03  0.7546771E-02  0.1233700E+00
         21   -1    0    0  504  502  0.00000000000E+00  0.00000000000E+00  0.23025769389E+03  0.23025769389E+03  0.00000000000E+00 0.  1.
         21   -1    0    0  502  503 -0.00000000000E+00 -0.00000000000E+00 -0.21636370358E+02  0.21636370358E+02  0.00000000000E+00 0.  1.
         25    2    1    2    0    0 -0.14991224628E+02  0.63133379507E+00  0.19098994508E+03  0.22874237091E+03  0.12498310978E+03 0.  0.
          5    1    3    3  501    0 -0.47684700770E+02 -0.27537323621E+02  0.31331867983E+02  0.63354801168E+02  0.10000000000E+00 0.  1.
         -5    1    3    3    0  501  0.32693476142E+02  0.28168657416E+02  0.15965807710E+03  0.16538756975E+03  0.10000000000E+00 0.  1.
         21    1    1    2  504  503  0.14991224628E+02 -0.63133379507E+00  0.17631378444E+02  0.23151693330E+02  0.00000000000E+00 0. -1.
<mgrwt>
<rscale>  1 0.12588055E+03</rscale>
<asrwt>0</asrwt>
<pdfrwt beam="1">  1       21 0.35424259E-01 0.12588055E+03</pdfrwt>
<pdfrwt beam="2">  1       21 0.33286725E-02 0.12588055E+03</pdfrwt>
<totfact> 0.40393413E+06</totfact>
</mgrwt>
</event>
<event>
 6    1  0.4261782E-002  0.1758085E+03  0.7546771E-02  0.1171922E+00
         21   -1    0    0  504  502  0.00000000000E+00  0.00000000000E+00  0.76324983485E+02  0.76324983485E+02  0.00000000000E+00 0.  1.
         21   -1    0    0  502  503 -0.00000000000E+00 -0.00000000000E+00 -0.81318916631E+03  0.81318916631E+03  0.00000000000E+00 0.  1.
         25    2    1    2    0    0  0.11913726413E+03 -0.32998745215E+02 -0.74515474182E+03  0.76561363221E+03  0.12500415869E+03 0.  0.
          5    1    3    3  501    0  0.22554404417E+02  0.46160545615E+01 -0.48536224107E+03  0.48590793796E+03  0.10000000000E+00 0. -1.
         -5    1    3    3    0  501  0.96582859710E+02 -0.37614799776E+02 -0.25979250075E+03  0.27970569425E+03  0.10000000000E+00 0. -1.
         21    1    1    2  504  503 -0.11913726413E+03  0.32998745215E+02  0.82905589873E+01  0.12390051759E+03  0.00000000000E+00 0.  1.
<mgrwt>
<rscale>  1 0.17580855E+03</rscale>
<asrwt>0</asrwt>
<pdfrwt beam="1">  1       21 0.11742305E-01 0.17580855E+03</pdfrwt>
<pdfrwt beam="2">  1       21 0.12510603E+00 0.17580855E+03</pdfrwt>
<totfact> 0.29333530E+04</totfact>
</mgrwt>
</event>
<event>
 6    1  0.4261782E-002  0.1293091E+03  0.7546771E-02  0.1228485E+00
         21   -1    0    0  504  502  0.00000000000E+00  0.00000000000E+00  0.13382010350E+02  0.13382010350E+02  0.00000000000E+00 0.  1.
         21   -1    0    0  502  503 -0.00000000000E+00 -0.00000000000E+00 -0.58026914381E+03  0.58026914381E+03  0.00000000000E+00 0.  1.
         25    2    1    2    0    0 -0.11967413330E+02  0.30844083949E+02 -0.52266252426E+03  0.53842079516E+03  0.12500504749E+03 0.  0.
          5    1    3    3  501    0 -0.49627426935E+02  0.34655061653E+02 -0.46819714855E+03  0.47209367154E+03  0.10000000000E+00 0.  1.
         -5    1    3    3    0  501  0.37660013605E+02 -0.38109777041E+01 -0.54465375708E+02  0.66327123614E+02  0.10000000000E+00 0.  1.
         21    1    1    2  504  503  0.11967413330E+02 -0.30844083949E+02 -0.44224609203E+02  0.55230359003E+02  0.00000000000E+00 0.  1.
<mgrwt>
<rscale>  1 0.12930908E+03</rscale>
<asrwt>0</asrwt>
<pdfrwt beam="1">  1       21 0.20587710E-02 0.12930908E+03</pdfrwt>
<pdfrwt beam="2">  1       21 0.89272169E-01 0.12930908E+03</pdfrwt>
<totfact> 0.12602665E+06</totfact>
</mgrwt>
</event>
<event>
 6    1  0.4261782E-002  0.1261319E+03  0.7546771E-02  0.1233311E+00
         21   -1    0    0  503  502  0.00000000000E+00  0.00000000000E+00  0.55932324037E+01  0.55932324037E+01  0.00000000000E+00 0.  1.
         21   -1    0    0  504  503 -0.00000000000E+00 -0.00000000000E+00 -0.91420448454E+03  0.91420448454E+03  0.00000000000E+00 0.  1.
         25    2    1    2    0    0  0.14819579301E+02 -0.80192815094E+01 -0.80778623211E+03  0.81757436604E+03  0.12500127365E+03 0.  0.
          5    1    3    3  501    0 -0.32782189202E+02  0.33304622455E+02 -0.15878644779E+03  0.16552043925E+03  0.10000000000E+00 0. -1.
         -5    1    3    3    0  501  0.47601768503E+02 -0.41323903964E+02 -0.64899978432E+03  0.65205392679E+03  0.10000000000E+00 0. -1.
         21    1    1    2  504  502 -0.14819579301E+02  0.80192815094E+01 -0.10082502003E+03  0.10222335090E+03  0.00000000000E+00 0.  1.
<mgrwt>
<rscale>  1 0.12613186E+03</rscale>
<asrwt>0</asrwt>
<pdfrwt beam="1">  1       21 0.86049733E-03 0.12613186E+03</pdfrwt>
<pdfrwt beam="2">  1       21 0.14064684E+00 0.12613186E+03</pdfrwt>
<totfact> 0.16927710E+06</totfact>
</mgrwt>
</event>
<event>
 6    1  0.4261782E-002  0.1262221E+03  0.7546771E-02  0.1233172E+00
         21   -1    0    0  504  502  0.00000000000E+00  0.00000000000E+00  0.25661994073E+02  0.25661994073E+02  0.00000000000E+00 0.  1.
         21   -1    0    0  502  503 -0.00000000000E+00 -0.00000000000E+00 -0.34038468725E+03  0.34038468725E+03  0.00000000000E+00 0.  1.
         25    2    1    2    0    0 -0.91522849923E+01  0.14906658041E+02 -0.32293247658E+03  0.34672381099E+03  0.12500417554E+03 0.  0.
          5    1    3    3  501    0 -0.43259933414E+02  0.52079794387E+02 -0.12170918401E+03  0.13927261861E+03  0.10000000000E+00 0.  1.
         -5    1    3    3    0  501  0.34107648422E+02 -0.37173136345E+02 -0.20122329257E+03  0.20745119238E+03  0.10000000000E+00 0.  1.
         21    1    1    2  504  503  0.91522849923E+01 -0.14906658041E+02  0.82097834005E+01  0.19322870336E+02  0.00000000000E+00 0.  1.
<mgrwt>
<rscale>  1 0.12622209E+03</rscale>
<asrwt>0</asrwt>
<pdfrwt beam="1">  1       21 0.39479991E-02 0.12622209E+03</pdfrwt>
<pdfrwt beam="2">  1       21 0.52366875E-01 0.12622209E+03</pdfrwt>
<totfact> 0.13839572E+06</totfact>
</mgrwt>
</event>
<event>
 6    1  0.4261782E-002  0.1263953E+03  0.7546771E-02  0.1232905E+00
         21   -1    0    0  504  502  0.00000000000E+00  0.00000000000E+00  0.98220068128E+02  0.98220068128E+02  0.00000000000E+00 0. -1.
         21   -1    0    0  502  503 -0.00000000000E+00 -0.00000000000E+00 -0.58380226581E+02  0.58380226581E+02  0.00000000000E+00 0. -1.
         25    2    1    2    0    0  0.16464724098E+02 -0.88898017009E+01  0.17725651089E+02  0.12763215474E+03  0.12500260998E+03 0.  0.
          5    1    3    3  501    0  0.16543856219E+02  0.35292609259E+02  0.56639947893E+02  0.68755808077E+02  0.10000000000E+00 0. -1.
         -5    1    3    3    0  501 -0.79132121766E-01 -0.44182410960E+02 -0.38914296804E+02  0.58876346659E+02  0.10000000000E+00 0. -1.
         21    1    1    2  504  503 -0.16464724098E+02  0.88898017009E+01  0.22114190458E+02  0.28968139973E+02  0.00000000000E+00 0. -1.
<mgrwt>
<rscale>  1 0.12639529E+03</rscale>
<asrwt>0</asrwt>
<pdfrwt beam="1">  1       21 0.15110780E-01 0.12639529E+03</pdfrwt>
<pdfrwt beam="2">  1       21 0.89815733E-02 0.12639529E+03</pdfrwt>
<totfact> 0.37448302E+06</totfact>
</mgrwt>
</event>
<event>
 6    1  0.4261782E-002  0.1319720E+03  0.7546771E-02  0.1224559E+00
         21   -1    0    0  504  502  0.00000000000E+00  0.00000000000E+00  0.62869172891E+02  0.62869172891E+02  0.00000000000E+00 0.  1.
         21   -1    0    0  502  503 -0.00000000000E+00 -0.00000000000E+00 -0.12168894378E+03  0.12168894378E+03  0.00000000000E+00 0.  1.
         25    2    1    2    0    0  0.39141017417E+02  0.16144468211E+02 -0.51102990816E+02  0.14152078644E+03  0.12499581684E+03 0.  0.
          5    1    3    3  501    0  0.17236896621E+02 -0.49120155525E+02  0.55671789406E+01  0.52353641376E+02  0.10000000000E+00 0.  1.
         -5    1    3    3    0  501  0.21904120796E+02  0.65264623736E+02 -0.56670169756E+02  0.89167145068E+02  0.10000000000E+00 0.  1.
         21    1    1    2  504  503 -0.39141017417E+02 -0.16144468211E+02 -0.77167800721E+01  0.43037330226E+02  0.00000000000E+00 0.  1.
<mgrwt>
<rscale>  1 0.13197203E+03</rscale>
<asrwt>0</asrwt>
<pdfrwt beam="1">  1       21 0.96721805E-02 0.13197203E+03</pdfrwt>
<pdfrwt beam="2">  1       21 0.18721376E-01 0.13197203E+03</pdfrwt>
<totfact> 0.22324120E+06</totfact>
</mgrwt>
</event>
<event>
 6    1  0.4261782E-002  0.1269502E+03  0.7546771E-02  0.1232053E+00
         21   -1    0    0  504  502  0.00000000000E+00  0.00000000000E+00  0.73852520830E+02  0.73852520830E+02  0.00000000000E+00 0.  1.
         21   -1    0    0  502  503 -0.00000000000E+00 -0.00000000000E+00 -0.83228516634E+02  0.83228516634E+02  0.00000000000E+00 0.  1.
         25    2    1    2    0    0 -0.12944253354E+02 -0.17950111793E+02 -0.25770452554E+02  0.12953946125E+03  0.12500638219E+03 0.  0.
          5    1    3    3  501    0 -0.65164720452E+02 -0.13494456867E+02  0.82482309053E+01  0.67056576641E+02  0.10000000000E+00 0.  1.
         -5    1    3    3    0  501  0.52220467098E+02 -0.44556549263E+01 -0.34018683459E+02  0.62482884609E+02  0.10000000000E+00 0.  1.
         21    1    1    2  504  503  0.12944253354E+02  0.17950111793E+02  0.16394456749E+02  0.27541576214E+02  0.00000000000E+00 0.  1.
<mgrwt>
<rscale>  1 0.12695021E+03</rscale>
<asrwt>0</asrwt>
<pdfrwt beam="1">  1       21 0.11361926E-01 0.12695021E+03</pdfrwt>
<pdfrwt beam="2">  1       21 0.12804387E-01 0.12695021E+03</pdfrwt>
<totfact> 0.33396203E+06</totfact>
</mgrwt>
</event>
<event>
 6    1  0.4261782E-002  0.1389727E+03  0.7546771E-02  0.1214718E+00
         21   -1    0    0  503  502  0.00000000000E+00  0.00000000000E+00  0.18039633512E+03  0.18039633512E+03  0.00000000000E+00 0. -1.
         21   -1    0    0  504  503 -0.00000000000E+00 -0.00000000000E+00 -0.76004601247E+02  0.76004601247E+02  0.00000000000E+00 0. -1.
         25    2    1    2    0    0  0.38993030521E+01 -0.60602434657E+02  0.13018301810E+03  0.19042328870E+03  0.12500220409E+03 0.  0.
          5    1    3    3  501    0 -0.49116826335E+02  0.10020867152E+02  0.39248441541E+02  0.63665772367E+02  0.10000000000E+00 0.  1.
         -5    1    3    3    0  501  0.53016129387E+02 -0.70623301809E+02  0.90934576554E+02  0.12675751633E+03  0.10000000000E+00 0.  1.
         21    1    1    2  504  502 -0.38993030521E+01  0.60602434657E+02 -0.25791284219E+02  0.65977647672E+02  0.00000000000E+00 0. -1.
<mgrwt>
<rscale>  1 0.13897270E+03</rscale>
<asrwt>0</asrwt>
<pdfrwt beam="1">  1       21 0.27753282E-01 0.13897270E+03</pdfrwt>
<pdfrwt beam="2">  1       21 0.11693016E-01 0.13897270E+03</pdfrwt>
<totfact> 0.76466237E+05</totfact>
</mgrwt>
</event>
<event>
 6    1  0.4261782E-002  0.1285872E+03  0.7546771E-02  0.1229567E+00
         21   -1    0    0  504  502  0.00000000000E+00  0.00000000000E+00  0.55239926192E+03  0.55239926192E+03  0.00000000000E+00 0.  1.
         21   -1    0    0  502  503 -0.00000000000E+00 -0.00000000000E+00 -0.15957376266E+02  0.15957376266E+02  0.00000000000E+00 0.  1.
         25    2    1    2    0    0 -0.18292472016E+01 -0.30111242394E+02  0.25782900528E+03  0.28811536682E+03  0.12499854228E+03 0.  0.
          5    1    3    3  501    0 -0.16814536577E+02  0.35566562926E+02  0.18405138325E+03  0.18820900806E+03  0.10000000000E+00 0. -1.
         -5    1    3    3    0  501  0.14985289375E+02 -0.65677805320E+02  0.73777622032E+02  0.99906358767E+02  0.10000000000E+00 0. -1.
         21    1    1    2  504  503  0.18292472016E+01  0.30111242394E+02  0.27861288037E+03  0.28024127136E+03  0.00000000000E+00 0.  1.
<mgrwt>
<rscale>  1 0.12858720E+03</rscale>
<asrwt>0</asrwt>
<pdfrwt beam="1">  1       21 0.84984487E-01 0.12858720E+03</pdfrwt>
<pdfrwt beam="2">  1       21 0.24549814E-02 0.12858720E+03</pdfrwt>
<totfact> 0.10595157E+06</totfact>
</mgrwt>
</event>
<event>
 6    1  0.4261782E-002  0.1263043E+03  0.7546771E-02  0.1233045E+00
         21   -1    0    0  503  502  0.00000000000E+00  0.00000000000E+00  0.70876741820E+02  0.70876741820E+02  0.00000000000E+00 0. -1.
         21   -1    0    0  504  503 -0.00000000000E+00 -0.00000000000E+00 -0.99768153151E+02  0.99768153151E+02  0.00000000000E+00 0. -1.
         25    2    1    2    0    0  0.47871233723E+01  0.17556119129E+02 -0.55864712202E+02  0.13810733469E+03  0.12498654311E+03 0.  0.
          5    1    3    3  501    0 -0.44373286610E+02 -0.94189881015E+01  0.14965765953E+02  0.47767039389E+02  0.10000000000E+00 0.  1.
         -5    1    3    3    0  501  0.49160409983E+02  0.26975107231E+02 -0.70830478155E+02  0.90340295303E+02  0.10000000000E+00 0.  1.
         21    1    1    2  504  502 -0.47871233723E+01 -0.17556119129E+02  0.26973300870E+02  0.32537560279E+02  0.00000000000E+00 0.  1.
<mgrwt>
<rscale>  1 0.12630427E+03</rscale>
<asrwt>0</asrwt>
<pdfrwt beam="1">  1       21 0.10904114E-01 0.12630427E+03</pdfrwt>
<pdfrwt beam="2">  1       21 0.15348947E-01 0.12630427E+03</pdfrwt>
<totfact> 0.25940448E+06</totfact>
</mgrwt>
</event>
<event>
 6    1  0.4261782E-002  0.1820479E+03  0.7546771E-02  0.1165836E+00
         21   -1    0    0  504  502  0.00000000000E+00  0.00000000000E+00  0.33335215215E+02  0.33335215215E+02  0.00000000000E+00 0.  1.
         21   -1    0    0  502  503 -0.00000000000E+00 -0.00000000000E+00 -0.75534265427E+03  0.75534265427E+03  0.00000000000E+00 0.  1.
         25    2    1    2    0    0 -0.32118554744E+01 -0.13231429501E+03 -0.47007398089E+03  0.50409421567E+03  0.12499616824E+03 0.  0.
          5    1    3    3  501    0 -0.43347400388E+02 -0.36907290255E+02 -0.66896043950E+02  0.87842107731E+02  0.10000000000E+00 0.  1.
         -5    1    3    3    0  501  0.40135544914E+02 -0.95407004756E+02 -0.40317793694E+03  0.41625210794E+03  0.10000000000E+00 0.  1.
         21    1    1    2  504  503  0.32118554744E+01  0.13231429501E+03 -0.25193345817E+03  0.28458365382E+03  0.00000000000E+00 0.  1.
<mgrwt>
<rscale>  1 0.18204788E+03</rscale>
<asrwt>0</asrwt>
<pdfrwt beam="1">  1       21 0.51284956E-02 0.18204788E+03</pdfrwt>
<pdfrwt beam="2">  1       21 0.11620654E+00 0.18204788E+03</pdfrwt>
<totfact> 0.14784834E+05</totfact>
</mgrwt>
</event>
<event>
 6    1  0.4261782E-002  0.1259245E+03  0.7546771E-02  0.1233631E+00
         21   -1    0    0  504  502  0.00000000000E+00  0.00000000000E+00  0.74880316062E+02  0.74880316062E+02  0.00000000000E+00 0.  1.
         21   -1    0    0  502  503 -0.00000000000E+00 -0.00000000000E+00 -0.74113895403E+02  0.74113895403E+02  0.00000000000E+00 0.  1.
         25    2    1    2    0    0  0.32173722673E+01  0.14939899935E+02 -0.15264139947E+02  0.12684627775E+03  0.12499372831E+03 0.  0.
          5    1    3    3  501    0 -0.39798361282E+01 -0.21093622674E+02  0.48620189360E+02  0.53148027494E+02  0.10000000000E+00 0. -1.
         -5    1    3    3    0  501  0.71972083955E+01  0.36033522609E+02 -0.63884329307E+02  0.73698250259E+02  0.10000000000E+00 0. -1.
         21    1    1    2  504  503 -0.32173722673E+01 -0.14939899935E+02  0.16030560606E+02  0.22147933712E+02  0.00000000000E+00 0.  1.
<mgrwt>
<rscale>  1 0.12592452E+03</rscale>
<asrwt>0</asrwt>
<pdfrwt beam="1">  1       21 0.11520049E-01 0.12592452E+03</pdfrwt>
<pdfrwt beam="2">  1       21 0.11402138E-01 0.12592452E+03</pdfrwt>
<totfact> 0.40011229E+06</totfact>
</mgrwt>
</event>
<event>
 6    1  0.4261782E-002  0.1327421E+03  0.7546771E-02  0.1223443E+00
         21   -1    0    0  504  502  0.00000000000E+00  0.00000000000E+00  0.94644466243E+02  0.94644466243E+02  0.00000000000E+00 0.  1.
         21   -1    0    0  502  503 -0.00000000000E+00 -0.00000000000E+00 -0.12915717105E+03  0.12915717105E+03  0.00000000000E+00 0. -1.
         25    2    1    2    0    0  0.21010714128E+02 -0.39416250911E+02 -0.84039302470E+02  0.15710849806E+03  0.12500153943E+03 0.  0.
          5    1    3    3  501    0  0.57429574642E+02 -0.62367581609E+02 -0.74841649668E+02  0.11308914097E+03  0.10000000000E+00 0.  1.
         -5    1    3    3    0  501 -0.36418860514E+02  0.22951330698E+02 -0.91976528012E+01  0.44019357094E+02  0.10000000000E+00 0.  1.
         21    1    1    2  504  503 -0.21010714128E+02  0.39416250911E+02  0.49526597666E+02  0.66693139231E+02  0.00000000000E+00 0.  1.
<mgrwt>
<rscale>  1 0.13274214E+03</rscale>
<asrwt>0</asrwt>
<pdfrwt beam="1">  1       21 0.14560687E-01 0.13274214E+03</pdfrwt>
<pdfrwt beam="2">  1       21 0.19870334E-01 0.13274214E+03</pdfrwt>
<totfact> 0.96896176E+05</totfact>
</mgrwt>
</event>
<event>
 6    1  0.4261782E-002  0.1267328E+03  0.7546771E-02  0.1232386E+00
         21   -1    0    0  503  502  0.00000000000E+00  0.00000000000E+00  0.31310686985E+02  0.31310686985E+02  0.00000000000E+00 0.  1.
         21   -1    0    0  504  503 -0.00000000000E+00 -0.00000000000E+00 -0.42148016947E+03  0.42148016947E+03  0.00000000000E+00 0.  1.
         25    2    1    2    0    0 -0.87766069612E+01  0.18926615561E+02 -0.40681715179E+03  0.42610021204E+03  0.12500380034E+03 0.  0.
          5    1    3    3  501    0  0.18450288357E+02  0.15569306966E+02 -0.67144713269E+01  0.25058144087E+02  0.10000000000E+00 0.  1.
         -5    1    3    3    0  501 -0.27226895319E+02  0.33573085952E+01 -0.40010268047E+03  0.40104206795E+03  0.10000000000E+00 0.  1.
         21    1    1    2  504  502  0.87766069612E+01 -0.18926615561E+02  0.16647669305E+02  0.26690644421E+02  0.00000000000E+00 0.  1.
<mgrwt>
<rscale>  1 0.12673277E+03</rscale>
<asrwt>0</asrwt>
<pdfrwt beam="1">  1       21 0.48170290E-02 0.12673277E+03</pdfrwt>
<pdfrwt beam="2">  1       21 0.64843100E-01 0.12673277E+03</pdfrwt>
<totfact> 0.63242693E+05</totfact>
</mgrwt>
</event>
<event>
 6    1  0.4261782E-002  0.1352461E+03  0.7546771E-02  0.1219873E+00
         21   -1    0    0  503  502  0.00000000000E+00  0.00000000000E+00  0.14067118838E+02  0.14067118838E+02  0.00000000000E+00 0. -1.
         21   -1    0    0  504  503 -0.00000000000E+00 -0.00000000000E+00 -0.79853002404E+03  0.79853002404E+03  0.00000000000E+00 0. -1.
         25    2    1    2    0    0  0.44017609231E+02  0.27007053065E+02 -0.70480464169E+03  0.71766364098E+03  0.12499835116E+03 0.  0.
          5    1    3    3  501    0  0.79159803404E+02  0.15253254389E+02 -0.61861610044E+03  0.62384679688E+03  0.10000000000E+00 0. -1.
         -5    1    3    3    0  501 -0.35142194173E+02  0.11753798676E+02 -0.86188541247E+02  0.93816844100E+02  0.10000000000E+00 0. -1.
         21    1    1    2  504  502 -0.44017609231E+02 -0.27007053065E+02 -0.79658263509E+02  0.94933501900E+02  0.00000000000E+00 0. -1.
<mgrwt>
<rscale>  1 0.13524614E+03</rscale>
<asrwt>0</asrwt>
<pdfrwt beam="1">  1       21 0.21641721E-02 0.13524614E+03</pdfrwt>
<pdfrwt beam="2">  1       21 0.12285078E+00 0.13524614E+03</pdfrwt>
<totfact> 0.54572353E+05</totfact>
</mgrwt>
</event>
<event>
 6    1  0.4261782E-002  0.1290483E+03  0.7546771E-02  0.1228875E+00
         21   -1    0    0  504  502  0.00000000000E+00  0.00000000000E+00  0.12290660315E+03  0.12290660315E+03  0.00000000000E+00 0. -1.
         21   -1    0    0  502  503 -0.00000000000E+00 -0.00000000000E+00 -0.54197521011E+02  0.54197521011E+02  0.00000000000E+00 0. -1.
         25    2    1    2    0    0  0.24864330677E+02 -0.20254746774E+02  0.43072967559E+02  0.13604684615E+03  0.12499989642E+03 0.  0.
          5    1    3    3  501    0  0.59074114992E+02 -0.46393009227E+02 -0.46805333379E-01  0.75113744135E+02  0.10000000000E+00 0.  1.
         -5    1    3    3    0  501 -0.34209784315E+02  0.26138262453E+02  0.43119772893E+02  0.60933102016E+02  0.10000000000E+00 0.  1.
         21    1    1    2  504  503 -0.24864330677E+02  0.20254746774E+02  0.25636114578E+02  0.41057278010E+02  0.00000000000E+00 0. -1.
<mgrwt>
<rscale>  1 0.12904830E+03</rscale>
<asrwt>0</asrwt>
<pdfrwt beam="1">  1       21 0.18908708E-01 0.12904830E+03</pdfrwt>
<pdfrwt beam="2">  1       21 0.83380802E-02 0.12904830E+03</pdfrwt>
<totfact> 0.28345007E+06</totfact>
</mgrwt>
</event>
<event>
 6    1  0.4261782E-002  0.1264536E+03  0.7546771E-02  0.1232815E+00
         21   -1    0    0  504  502  0.00000000000E+00  0.00000000000E+00  0.10872834388E+03  0.10872834388E+03  0.00000000000E+00 0. -1.
         21   -1    0    0  502  503 -0.00000000000E+00 -0.00000000000E+00 -0.55088597073E+03  0.55088597073E+03  0.00000000000E+00 0.  1.
         25    2    1    2    0    0  0.17229089996E+02 -0.81910957023E+01 -0.54272066090E+03  0.55725778375E+03  0.12500634460E+03 0.  0.
          5    1    3    3  501    0 -0.24413479182E+02 -0.55932002194E+02 -0.21619830865E+03  0.22464666813E+03  0.10000000000E+00 0.  1.
         -5    1    3    3    0  501  0.41642569178E+02  0.47740906492E+02 -0.32652235225E+03  0.33261111563E+03  0.10000000000E+00 0.  1.
         21    1    1    2  504  503 -0.17229089996E+02  0.81910957023E+01  0.10056303405E+03  0.10235653085E+03  0.00000000000E+00 0. -1.
<mgrwt>
<rscale>  1 0.12645363E+03</rscale>
<asrwt>0</asrwt>
<pdfrwt beam="1">  1       21 0.16727438E-01 0.12645363E+03</pdfrwt>
<pdfrwt beam="2">  1       21 0.84751686E-01 0.12645363E+03</pdfrwt>
<totfact> 0.40220977E+04</totfact>
</mgrwt>
</event>
<event>
 6    1  0.4261782E-002  0.1265757E+03  0.7546771E-02  0.1232627E+00
         21   -1    0    0  503  502  0.00000000000E+00  0.00000000000E+00  0.10100655671E+03  0.10100655671E+03  0.00000000000E+00 0.  1.
         21   -1    0    0  504  503 -0.00000000000E+00 -0.00000000000E+00 -0.41156509233E+03  0.41156509233E+03  0.00000000000E+00 0.  1.
         25    2    1    2    0    0  0.30238965733E+00 -0.19890691574E+02 -0.40072317737E+03  0.42023859064E+03  0.12500270849E+03 0.  0.
          5    1    3    3  501    0  0.45783380325E+01  0.53046321030E+02 -0.15551482920E+03  0.16437683978E+03  0.10000000000E+00 0. -1.
         -5    1    3    3    0  501 -0.42759483752E+01 -0.72937012604E+02 -0.24520834817E+03  0.25586175086E+03  0.10000000000E+00 0. -1.
         21    1    1    2  504  502 -0.30238965733E+00  0.19890691574E+02  0.90164641757E+02  0.92333058403E+02  0.00000000000E+00 0.  1.
<mgrwt>
<rscale>  1 0.12657570E+03</rscale>
<asrwt>0</asrwt>
<pdfrwt beam="1">  1       21 0.15539471E-01 0.12657570E+03</pdfrwt>
<pdfrwt beam="2">  1       21 0.63317705E-01 0.12657570E+03</pdfrwt>
<totfact> 0.87236774E+04</totfact>
</mgrwt>
</event>
<event>
 6    1  0.4261782E-002  0.1340522E+03  0.7546771E-02  0.1221564E+00
         21   -1    0    0  503  502  0.00000000000E+00  0.00000000000E+00  0.33000961848E+03  0.33000961848E+03  0.00000000000E+00 0.  1.
         21   -1    0    0  504  503 -0.00000000000E+00 -0.00000000000E+00 -0.70004260519E+02  0.70004260519E+02  0.00000000000E+00 0. -1.
         25    2    1    2    0    0 -0.41730911587E+02  0.24475090917E+02 -0.15106047128E+01  0.13406069178E+03  0.12501795110E+03 0.  0.
          5    1    3    3  501    0 -0.36157560972E+02  0.50644580756E+02  0.47457753256E+02  0.78259128027E+02  0.10000000000E+00 0. -1.
         -5    1    3    3    0  501 -0.55733506147E+01 -0.26169489838E+02 -0.48968357969E+02  0.55801563756E+02  0.10000000000E+00 0. -1.
         21    1    1    2  504  502  0.41730911587E+02 -0.24475090917E+02  0.26151596267E+03  0.26595318721E+03  0.00000000000E+00 0.  1.
<mgrwt>
<rscale>  1 0.13405218E+03</rscale>
<asrwt>0</asrwt>
<pdfrwt beam="1">  1       21 0.50770710E-01 0.13405218E+03</pdfrwt>
<pdfrwt beam="2">  1       21 0.10769886E-01 0.13405218E+03</pdfrwt>
<totfact> 0.26629482E+05</totfact>
</mgrwt>
</event>
<event>
 6    1  0.4261782E-002  0.1300037E+03  0.7546771E-02  0.1227450E+00
         21   -1    0    0  504  502  0.00000000000E+00  0.00000000000E+00  0.85205898133E+01  0.85205898133E+01  0.00000000000E+00 0.  1.
         21   -1    0    0  502  503 -0.00000000000E+00 -0.00000000000E+00 -0.12252719179E+04  0.12252719179E+04  0.00000000000E+00 0.  1.
         25    2    1    2    0    0  0.43557467992E+01 -0.35458593506E+02 -0.11562146654E+04  0.11635004604E+04  0.12499873808E+03 0.  0.
          5    1    3    3  501    0 -0.21222865060E+02 -0.48633712009E+01 -0.10471050344E+04  0.10473313828E+04  0.10000000000E+00 0.  1.
         -5    1    3    3    0  501  0.25578611859E+02 -0.30595222305E+02 -0.10910963103E+03  0.11616907762E+03  0.10000000000E+00 0.  1.
         21    1    1    2  504  503 -0.43557467992E+01  0.35458593506E+02 -0.60536662673E+02  0.70292047283E+02  0.00000000000E+00 0.  1.
<mgrwt>
<rscale>  1 0.13000373E+03</rscale>
<asrwt>0</asrwt>
<pdfrwt beam="1">  1       21 0.13108607E-02 0.13000373E+03</pdfrwt>
<pdfrwt beam="2">  1       21 0.18850327E+00 0.13000373E+03</pdfrwt>
<totfact> 0.39832842E+05</totfact>
</mgrwt>
</event>
<event>
 6    1  0.4261782E-002  0.1326714E+03  0.7546771E-02  0.1223545E+00
         21   -1    0    0  504  502  0.00000000000E+00  0.00000000000E+00  0.38442316988E+02  0.38442316988E+02  0.00000000000E+00 0. -1.
         21   -1    0    0  502  503 -0.00000000000E+00 -0.00000000000E+00 -0.29106127019E+03  0.29106127019E+03  0.00000000000E+00 0. -1.
         25    2    1    2    0    0 -0.36245254196E+02  0.25732759902E+02 -0.25229465452E+03  0.28505138190E+03  0.12500321693E+03 0.  0.
          5    1    3    3  501    0  0.34257432557E+01 -0.20010957082E+00 -0.23434631296E+03  0.23437145765E+03  0.10000000000E+00 0.  1.
         -5    1    3    3    0  501 -0.39670997451E+02  0.25932869473E+02 -0.17948341553E+02  0.50679924254E+02  0.10000000000E+00 0.  1.
         21    1    1    2  504  503  0.36245254196E+02 -0.25732759902E+02 -0.32429868245E+00  0.44452205272E+02  0.00000000000E+00 0. -1.
<mgrwt>
<rscale>  1 0.13267139E+03</rscale>
<asrwt>0</asrwt>
<pdfrwt beam="1">  1       21 0.59142027E-02 0.13267139E+03</pdfrwt>
<pdfrwt beam="2">  1       21 0.44778656E-01 0.13267139E+03</pdfrwt>
<totfact> 0.96971130E+05</totfact>
</mgrwt>
</event>
<event>
 6    1  0.4261782E-002  0.1269761E+03  0.7546771E-02  0.1232013E+00
         21   -1    0    0  503  502  0.00000000000E+00  0.00000000000E+00  0.34499164562E+02  0.34499164562E+02  0.00000000000E+00 0.  1.
         21   -1    0    0  504  503 -0.00000000000E+00 -0.00000000000E+00 -0.17805251417E+03  0.17805251417E+03  0.00000000000E+00 0.  1.
         25    2    1    2    0    0 -0.22266349310E+02  0.16813401627E+01 -0.14151362096E+03  0.19012897351E+03  0.12499721771E+03 0.  0.
          5    1    3    3  501    0 -0.45793122045E+02 -0.49664021595E+02 -0.97057206404E+02  0.11825242654E+03  0.10000000000E+00 0. -1.
         -5    1    3    3    0  501  0.23526772735E+02  0.51345361758E+02 -0.44456414555E+02  0.71876546971E+02  0.10000000000E+00 0. -1.
         21    1    1    2  504  502  0.22266349310E+02 -0.16813401627E+01 -0.20397286455E+01  0.22422705218E+02  0.00000000000E+00 0.  1.
<mgrwt>
<rscale>  1 0.12697607E+03</rscale>
<asrwt>0</asrwt>
<pdfrwt beam="1">  1       21 0.53075638E-02 0.12697607E+03</pdfrwt>
<pdfrwt beam="2">  1       21 0.27392695E-01 0.12697607E+03</pdfrwt>
<totfact> 0.30578597E+06</totfact>
</mgrwt>
</event>
<event>
 6    1  0.4261782E-002  0.1262562E+03  0.7546771E-02  0.1233119E+00
         21   -1    0    0  504  502  0.00000000000E+00  0.00000000000E+00  0.12650357317E+03  0.12650357317E+03  0.00000000000E+00 0.  1.
         21   -1    0    0  502  503 -0.00000000000E+00 -0.00000000000E+00 -0.44526188432E+02  0.44526188432E+02  0.00000000000E+00 0.  1.
         25    2    1    2    0    0 -0.17667447829E+02 -0.19420677846E+01  0.52772265506E+02  0.13684132307E+03  0.12499890140E+03 0.  0.
          5    1    3    3  501    0 -0.56221024540E+02 -0.94777749244E+01 -0.14598927406E+02  0.58853806157E+02  0.10000000000E+00 0.  1.
         -5    1    3    3    0  501  0.38553576711E+02  0.75357071398E+01  0.67371192911E+02  0.77987516909E+02  0.10000000000E+00 0.  1.
         21    1    1    2  504  503  0.17667447829E+02  0.19420677846E+01  0.29205119228E+02  0.34188438531E+02  0.00000000000E+00 0.  1.
<mgrwt>
<rscale>  1 0.12625623E+03</rscale>
<asrwt>0</asrwt>
<pdfrwt beam="1">  1       21 0.19462088E-01 0.12625623E+03</pdfrwt>
<pdfrwt beam="2">  1       21 0.68501829E-02 0.12625623E+03</pdfrwt>
<totfact> 0.37641040E+06</totfact>
</mgrwt>
</event>
<event>
 6    1  0.4261782E-002  0.1355311E+03  0.7546771E-02  0.1219472E+00
         21   -1    0    0  504  502  0.00000000000E+00  0.00000000000E+00  0.50198852027E+02  0.50198852027E+02  0.00000000000E+00 0.  1.
         21   -1    0    0  502  503 -0.00000000000E+00 -0.00000000000E+00 -0.33486677058E+03  0.33486677058E+03  0.00000000000E+00 0. -1.
         25    2    1    2    0    0  0.50929395004E+02 -0.12137485320E+02 -0.30109592318E+03  0.33019303236E+03  0.12501024692E+03 0.  0.
          5    1    3    3  501    0  0.40654731787E+02  0.54321988483E+02 -0.16437727516E+03  0.17783021182E+03  0.10000000000E+00 0.  1.
         -5    1    3    3    0  501  0.10274663216E+02 -0.66459473804E+02 -0.13671864802E+03  0.15236282053E+03  0.10000000000E+00 0.  1.
         21    1    1    2  504  503 -0.50929395004E+02  0.12137485320E+02  0.16428004625E+02  0.54872590255E+02  0.00000000000E+00 0.  1.
<mgrwt>
<rscale>  1 0.13553112E+03</rscale>
<asrwt>0</asrwt>
<pdfrwt beam="1">  1       21 0.77229002E-02 0.13553112E+03</pdfrwt>
<pdfrwt beam="2">  1       21 0.51517965E-01 0.13553112E+03</pdfrwt>
<totfact> 0.46080948E+05</totfact>
</mgrwt>
</event>
<event>
 6    1  0.4261782E-002  0.1272698E+03  0.7546771E-02  0.1231564E+00
         21   -1    0    0  504  502  0.00000000000E+00  0.00000000000E+00  0.29150296764E+04  0.29150296764E+04  0.00000000000E+00 0. -1.
         21   -1    0    0  502  503 -0.00000000000E+00 -0.00000000000E+00 -0.19746344452E+01  0.19746344452E+01  0.00000000000E+00 0. -1.
         25    2    1    2    0    0 -0.17443634700E+02 -0.16378604574E+02  0.23549009474E+04  0.23583375655E+04  0.12500024693E+03 0.  0.
          5    1    3    3  501    0  0.42142118400E+02  0.27385396364E+02  0.12171084681E+04  0.12181457020E+04  0.10000000000E+00 0.  1.
         -5    1    3    3    0  501 -0.59585753100E+02 -0.43764000939E+02  0.11377924793E+04  0.11401918635E+04  0.10000000000E+00 0.  1.
         21    1    1    2  504  503  0.17443634700E+02  0.16378604574E+02  0.55815409453E+03  0.55866674531E+03  0.00000000000E+00 0. -1.
<mgrwt>
<rscale>  1 0.12726980E+03</rscale>
<asrwt>0</asrwt>
<pdfrwt beam="1">  1       21 0.44846266E+00 0.12726980E+03</pdfrwt>
<pdfrwt beam="2">  1       21 0.30379225E-03 0.12726980E+03</pdfrwt>
<totfact> 0.11189079E+05</totfact>
</mgrwt>
</event>
<event>
 6    1  0.4261782E-002  0.1294922E+03  0.7546771E-02  0.1228211E+00
         21   -1    0    0  503  502  0.00000000000E+00  0.00000000000E+00  0.10445449489E+04  0.10445449489E+04  0.00000000000E+00 0. -1.
         21   -1    0    0  504  503 -0.00000000000E+00 -0.00000000000E+00 -0.65626698329E+01  0.65626698329E+01  0.00000000000E+00 0. -1.
         25    2    1    2    0    0 -0.83586999091E+01  0.32749016660E+02  0.74352881977E+03  0.75472069991E+03  0.12500345231E+03 0.  0.
          5    1    3    3  501    0 -0.63793456600E+02  0.36530300338E+01  0.29480031023E+03  0.30164579003E+03  0.10000000000E+00 0. -1.
         -5    1    3    3    0  501  0.55434756691E+02  0.29095986626E+02  0.44872850954E+03  0.45307490987E+03  0.10000000000E+00 0. -1.
         21    1    1    2  504  502  0.83586999091E+01 -0.32749016660E+02  0.29445345933E+03  0.29638691886E+03  0.00000000000E+00 0. -1.
<mgrwt>
<rscale>  1 0.12949220E+03</rscale>
<asrwt>0</asrwt>
<pdfrwt beam="1">  1       21 0.16069909E+00 0.12949220E+03</pdfrwt>
<pdfrwt beam="2">  1       21 0.10096423E-02 0.12949220E+03</pdfrwt>
<totfact> 0.93144594E+05</totfact>
</mgrwt>
</event>
<event>
 6    1  0.4261782E-002  0.1353235E+03  0.7546771E-02  0.1219764E+00
         21   -1    0    0  503  502  0.00000000000E+00  0.00000000000E+00  0.89016935486E+03  0.89016935486E+03  0.00000000000E+00 0.  1.
         21   -1    0    0  504  503 -0.00000000000E+00 -0.00000000000E+00 -0.15160770471E+02  0.15160770471E+02  0.00000000000E+00 0.  1.
         25    2    1    2    0    0  0.33597266695E+02  0.39469847183E+02  0.31382711571E+03  0.34176000019E+03  0.12500317599E+03 0.  0.
          5    1    3    3  501    0  0.66061855630E+02 -0.13580838723E+02  0.11377451356E+03  0.13226208030E+03  0.10000000000E+00 0. -1.
         -5    1    3    3    0  501 -0.32464588935E+02  0.53050685906E+02  0.20005260215E+03  0.20949791989E+03  0.10000000000E+00 0. -1.
         21    1    1    2  504  502 -0.33597266695E+02 -0.39469847183E+02  0.56118146867E+03  0.56357012514E+03  0.00000000000E+00 0.  1.
<mgrwt>
<rscale>  1 0.13532346E+03</rscale>
<asrwt>0</asrwt>
<pdfrwt beam="1">  1       21 0.13694909E+00 0.13532346E+03</pdfrwt>
<pdfrwt beam="2">  1       21 0.23324269E-02 0.13532346E+03</pdfrwt>
<totfact> 0.36872391E+05</totfact>
</mgrwt>
</event>
<event>
 6    1  0.4261782E-002  0.1290857E+03  0.7546771E-02  0.1228819E+00
         21   -1    0    0  503  502  0.00000000000E+00  0.00000000000E+00  0.82533681225E+03  0.82533681225E+03  0.00000000000E+00 0.  1.
         21   -1    0    0  504  503 -0.00000000000E+00 -0.00000000000E+00 -0.21060958496E+02  0.21060958496E+02  0.00000000000E+00 0. -1.
         25    2    1    2    0    0 -0.47613872755E+01  0.31879141224E+02  0.18114283357E+03  0.22243165684E+03  0.12499666139E+03 0.  0.
          5    1    3    3  501    0 -0.19180727891E+01  0.80420947541E+02  0.11462754620E+03  0.14003818106E+03  0.10000000000E+00 0.  1.
         -5    1    3    3    0  501 -0.28433144864E+01 -0.48541806317E+02  0.66515287367E+02  0.82393475781E+02  0.10000000000E+00 0.  1.
         21    1    1    2  504  502  0.47613872755E+01 -0.31879141224E+02  0.62313302019E+03  0.62396611391E+03  0.00000000000E+00 0.  1.
<mgrwt>
<rscale>  1 0.12908569E+03</rscale>
<asrwt>0</asrwt>
<pdfrwt beam="1">  1       21 0.12697487E+00 0.12908569E+03</pdfrwt>
<pdfrwt beam="2">  1       21 0.32401481E-02 0.12908569E+03</pdfrwt>
<totfact> 0.26066919E+05</totfact>
</mgrwt>
</event>
<event>
 6    1  0.4261782E-002  0.1263166E+03  0.7546771E-02  0.1233026E+00
         21   -1    0    0  504  502  0.00000000000E+00  0.00000000000E+00  0.39409628182E+03  0.39409628182E+03  0.00000000000E+00 0. -1.
         21   -1    0    0  502  503 -0.00000000000E+00 -0.00000000000E+00 -0.18533525455E+02  0.18533525455E+02  0.00000000000E+00 0. -1.
         25    2    1    2    0    0  0.48609840245E+01 -0.17742986601E+02  0.20301784659E+03  0.23910693089E+03  0.12496973885E+03 0.  0.
          5    1    3    3  501    0  0.17271221732E+02 -0.44735019367E+02  0.17223960123E+02  0.50952839569E+02  0.10000000000E+00 0. -1.
         -5    1    3    3    0  501 -0.12410237708E+02  0.26992032766E+02  0.18579388647E+03  0.18815409132E+03  0.10000000000E+00 0. -1.
         21    1    1    2  504  503 -0.48609840245E+01  0.17742986601E+02  0.17254490977E+03  0.17352287638E+03  0.00000000000E+00 0. -1.
<mgrwt>
<rscale>  1 0.12631658E+03</rscale>
<asrwt>0</asrwt>
<pdfrwt beam="1">  1       21 0.60630191E-01 0.12631658E+03</pdfrwt>
<pdfrwt beam="2">  1       21 0.28513119E-02 0.12631658E+03</pdfrwt>
<totfact> 0.17389174E+06</totfact>
</mgrwt>
</event>
<event>
 6    1  0.4261782E-002  0.1263400E+03  0.7546771E-02  0.1232990E+00
         21   -1    0    0  503  502  0.00000000000E+00  0.00000000000E+00  0.69479123576E+02  0.69479123576E+02  0.00000000000E+00 0.  1.
         21   -1    0    0  504  503 -0.00000000000E+00 -0.00000000000E+00 -0.13045291623E+03  0.13045291623E+03  0.00000000000E+00 0. -1.
         25    2    1    2    0    0  0.71369171009E+01 -0.16883900384E+02 -0.97152258934E+02  0.15937488138E+03  0.12500315884E+03 0.  0.
          5    1    3    3  501    0  0.13269446639E+02 -0.36427747065E+02 -0.12151234481E+03  0.12754732028E+03  0.10000000000E+00 0. -1.
         -5    1    3    3    0  501 -0.61325295381E+01  0.19543846682E+02  0.24360085872E+02  0.31827561097E+02  0.10000000000E+00 0. -1.
         21    1    1    2  504  502 -0.71369171009E+01  0.16883900384E+02  0.36178466278E+02  0.40557158432E+02  0.00000000000E+00 0.  1.
<mgrwt>
<rscale>  1 0.12633998E+03</rscale>
<asrwt>0</asrwt>
<pdfrwt beam="1">  1       21 0.10689096E-01 0.12633998E+03</pdfrwt>
<pdfrwt beam="2">  1       21 0.20069679E-01 0.12633998E+03</pdfrwt>
<totfact> 0.16463788E+06</totfact>
</mgrwt>
</event>
<event>
 6    1  0.4261782E-002  0.1262260E+03  0.7546771E-02  0.1233166E+00
         21   -1    0    0  504  502  0.00000000000E+00  0.00000000000E+00  0.17060371460E+02  0.17060371460E+02  0.00000000000E+00 0. -1.
         21   -1    0    0  502  503 -0.00000000000E+00 -0.00000000000E+00 -0.30915314657E+03  0.30915314657E+03  0.00000000000E+00 0. -1.
         25    2    1    2    0    0 -0.49025081716E+01 -0.16849399602E+02 -0.23883414675E+03  0.27013840458E+03  0.12500028449E+03 0.  0.
          5    1    3    3  501    0  0.48230625902E+02 -0.38020316500E+02 -0.16934813176E+03  0.18014032717E+03  0.10000000000E+00 0.  1.
         -5    1    3    3    0  501 -0.53133134074E+02  0.21170916898E+02 -0.69486014986E+02  0.89998077410E+02  0.10000000000E+00 0.  1.
         21    1    1    2  504  503  0.49025081716E+01  0.16849399602E+02 -0.53258628362E+02  0.56075113449E+02  0.00000000000E+00 0.  1.
<mgrwt>
<rscale>  1 0.12622602E+03</rscale>
<asrwt>0</asrwt>
<pdfrwt beam="1">  1       21 0.26246728E-02 0.12622602E+03</pdfrwt>
<pdfrwt beam="2">  1       21 0.47562018E-01 0.12622602E+03</pdfrwt>
<totfact> 0.33022491E+06</totfact>
</mgrwt>
</event>
<event>
 6    1  0.4261782E-002  0.1512594E+03  0.7546771E-02  0.1198934E+00
         21   -1    0    0  504  502  0.00000000000E+00  0.00000000000E+00  0.12650701378E+02  0.12650701378E+02  0.00000000000E+00 0.  1.
         21   -1    0    0  502  503 -0.00000000000E+00 -0.00000000000E+00 -0.11613426898E+04  0.11613426898E+04  0.00000000000E+00 0.  1.
         25    2    1    2    0    0 -0.84761859010E+02 -0.83536640500E+01 -0.60230830366E+03  0.62101103393E+03  0.12500022067E+03 0.  0.
          5    1    3    3  501    0 -0.95148974052E+01  0.42475297431E+02 -0.35312954379E+03  0.35580214848E+03  0.10000000000E+00 0.  1.
         -5    1    3    3    0  501 -0.75246961605E+02 -0.50828961481E+02 -0.24917875986E+03  0.26520888545E+03  0.10000000000E+00 0.  1.
         21    1    1    2  504  503  0.84761859010E+02  0.83536640500E+01 -0.54638368476E+03  0.55298235724E+03  0.00000000000E+00 0.  1.
<mgrwt>
<rscale>  1 0.15125942E+03</rscale>
<asrwt>0</asrwt>
<pdfrwt beam="1">  1       21 0.19462610E-02 0.15125942E+03</pdfrwt>
<pdfrwt beam="2">  1       21 0.17866818E+00 0.15125942E+03</pdfrwt>
<totfact> 0.24341714E+05</totfact>
</mgrwt>
</event>
<event>
 6    1  0.4261782E-002  0.1373910E+03  0.7546771E-02  0.1216883E+00
         21   -1    0    0  503  502  0.00000000000E+00  0.00000000000E+00  0.79304870158E+02  0.79304870158E+02  0.00000000000E+00 0. -1.
         21   -1    0    0  504  503 -0.00000000000E+00 -0.00000000000E+00 -0.56834502249E+03  0.56834502249E+03  0.00000000000E+00 0. -1.
         25    2    1    2    0    0  0.10184693200E+02  0.56106748130E+02 -0.54839369206E+03  0.56534231196E+03  0.12499837212E+03 0.  0.
          5    1    3    3  501    0 -0.53343480589E+02  0.49825321591E+02 -0.26697561562E+03  0.27677441884E+03  0.10000000000E+00 0.  1.
         -5    1    3    3    0  501  0.63528173789E+02  0.62814265396E+01 -0.28141807645E+03  0.28856789311E+03  0.10000000000E+00 0.  1.
         21    1    1    2  504  502 -0.10184693200E+02 -0.56106748130E+02  0.59353539729E+02  0.82307580694E+02  0.00000000000E+00 0. -1.
<mgrwt>
<rscale>  1 0.13739100E+03</rscale>
<asrwt>0</asrwt>
<pdfrwt beam="1">  1       21 0.12200750E-01 0.13739100E+03</pdfrwt>
<pdfrwt beam="2">  1       21 0.87437693E-01 0.13739100E+03</pdfrwt>
<totfact> 0.65662699E+04</totfact>
</mgrwt>
</event>
<event>
 6    1  0.4261782E-002  0.1362865E+03  0.7546771E-02  0.1218415E+00
         21   -1    0    0  504  502  0.00000000000E+00  0.00000000000E+00  0.53007982096E+03  0.53007982096E+03  0.00000000000E+00 0.  1.
         21   -1    0    0  502  503 -0.00000000000E+00 -0.00000000000E+00 -0.17203446555E+02  0.17203446555E+02  0.00000000000E+00 0.  1.
         25    2    1    2    0    0 -0.26884877216E+02  0.47174771247E+02  0.35021037380E+03  0.37579424915E+03  0.12500302442E+03 0.  0.
          5    1    3    3  501    0 -0.35080335053E+02 -0.29087999040E+02  0.58426090800E+02  0.74096961352E+02  0.10000000000E+00 0. -1.
         -5    1    3    3    0  501  0.81954578367E+01  0.76262770287E+02  0.29178428300E+03  0.30169728780E+03  0.10000000000E+00 0. -1.
         21    1    1    2  504  503  0.26884877216E+02 -0.47174771247E+02  0.16266600061E+03  0.17148901836E+03  0.00000000000E+00 0.  1.
<mgrwt>
<rscale>  1 0.13628651E+03</rscale>
<asrwt>0</asrwt>
<pdfrwt beam="1">  1       21 0.81550729E-01 0.13628651E+03</pdfrwt>
<pdfrwt beam="2">  1       21 0.26466845E-02 0.13628651E+03</pdfrwt>
<totfact> 0.10286437E+06</totfact>
</mgrwt>
</event>
<event>
 6    1  0.4261782E-002  0.1263125E+03  0.7546771E-02  0.1233032E+00
         21   -1    0    0  504  502  0.00000000000E+00  0.00000000000E+00  0.20485632089E+03  0.20485632089E+03  0.00000000000E+00 0.  1.
         21   -1    0    0  502  503 -0.00000000000E+00 -0.00000000000E+00 -0.26988467456E+02  0.26988467456E+02  0.00000000000E+00 0.  1.
         25    2    1    2    0    0 -0.15315504363E+02  0.96219816970E+01  0.13277408975E+03  0.18325883637E+03  0.12501077951E+03 0.  0.
          5    1    3    3  501    0 -0.33846648826E+02  0.47303413702E+02  0.12849860792E+03  0.14105002950E+03  0.10000000000E+00 0. -1.
         -5    1    3    3    0  501  0.18531144463E+02 -0.37681432005E+02  0.42754818318E+01  0.42208806877E+02  0.10000000000E+00 0. -1.
         21    1    1    2  504  503  0.15315504363E+02 -0.96219816970E+01  0.45093763686E+02  0.48585951972E+02  0.00000000000E+00 0.  1.
<mgrwt>
<rscale>  1 0.12631248E+03</rscale>
<asrwt>0</asrwt>
<pdfrwt beam="1">  1       21 0.31516356E-01 0.12631248E+03</pdfrwt>
<pdfrwt beam="2">  1       21 0.41520720E-02 0.12631248E+03</pdfrwt>
<totfact> 0.35207911E+06</totfact>
</mgrwt>
</event>
<event>
 6    1  0.4261782E-002  0.1422706E+03  0.7546771E-02  0.1210306E+00
         21   -1    0    0  503  502  0.00000000000E+00  0.00000000000E+00  0.53511294380E+03  0.53511294380E+03  0.00000000000E+00 0. -1.
         21   -1    0    0  504  503 -0.00000000000E+00 -0.00000000000E+00 -0.27602248021E+02  0.27602248021E+02  0.00000000000E+00 0. -1.
         25    2    1    2    0    0  0.66130275798E+02  0.15549031802E+02  0.18636470540E+03  0.23446264743E+03  0.12500377535E+03 0.  0.
          5    1    3    3  501    0  0.44375134169E+02 -0.47608464329E+02  0.48168173495E+02  0.80968520711E+02  0.10000000000E+00 0. -1.
         -5    1    3    3    0  501  0.21755141630E+02  0.63157496131E+02  0.13819653191E+03  0.15349412672E+03  0.10000000000E+00 0. -1.
         21    1    1    2  504  502 -0.66130275798E+02 -0.15549031802E+02  0.32114599037E+03  0.32825254439E+03  0.00000000000E+00 0. -1.
<mgrwt>
<rscale>  1 0.14227062E+03</rscale>
<asrwt>0</asrwt>
<pdfrwt beam="1">  1       21 0.82325061E-01 0.14227062E+03</pdfrwt>
<pdfrwt beam="2">  1       21 0.42465001E-02 0.14227062E+03</pdfrwt>
<totfact> 0.46112292E+05</totfact>
</mgrwt>
</event>
<event>
 6    1  0.4261782E-002  0.1740041E+03  0.7546771E-02  0.1173735E+00
         21   -1    0    0  504  502  0.00000000000E+00  0.00000000000E+00  0.69385242693E+02  0.69385242693E+02  0.00000000000E+00 0.  1.
         21   -1    0    0  502  503 -0.00000000000E+00 -0.00000000000E+00 -0.40296593440E+03  0.40296593440E+03  0.00000000000E+00 0.  1.
         25    2    1    2    0    0  0.12058521063E+03  0.10116148315E+02 -0.29993137419E+03  0.34675099378E+03  0.12503716641E+03 0.  0.
          5    1    3    3  501    0 -0.13052805715E+02  0.34479332234E+02 -0.82671833380E+02  0.90519843807E+02  0.10000000000E+00 0. -1.
         -5    1    3    3    0  501  0.13363801634E+03 -0.24363183920E+02 -0.21725954081E+03  0.25623114997E+03  0.10000000000E+00 0. -1.
         21    1    1    2  504  503 -0.12058521063E+03 -0.10116148315E+02 -0.33649317517E+02  0.12560018331E+03  0.00000000000E+00 0.  1.
<mgrwt>
<rscale>  1 0.17400409E+03</rscale>
<asrwt>0</asrwt>
<pdfrwt beam="1">  1       21 0.10674653E-01 0.17400409E+03</pdfrwt>
<pdfrwt beam="2">  1       21 0.61994757E-01 0.17400409E+03</pdfrwt>
<totfact> 0.17560098E+05</totfact>
</mgrwt>
</event>
<event>
 6    1  0.4261782E-002  0.1527336E+03  0.7546771E-02  0.1197154E+00
         21   -1    0    0  504  502  0.00000000000E+00  0.00000000000E+00  0.10527826049E+04  0.10527826049E+04  0.00000000000E+00 0.  1.
         21   -1    0    0  502  503 -0.00000000000E+00 -0.00000000000E+00 -0.23435891087E+02  0.23435891087E+02  0.00000000000E+00 0.  1.
         25    2    1    2    0    0 -0.86195114101E+02 -0.16539190134E+02  0.25743513300E+03  0.29933328497E+03  0.12499770111E+03 0.  0.
          5    1    3    3  501    0 -0.63402372397E+02 -0.70009678035E+02  0.16586058889E+03  0.19086896236E+03  0.10000000000E+00 0. -1.
         -5    1    3    3    0  501 -0.22792741704E+02  0.53470487901E+02  0.91574544110E+02  0.10846432261E+03  0.10000000000E+00 0. -1.
         21    1    1    2  504  503  0.86195114101E+02  0.16539190134E+02  0.77191158080E+03  0.77688521101E+03  0.00000000000E+00 0.  1.
<mgrwt>
<rscale>  1 0.15273365E+03</rscale>
<asrwt>0</asrwt>
<pdfrwt beam="1">  1       21 0.16196652E+00 0.15273365E+03</pdfrwt>
<pdfrwt beam="2">  1       21 0.36055225E-02 0.15273365E+03</pdfrwt>
<totfact> 0.11579249E+05</totfact>
</mgrwt>
</event>
<event>
 6    1  0.4261782E-002  0.1498349E+03  0.7546771E-02  0.1200676E+00
         21   -1    0    0  503  502  0.00000000000E+00  0.00000000000E+00  0.38331330085E+03  0.38331330085E+03  0.00000000000E+00 0.  1.
         21   -1    0    0  504  503 -0.00000000000E+00 -0.00000000000E+00 -0.44439031747E+02  0.44439031747E+02  0.00000000000E+00 0.  1.
         25    2    1    2    0    0  0.77763936639E+02  0.27903557984E+02  0.30230930214E+03  0.33740392255E+03  0.12499861759E+03 0.  0.
          5    1    3    3  501    0  0.67832727491E+02 -0.22849610840E+02  0.72625376567E+02  0.10196979433E+03  0.10000000000E+00 0.  1.
         -5    1    3    3    0  501  0.99312091471E+01  0.50753168824E+02  0.22968392558E+03  0.23543412822E+03  0.10000000000E+00 0.  1.
         21    1    1    2  504  502 -0.77763936639E+02 -0.27903557984E+02  0.36564966961E+02  0.90348410050E+02  0.00000000000E+00 0.  1.
<mgrwt>
<rscale>  1 0.14983489E+03</rscale>
<asrwt>0</asrwt>
<pdfrwt beam="1">  1       21 0.58971275E-01 0.14983489E+03</pdfrwt>
<pdfrwt beam="2">  1       21 0.68367744E-02 0.14983489E+03</pdfrwt>
<totfact> 0.42705447E+05</totfact>
</mgrwt>
</event>
<event>
 6    1  0.4261782E-002  0.1336474E+03  0.7546771E-02  0.1222142E+00
         21   -1    0    0  503  502  0.00000000000E+00  0.00000000000E+00  0.45480373444E+02  0.45480373444E+02  0.00000000000E+00 0. -1.
         21   -1    0    0  504  503 -0.00000000000E+00 -0.00000000000E+00 -0.27240316720E+03  0.27240316720E+03  0.00000000000E+00 0. -1.
         25    2    1    2    0    0 -0.22562148770E+02 -0.41567729390E+02 -0.23457140950E+03  0.26997291545E+03  0.12499880895E+03 0.  0.
          5    1    3    3  501    0 -0.24613040131E+02 -0.84106300308E+02 -0.18439264921E+03  0.20415761210E+03  0.10000000000E+00 0. -1.
         -5    1    3    3    0  501  0.20508913607E+01  0.42538570918E+02 -0.50178760287E+02  0.65815303350E+02  0.10000000000E+00 0. -1.
         21    1    1    2  504  502  0.22562148770E+02  0.41567729390E+02  0.76486157406E+01  0.47910625194E+02  0.00000000000E+00 0. -1.
<mgrwt>
<rscale>  1 0.13364741E+03</rscale>
<asrwt>0</asrwt>
<pdfrwt beam="1">  1       21 0.69969803E-02 0.13364741E+03</pdfrwt>
<pdfrwt beam="2">  1       21 0.41908181E-01 0.13364741E+03</pdfrwt>
<totfact> 0.83262778E+05</totfact>
</mgrwt>
</event>
<event>
 6    1  0.4261782E-002  0.1452379E+03  0.7546771E-02  0.1206450E+00
         21   -1    0    0  503  502  0.00000000000E+00  0.00000000000E+00  0.10055911170E+04  0.10055911170E+04  0.00000000000E+00 0. -1.
         21   -1    0    0  504  503 -0.00000000000E+00 -0.00000000000E+00 -0.13004386165E+02  0.13004386165E+02  0.00000000000E+00 0. -1.
         25    2    1    2    0    0 -0.65669972127E+02 -0.33990140875E+02  0.50633462542E+03  0.52675306402E+03  0.12500465050E+03 0.  0.
          5    1    3    3  501    0 -0.42749922185E+02  0.43808744282E+02  0.27125758596E+03  0.27807813625E+03  0.10000000000E+00 0.  1.
         -5    1    3    3    0  501 -0.22920049943E+02 -0.77798885157E+02  0.23507703946E+03  0.24867492777E+03  0.10000000000E+00 0.  1.
         21    1    1    2  504  502  0.65669972127E+02  0.33990140875E+02  0.48625210546E+03  0.49184243918E+03  0.00000000000E+00 0. -1.
<mgrwt>
<rscale>  1 0.14523787E+03</rscale>
<asrwt>0</asrwt>
<pdfrwt beam="1">  1       21 0.15470626E+00 0.14523787E+03</pdfrwt>
<pdfrwt beam="2">  1       21 0.20006756E-02 0.14523787E+03</pdfrwt>
<totfact> 0.34432168E+05</totfact>
</mgrwt>
</event>
<event>
 6    1  0.4261782E-002  0.1276562E+03  0.7546771E-02  0.1230976E+00
         21   -1    0    0  503  502  0.00000000000E+00  0.00000000000E+00  0.14971457268E+03  0.14971457268E+03  0.00000000000E+00 0.  1.
         21   -1    0    0  504  503 -0.00000000000E+00 -0.00000000000E+00 -0.39407009563E+02  0.39407009563E+02  0.00000000000E+00 0.  1.
         25    2    1    2    0    0 -0.25092309617E+02 -0.66561336097E+01  0.92180864421E+02  0.15745921780E+03  0.12498866104E+03 0.  0.
          5    1    3    3  501    0 -0.23488591896E+02  0.32163266523E+02 -0.15688832365E+02  0.42805830487E+02  0.10000000000E+00 0.  1.
         -5    1    3    3    0  501 -0.16037177212E+01 -0.38819400133E+02  0.10786969679E+03  0.11465338731E+03  0.10000000000E+00 0.  1.
         21    1    1    2  504  502  0.25092309617E+02  0.66561336097E+01  0.18126698693E+02  0.31662364442E+02  0.00000000000E+00 0.  1.
<mgrwt>
<rscale>  1 0.12765615E+03</rscale>
<asrwt>0</asrwt>
<pdfrwt beam="1">  1       21 0.23033011E-01 0.12765615E+03</pdfrwt>
<pdfrwt beam="2">  1       21 0.60626169E-02 0.12765615E+03</pdfrwt>
<totfact> 0.33899627E+06</totfact>
</mgrwt>
</event>
<event>
 6    1  0.4261782E-002  0.1266972E+03  0.7546771E-02  0.1232440E+00
         21   -1    0    0  504  502  0.00000000000E+00  0.00000000000E+00  0.13521085439E+04  0.13521085439E+04  0.00000000000E+00 0. -1.
         21   -1    0    0  502  503 -0.00000000000E+00 -0.00000000000E+00 -0.41950606032E+01  0.41950606032E+01  0.00000000000E+00 0. -1.
         25    2    1    2    0    0  0.19412670171E+02  0.70601986479E+01  0.10382340144E+04  0.10459359651E+04  0.12500190456E+03 0.  0.
          5    1    3    3  501    0  0.44404209975E+02 -0.47331167297E+02  0.44838245610E+03  0.45305497481E+03  0.10000000000E+00 0.  1.
         -5    1    3    3    0  501 -0.24991539804E+02  0.54391365945E+02  0.58985155834E+03  0.59288099028E+03  0.10000000000E+00 0.  1.
         21    1    1    2  504  503 -0.19412670171E+02 -0.70601986479E+01  0.30967946882E+03  0.31036763939E+03  0.00000000000E+00 0.  1.
<mgrwt>
<rscale>  1 0.12669718E+03</rscale>
<asrwt>0</asrwt>
<pdfrwt beam="1">  1       21 0.20801635E+00 0.12669718E+03</pdfrwt>
<pdfrwt beam="2">  1       21 0.64539502E-03 0.12669718E+03</pdfrwt>
<totfact> 0.91459927E+05</totfact>
</mgrwt>
</event>
<event>
 6    1  0.4261782E-002  0.1277145E+03  0.7546771E-02  0.1230887E+00
         21   -1    0    0  504  502  0.00000000000E+00  0.00000000000E+00  0.13678413790E+03  0.13678413790E+03  0.00000000000E+00 0.  1.
         21   -1    0    0  502  503 -0.00000000000E+00 -0.00000000000E+00 -0.44765857627E+02  0.44765857627E+02  0.00000000000E+00 0.  1.
         25    2    1    2    0    0  0.15090602634E+02 -0.21448129810E+02  0.62902206770E+02  0.14236461182E+03  0.12499298589E+03 0.  0.
          5    1    3    3  501    0 -0.62837054670E+00 -0.62856088326E+02 -0.30351756143E+01  0.62932543093E+02  0.10000000000E+00 0. -1.
         -5    1    3    3    0  501  0.15718973181E+02  0.41407958516E+02  0.65937382384E+02  0.79432068725E+02  0.10000000000E+00 0. -1.
         21    1    1    2  504  503 -0.15090602634E+02  0.21448129810E+02  0.29116073506E+02  0.39185383712E+02  0.00000000000E+00 0.  1.
<mgrwt>
<rscale>  1 0.12771451E+03</rscale>
<asrwt>0</asrwt>
<pdfrwt beam="1">  1       21 0.21043713E-01 0.12771451E+03</pdfrwt>
<pdfrwt beam="2">  1       21 0.68870551E-02 0.12771451E+03</pdfrwt>
<totfact> 0.32292849E+06</totfact>
</mgrwt>
</event>
<event>
 6    1  0.4261782E-002  0.1295305E+03  0.7546771E-02  0.1228154E+00
         21   -1    0    0  504  502  0.00000000000E+00  0.00000000000E+00  0.12194465656E+03  0.12194465656E+03  0.00000000000E+00 0.  1.
         21   -1    0    0  502  503 -0.00000000000E+00 -0.00000000000E+00 -0.62720916152E+02  0.62720916152E+02  0.00000000000E+00 0.  1.
         25    2    1    2    0    0 -0.33837074786E+02 -0.29294532087E+01  0.17253546174E+02  0.13067458707E+03  0.12499853409E+03 0.  0.
          5    1    3    3  501    0 -0.77752789968E+02  0.12203085876E+02  0.27011429996E+02  0.83210810615E+02  0.10000000000E+00 0.  1.
         -5    1    3    3    0  501  0.43915715182E+02 -0.15132539085E+02 -0.97578838226E+01  0.47463776459E+02  0.10000000000E+00 0.  1.
         21    1    1    2  504  503  0.33837074786E+02  0.29294532087E+01  0.41970194239E+02  0.53990985642E+02  0.00000000000E+00 0.  1.
<mgrwt>
<rscale>  1 0.12953055E+03</rscale>
<asrwt>0</asrwt>
<pdfrwt beam="1">  1       21 0.18760716E-01 0.12953055E+03</pdfrwt>
<pdfrwt beam="2">  1       21 0.96493717E-02 0.12953055E+03</pdfrwt>
<totfact> 0.22316909E+06</totfact>
</mgrwt>
</event>
<event>
 6    1  0.4261782E-002  0.1269610E+03  0.7546771E-02  0.1232036E+00
         21   -1    0    0  504  502  0.00000000000E+00  0.00000000000E+00  0.21685594205E+03  0.21685594205E+03  0.00000000000E+00 0. -1.
         21   -1    0    0  502  503 -0.00000000000E+00 -0.00000000000E+00 -0.26424900997E+02  0.26424900997E+02  0.00000000000E+00 0. -1.
         25    2    1    2    0    0  0.50747555479E+01  0.21639067654E+02  0.14516278111E+03  0.19285051734E+03  0.12500034650E+03 0.  0.
          5    1    3    3  501    0 -0.26931650933E+02  0.26637434058E+02 -0.59149133796E+01  0.38338791263E+02  0.10000000000E+00 0.  1.
         -5    1    3    3    0  501  0.32006406481E+02 -0.49983664041E+01  0.15107769449E+03  0.15451172607E+03  0.10000000000E+00 0.  1.
         21    1    1    2  504  503 -0.50747555479E+01 -0.21639067654E+02  0.45268259949E+02  0.50430325714E+02  0.00000000000E+00 0. -1.
<mgrwt>
<rscale>  1 0.12696097E+03</rscale>
<asrwt>0</asrwt>
<pdfrwt beam="1">  1       21 0.33362451E-01 0.12696097E+03</pdfrwt>
<pdfrwt beam="2">  1       21 0.40653695E-02 0.12696097E+03</pdfrwt>
<totfact> 0.32648939E+06</totfact>
</mgrwt>
</event>
<event>
 6    1  0.4261782E-002  0.1379874E+03  0.7546771E-02  0.1216063E+00
         21   -1    0    0  503  502  0.00000000000E+00  0.00000000000E+00  0.30958489554E+03  0.30958489554E+03  0.00000000000E+00 0. -1.
         21   -1    0    0  504  503 -0.00000000000E+00 -0.00000000000E+00 -0.36166929832E+03  0.36166929832E+03  0.00000000000E+00 0.  1.
         25    2    1    2    0    0 -0.57089955365E+02  0.12489896866E+02 -0.34552062309E+03  0.37205513651E+03  0.12500105238E+03 0.  0.
          5    1    3    3  501    0 -0.55146531023E+02  0.22678929023E+02 -0.35379590541E+03  0.35878548799E+03  0.10000000000E+00 0.  1.
         -5    1    3    3    0  501 -0.19434243419E+01 -0.10189032157E+02  0.82752823202E+01  0.13269648524E+02  0.10000000000E+00 0.  1.
         21    1    1    2  504  502  0.57089955365E+02 -0.12489896866E+02  0.29343622031E+03  0.29919905735E+03  0.00000000000E+00 0. -1.
<mgrwt>
<rscale>  1 0.13798740E+03</rscale>
<asrwt>0</asrwt>
<pdfrwt beam="1">  1       21 0.47628446E-01 0.13798740E+03</pdfrwt>
<pdfrwt beam="2">  1       21 0.55641430E-01 0.13798740E+03</pdfrwt>
<totfact> 0.13332680E+04</totfact>
</mgrwt>
</event>
<event>
 6    1  0.4261782E-002  0.1259630E+03  0.7546771E-02  0.1233572E+00
         21   -1    0    0  504  502  0.00000000000E+00  0.00000000000E+00  0.21688366663E+02  0.21688366663E+02  0.00000000000E+00 0. -1.
         21   -1    0    0  502  503 -0.00000000000E+00 -0.00000000000E+00 -0.28949097819E+03  0.28949097819E+03  0.00000000000E+00 0. -1.
         25    2    1    2    0    0 -0.48380063714E+01  0.14695130620E+02 -0.26753572956E+03  0.29570600017E+03  0.12500927477E+03 0.  0.
          5    1    3    3  501    0 -0.21227190771E+02  0.62640085128E+02 -0.94084717764E+02  0.11500573033E+03  0.10000000000E+00 0.  1.
         -5    1    3    3    0  501  0.16389184400E+02 -0.47944954509E+02 -0.17345101179E+03  0.18070026984E+03  0.10000000000E+00 0.  1.
         21    1    1    2  504  503  0.48380063714E+01 -0.14695130620E+02 -0.26688197092E+00  0.15473344679E+02  0.00000000000E+00 0. -1.
<mgrwt>
<rscale>  1 0.12596298E+03</rscale>
<asrwt>0</asrwt>
<pdfrwt beam="1">  1       21 0.33366720E-02 0.12596298E+03</pdfrwt>
<pdfrwt beam="2">  1       21 0.44537071E-01 0.12596298E+03</pdfrwt>
<totfact> 0.25477375E+06</totfact>
</mgrwt>
</event>
<event>
 6    1  0.4261782E-002  0.1369275E+03  0.7546771E-02  0.1217524E+00
         21   -1    0    0  504  502  0.00000000000E+00  0.00000000000E+00  0.32237252152E+02  0.32237252152E+02  0.00000000000E+00 0. -1.
         21   -1    0    0  502  503 -0.00000000000E+00 -0.00000000000E+00 -0.30153083453E+03  0.30153083453E+03  0.00000000000E+00 0. -1.
         25    2    1    2    0    0  0.47151305321E+02  0.30006724880E+02 -0.22060341993E+03  0.25964399444E+03  0.12500194332E+03 0.  0.
          5    1    3    3  501    0  0.11191596502E+02  0.60064907291E+02 -0.39927267979E+02  0.72987955502E+02  0.10000000000E+00 0. -1.
         -5    1    3    3    0  501  0.35959708819E+02 -0.30058182411E+02 -0.18067615195E+03  0.18665603894E+03  0.10000000000E+00 0. -1.
         21    1    1    2  504  503 -0.47151305321E+02 -0.30006724880E+02 -0.48690162445E+02  0.74124092240E+02  0.00000000000E+00 0. -1.
<mgrwt>
<rscale>  1 0.13692748E+03</rscale>
<asrwt>0</asrwt>
<pdfrwt beam="1">  1       21 0.49595772E-02 0.13692748E+03</pdfrwt>
<pdfrwt beam="2">  1       21 0.46389359E-01 0.13692748E+03</pdfrwt>
<totfact> 0.12147950E+06</totfact>
</mgrwt>
</event>
<event>
 6    1  0.4261782E-002  0.1415671E+03  0.7546771E-02  0.1211236E+00
         21   -1    0    0  503  502  0.00000000000E+00  0.00000000000E+00  0.17344331978E+02  0.17344331978E+02  0.00000000000E+00 0.  1.
         21   -1    0    0  504  503 -0.00000000000E+00 -0.00000000000E+00 -0.69094242955E+03  0.69094242955E+03  0.00000000000E+00 0.  1.
         25    2    1    2    0    0 -0.66320740020E+02 -0.42411224296E+01 -0.55032019258E+03  0.56823723623E+03  0.12499925841E+03 0.  0.
          5    1    3    3  501    0 -0.56155943629E+02 -0.53214184835E+02 -0.20135848412E+03  0.21570926869E+03  0.10000000000E+00 0. -1.
         -5    1    3    3    0  501 -0.10164796390E+02  0.48973062405E+02 -0.34896170846E+03  0.35252796754E+03  0.10000000000E+00 0. -1.
         21    1    1    2  504  502  0.66320740020E+02  0.42411224296E+01 -0.12327790500E+03  0.14004952530E+03  0.00000000000E+00 0.  1.
<mgrwt>
<rscale>  1 0.14156709E+03</rscale>
<asrwt>0</asrwt>
<pdfrwt beam="1">  1       21 0.26683588E-02 0.14156709E+03</pdfrwt>
<pdfrwt beam="2">  1       21 0.10629883E+00 0.14156709E+03</pdfrwt>
<totfact> 0.54991128E+05</totfact>
</mgrwt>
</event>
<event>
 6    1  0.4261782E-002  0.1283372E+03  0.7546771E-02  0.1229944E+00
         21   -1    0    0  504  502  0.00000000000E+00  0.00000000000E+00  0.10847831849E+03  0.10847831849E+03  0.00000000000E+00 0.  1.
         21   -1    0    0  502  503 -0.00000000000E+00 -0.00000000000E+00 -0.61971930915E+02  0.61971930915E+02  0.00000000000E+00 0.  1.
         25    2    1    2    0    0  0.28813508098E+02 -0.38758242577E+01  0.17751355916E+02  0.12955902653E+03  0.12500076182E+03 0.  0.
          5    1    3    3  501    0  0.12653093953E+02 -0.24162437517E+02 -0.50031573273E+02  0.56983265066E+02  0.10000000000E+00 0.  1.
         -5    1    3    3    0  501  0.16160414145E+02  0.20286613260E+02  0.67782929189E+02  0.72575761465E+02  0.10000000000E+00 0.  1.
         21    1    1    2  504  503 -0.28813508098E+02  0.38758242577E+01  0.28755031663E+02  0.40891222879E+02  0.00000000000E+00 0.  1.
<mgrwt>
<rscale>  1 0.12833718E+03</rscale>
<asrwt>0</asrwt>
<pdfrwt beam="1">  1       21 0.16688972E-01 0.12833718E+03</pdfrwt>
<pdfrwt beam="2">  1       21 0.95341432E-02 0.12833718E+03</pdfrwt>
<totfact> 0.28215019E+06</totfact>
</mgrwt>
</event>
<event>
 6    1  0.4261782E-002  0.1286053E+03  0.7546771E-02  0.1229540E+00
         21   -1    0    0  504  502  0.00000000000E+00  0.00000000000E+00  0.34235924021E+02  0.34235924021E+02  0.00000000000E+00 0.  1.
         21   -1    0    0  502  503 -0.00000000000E+00 -0.00000000000E+00 -0.18839879403E+03  0.18839879403E+03  0.00000000000E+00 0.  1.
         25    2    1    2    0    0  0.26002959699E+02  0.15564416155E+02 -0.13657577676E+03  0.18759601356E+03  0.12498366511E+03 0.  0.
          5    1    3    3  501    0  0.23630764220E+02 -0.47296875337E+02 -0.10420247427E+03  0.11684850482E+03  0.10000000000E+00 0.  1.
         -5    1    3    3    0  501  0.23721954791E+01  0.62861291492E+02 -0.32373302484E+02  0.70747508742E+02  0.10000000000E+00 0.  1.
         21    1    1    2  504  503 -0.26002959699E+02 -0.15564416155E+02 -0.17587093258E+02  0.35038704494E+02  0.00000000000E+00 0.  1.
<mgrwt>
<rscale>  1 0.12860529E+03</rscale>
<asrwt>0</asrwt>
<pdfrwt beam="1">  1       21 0.52670653E-02 0.12860529E+03</pdfrwt>
<pdfrwt beam="2">  1       21 0.28984429E-01 0.12860529E+03</pdfrwt>
<totfact> 0.27813193E+06</totfact>
</mgrwt>
</event>
<event>
 6    1  0.4261782E-002  0.1313276E+03  0.7546771E-02  0.1225499E+00
         21   -1    0    0  504  502  0.00000000000E+00  0.00000000000E+00  0.21649081373E+04  0.21649081373E+04  0.00000000000E+00 0. -1.
         21   -1    0    0  502  503 -0.00000000000E+00 -0.00000000000E+00 -0.72876913026E+01  0.72876913026E+01  0.00000000000E+00 0. -1.
         25    2    1    2    0    0 -0.12223015613E+02 -0.38364094631E+02  0.60661929013E+03  0.62067212869E+03  0.12500288923E+03 0.  0.
          5    1    3    3  501    0  0.23307141156E+02 -0.26784982155E+02  0.42776067012E+02  0.55591905948E+02  0.10000000000E+00 0. -1.
         -5    1    3    3    0  501 -0.35530156769E+02 -0.11579112476E+02  0.56384322312E+03  0.56508022275E+03  0.10000000000E+00 0. -1.
         21    1    1    2  504  503  0.12223015613E+02  0.38364094631E+02  0.15510011559E+04  0.15515236999E+04  0.00000000000E+00 0. -1.
<mgrwt>
<rscale>  1 0.13132756E+03</rscale>
<asrwt>0</asrwt>
<pdfrwt beam="1">  1       21 0.33306228E+00 0.13132756E+03</pdfrwt>
<pdfrwt beam="2">  1       21 0.11211850E-02 0.13132756E+03</pdfrwt>
<totfact> 0.73402769E+04</totfact>
</mgrwt>
</event>
<event>
 6    1  0.4261782E-002  0.1344803E+03  0.7546771E-02  0.1220955E+00
         21   -1    0    0  503  502  0.00000000000E+00  0.00000000000E+00  0.73375630161E+02  0.73375630161E+02  0.00000000000E+00 0.  1.
         21   -1    0    0  504  503 -0.00000000000E+00 -0.00000000000E+00 -0.71183732728E+03  0.71183732728E+03  0.00000000000E+00 0.  1.
         25    2    1    2    0    0 -0.41657375796E+02  0.26906207210E+02 -0.69621830171E+03  0.70908736174E+03  0.12500272798E+03 0.  0.
          5    1    3    3  501    0 -0.16888290226E+02 -0.17114387727E+02 -0.59942780148E+03  0.59990983973E+03  0.10000000000E+00 0.  1.
         -5    1    3    3    0  501 -0.24769085571E+02  0.44020594937E+02 -0.96790500233E+02  0.10917752202E+03  0.10000000000E+00 0.  1.
         21    1    1    2  504  502  0.41657375796E+02 -0.26906207210E+02  0.57756604598E+02  0.76125595691E+02  0.00000000000E+00 0.  1.
<mgrwt>
<rscale>  1 0.13448034E+03</rscale>
<asrwt>0</asrwt>
<pdfrwt beam="1">  1       21 0.11288558E-01 0.13448034E+03</pdfrwt>
<pdfrwt beam="2">  1       21 0.10951344E+00 0.13448034E+03</pdfrwt>
<totfact> 0.44621730E+04</totfact>
</mgrwt>
</event>
<event>
 6    1  0.4261782E-002  0.1322696E+03  0.7546771E-02  0.1224126E+00
         21   -1    0    0  503  502  0.00000000000E+00  0.00000000000E+00  0.26673331461E+03  0.26673331461E+03  0.00000000000E+00 0. -1.
         21   -1    0    0  504  503 -0.00000000000E+00 -0.00000000000E+00 -0.28880347857E+02  0.28880347857E+02  0.00000000000E+00 0. -1.
         25    2    1    2    0    0  0.21967151107E+02  0.37246903355E+02  0.17705576411E+03  0.22100677681E+03  0.12500145702E+03 0.  0.
          5    1    3    3  501    0  0.63513742220E+02  0.56501710983E+02  0.13017124642E+03  0.15547026143E+03  0.10000000000E+00 0. -1.
         -5    1    3    3    0  501 -0.41546591113E+02 -0.19254807628E+02  0.46884517687E+02  0.65536515384E+02  0.10000000000E+00 0. -1.
         21    1    1    2  504  502 -0.21967151107E+02 -0.37246903355E+02  0.60797202648E+02  0.74606885655E+02  0.00000000000E+00 0. -1.
<mgrwt>
<rscale>  1 0.13226962E+03</rscale>
<asrwt>0</asrwt>
<pdfrwt beam="1">  1       21 0.41035893E-01 0.13226962E+03</pdfrwt>
<pdfrwt beam="2">  1       21 0.44431306E-02 0.13226962E+03</pdfrwt>
<totfact> 0.18716102E+06</totfact>
</mgrwt>
</event>
<event>
 6    1  0.4261782E-002  0.1308629E+03  0.7546771E-02  0.1226181E+00
         21   -1    0    0  504  502  0.00000000000E+00  0.00000000000E+00  0.33435181511E+03  0.33435181511E+03  0.00000000000E+00 0. -1.
         21   -1    0    0  502  503 -0.00000000000E+00 -0.00000000000E+00 -0.25007822111E+02  0.25007822111E+02  0.00000000000E+00 0. -1.
         25    2    1    2    0    0  0.21837365142E+02 -0.31961063172E+02  0.16881471216E+03  0.21359661430E+03  0.12500690592E+03 0.  0.
          5    1    3    3  501    0  0.62955022264E+02 -0.44180541046E+02  0.14598233586E+03  0.16500335578E+03  0.10000000000E+00 0. -1.
         -5    1    3    3    0  501 -0.41117657122E+02  0.12219477874E+02  0.22832376295E+02  0.48593258524E+02  0.10000000000E+00 0. -1.
         21    1    1    2  504  503 -0.21837365142E+02  0.31961063172E+02  0.14052928085E+03  0.14576302292E+03  0.00000000000E+00 0. -1.
<mgrwt>
<rscale>  1 0.13086293E+03</rscale>
<asrwt>0</asrwt>
<pdfrwt beam="1">  1       21 0.51438738E-01 0.13086293E+03</pdfrwt>
<pdfrwt beam="2">  1       21 0.38473575E-02 0.13086293E+03</pdfrwt>
<totfact> 0.14999642E+06</totfact>
</mgrwt>
</event>
<event>
 6    1  0.4261782E-002  0.1277880E+03  0.7546771E-02  0.1230775E+00
         21   -1    0    0  504  502  0.00000000000E+00  0.00000000000E+00  0.22720716579E+02  0.22720716579E+02  0.00000000000E+00 0. -1.
         21   -1    0    0  502  503 -0.00000000000E+00 -0.00000000000E+00 -0.26264556214E+03  0.26264556214E+03  0.00000000000E+00 0. -1.
         25    2    1    2    0    0  0.14486501501E+02  0.22212882482E+02 -0.20386425145E+03  0.24060427115E+03  0.12500604546E+03 0.  0.
          5    1    3    3  501    0  0.32081137283E+02  0.43033835371E+02 -0.24192073076E+02  0.58875943779E+02  0.10000000000E+00 0. -1.
         -5    1    3    3    0  501 -0.17594635782E+02 -0.20820952889E+02 -0.17967217837E+03  0.18172832737E+03  0.10000000000E+00 0. -1.
         21    1    1    2  504  503 -0.14486501501E+02 -0.22212882482E+02 -0.36060594109E+02  0.44762007567E+02  0.00000000000E+00 0. -1.
<mgrwt>
<rscale>  1 0.12778804E+03</rscale>
<asrwt>0</asrwt>
<pdfrwt beam="1">  1       21 0.34954952E-02 0.12778804E+03</pdfrwt>
<pdfrwt beam="2">  1       21 0.40407005E-01 0.12778804E+03</pdfrwt>
<totfact> 0.28721620E+06</totfact>
</mgrwt>
</event>
<event>
 6    1  0.4261782E-002  0.1396396E+03  0.7546771E-02  0.1213815E+00
         21   -1    0    0  503  502  0.00000000000E+00  0.00000000000E+00  0.91478035580E+02  0.91478035580E+02  0.00000000000E+00 0. -1.
         21   -1    0    0  504  503 -0.00000000000E+00 -0.00000000000E+00 -0.14460297381E+03  0.14460297381E+03  0.00000000000E+00 0. -1.
         25    2    1    2    0    0  0.20325362219E+02  0.58820180125E+02 -0.87693205352E+02  0.16489183162E+03  0.12500513562E+03 0.  0.
          5    1    3    3  501    0  0.27485182554E+02  0.82894036474E+02 -0.15815688606E+02  0.88752479115E+02  0.10000000000E+00 0. -1.
         -5    1    3    3    0  501 -0.71598203357E+01 -0.24073856349E+02 -0.71877516746E+02  0.76139352508E+02  0.10000000000E+00 0. -1.
         21    1    1    2  504  502 -0.20325362219E+02 -0.58820180125E+02  0.34568267123E+02  0.71189177767E+02  0.00000000000E+00 0. -1.
<mgrwt>
<rscale>  1 0.13963960E+03</rscale>
<asrwt>0</asrwt>
<pdfrwt beam="1">  1       21 0.14073544E-01 0.13963960E+03</pdfrwt>
<pdfrwt beam="2">  1       21 0.22246611E-01 0.13963960E+03</pdfrwt>
<totfact> 0.83498789E+05</totfact>
</mgrwt>
</event>
<event>
 6    1  0.4261782E-002  0.1261542E+03  0.7546771E-02  0.1233276E+00
         21   -1    0    0  504  502  0.00000000000E+00  0.00000000000E+00  0.10586828521E+02  0.10586828521E+02  0.00000000000E+00 0.  1.
         21   -1    0    0  502  503 -0.00000000000E+00 -0.00000000000E+00 -0.48458976580E+03  0.48458976580E+03  0.00000000000E+00 0.  1.
         25    2    1    2    0    0 -0.76465215936E+01 -0.15291150012E+02 -0.41678977494E+03  0.43546366016E+03  0.12499037669E+03 0.  0.
          5    1    3    3  501    0 -0.22709459852E+02 -0.65226577030E+02 -0.17550976913E+03  0.18861048481E+03  0.10000000000E+00 0. -1.
         -5    1    3    3    0  501  0.15062938258E+02  0.49935427018E+02 -0.24128000580E+03  0.24685317535E+03  0.10000000000E+00 0. -1.
         21    1    1    2  504  503  0.76465215936E+01  0.15291150012E+02 -0.57213162342E+02  0.59712934163E+02  0.00000000000E+00 0. -1.
<mgrwt>
<rscale>  1 0.12615420E+03</rscale>
<asrwt>0</asrwt>
<pdfrwt beam="1">  1       21 0.16287432E-02 0.12615420E+03</pdfrwt>
<pdfrwt beam="2">  1       21 0.74552257E-01 0.12615420E+03</pdfrwt>
<totfact> 0.27502657E+06</totfact>
</mgrwt>
</event>
<event>
 6    1  0.4261782E-002  0.1366702E+03  0.7546771E-02  0.1217881E+00
         21   -1    0    0  504  502  0.00000000000E+00  0.00000000000E+00  0.11504380998E+03  0.11504380998E+03  0.00000000000E+00 0. -1.
         21   -1    0    0  502  503 -0.00000000000E+00 -0.00000000000E+00 -0.11210775170E+03  0.11210775170E+03  0.00000000000E+00 0. -1.
         25    2    1    2    0    0 -0.31534112748E+02  0.45378606579E+02 -0.54786334595E+02  0.14724228286E+03  0.12500051681E+03 0.  0.
          5    1    3    3  501    0  0.76030137733E+01  0.32481794937E+02  0.35061077168E+02  0.48395887769E+02  0.10000000000E+00 0. -1.
         -5    1    3    3    0  501 -0.39137126521E+02  0.12896811642E+02 -0.89847411763E+02  0.98846395095E+02  0.10000000000E+00 0. -1.
         21    1    1    2  504  503  0.31534112748E+02 -0.45378606579E+02  0.57722392875E+02  0.79909278817E+02  0.00000000000E+00 0. -1.
<mgrwt>
<rscale>  1 0.13667021E+03</rscale>
<asrwt>0</asrwt>
<pdfrwt beam="1">  1       21 0.17699048E-01 0.13667021E+03</pdfrwt>
<pdfrwt beam="2">  1       21 0.17247346E-01 0.13667021E+03</pdfrwt>
<totfact> 0.88203678E+05</totfact>
</mgrwt>
</event>
<event>
 6    1  0.4261782E-002  0.1286500E+03  0.7546771E-02  0.1229473E+00
         21   -1    0    0  504  502  0.00000000000E+00  0.00000000000E+00  0.14689075350E+02  0.14689075350E+02  0.00000000000E+00 0.  1.
         21   -1    0    0  502  503 -0.00000000000E+00 -0.00000000000E+00 -0.51429674875E+03  0.51429674875E+03  0.00000000000E+00 0.  1.
         25    2    1    2    0    0 -0.26669221355E+02  0.14641252141E+02 -0.46696853324E+03  0.48436601794E+03  0.12500085863E+03 0.  0.
          5    1    3    3  501    0 -0.22271963206E+01 -0.29378419453E+01 -0.44958594523E+03  0.44960107147E+03  0.10000000000E+00 0. -1.
         -5    1    3    3    0  501 -0.24442025034E+02  0.17579094086E+02 -0.17382588016E+02  0.34764946466E+02  0.10000000000E+00 0. -1.
         21    1    1    2  504  503  0.26669221355E+02 -0.14641252141E+02 -0.32639140151E+02  0.44619806160E+02  0.00000000000E+00 0.  1.
<mgrwt>
<rscale>  1 0.12865002E+03</rscale>
<asrwt>0</asrwt>
<pdfrwt beam="1">  1       21 0.22598579E-02 0.12865002E+03</pdfrwt>
<pdfrwt beam="2">  1       21 0.79122571E-01 0.12865002E+03</pdfrwt>
<totfact> 0.14229188E+06</totfact>
</mgrwt>
</event>
<event>
 6    1  0.4261782E-002  0.1269312E+03  0.7546771E-02  0.1232082E+00
         21   -1    0    0  504  502  0.00000000000E+00  0.00000000000E+00  0.39405321290E+03  0.39405321290E+03  0.00000000000E+00 0. -1.
         21   -1    0    0  502  503 -0.00000000000E+00 -0.00000000000E+00 -0.59056771680E+02  0.59056771680E+02  0.00000000000E+00 0. -1.
         25    2    1    2    0    0 -0.21861586795E+02 -0.28299249426E+01  0.99540100688E+01  0.12732091248E+03  0.12500237992E+03 0.  0.
          5    1    3    3  501    0 -0.21089195945E+02 -0.63036743368E+02  0.12464872347E+01  0.66482696474E+02  0.10000000000E+00 0. -1.
         -5    1    3    3    0  501 -0.77239085018E+00  0.60206818426E+02  0.87075228340E+01  0.60838216003E+02  0.10000000000E+00 0. -1.
         21    1    1    2  504  503  0.21861586795E+02  0.28299249426E+01  0.32504243115E+03  0.32578907210E+03  0.00000000000E+00 0. -1.
<mgrwt>
<rscale>  1 0.12693121E+03</rscale>
<asrwt>0</asrwt>
<pdfrwt beam="1">  1       21 0.60623569E-01 0.12693121E+03</pdfrwt>
<pdfrwt beam="2">  1       21 0.90856575E-02 0.12693121E+03</pdfrwt>
<totfact> 0.24753482E+05</totfact>
</mgrwt>
</event>
<event>
 6    1  0.4261782E-002  0.1262251E+03  0.7546771E-02  0.1233167E+00
         21   -1    0    0  504  502  0.00000000000E+00  0.00000000000E+00  0.52379341645E+02  0.52379341645E+02  0.00000000000E+00 0. -1.
         21   -1    0    0  502  503 -0.00000000000E+00 -0.00000000000E+00 -0.15021852867E+03  0.15021852867E+03  0.00000000000E+00 0. -1.
         25    2    1    2    0    0  0.99237489192E+01 -0.14475001803E+02 -0.12011283435E+03  0.17424082824E+03  0.12499906713E+03 0.  0.
          5    1    3    3  501    0  0.46755645620E+02 -0.47740341438E+02 -0.34304825252E+02  0.75113658103E+02  0.10000000000E+00 0.  1.
         -5    1    3    3    0  501 -0.36831896701E+02  0.33265339636E+02 -0.85808009093E+02  0.99127170141E+02  0.10000000000E+00 0.  1.
         21    1    1    2  504  503 -0.99237489192E+01  0.14475001803E+02  0.22273647324E+02  0.28357042069E+02  0.00000000000E+00 0. -1.
<mgrwt>
<rscale>  1 0.12622509E+03</rscale>
<asrwt>0</asrwt>
<pdfrwt beam="1">  1       21 0.80583603E-02 0.12622509E+03</pdfrwt>
<pdfrwt beam="2">  1       21 0.23110543E-01 0.12622509E+03</pdfrwt>
<totfact> 0.20699649E+06</totfact>
</mgrwt>
</event>
<event>
 6    1  0.4261782E-002  0.1258934E+03  0.7546771E-02  0.1233680E+00
         21   -1    0    0  504  502  0.00000000000E+00  0.00000000000E+00  0.70118895124E+03  0.70118895124E+03  0.00000000000E+00 0. -1.
         21   -1    0    0  502  503 -0.00000000000E+00 -0.00000000000E+00 -0.84110199891E+02  0.84110199891E+02  0.00000000000E+00 0.  1.
         25    2    1    2    0    0  0.93449683935E+01 -0.11751284007E+02 -0.36867413772E+02  0.13118065423E+03  0.12499494684E+03 0.  0.
          5    1    3    3  501    0  0.32064964555E+02  0.48689916057E+02 -0.31807246376E+02  0.66412203695E+02  0.10000000000E+00 0.  1.
         -5    1    3    3    0  501 -0.22719996162E+02 -0.60441200064E+02 -0.50601673964E+01  0.64768450536E+02  0.10000000000E+00 0.  1.
         21    1    1    2  504  503 -0.93449683935E+01  0.11751284007E+02  0.65394616512E+03  0.65411849690E+03  0.00000000000E+00 0. -1.
<mgrwt>
<rscale>  1 0.12589344E+03</rscale>
<asrwt>0</asrwt>
<pdfrwt beam="1">  1       21 0.10787522E+00 0.12589344E+03</pdfrwt>
<pdfrwt beam="2">  1       21 0.12940031E-01 0.12589344E+03</pdfrwt>
<totfact> 0.36511078E+04</totfact>
</mgrwt>
</event>
<event>
 6    1  0.4261782E-002  0.1328239E+03  0.7546771E-02  0.1223325E+00
         21   -1    0    0  503  502  0.00000000000E+00  0.00000000000E+00  0.59244215760E+02  0.59244215760E+02  0.00000000000E+00 0. -1.
         21   -1    0    0  504  503 -0.00000000000E+00 -0.00000000000E+00 -0.13345641966E+03  0.13345641966E+03  0.00000000000E+00 0. -1.
         25    2    1    2    0    0  0.37463444790E+02 -0.24769748065E+02 -0.52605154241E+02  0.14286174789E+03  0.12500050657E+03 0.  0.
          5    1    3    3  501    0 -0.33889853715E+02 -0.21802186313E+02  0.16445141349E+02  0.43523673867E+02  0.10000000000E+00 0.  1.
         -5    1    3    3    0  501  0.71353298505E+02 -0.29675617518E+01 -0.69050295590E+02  0.99338074027E+02  0.10000000000E+00 0.  1.
         21    1    1    2  504  502 -0.37463444790E+02  0.24769748065E+02 -0.21607049656E+02  0.49838887523E+02  0.00000000000E+00 0. -1.
<mgrwt>
<rscale>  1 0.13282386E+03</rscale>
<asrwt>0</asrwt>
<pdfrwt beam="1">  1       21 0.91144948E-02 0.13282386E+03</pdfrwt>
<pdfrwt beam="2">  1       21 0.20531757E-01 0.13282386E+03</pdfrwt>
<totfact> 0.20882320E+06</totfact>
</mgrwt>
</event>
<event>
 6    1  0.4261782E-002  0.1280241E+03  0.7546771E-02  0.1230417E+00
         21   -1    0    0  503  502  0.00000000000E+00  0.00000000000E+00  0.10905419703E+04  0.10905419703E+04  0.00000000000E+00 0.  1.
         21   -1    0    0  504  503 -0.00000000000E+00 -0.00000000000E+00 -0.60687021517E+01  0.60687021517E+01  0.00000000000E+00 0.  1.
         25    2    1    2    0    0 -0.16652973651E+01 -0.27614722095E+02  0.73691720864E+03  0.74795531169E+03  0.12499931917E+03 0.  0.
          5    1    3    3  501    0 -0.49861413374E+01 -0.75285698622E+02  0.34618633990E+03  0.35431312417E+03  0.10000000000E+00 0. -1.
         -5    1    3    3    0  501  0.33208439723E+01  0.47670976527E+02  0.39073086874E+03  0.39364218752E+03  0.10000000000E+00 0. -1.
         21    1    1    2  504  502  0.16652973651E+01  0.27614722095E+02  0.34755605954E+03  0.34865536080E+03  0.00000000000E+00 0.  1.
<mgrwt>
<rscale>  1 0.12802412E+03</rscale>
<asrwt>0</asrwt>
<pdfrwt beam="1">  1       21 0.16777553E+00 0.12802412E+03</pdfrwt>
<pdfrwt beam="2">  1       21 0.93364735E-03 0.12802412E+03</pdfrwt>
<totfact> 0.93923972E+05</totfact>
</mgrwt>
</event>
<event>
 6    1  0.4261782E-002  0.1339914E+03  0.7546771E-02  0.1221651E+00
         21   -1    0    0  504  502  0.00000000000E+00  0.00000000000E+00  0.12490225646E+03  0.12490225646E+03  0.00000000000E+00 0. -1.
         21   -1    0    0  502  503 -0.00000000000E+00 -0.00000000000E+00 -0.75123307358E+02  0.75123307358E+02  0.00000000000E+00 0. -1.
         25    2    1    2    0    0  0.45175273582E+02 -0.16935992970E+02  0.48184454099E+01  0.13407800819E+03  0.12500424658E+03 0.  0.
          5    1    3    3  501    0  0.28185931488E+02  0.43256420540E+02  0.37212752146E+02  0.63642466750E+02  0.10000000000E+00 0. -1.
         -5    1    3    3    0  501  0.16989342095E+02 -0.60192413510E+02 -0.32394306736E+02  0.70435541439E+02  0.10000000000E+00 0. -1.
         21    1    1    2  504  503 -0.45175273582E+02  0.16935992970E+02  0.44960503690E+02  0.65947555627E+02  0.00000000000E+00 0. -1.
<mgrwt>
<rscale>  1 0.13399140E+03</rscale>
<asrwt>0</asrwt>
<pdfrwt beam="1">  1       21 0.19215732E-01 0.13399140E+03</pdfrwt>
<pdfrwt beam="2">  1       21 0.11557432E-01 0.13399140E+03</pdfrwt>
<totfact> 0.15565813E+06</totfact>
</mgrwt>
</event>
<event>
 6    1  0.4261782E-002  0.1276939E+03  0.7546771E-02  0.1230918E+00
         21   -1    0    0  504  502  0.00000000000E+00  0.00000000000E+00  0.41943822306E+03  0.41943822306E+03  0.00000000000E+00 0.  1.
         21   -1    0    0  502  503 -0.00000000000E+00 -0.00000000000E+00 -0.17273713329E+03  0.17273713329E+03  0.00000000000E+00 0.  1.
         25    2    1    2    0    0  0.17347087138E+02 -0.19547109988E+02 -0.14864757355E+03  0.19596382632E+03  0.12499083631E+03 0.  0.
          5    1    3    3  501    0 -0.37005227199E+02 -0.16144680156E+01 -0.39041256055E+00  0.37042620979E+02  0.10000000000E+00 0. -1.
         -5    1    3    3    0  501  0.54352314337E+02 -0.17932641972E+02 -0.14825716099E+03  0.15892120534E+03  0.10000000000E+00 0. -1.
         21    1    1    2  504  503 -0.17347087138E+02  0.19547109988E+02  0.39534866332E+03  0.39621153003E+03  0.00000000000E+00 0.  1.
<mgrwt>
<rscale>  1 0.12769385E+03</rscale>
<asrwt>0</asrwt>
<pdfrwt beam="1">  1       21 0.64528957E-01 0.12769385E+03</pdfrwt>
<pdfrwt beam="2">  1       21 0.26574944E-01 0.12769385E+03</pdfrwt>
<totfact> 0.30990446E+04</totfact>
</mgrwt>
</event>
<event>
 6    1  0.4261782E-002  0.1302577E+03  0.7546771E-02  0.1227074E+00
         21   -1    0    0  504  502  0.00000000000E+00  0.00000000000E+00  0.47495429384E+03  0.47495429384E+03  0.00000000000E+00 0. -1.
         21   -1    0    0  502  503 -0.00000000000E+00 -0.00000000000E+00 -0.28876055302E+02  0.28876055302E+02  0.00000000000E+00 0. -1.
         25    2    1    2    0    0 -0.24309880777E+02 -0.27407854445E+02  0.12454917550E+03  0.18022086354E+03  0.12499960700E+03 0.  0.
          5    1    3    3  501    0 -0.17772025440E+02  0.32976919308E+02  0.11213575804E+03  0.11822757853E+03  0.10000000000E+00 0. -1.
         -5    1    3    3    0  501 -0.65378553375E+01 -0.60384773753E+02  0.12413417461E+02  0.61993285013E+02  0.10000000000E+00 0. -1.
         21    1    1    2  504  503  0.24309880777E+02  0.27407854445E+02  0.32152906304E+03  0.32360948560E+03  0.00000000000E+00 0. -1.
<mgrwt>
<rscale>  1 0.13025768E+03</rscale>
<asrwt>0</asrwt>
<pdfrwt beam="1">  1       21 0.73069886E-01 0.13025768E+03</pdfrwt>
<pdfrwt beam="2">  1       21 0.44424704E-02 0.13025768E+03</pdfrwt>
<totfact> 0.55841344E+05</totfact>
</mgrwt>
</event>
<event>
 6    1  0.4261782E-002  0.1293804E+03  0.7546771E-02  0.1228378E+00
         21   -1    0    0  504  502  0.00000000000E+00  0.00000000000E+00  0.25300938103E+02  0.25300938103E+02  0.00000000000E+00 0. -1.
         21   -1    0    0  502  503 -0.00000000000E+00 -0.00000000000E+00 -0.26217008768E+03  0.26217008768E+03  0.00000000000E+00 0. -1.
         25    2    1    2    0    0 -0.33194007015E+02  0.37176371645E+01 -0.18397906450E+03  0.22491685703E+03  0.12499453379E+03 0.  0.
          5    1    3    3  501    0  0.24990486942E+01 -0.18192882890E+02 -0.18206780531E+03  0.18299158987E+03  0.10000000000E+00 0.  1.
         -5    1    3    3    0  501 -0.35693055709E+02  0.21910520055E+02 -0.19112591828E+01  0.41925267162E+02  0.10000000000E+00 0.  1.
         21    1    1    2  504  503  0.33194007015E+02 -0.37176371645E+01 -0.52890085076E+02  0.62554168743E+02  0.00000000000E+00 0. -1.
<mgrwt>
<rscale>  1 0.12938043E+03</rscale>
<asrwt>0</asrwt>
<pdfrwt beam="1">  1       21 0.38924519E-02 0.12938043E+03</pdfrwt>
<pdfrwt beam="2">  1       21 0.40333860E-01 0.12938043E+03</pdfrwt>
<totfact> 0.24135348E+06</totfact>
</mgrwt>
</event>
<event>
 6    1  0.4261782E-002  0.1262665E+03  0.7546771E-02  0.1233103E+00
         21   -1    0    0  503  502  0.00000000000E+00  0.00000000000E+00  0.10566750603E+02  0.10566750603E+02  0.00000000000E+00 0.  1.
         21   -1    0    0  504  503 -0.00000000000E+00 -0.00000000000E+00 -0.49195317406E+03  0.49195317406E+03  0.00000000000E+00 0.  1.
         25    2    1    2    0    0  0.15597273691E+02  0.85774724284E+01 -0.42866914538E+03  0.44687857863E+03  0.12500551933E+03 0.  0.
          5    1    3    3  501    0  0.43497624119E+02 -0.45042253869E+02 -0.26794768779E+03  0.27516689723E+03  0.10000000000E+00 0. -1.
         -5    1    3    3    0  501 -0.27900350428E+02  0.53619726298E+02 -0.16072145759E+03  0.17171168141E+03  0.10000000000E+00 0. -1.
         21    1    1    2  504  502 -0.15597273691E+02 -0.85774724284E+01 -0.52717278082E+02  0.55641346032E+02  0.00000000000E+00 0.  1.
<mgrwt>
<rscale>  1 0.12626650E+03</rscale>
<asrwt>0</asrwt>
<pdfrwt beam="1">  1       21 0.16256540E-02 0.12626650E+03</pdfrwt>
<pdfrwt beam="2">  1       21 0.75685102E-01 0.12626650E+03</pdfrwt>
<totfact> 0.26684058E+06</totfact>
</mgrwt>
</event>
<event>
 6    1  0.4261782E-002  0.1324231E+03  0.7546771E-02  0.1223904E+00
         21   -1    0    0  503  502  0.00000000000E+00  0.00000000000E+00  0.33817326224E+03  0.33817326224E+03  0.00000000000E+00 0.  1.
         21   -1    0    0  504  503 -0.00000000000E+00 -0.00000000000E+00 -0.26142062953E+02  0.26142062953E+02  0.00000000000E+00 0.  1.
         25    2    1    2    0    0 -0.39648043307E+02  0.18483178006E+02  0.16874981781E+03  0.21450494676E+03  0.12498910339E+03 0.  0.
          5    1    3    3  501    0 -0.30294766175E+02 -0.37557605819E+02  0.14518905403E+03  0.15299744450E+03  0.10000000000E+00 0. -1.
         -5    1    3    3    0  501 -0.93532771324E+01  0.56040783825E+02  0.23560763777E+02  0.61507502263E+02  0.10000000000E+00 0. -1.
         21    1    1    2  504  502  0.39648043307E+02 -0.18483178006E+02  0.14328138147E+03  0.14981037843E+03  0.00000000000E+00 0.  1.
<mgrwt>
<rscale>  1 0.13242308E+03</rscale>
<asrwt>0</asrwt>
<pdfrwt beam="1">  1       21 0.52026653E-01 0.13242308E+03</pdfrwt>
<pdfrwt beam="2">  1       21 0.40218561E-02 0.13242308E+03</pdfrwt>
<totfact> 0.13612275E+06</totfact>
</mgrwt>
</event>
<event>
 6    1  0.4261782E-002  0.1330640E+03  0.7546771E-02  0.1222979E+00
         21   -1    0    0  503  502  0.00000000000E+00  0.00000000000E+00  0.45003718523E+02  0.45003718523E+02  0.00000000000E+00 0.  1.
         21   -1    0    0  504  503 -0.00000000000E+00 -0.00000000000E+00 -0.19244095487E+03  0.19244095487E+03  0.00000000000E+00 0.  1.
         25    2    1    2    0    0 -0.35167516498E+02  0.29053471552E+02 -0.13631153893E+03  0.19049108387E+03  0.12500063584E+03 0.  0.
          5    1    3    3  501    0 -0.56825420297E+02 -0.33824356948E+02 -0.60312358535E+02  0.89503106689E+02  0.10000000000E+00 0.  1.
         -5    1    3    3    0  501  0.21657903799E+02  0.62877828500E+02 -0.75999180399E+02  0.10098797718E+03  0.10000000000E+00 0.  1.
         21    1    1    2  504  502  0.35167516498E+02 -0.29053471552E+02 -0.11125697409E+02  0.46953589518E+02  0.00000000000E+00 0.  1.
<mgrwt>
<rscale>  1 0.13306396E+03</rscale>
<asrwt>0</asrwt>
<pdfrwt beam="1">  1       21 0.69236491E-02 0.13306396E+03</pdfrwt>
<pdfrwt beam="2">  1       21 0.29606300E-01 0.13306396E+03</pdfrwt>
<totfact> 0.16802694E+06</totfact>
</mgrwt>
</event>
<event>
 6    1  0.4261782E-002  0.1265006E+03  0.7546771E-02  0.1232743E+00
         21   -1    0    0  504  502  0.00000000000E+00  0.00000000000E+00  0.81021324095E+02  0.81021324095E+02  0.00000000000E+00 0.  1.
         21   -1    0    0  502  503 -0.00000000000E+00 -0.00000000000E+00 -0.14095244956E+04  0.14095244956E+04  0.00000000000E+00 0. -1.
         25    2    1    2    0    0 -0.13777266148E+02 -0.13741603351E+02 -0.14054729912E+04  0.14111543977E+04  0.12499504169E+03 0.  0.
          5    1    3    3  501    0 -0.33755564636E+01 -0.57001754213E+02 -0.34068541881E+03  0.34543763396E+03  0.10000000000E+00 0. -1.
         -5    1    3    3    0  501 -0.10401709685E+02  0.43260150862E+02 -0.10647875724E+04  0.10657167638E+04  0.10000000000E+00 0. -1.
         21    1    1    2  504  503  0.13777266148E+02  0.13741603351E+02  0.76969819748E+02  0.79391421937E+02  0.00000000000E+00 0.  1.
<mgrwt>
<rscale>  1 0.12650061E+03</rscale>
<asrwt>0</asrwt>
<pdfrwt beam="1">  1       21 0.12464820E-01 0.12650061E+03</pdfrwt>
<pdfrwt beam="2">  1       21 0.21684991E+00 0.12650061E+03</pdfrwt>
<totfact> 0.61978927E+03</totfact>
</mgrwt>
</event>
<event>
 6    1  0.4261782E-002  0.1305803E+03  0.7546771E-02  0.1226597E+00
         21   -1    0    0  504  502  0.00000000000E+00  0.00000000000E+00  0.40357656157E+03  0.40357656157E+03  0.00000000000E+00 0.  1.
         21   -1    0    0  502  503 -0.00000000000E+00 -0.00000000000E+00 -0.17559350961E+02  0.17559350961E+02  0.00000000000E+00 0.  1.
         25    2    1    2    0    0  0.37751460606E+02  0.67896260068E+00  0.30245263132E+03  0.32943709749E+03  0.12500229295E+03 0.  0.
          5    1    3    3  501    0  0.78826015783E+02 -0.22345942439E+02  0.21556303121E+03  0.23060856951E+03  0.10000000000E+00 0. -1.
         -5    1    3    3    0  501 -0.41074555177E+02  0.23024905040E+02  0.86889600110E+02  0.98828527979E+02  0.10000000000E+00 0. -1.
         21    1    1    2  504  503 -0.37751460606E+02 -0.67896260068E+00  0.83564579285E+02  0.91698815037E+02  0.00000000000E+00 0.  1.
<mgrwt>
<rscale>  1 0.13058027E+03</rscale>
<asrwt>0</asrwt>
<pdfrwt beam="1">  1       21 0.62088695E-01 0.13058027E+03</pdfrwt>
<pdfrwt beam="2">  1       21 0.27014389E-02 0.13058027E+03</pdfrwt>
<totfact> 0.18066297E+06</totfact>
</mgrwt>
</event>
<event>
 6    1  0.4261782E-002  0.1545992E+03  0.7546771E-02  0.1194933E+00
         21   -1    0    0  504  502  0.00000000000E+00  0.00000000000E+00  0.29390317012E+02  0.29390317012E+02  0.00000000000E+00 0.  1.
         21   -1    0    0  502  503 -0.00000000000E+00 -0.00000000000E+00 -0.61833881374E+03  0.61833881374E+03  0.00000000000E+00 0.  1.
         25    2    1    2    0    0 -0.90220741652E+02  0.11716368551E+02 -0.48766727315E+03  0.51158603778E+03  0.12499539683E+03 0.  0.
          5    1    3    3  501    0 -0.10553330593E+03  0.47058617986E+02 -0.34652597051E+03  0.36528352060E+03  0.10000000000E+00 0. -1.
         -5    1    3    3    0  501  0.15312564274E+02 -0.35342249435E+02 -0.14114130265E+03  0.14630251718E+03  0.10000000000E+00 0. -1.
         21    1    1    2  504  503  0.90220741652E+02 -0.11716368551E+02 -0.10128122358E+03  0.13614309298E+03  0.00000000000E+00 0.  1.
<mgrwt>
<rscale>  1 0.15459917E+03</rscale>
<asrwt>0</asrwt>
<pdfrwt beam="1">  1       21 0.45215873E-02 0.15459917E+03</pdfrwt>
<pdfrwt beam="2">  1       21 0.95129046E-01 0.15459917E+03</pdfrwt>
<totfact> 0.29751087E+05</totfact>
</mgrwt>
</event>
<event>
 6    1  0.4261782E-002  0.1263107E+03  0.7546771E-02  0.1233035E+00
         21   -1    0    0  503  502  0.00000000000E+00  0.00000000000E+00  0.87851166603E+03  0.87851166603E+03  0.00000000000E+00 0.  1.
         21   -1    0    0  504  503 -0.00000000000E+00 -0.00000000000E+00 -0.18414992105E+02  0.18414992105E+02  0.00000000000E+00 0.  1.
         25    2    1    2    0    0 -0.57862849233E+01  0.17209099125E+02  0.19978259122E+03  0.23636301850E+03  0.12499903430E+03 0.  0.
          5    1    3    3  501    0 -0.38710009178E+02  0.58700749713E+02  0.13876001540E+03  0.15555897500E+03  0.10000000000E+00 0. -1.
         -5    1    3    3    0  501  0.32923724255E+02 -0.41491650589E+02  0.61022575815E+02  0.80804043503E+02  0.10000000000E+00 0. -1.
         21    1    1    2  504  502  0.57862849233E+01 -0.17209099125E+02  0.66031408271E+03  0.66056363964E+03  0.00000000000E+00 0.  1.
<mgrwt>
<rscale>  1 0.12631070E+03</rscale>
<asrwt>0</asrwt>
<pdfrwt beam="1">  1       21 0.13515561E+00 0.12631070E+03</pdfrwt>
<pdfrwt beam="2">  1       21 0.28330764E-02 0.12631070E+03</pdfrwt>
<totfact> 0.27836706E+05</totfact>
</mgrwt>
</event>
<event>
 6    1  0.4261782E-002  0.1856694E+03  0.7546771E-02  0.1162426E+00
         21   -1    0    0  503  502  0.00000000000E+00  0.00000000000E+00  0.39568341632E+03  0.39568341632E+03  0.00000000000E+00 0. -1.
         21   -1    0    0  504  503 -0.00000000000E+00 -0.00000000000E+00 -0.68357031938E+02  0.68357031938E+02  0.00000000000E+00 0. -1.
         25    2    1    2    0    0 -0.23462041238E+02  0.13527095015E+03  0.14379420629E+03  0.23484019144E+03  0.12499777765E+03 0.  0.
          5    1    3    3  501    0  0.17164594576E+02  0.14270614386E+03  0.10334616994E+03  0.17703137474E+03  0.10000000000E+00 0.  1.
         -5    1    3    3    0  501 -0.40626635814E+02 -0.74351937084E+01  0.40448036349E+02  0.57808816694E+02  0.10000000000E+00 0.  1.
         21    1    1    2  504  502  0.23462041238E+02 -0.13527095015E+03  0.18353217810E+03  0.22920025683E+03  0.00000000000E+00 0. -1.
<mgrwt>
<rscale>  1 0.18566944E+03</rscale>
<asrwt>0</asrwt>
<pdfrwt beam="1">  1       21 0.60874371E-01 0.18566944E+03</pdfrwt>
<pdfrwt beam="2">  1       21 0.10516467E-01 0.18566944E+03</pdfrwt>
<totfact> 0.18683996E+05</totfact>
</mgrwt>
</event>
<event>
 6    1  0.4261782E-002  0.1266355E+03  0.7546771E-02  0.1232535E+00
         21   -1    0    0  503  502  0.00000000000E+00  0.00000000000E+00  0.98723397191E+03  0.98723397191E+03  0.00000000000E+00 0.  1.
         21   -1    0    0  504  503 -0.00000000000E+00 -0.00000000000E+00 -0.55082470533E+01  0.55082470533E+01  0.00000000000E+00 0.  1.
         25    2    1    2    0    0 -0.79295148996E+01  0.18726283201E+02  0.81474391836E+03  0.82452665907E+03  0.12499203225E+03 0.  0.
          5    1    3    3  501    0  0.41385222170E+02  0.21972227710E+02  0.13334710427E+03  0.14133992933E+03  0.10000000000E+00 0.  1.
         -5    1    3    3    0  501 -0.49314737070E+02 -0.32459445094E+01  0.68139681409E+03  0.68318672974E+03  0.10000000000E+00 0.  1.
         21    1    1    2  504  502  0.79295148996E+01 -0.18726283201E+02  0.16698180649E+03  0.16821555989E+03  0.00000000000E+00 0.  1.
<mgrwt>
<rscale>  1 0.12663554E+03</rscale>
<asrwt>0</asrwt>
<pdfrwt beam="1">  1       21 0.15188201E+00 0.12663554E+03</pdfrwt>
<pdfrwt beam="2">  1       21 0.84742341E-03 0.12663554E+03</pdfrwt>
<totfact> 0.14231000E+06</totfact>
</mgrwt>
</event>
<event>
 6    1  0.4261782E-002  0.1349703E+03  0.7546771E-02  0.1220262E+00
         21   -1    0    0  504  502  0.00000000000E+00  0.00000000000E+00  0.89851073637E+03  0.89851073637E+03  0.00000000000E+00 0. -1.
         21   -1    0    0  502  503 -0.00000000000E+00 -0.00000000000E+00 -0.12707508891E+02  0.12707508891E+02  0.00000000000E+00 0. -1.
         25    2    1    2    0    0 -0.92690017788E+01 -0.50030174124E+02  0.38767954045E+03  0.41050261709E+03  0.12501215875E+03 0.  0.
          5    1    3    3  501    0 -0.36043241615E+02 -0.81753437501E+02  0.30745996576E+03  0.32017866943E+03  0.10000000000E+00 0. -1.
         -5    1    3    3    0  501  0.26774239837E+02  0.31723263376E+02  0.80219574689E+02  0.90323947663E+02  0.10000000000E+00 0. -1.
         21    1    1    2  504  503  0.92690017788E+01  0.50030174124E+02  0.49812368703E+03  0.50071562818E+03  0.00000000000E+00 0. -1.
<mgrwt>
<rscale>  1 0.13497027E+03</rscale>
<asrwt>0</asrwt>
<pdfrwt beam="1">  1       21 0.13823237E+00 0.13497027E+03</pdfrwt>
<pdfrwt beam="2">  1       21 0.19550021E-02 0.13497027E+03</pdfrwt>
<totfact> 0.47930026E+05</totfact>
</mgrwt>
</event>
<event>
 6    1  0.4261782E-002  0.1276163E+03  0.7546771E-02  0.1231036E+00
         21   -1    0    0  504  502  0.00000000000E+00  0.00000000000E+00  0.20797949052E+03  0.20797949052E+03  0.00000000000E+00 0. -1.
         21   -1    0    0  502  503 -0.00000000000E+00 -0.00000000000E+00 -0.10803918444E+03  0.10803918444E+03  0.00000000000E+00 0.  1.
         25    2    1    2    0    0 -0.25564129354E+02  0.21814897879E+01 -0.69044849353E+02  0.14509686137E+03  0.12501049695E+03 0.  0.
          5    1    3    3  501    0  0.32303299540E+02  0.23975768760E+02  0.13074322075E+02  0.42299982819E+02  0.10000000000E+00 0.  1.
         -5    1    3    3    0  501 -0.57867428894E+02 -0.21794278972E+02 -0.82119171428E+02  0.10279687855E+03  0.10000000000E+00 0.  1.
         21    1    1    2  504  503  0.25564129354E+02 -0.21814897879E+01  0.16898515543E+03  0.17092181359E+03  0.00000000000E+00 0. -1.
<mgrwt>
<rscale>  1 0.12761625E+03</rscale>
<asrwt>0</asrwt>
<pdfrwt beam="1">  1       21 0.31996845E-01 0.12761625E+03</pdfrwt>
<pdfrwt beam="2">  1       21 0.16621413E-01 0.12761625E+03</pdfrwt>
<totfact> 0.30950672E+05</totfact>
</mgrwt>
</event>
<event>
 6    1  0.4261782E-002  0.1816169E+03  0.7546771E-02  0.1166247E+00
         21   -1    0    0  503  502  0.00000000000E+00  0.00000000000E+00  0.19798926195E+03  0.19798926195E+03  0.00000000000E+00 0. -1.
         21   -1    0    0  504  503 -0.00000000000E+00 -0.00000000000E+00 -0.12440104258E+03  0.12440104258E+03  0.00000000000E+00 0.  1.
         25    2    1    2    0    0 -0.63798227658E+02 -0.11528096424E+03  0.51657855450E+02  0.18882063945E+03  0.12499914114E+03 0.  0.
          5    1    3    3  501    0 -0.31388680167E+01  0.23823400276E+02  0.25120359262E+02  0.34762757983E+02  0.10000000000E+00 0.  1.
         -5    1    3    3    0  501 -0.60659359641E+02 -0.13910436452E+03  0.26537496188E+02  0.15405788147E+03  0.10000000000E+00 0.  1.
         21    1    1    2  504  502  0.63798227658E+02  0.11528096424E+03  0.21930363922E+02  0.13356966508E+03  0.00000000000E+00 0. -1.
<mgrwt>
<rscale>  1 0.18161690E+03</rscale>
<asrwt>0</asrwt>
<pdfrwt beam="1">  1       21 0.30459887E-01 0.18161690E+03</pdfrwt>
<pdfrwt beam="2">  1       21 0.19138622E-01 0.18161690E+03</pdfrwt>
<totfact> 0.25991499E+05</totfact>
</mgrwt>
</event>
<event>
 6    1  0.4261782E-002  0.1374903E+03  0.7546771E-02  0.1216746E+00
         21   -1    0    0  504  502  0.00000000000E+00  0.00000000000E+00  0.68971952869E+02  0.68971952869E+02  0.00000000000E+00 0.  1.
         21   -1    0    0  502  503 -0.00000000000E+00 -0.00000000000E+00 -0.96799246058E+03  0.96799246058E+03  0.00000000000E+00 0. -1.
         25    2    1    2    0    0  0.56108352499E+02 -0.11403143124E+02 -0.95024435839E+03  0.96013953615E+03  0.12500163737E+03 0.  0.
          5    1    3    3  501    0  0.48833995924E+00  0.23831300524E+02 -0.72694305175E+03  0.72733374723E+03  0.10000000000E+00 0.  1.
         -5    1    3    3    0  501  0.55620012540E+02 -0.35234443648E+02 -0.22330130663E+03  0.23280578893E+03  0.10000000000E+00 0.  1.
         21    1    1    2  504  503 -0.56108352499E+02  0.11403143124E+02  0.51223850676E+02  0.76824877295E+02  0.00000000000E+00 0.  1.
<mgrwt>
<rscale>  1 0.13749032E+03</rscale>
<asrwt>0</asrwt>
<pdfrwt beam="1">  1       21 0.10611070E-01 0.13749032E+03</pdfrwt>
<pdfrwt beam="2">  1       21 0.14892191E+00 0.13749032E+03</pdfrwt>
<totfact> 0.23139650E+04</totfact>
</mgrwt>
</event>
<event>
 6    1  0.4261782E-002  0.1273540E+03  0.7546771E-02  0.1231436E+00
         21   -1    0    0  503  502  0.00000000000E+00  0.00000000000E+00  0.15232117076E+03  0.15232117076E+03  0.00000000000E+00 0. -1.
         21   -1    0    0  504  503 -0.00000000000E+00 -0.00000000000E+00 -0.45157046554E+02  0.45157046554E+02  0.00000000000E+00 0. -1.
         25    2    1    2    0    0  0.24296537688E+02 -0.16194471143E+01  0.52716387300E+02  0.13783343207E+03  0.12500437254E+03 0.  0.
          5    1    3    3  501    0  0.47924670166E+02 -0.26622297422E+02 -0.19220284534E+02  0.58094320446E+02  0.10000000000E+00 0. -1.
         -5    1    3    3    0  501 -0.23628132478E+02  0.25002850308E+02  0.71936671834E+02  0.79739111623E+02  0.10000000000E+00 0. -1.
         21    1    1    2  504  502 -0.24296537688E+02  0.16194471143E+01  0.54447736905E+02  0.59644785243E+02  0.00000000000E+00 0. -1.
<mgrwt>
<rscale>  1 0.12735399E+03</rscale>
<asrwt>0</asrwt>
<pdfrwt beam="1">  1       21 0.23434026E-01 0.12735399E+03</pdfrwt>
<pdfrwt beam="2">  1       21 0.69472380E-02 0.12735399E+03</pdfrwt>
<totfact> 0.26023789E+06</totfact>
</mgrwt>
</event>
<event>
 6    1  0.4261782E-002  0.1370131E+03  0.7546771E-02  0.1217406E+00
         21   -1    0    0  504  502  0.00000000000E+00  0.00000000000E+00  0.35266641784E+02  0.35266641784E+02  0.00000000000E+00 0. -1.
         21   -1    0    0  502  503 -0.00000000000E+00 -0.00000000000E+00 -0.26752215580E+03  0.26752215580E+03  0.00000000000E+00 0. -1.
         25    2    1    2    0    0  0.33861566248E+01  0.56016805774E+02 -0.17903887891E+03  0.22544955245E+03  0.12499292761E+03 0.  0.
          5    1    3    3  501    0 -0.23345612732E+02 -0.30494954474E+02 -0.22229409352E+02  0.44374728421E+02  0.10000000000E+00 0.  1.
         -5    1    3    3    0  501  0.26731769357E+02  0.86511760248E+02 -0.15680946956E+03  0.18107482403E+03  0.10000000000E+00 0.  1.
         21    1    1    2  504  503 -0.33861566248E+01 -0.56016805774E+02 -0.53216635104E+02  0.77339245132E+02  0.00000000000E+00 0. -1.
<mgrwt>
<rscale>  1 0.13701307E+03</rscale>
<asrwt>0</asrwt>
<pdfrwt beam="1">  1       21 0.54256371E-02 0.13701307E+03</pdfrwt>
<pdfrwt beam="2">  1       21 0.41157255E-01 0.13701307E+03</pdfrwt>
<totfact> 0.13308418E+06</totfact>
</mgrwt>
</event>
<event>
 6    1  0.4261782E-002  0.1314328E+03  0.7546771E-02  0.1225345E+00
         21   -1    0    0  503  502  0.00000000000E+00  0.00000000000E+00  0.53208019977E+02  0.53208019977E+02  0.00000000000E+00 0.  1.
         21   -1    0    0  504  503 -0.00000000000E+00 -0.00000000000E+00 -0.15805877140E+03  0.15805877140E+03  0.00000000000E+00 0.  1.
         25    2    1    2    0    0  0.39911256058E+02  0.75420290563E+01 -0.44976158510E+02  0.13891516777E+03  0.12499911375E+03 0.  0.
          5    1    3    3  501    0  0.79201297293E+02  0.26593764023E+02 -0.12456116198E+02  0.84470341591E+02  0.10000000000E+00 0. -1.
         -5    1    3    3    0  501 -0.39290041235E+02 -0.19051734967E+02 -0.32520042312E+02  0.54444826177E+02  0.10000000000E+00 0. -1.
         21    1    1    2  504  502 -0.39911256058E+02 -0.75420290563E+01 -0.59874592918E+02  0.72351623613E+02  0.00000000000E+00 0.  1.
<mgrwt>
<rscale>  1 0.13143275E+03</rscale>
<asrwt>0</asrwt>
<pdfrwt beam="1">  1       21 0.81858494E-02 0.13143275E+03</pdfrwt>
<pdfrwt beam="2">  1       21 0.24316733E-01 0.13143275E+03</pdfrwt>
<totfact> 0.18329619E+06</totfact>
</mgrwt>
</event>
<event>
 6    1  0.4261782E-002  0.1264843E+03  0.7546771E-02  0.1232768E+00
         21   -1    0    0  503  502  0.00000000000E+00  0.00000000000E+00  0.16626166432E+02  0.16626166432E+02  0.00000000000E+00 0.  1.
         21   -1    0    0  504  503 -0.00000000000E+00 -0.00000000000E+00 -0.59437368658E+03  0.59437368658E+03  0.00000000000E+00 0.  1.
         25    2    1    2    0    0 -0.13311118851E+02  0.13912924961E+02 -0.57806622658E+03  0.59174220675E+03  0.12501008586E+03 0.  0.
          5    1    3    3  501    0 -0.30063994392E+02 -0.30720789705E+02 -0.48752739076E+03  0.48941861164E+03  0.10000000000E+00 0.  1.
         -5    1    3    3    0  501  0.16752875541E+02  0.44633714666E+02 -0.90538835824E+02  0.10232359511E+03  0.10000000000E+00 0.  1.
         21    1    1    2  504  502  0.13311118851E+02 -0.13912924961E+02  0.31870642849E+00  0.19257646269E+02  0.00000000000E+00 0.  1.
<mgrwt>
<rscale>  1 0.12648430E+03</rscale>
<asrwt>0</asrwt>
<pdfrwt beam="1">  1       21 0.25578726E-02 0.12648430E+03</pdfrwt>
<pdfrwt beam="2">  1       21 0.91442076E-01 0.12648430E+03</pdfrwt>
<totfact> 0.83888082E+05</totfact>
</mgrwt>
</event>
<event>
 6    1  0.4261782E-002  0.1278926E+03  0.7546771E-02  0.1230617E+00
         21   -1    0    0  504  502  0.00000000000E+00  0.00000000000E+00  0.23745658720E+02  0.23745658720E+02  0.00000000000E+00 0.  1.
         21   -1    0    0  502  503 -0.00000000000E+00 -0.00000000000E+00 -0.10084482963E+04  0.10084482963E+04  0.00000000000E+00 0.  1.
         25    2    1    2    0    0  0.24406601102E+02 -0.11628535083E+02 -0.99505808638E+03  0.10032433018E+04  0.12500248918E+03 0.  0.
          5    1    3    3  501    0  0.55449654029E+02  0.32536088258E+02 -0.34437522231E+03  0.35032494189E+03  0.10000000000E+00 0.  1.
         -5    1    3    3    0  501 -0.31043052927E+02 -0.44164623340E+02 -0.65068286407E+03  0.65291835989E+03  0.10000000000E+00 0.  1.
         21    1    1    2  504  503 -0.24406601102E+02  0.11628535083E+02  0.10355448766E+02  0.28950653269E+02  0.00000000000E+00 0.  1.
<mgrwt>
<rscale>  1 0.12789264E+03</rscale>
<asrwt>0</asrwt>
<pdfrwt beam="1">  1       21 0.36531786E-02 0.12789264E+03</pdfrwt>
<pdfrwt beam="2">  1       21 0.15514588E+00 0.12789264E+03</pdfrwt>
<totfact> 0.12858215E+05</totfact>
</mgrwt>
</event>
<event>
 6    1  0.4261782E-002  0.1296733E+03  0.7546771E-02  0.1227941E+00
         21   -1    0    0  503  502  0.00000000000E+00  0.00000000000E+00  0.35836945403E+03  0.35836945403E+03  0.00000000000E+00 0.  1.
         21   -1    0    0  504  503 -0.00000000000E+00 -0.00000000000E+00 -0.41420395813E+02  0.41420395813E+02  0.00000000000E+00 0.  1.
         25    2    1    2    0    0  0.16222602661E+02  0.30446746754E+02  0.64197022205E+02  0.14469424241E+03  0.12499995560E+03 0.  0.
          5    1    3    3  501    0  0.59398513401E+01 -0.17028240499E+02  0.88541401757E+02  0.90359463442E+02  0.10000000000E+00 0.  1.
         -5    1    3    3    0  501  0.10282751321E+02  0.47474987253E+02 -0.24344379552E+02  0.54334778965E+02  0.10000000000E+00 0.  1.
         21    1    1    2  504  502 -0.16222602661E+02 -0.30446746754E+02  0.25275203601E+03  0.25509560743E+03  0.00000000000E+00 0.  1.
<mgrwt>
<rscale>  1 0.12967331E+03</rscale>
<asrwt>0</asrwt>
<pdfrwt beam="1">  1       21 0.55133760E-01 0.12967331E+03</pdfrwt>
<pdfrwt beam="2">  1       21 0.63723688E-02 0.12967331E+03</pdfrwt>
<totfact> 0.55625676E+05</totfact>
</mgrwt>
</event>
<event>
 6    1  0.4261782E-002  0.1441440E+03  0.7546771E-02  0.1207859E+00
         21   -1    0    0  503  502  0.00000000000E+00  0.00000000000E+00  0.16897244396E+03  0.16897244396E+03  0.00000000000E+00 0.  1.
         21   -1    0    0  504  503 -0.00000000000E+00 -0.00000000000E+00 -0.70723503785E+02  0.70723503785E+02  0.00000000000E+00 0.  1.
         25    2    1    2    0    0  0.20339543192E+02 -0.68854949839E+02  0.82881918799E+02  0.16627356368E+03  0.12499113721E+03 0.  0.
          5    1    3    3  501    0  0.54719755629E+02 -0.72770416333E+02  0.18100761716E+02  0.92830128321E+02  0.10000000000E+00 0.  1.
         -5    1    3    3    0  501 -0.34380212437E+02  0.39154664941E+01  0.64781157083E+02  0.73443435364E+02  0.10000000000E+00 0.  1.
         21    1    1    2  504  502 -0.20339543192E+02  0.68854949839E+02  0.15367021372E+02  0.73422384056E+02  0.00000000000E+00 0.  1.
<mgrwt>
<rscale>  1 0.14414397E+03</rscale>
<asrwt>0</asrwt>
<pdfrwt beam="1">  1       21 0.25995761E-01 0.14414397E+03</pdfrwt>
<pdfrwt beam="2">  1       21 0.10880539E-01 0.14414397E+03</pdfrwt>
<totfact> 0.98407728E+05</totfact>
</mgrwt>
</event>
<event>
 6    1  0.4261782E-002  0.1308625E+03  0.7546771E-02  0.1226181E+00
         21   -1    0    0  504  502  0.00000000000E+00  0.00000000000E+00  0.14068078643E+03  0.14068078643E+03  0.00000000000E+00 0.  1.
         21   -1    0    0  502  503 -0.00000000000E+00 -0.00000000000E+00 -0.51116057332E+02  0.51116057332E+02  0.00000000000E+00 0.  1.
         25    2    1    2    0    0 -0.26392914376E+01 -0.38646429983E+02  0.68818370033E+02  0.14785456544E+03  0.12499796821E+03 0.  0.
          5    1    3    3  501    0  0.60075465035E+02 -0.67707893965E+01  0.33965764029E+02  0.69343984702E+02  0.10000000000E+00 0. -1.
         -5    1    3    3    0  501 -0.62714756473E+02 -0.31875640587E+02  0.34852606004E+02  0.78510580736E+02  0.10000000000E+00 0. -1.
         21    1    1    2  504  503  0.26392914376E+01  0.38646429983E+02  0.20746359063E+02  0.43942278322E+02  0.00000000000E+00 0.  1.
<mgrwt>
<rscale>  1 0.13086254E+03</rscale>
<asrwt>0</asrwt>
<pdfrwt beam="1">  1       21 0.21643198E-01 0.13086254E+03</pdfrwt>
<pdfrwt beam="2">  1       21 0.78640089E-02 0.13086254E+03</pdfrwt>
<totfact> 0.24431943E+06</totfact>
</mgrwt>
</event>
<event>
 6    1  0.4261782E-002  0.1277779E+03  0.7546771E-02  0.1230791E+00
         21   -1    0    0  503  502  0.00000000000E+00  0.00000000000E+00  0.11565544342E+03  0.11565544342E+03  0.00000000000E+00 0.  1.
         21   -1    0    0  504  503 -0.00000000000E+00 -0.00000000000E+00 -0.13933810371E+03  0.13933810371E+03  0.00000000000E+00 0.  1.
         25    2    1    2    0    0 -0.93396130744E+01 -0.24870452331E+02 -0.10755226071E+03  0.16701697272E+03  0.12498564965E+03 0.  0.
          5    1    3    3  501    0 -0.16985077906E+02  0.33549449131E+02 -0.10095446945E+03  0.10773055885E+03  0.10000000000E+00 0. -1.
         -5    1    3    3    0  501  0.76454648312E+01 -0.58419901462E+02 -0.65977912596E+01  0.59286413864E+02  0.10000000000E+00 0. -1.
         21    1    1    2  504  502  0.93396130744E+01  0.24870452331E+02  0.83869600421E+02  0.87976574418E+02  0.00000000000E+00 0.  1.
<mgrwt>
<rscale>  1 0.12777786E+03</rscale>
<asrwt>0</asrwt>
<pdfrwt beam="1">  1       21 0.17793145E-01 0.12777786E+03</pdfrwt>
<pdfrwt beam="2">  1       21 0.21436631E-01 0.12777786E+03</pdfrwt>
<totfact> 0.58508439E+05</totfact>
</mgrwt>
</event>
<event>
 6    1  0.4261782E-002  0.1270514E+03  0.7546771E-02  0.1231898E+00
         21   -1    0    0  503  502  0.00000000000E+00  0.00000000000E+00  0.10710503544E+03  0.10710503544E+03  0.00000000000E+00 0. -1.
         21   -1    0    0  504  503 -0.00000000000E+00 -0.00000000000E+00 -0.59262808602E+02  0.59262808602E+02  0.00000000000E+00 0. -1.
         25    2    1    2    0    0  0.22746031604E+02  0.90383705745E+00  0.17222584576E+02  0.12821340305E+03  0.12499544162E+03 0.  0.
          5    1    3    3  501    0 -0.30527259465E+01 -0.52741436009E+01 -0.52895128159E+02  0.53245096576E+02  0.10000000000E+00 0.  1.
         -5    1    3    3    0  501  0.25798757550E+02  0.61779806583E+01  0.70117712735E+02  0.74968306473E+02  0.10000000000E+00 0.  1.
         21    1    1    2  504  502 -0.22746031604E+02 -0.90383705745E+00  0.30619642259E+02  0.38154440989E+02  0.00000000000E+00 0. -1.
<mgrwt>
<rscale>  1 0.12705140E+03</rscale>
<asrwt>0</asrwt>
<pdfrwt beam="1">  1       21 0.16477698E-01 0.12705140E+03</pdfrwt>
<pdfrwt beam="2">  1       21 0.91173552E-02 0.12705140E+03</pdfrwt>
<totfact> 0.31200391E+06</totfact>
</mgrwt>
</event>
<event>
 6    1  0.4261782E-002  0.1549308E+03  0.7546771E-02  0.1194542E+00
         21   -1    0    0  504  502  0.00000000000E+00  0.00000000000E+00  0.18519457334E+03  0.18519457334E+03  0.00000000000E+00 0.  1.
         21   -1    0    0  502  503 -0.00000000000E+00 -0.00000000000E+00 -0.22074590878E+03  0.22074590878E+03  0.00000000000E+00 0. -1.
         25    2    1    2    0    0  0.83926648009E+02 -0.36584882194E+02 -0.17839163029E+03  0.23627762324E+03  0.12498562171E+03 0.  0.
          5    1    3    3  501    0 -0.16750857731E+02  0.29901168088E+02 -0.40427531062E+02  0.53000625992E+02  0.10000000000E+00 0. -1.
         -5    1    3    3    0  501  0.10067750574E+03 -0.66486050282E+02 -0.13796409923E+03  0.18327699725E+03  0.10000000000E+00 0. -1.
         21    1    1    2  504  503 -0.83926648009E+02  0.36584882194E+02  0.14284029485E+03  0.16966285888E+03  0.00000000000E+00 0.  1.
<mgrwt>
<rscale>  1 0.15493076E+03</rscale>
<asrwt>0</asrwt>
<pdfrwt beam="1">  1       21 0.28491473E-01 0.15493076E+03</pdfrwt>
<pdfrwt beam="2">  1       21 0.33960909E-01 0.15493076E+03</pdfrwt>
<totfact> 0.99856024E+04</totfact>
</mgrwt>
</event>
<event>
 6    1  0.4261782E-002  0.1266148E+03  0.7546771E-02  0.1232567E+00
         21   -1    0    0  503  502  0.00000000000E+00  0.00000000000E+00  0.20636683412E+01  0.20636683412E+01  0.00000000000E+00 0. -1.
         21   -1    0    0  504  503 -0.00000000000E+00 -0.00000000000E+00 -0.26695936595E+04  0.26695936595E+04  0.00000000000E+00 0. -1.
         25    2    1    2    0    0  0.19631502012E+02  0.46342518825E+01 -0.24183523181E+04  0.24216645581E+04  0.12499770171E+03 0.  0.
          5    1    3    3  501    0  0.90885640964E+01 -0.60149121158E+02 -0.12216528293E+04  0.12231664499E+04  0.10000000000E+00 0. -1.
         -5    1    3    3    0  501  0.10542937916E+02  0.64783373041E+02 -0.11966994888E+04  0.11984981083E+04  0.10000000000E+00 0. -1.
         21    1    1    2  504  502 -0.19631502012E+02 -0.46342518825E+01 -0.24917767299E+03  0.24999276965E+03  0.00000000000E+00 0. -1.
<mgrwt>
<rscale>  1 0.12661476E+03</rscale>
<asrwt>0</asrwt>
<pdfrwt beam="1">  1       21 0.31748646E-03 0.12661476E+03</pdfrwt>
<pdfrwt beam="2">  1       21 0.41070798E+00 0.12661476E+03</pdfrwt>
<totfact> 0.18196183E+05</totfact>
</mgrwt>
</event>
<event>
 6    1  0.4261782E-002  0.1358502E+03  0.7546771E-02  0.1219024E+00
         21   -1    0    0  504  502  0.00000000000E+00  0.00000000000E+00  0.34349434299E+03  0.34349434299E+03  0.00000000000E+00 0. -1.
         21   -1    0    0  502  503 -0.00000000000E+00 -0.00000000000E+00 -0.37303843097E+02  0.37303843097E+02  0.00000000000E+00 0. -1.
         25    2    1    2    0    0  0.12567575492E+02  0.51702499362E+02  0.29727948476E+03  0.32684914917E+03  0.12499672740E+03 0.  0.
          5    1    3    3  501    0  0.25439981878E+02 -0.29903346110E+02  0.37664262752E+02  0.54405969114E+02  0.10000000000E+00 0.  1.
         -5    1    3    3    0  501 -0.12872406386E+02  0.81605845473E+02  0.25961522201E+03  0.27244318006E+03  0.10000000000E+00 0.  1.
         21    1    1    2  504  503 -0.12567575492E+02 -0.51702499362E+02  0.89110151389E+01  0.53949036923E+02  0.00000000000E+00 0. -1.
<mgrwt>
<rscale>  1 0.13585019E+03</rscale>
<asrwt>0</asrwt>
<pdfrwt beam="1">  1       21 0.52845281E-01 0.13585019E+03</pdfrwt>
<pdfrwt beam="2">  1       21 0.57390530E-02 0.13585019E+03</pdfrwt>
<totfact> 0.72571514E+05</totfact>
</mgrwt>
</event>
<event>
 6    1  0.4261782E-002  0.1372138E+03  0.7546771E-02  0.1217128E+00
         21   -1    0    0  503  502  0.00000000000E+00  0.00000000000E+00  0.12601941484E+03  0.12601941484E+03  0.00000000000E+00 0.  1.
         21   -1    0    0  504  503 -0.00000000000E+00 -0.00000000000E+00 -0.99067343116E+02  0.99067343116E+02  0.00000000000E+00 0.  1.
         25    2    1    2    0    0  0.45203914016E+02 -0.33983848853E+02 -0.34589620210E+02  0.14150640338E+03  0.12501729699E+03 0.  0.
          5    1    3    3  501    0  0.15881510062E+02 -0.54237634454E+02  0.32749677796E+02  0.65318410488E+02  0.10000000000E+00 0.  1.
         -5    1    3    3    0  501  0.29322403954E+02  0.20253785601E+02 -0.67339298005E+02  0.76187992890E+02  0.10000000000E+00 0.  1.
         21    1    1    2  504  502 -0.45203914016E+02  0.33983848853E+02  0.61541691936E+02  0.83580354579E+02  0.00000000000E+00 0.  1.
<mgrwt>
<rscale>  1 0.13721378E+03</rscale>
<asrwt>0</asrwt>
<pdfrwt beam="1">  1       21 0.19387602E-01 0.13721378E+03</pdfrwt>
<pdfrwt beam="2">  1       21 0.15241130E-01 0.13721378E+03</pdfrwt>
<totfact> 0.93395506E+05</totfact>
</mgrwt>
</event>
<event>
 6    1  0.4261782E-002  0.1314692E+03  0.7546771E-02  0.1225292E+00
         21   -1    0    0  503  502  0.00000000000E+00  0.00000000000E+00  0.37329932898E+02  0.37329932898E+02  0.00000000000E+00 0.  1.
         21   -1    0    0  504  503 -0.00000000000E+00 -0.00000000000E+00 -0.19873058227E+03  0.19873058227E+03  0.00000000000E+00 0.  1.
         25    2    1    2    0    0  0.30303907735E+02  0.27213953538E+02 -0.12047016343E+03  0.17831771674E+03  0.12500088693E+03 0.  0.
          5    1    3    3  501    0 -0.10812890329E+01  0.67310784820E+02 -0.10566819308E+03  0.12529041451E+03  0.10000000000E+00 0.  1.
         -5    1    3    3    0  501  0.31385196768E+02 -0.40096831281E+02 -0.14801970344E+02  0.53027302223E+02  0.10000000000E+00 0.  1.
         21    1    1    2  504  502 -0.30303907735E+02 -0.27213953538E+02 -0.40930485944E+02  0.57742798433E+02  0.00000000000E+00 0.  1.
<mgrwt>
<rscale>  1 0.13146919E+03</rscale>
<asrwt>0</asrwt>
<pdfrwt beam="1">  1       21 0.57430667E-02 0.13146919E+03</pdfrwt>
<pdfrwt beam="2">  1       21 0.30573935E-01 0.13146919E+03</pdfrwt>
<totfact> 0.21698801E+06</totfact>
</mgrwt>
</event>
<event>
 6    1  0.4261782E-002  0.1283263E+03  0.7546771E-02  0.1229961E+00
         21   -1    0    0  504  502  0.00000000000E+00  0.00000000000E+00  0.49459493662E+02  0.49459493662E+02  0.00000000000E+00 0.  1.
         21   -1    0    0  502  503 -0.00000000000E+00 -0.00000000000E+00 -0.16748357266E+03  0.16748357266E+03  0.00000000000E+00 0.  1.
         25    2    1    2    0    0 -0.23493029972E+02 -0.17110022692E+02 -0.13251593950E+03  0.18446708513E+03  0.12499182351E+03 0.  0.
          5    1    3    3  501    0 -0.87182949857E+01  0.54495195617E+02 -0.58782417291E+02  0.80629508217E+02  0.10000000000E+00 0.  1.
         -5    1    3    3    0  501 -0.14774734986E+02 -0.71605218309E+02 -0.73733522206E+02  0.10383757692E+03  0.10000000000E+00 0.  1.
         21    1    1    2  504  503  0.23493029972E+02  0.17110022692E+02  0.14491860495E+02  0.32475981192E+02  0.00000000000E+00 0.  1.
<mgrwt>
<rscale>  1 0.12832627E+03</rscale>
<asrwt>0</asrwt>
<pdfrwt beam="1">  1       21 0.76091528E-02 0.12832627E+03</pdfrwt>
<pdfrwt beam="2">  1       21 0.25766704E-01 0.12832627E+03</pdfrwt>
<totfact> 0.18620950E+06</totfact>
</mgrwt>
</event>
<event>
 6    1  0.4261782E-002  0.1402149E+03  0.7546771E-02  0.1213040E+00
         21   -1    0    0  503  502  0.00000000000E+00  0.00000000000E+00  0.36037739818E+02  0.36037739818E+02  0.00000000000E+00 0.  1.
         21   -1    0    0  504  503 -0.00000000000E+00 -0.00000000000E+00 -0.29839692146E+03  0.29839692146E+03  0.00000000000E+00 0.  1.
         25    2    1    2    0    0  0.62031780212E+02  0.13688405208E+02 -0.20788811723E+03  0.25075425107E+03  0.12499964381E+03 0.  0.
          5    1    3    3  501    0  0.99405774318E+02  0.60896482807E+01 -0.16981189861E+03  0.19686209054E+03  0.10000000000E+00 0. -1.
         -5    1    3    3    0  501 -0.37373994106E+02  0.75987569274E+01 -0.38076218621E+02  0.53892160531E+02  0.10000000000E+00 0. -1.
         21    1    1    2  504  502 -0.62031780212E+02 -0.13688405208E+02 -0.54471064414E+02  0.83680410203E+02  0.00000000000E+00 0.  1.
<mgrwt>
<rscale>  1 0.14021492E+03</rscale>
<asrwt>0</asrwt>
<pdfrwt beam="1">  1       21 0.55442676E-02 0.14021492E+03</pdfrwt>
<pdfrwt beam="2">  1       21 0.45907219E-01 0.14021492E+03</pdfrwt>
<totfact> 0.10285073E+06</totfact>
</mgrwt>
</event>
<event>
 6    1  0.4261782E-002  0.1435507E+03  0.7546771E-02  0.1208630E+00
         21   -1    0    0  503  502  0.00000000000E+00  0.00000000000E+00  0.34327813844E+02  0.34327813844E+02  0.00000000000E+00 0.  1.
         21   -1    0    0  504  503 -0.00000000000E+00 -0.00000000000E+00 -0.59566188491E+03  0.59566188491E+03  0.00000000000E+00 0. -1.
         25    2    1    2    0    0  0.68680904957E+02  0.16230998754E+02 -0.53618692907E+03  0.55507047040E+03  0.12500516862E+03 0.  0.
          5    1    3    3  501    0  0.16686517606E+02 -0.26330483964E+02 -0.26328822432E+02  0.40803812889E+02  0.10000000000E+00 0. -1.
         -5    1    3    3    0  501  0.51994387351E+02  0.42561482719E+02 -0.50985810664E+03  0.51426665751E+03  0.10000000000E+00 0. -1.
         21    1    1    2  504  502 -0.68680904957E+02 -0.16230998754E+02 -0.25147141999E+02  0.74919228353E+02  0.00000000000E+00 0.  1.
<mgrwt>
<rscale>  1 0.14355070E+03</rscale>
<asrwt>0</asrwt>
<pdfrwt beam="1">  1       21 0.52812022E-02 0.14355070E+03</pdfrwt>
<pdfrwt beam="2">  1       21 0.91640289E-01 0.14355070E+03</pdfrwt>
<totfact> 0.25040925E+05</totfact>
</mgrwt>
</event>
<event>
 6    1  0.4261782E-002  0.1260100E+03  0.7546771E-02  0.1233499E+00
         21   -1    0    0  504  502  0.00000000000E+00  0.00000000000E+00  0.31309107448E+03  0.31309107448E+03  0.00000000000E+00 0.  1.
         21   -1    0    0  502  503 -0.00000000000E+00 -0.00000000000E+00 -0.24572372385E+02  0.24572372385E+02  0.00000000000E+00 0.  1.
         25    2    1    2    0    0 -0.40334175349E+01  0.15580627082E+02  0.14032798095E+03  0.18860133152E+03  0.12497798053E+03 0.  0.
          5    1    3    3  501    0  0.24186674291E+01  0.33575605315E+02  0.15861406245E+03  0.16214685329E+03  0.10000000000E+00 0. -1.
         -5    1    3    3    0  501 -0.64520849640E+01 -0.17994978233E+02 -0.18286081500E+02  0.26454478233E+02  0.10000000000E+00 0. -1.
         21    1    1    2  504  503  0.40334175349E+01 -0.15580627082E+02  0.14819072114E+03  0.14906211534E+03  0.00000000000E+00 0.  1.
<mgrwt>
<rscale>  1 0.12601000E+03</rscale>
<asrwt>0</asrwt>
<pdfrwt beam="1">  1       21 0.48167855E-01 0.12601000E+03</pdfrwt>
<pdfrwt beam="2">  1       21 0.37803652E-02 0.12601000E+03</pdfrwt>
<totfact> 0.17669791E+06</totfact>
</mgrwt>
</event>
<event>
 6    1  0.4261782E-002  0.1321813E+03  0.7546771E-02  0.1224255E+00
         21   -1    0    0  503  502  0.00000000000E+00  0.00000000000E+00  0.13196028407E+04  0.13196028407E+04  0.00000000000E+00 0.  1.
         21   -1    0    0  504  503 -0.00000000000E+00 -0.00000000000E+00 -0.58360471308E+01  0.58360471308E+01  0.00000000000E+00 0.  1.
         25    2    1    2    0    0 -0.40290910996E+02 -0.14969408103E+02  0.95400224723E+03  0.96311586966E+03  0.12499779998E+03 0.  0.
          5    1    3    3  501    0  0.21087184602E+02 -0.34610297987E+02  0.12064238526E+03  0.12726797398E+03  0.10000000000E+00 0. -1.
         -5    1    3    3    0  501 -0.61378095597E+02  0.19640889884E+02  0.83335986197E+03  0.83584789568E+03  0.10000000000E+00 0. -1.
         21    1    1    2  504  502  0.40290910996E+02  0.14969408103E+02  0.35976454636E+03  0.36232301819E+03  0.00000000000E+00 0.  1.
<mgrwt>
<rscale>  1 0.13218128E+03</rscale>
<asrwt>0</asrwt>
<pdfrwt beam="1">  1       21 0.20301558E+00 0.13218128E+03</pdfrwt>
<pdfrwt beam="2">  1       21 0.89785445E-03 0.13218128E+03</pdfrwt>
<totfact> 0.58505516E+05</totfact>
</mgrwt>
</event>
<event>
 6    1  0.4261782E-002  0.1290774E+03  0.7546771E-02  0.1228831E+00
         21   -1    0    0  504  502  0.00000000000E+00  0.00000000000E+00  0.50278136314E+02  0.50278136314E+02  0.00000000000E+00 0.  1.
         21   -1    0    0  502  503 -0.00000000000E+00 -0.00000000000E+00 -0.20622385667E+03  0.20622385667E+03  0.00000000000E+00 0.  1.
         25    2    1    2    0    0 -0.55140730265E+01  0.31701867611E+02 -0.17624481599E+03  0.21845640592E+03  0.12500221084E+03 0.  0.
          5    1    3    3  501    0 -0.41955987341E+02 -0.33957925436E+02 -0.72656692872E+02  0.90512157154E+02  0.10000000000E+00 0. -1.
         -5    1    3    3    0  501  0.36441914315E+02  0.65659793047E+02 -0.10358812312E+03  0.12794424877E+03  0.10000000000E+00 0. -1.
         21    1    1    2  504  503  0.55140730265E+01 -0.31701867611E+02  0.20299095633E+02  0.38045587062E+02  0.00000000000E+00 0.  1.
<mgrwt>
<rscale>  1 0.12907736E+03</rscale>
<asrwt>0</asrwt>
<pdfrwt beam="1">  1       21 0.77350982E-02 0.12907736E+03</pdfrwt>
<pdfrwt beam="2">  1       21 0.31726746E-01 0.12907736E+03</pdfrwt>
<totfact> 0.12146359E+06</totfact>
</mgrwt>
</event>
<event>
 6    1  0.4261782E-002  0.1271070E+03  0.7546771E-02  0.1231813E+00
         21   -1    0    0  504  502  0.00000000000E+00  0.00000000000E+00  0.10928428781E+04  0.10928428781E+04  0.00000000000E+00 0.  1.
         21   -1    0    0  502  503 -0.00000000000E+00 -0.00000000000E+00 -0.67433831120E+01  0.67433831120E+01  0.00000000000E+00 0.  1.
         25    2    1    2    0    0 -0.14769577351E+02 -0.17019565582E+02  0.61755032218E+03  0.63049550948E+03  0.12509348909E+03 0.  0.
          5    1    3    3  501    0  0.46367839181E+02  0.17766518750E+02  0.36391229447E+03  0.36728435001E+03  0.10000000000E+00 0.  1.
         -5    1    3    3    0  501 -0.61137416532E+02 -0.34786084333E+02  0.25363802772E+03  0.26321115947E+03  0.10000000000E+00 0.  1.
         21    1    1    2  504  503  0.14769577351E+02  0.17019565582E+02  0.46854917280E+03  0.46909075173E+03  0.00000000000E+00 0.  1.
<mgrwt>
<rscale>  1 0.12710699E+03</rscale>
<asrwt>0</asrwt>
<pdfrwt beam="1">  1       21 0.16812953E+00 0.12710699E+03</pdfrwt>
<pdfrwt beam="2">  1       21 0.10374444E-02 0.12710699E+03</pdfrwt>
<totfact> 0.79123985E+05</totfact>
</mgrwt>
</event>
<event>
 6    1  0.4261782E-002  0.1276247E+03  0.7546771E-02  0.1231023E+00
         21   -1    0    0  503  502  0.00000000000E+00  0.00000000000E+00  0.13716109988E+03  0.13716109988E+03  0.00000000000E+00 0.  1.
         21   -1    0    0  504  503 -0.00000000000E+00 -0.00000000000E+00 -0.52260163767E+02  0.52260163767E+02  0.00000000000E+00 0.  1.
         25    2    1    2    0    0 -0.13134993840E+01  0.25714124606E+02  0.33524938407E+02  0.13195445040E+03  0.12500045600E+03 0.  0.
          5    1    3    3  501    0 -0.52578564391E+02 -0.21794303001E+02  0.76675418665E+01  0.57430812940E+02  0.10000000000E+00 0.  1.
         -5    1    3    3    0  501  0.51265065007E+02  0.47508427607E+02  0.25857396541E+02  0.74523637456E+02  0.10000000000E+00 0.  1.
         21    1    1    2  504  502  0.13134993840E+01 -0.25714124606E+02  0.51375997706E+02  0.57466813251E+02  0.00000000000E+00 0.  1.
<mgrwt>
<rscale>  1 0.12762467E+03</rscale>
<asrwt>0</asrwt>
<pdfrwt beam="1">  1       21 0.21101708E-01 0.12762467E+03</pdfrwt>
<pdfrwt beam="2">  1       21 0.80400252E-02 0.12762467E+03</pdfrwt>
<totfact> 0.24631957E+06</totfact>
</mgrwt>
</event>
<event>
 6    1  0.4261782E-002  0.1301483E+03  0.7546771E-02  0.1227236E+00
         21   -1    0    0  504  502  0.00000000000E+00  0.00000000000E+00  0.15849303685E+03  0.15849303685E+03  0.00000000000E+00 0. -1.
         21   -1    0    0  502  503 -0.00000000000E+00 -0.00000000000E+00 -0.22507094782E+03  0.22507094782E+03  0.00000000000E+00 0. -1.
         25    2    1    2    0    0  0.75345389282E+00  0.36227220297E+02 -0.20370407282E+03  0.24173111313E+03  0.12500241033E+03 0.  0.
          5    1    3    3  501    0 -0.99178490373E+01  0.66363879521E+02 -0.19825124767E+03  0.20929905742E+03  0.10000000000E+00 0. -1.
         -5    1    3    3    0  501  0.10671302930E+02 -0.30136659224E+02 -0.54528251504E+01  0.32432055709E+02  0.10000000000E+00 0. -1.
         21    1    1    2  504  503 -0.75345389282E+00 -0.36227220297E+02  0.13712616186E+03  0.14183287154E+03  0.00000000000E+00 0. -1.
<mgrwt>
<rscale>  1 0.13014831E+03</rscale>
<asrwt>0</asrwt>
<pdfrwt beam="1">  1       21 0.24383544E-01 0.13014831E+03</pdfrwt>
<pdfrwt beam="2">  1       21 0.34626299E-01 0.13014831E+03</pdfrwt>
<totfact> 0.13045910E+05</totfact>
</mgrwt>
</event>
<event>
 6    1  0.4261782E-002  0.1297189E+03  0.7546771E-02  0.1227874E+00
         21   -1    0    0  504  502  0.00000000000E+00  0.00000000000E+00  0.69011632304E+02  0.69011632304E+02  0.00000000000E+00 0.  1.
         21   -1    0    0  502  503 -0.00000000000E+00 -0.00000000000E+00 -0.14467713096E+03  0.14467713096E+03  0.00000000000E+00 0.  1.
         25    2    1    2    0    0 -0.10545872789E+02 -0.33054456346E+02 -0.10606338354E+03  0.16756020462E+03  0.12499267309E+03 0.  0.
          5    1    3    3  501    0  0.36338571423E+02 -0.36668875757E+02 -0.92632715677E-01  0.51624769279E+02  0.10000000000E+00 0. -1.
         -5    1    3    3    0  501 -0.46884444211E+02  0.36144194114E+01 -0.10597075083E+03  0.11593543534E+03  0.10000000000E+00 0. -1.
         21    1    1    2  504  503  0.10545872789E+02  0.33054456346E+02  0.30397884886E+02  0.46128558646E+02  0.00000000000E+00 0.  1.
<mgrwt>
<rscale>  1 0.12971885E+03</rscale>
<asrwt>0</asrwt>
<pdfrwt beam="1">  1       21 0.10617174E-01 0.12971885E+03</pdfrwt>
<pdfrwt beam="2">  1       21 0.22258020E-01 0.12971885E+03</pdfrwt>
<totfact> 0.13753032E+06</totfact>
</mgrwt>
</event>
<event>
 6    1  0.4261782E-002  0.1420190E+03  0.7546771E-02  0.1210638E+00
         21   -1    0    0  504  502  0.00000000000E+00  0.00000000000E+00  0.51630119694E+03  0.51630119694E+03  0.00000000000E+00 0. -1.
         21   -1    0    0  502  503 -0.00000000000E+00 -0.00000000000E+00 -0.23878348937E+02  0.23878348937E+02  0.00000000000E+00 0. -1.
         25    2    1    2    0    0 -0.66256730824E+02  0.12437425157E+02  0.23964039087E+03  0.27856224033E+03  0.12499904352E+03 0.  0.
          5    1    3    3  501    0 -0.62173987810E+02 -0.34600071693E+02  0.60791616486E+02  0.93586325691E+02  0.10000000000E+00 0. -1.
         -5    1    3    3    0  501 -0.40827430145E+01  0.47037496849E+02  0.17884877438E+03  0.18497591464E+03  0.10000000000E+00 0. -1.
         21    1    1    2  504  503  0.66256730824E+02 -0.12437425157E+02  0.25278245714E+03  0.26161730554E+03  0.00000000000E+00 0. -1.
<mgrwt>
<rscale>  1 0.14201903E+03</rscale>
<asrwt>0</asrwt>
<pdfrwt beam="1">  1       21 0.79430945E-01 0.14201903E+03</pdfrwt>
<pdfrwt beam="2">  1       21 0.36735925E-02 0.14201903E+03</pdfrwt>
<totfact> 0.63599350E+05</totfact>
</mgrwt>
</event>
<event>
 6    1  0.4261782E-002  0.1263061E+03  0.7546771E-02  0.1233042E+00
         21   -1    0    0  503  502  0.00000000000E+00  0.00000000000E+00  0.11978205877E+03  0.11978205877E+03  0.00000000000E+00 0. -1.
         21   -1    0    0  504  503 -0.00000000000E+00 -0.00000000000E+00 -0.45639892405E+02  0.45639892405E+02  0.00000000000E+00 0. -1.
         25    2    1    2    0    0  0.14471879164E+01 -0.18161612363E+02  0.51605042648E+02  0.13644160504E+03  0.12498516969E+03 0.  0.
          5    1    3    3  501    0 -0.15875132877E+02 -0.76998087837E+01 -0.39422970529E+02  0.43191289684E+02  0.10000000000E+00 0. -1.
         -5    1    3    3    0  501  0.17322320794E+02 -0.10461803580E+02  0.91028013177E+02  0.93250315360E+02  0.10000000000E+00 0. -1.
         21    1    1    2  504  502 -0.14471879164E+01  0.18161612363E+02  0.22537123721E+02  0.28980346135E+02  0.00000000000E+00 0. -1.
<mgrwt>
<rscale>  1 0.12630610E+03</rscale>
<asrwt>0</asrwt>
<pdfrwt beam="1">  1       21 0.18428009E-01 0.12630610E+03</pdfrwt>
<pdfrwt beam="2">  1       21 0.70215220E-02 0.12630610E+03</pdfrwt>
<totfact> 0.39895625E+06</totfact>
</mgrwt>
</event>
<event>
 6    1  0.4261782E-002  0.1350268E+03  0.7546771E-02  0.1220182E+00
         21   -1    0    0  503  502  0.00000000000E+00  0.00000000000E+00  0.25836807206E+02  0.25836807206E+02  0.00000000000E+00 0.  1.
         21   -1    0    0  504  503 -0.00000000000E+00 -0.00000000000E+00 -0.35220802888E+03  0.35220802888E+03  0.00000000000E+00 0.  1.
         25    2    1    2    0    0 -0.33617163952E+02  0.38408439253E+02 -0.19573280390E+03  0.23778893384E+03  0.12500769822E+03 0.  0.
          5    1    3    3  501    0 -0.22126157980E+02 -0.33633546067E+02 -0.14086749109E+03  0.14650748218E+03  0.10000000000E+00 0.  1.
         -5    1    3    3    0  501 -0.11491005972E+02  0.72041985319E+02 -0.54865312809E+02  0.91281451657E+02  0.10000000000E+00 0.  1.
         21    1    1    2  504  502  0.33617163952E+02 -0.38408439253E+02 -0.13063841777E+03  0.14025590225E+03  0.00000000000E+00 0.  1.
<mgrwt>
<rscale>  1 0.13502684E+03</rscale>
<asrwt>0</asrwt>
<pdfrwt beam="1">  1       21 0.39748937E-02 0.13502684E+03</pdfrwt>
<pdfrwt beam="2">  1       21 0.54185847E-01 0.13502684E+03</pdfrwt>
<totfact> 0.12755294E+06</totfact>
</mgrwt>
</event>
<event>
 6    1  0.4261782E-002  0.1274568E+03  0.7546771E-02  0.1231279E+00
         21   -1    0    0  504  502  0.00000000000E+00  0.00000000000E+00  0.46462361524E+02  0.46462361524E+02  0.00000000000E+00 0.  1.
         21   -1    0    0  502  503 -0.00000000000E+00 -0.00000000000E+00 -0.12527386219E+03  0.12527386219E+03  0.00000000000E+00 0.  1.
         25    2    1    2    0    0 -0.22718763308E+02 -0.10224592422E+02 -0.69220117204E+02  0.14504017282E+03  0.12499817043E+03 0.  0.
          5    1    3    3  501    0  0.14505634705E+02 -0.61942770090E+02 -0.31481032948E+02  0.70981586627E+02  0.10000000000E+00 0.  1.
         -5    1    3    3    0  501 -0.37224398013E+02  0.51718177668E+02 -0.37739084256E+02  0.74058586195E+02  0.10000000000E+00 0.  1.
         21    1    1    2  504  503  0.22718763308E+02  0.10224592422E+02 -0.95913834611E+01  0.26696050890E+02  0.00000000000E+00 0.  1.
<mgrwt>
<rscale>  1 0.12745677E+03</rscale>
<asrwt>0</asrwt>
<pdfrwt beam="1">  1       21 0.71480556E-02 0.12745677E+03</pdfrwt>
<pdfrwt beam="2">  1       21 0.19272902E-01 0.12745677E+03</pdfrwt>
<totfact> 0.35649280E+06</totfact>
</mgrwt>
</event>
<event>
 6    1  0.4261782E-002  0.1266799E+03  0.7546771E-02  0.1232467E+00
         21   -1    0    0  503  502  0.00000000000E+00  0.00000000000E+00  0.53918337479E+01  0.53918337479E+01  0.00000000000E+00 0. -1.
         21   -1    0    0  504  503 -0.00000000000E+00 -0.00000000000E+00 -0.10055958798E+04  0.10055958798E+04  0.00000000000E+00 0. -1.
         25    2    1    2    0    0 -0.17129138082E+02  0.11397764622E+02 -0.85555399314E+03  0.86488174441E+03  0.12499792090E+03 0.  0.
          5    1    3    3  501    0  0.11684567754E+02 -0.88049592928E+01 -0.79279353990E+03  0.79292853608E+03  0.10000000000E+00 0. -1.
         -5    1    3    3    0  501 -0.28813705836E+02  0.20202723915E+02 -0.62760453247E+02  0.71953208332E+02  0.10000000000E+00 0. -1.
         21    1    1    2  504  502  0.17129138082E+02 -0.11397764622E+02 -0.14465005287E+03  0.14610596910E+03  0.00000000000E+00 0. -1.
<mgrwt>
<rscale>  1 0.12667990E+03</rscale>
<asrwt>0</asrwt>
<pdfrwt beam="1">  1       21 0.82951246E-03 0.12667990E+03</pdfrwt>
<pdfrwt beam="2">  1       21 0.15470714E+00 0.12667990E+03</pdfrwt>
<totfact> 0.14026172E+06</totfact>
</mgrwt>
</event>
<event>
 6    1  0.4261782E-002  0.1263444E+03  0.7546771E-02  0.1232983E+00
         21   -1    0    0  503  502  0.00000000000E+00  0.00000000000E+00  0.15082228726E+03  0.15082228726E+03  0.00000000000E+00 0. -1.
         21   -1    0    0  504  503 -0.00000000000E+00 -0.00000000000E+00 -0.10751167881E+03  0.10751167881E+03  0.00000000000E+00 0. -1.
         25    2    1    2    0    0 -0.18320111210E+02  0.34813698859E+00 -0.69395545349E+02  0.14414804408E+03  0.12500867660E+03 0.  0.
          5    1    3    3  501    0 -0.22160588893E+02  0.56697893993E+02 -0.62502206412E+02  0.87248373565E+02  0.10000000000E+00 0.  1.
         -5    1    3    3    0  501  0.38404776832E+01 -0.56349757005E+02 -0.68933389370E+01  0.56899670518E+02  0.10000000000E+00 0.  1.
         21    1    1    2  504  502  0.18320111210E+02 -0.34813698859E+00  0.11270615381E+03  0.11418592199E+03  0.00000000000E+00 0. -1.
<mgrwt>
<rscale>  1 0.12634444E+03</rscale>
<asrwt>0</asrwt>
<pdfrwt beam="1">  1       21 0.23203429E-01 0.12634444E+03</pdfrwt>
<pdfrwt beam="2">  1       21 0.16540258E-01 0.12634444E+03</pdfrwt>
<totfact> 0.57647855E+05</totfact>
</mgrwt>
</event>
<event>
 6    1  0.4261782E-002  0.2147894E+03  0.7546771E-02  0.1137828E+00
         21   -1    0    0  503  502  0.00000000000E+00  0.00000000000E+00  0.11256650059E+03  0.11256650059E+03  0.00000000000E+00 0. -1.
         21   -1    0    0  504  503 -0.00000000000E+00 -0.00000000000E+00 -0.36061043507E+03  0.36061043507E+03  0.00000000000E+00 0. -1.
         25    2    1    2    0    0 -0.17465496201E+03 -0.24068944242E+01 -0.19636235594E+03  0.29102004050E+03  0.12499736096E+03 0.  0.
          5    1    3    3  501    0 -0.38391659603E+02  0.23784122878E+02 -0.12919408578E+03  0.13686024196E+03  0.10000000000E+00 0. -1.
         -5    1    3    3    0  501 -0.13626330241E+03 -0.26191017302E+02 -0.67168270160E+02  0.15415979854E+03  0.10000000000E+00 0. -1.
         21    1    1    2  504  502  0.17465496201E+03  0.24068944242E+01 -0.51681578540E+02  0.18215689517E+03  0.00000000000E+00 0. -1.
<mgrwt>
<rscale>  1 0.21478941E+03</rscale>
<asrwt>0</asrwt>
<pdfrwt beam="1">  1       21 0.17317923E-01 0.21478941E+03</pdfrwt>
<pdfrwt beam="2">  1       21 0.55478529E-01 0.21478941E+03</pdfrwt>
<totfact> 0.91501062E+04</totfact>
</mgrwt>
</event>
<event>
 6    1  0.4261782E-002  0.1483979E+03  0.7546771E-02  0.1202456E+00
         21   -1    0    0  504  502  0.00000000000E+00  0.00000000000E+00  0.68357425813E+02  0.68357425813E+02  0.00000000000E+00 0.  1.
         21   -1    0    0  502  503 -0.00000000000E+00 -0.00000000000E+00 -0.20783989061E+03  0.20783989061E+03  0.00000000000E+00 0.  1.
         25    2    1    2    0    0  0.13188372458E+02 -0.78888636109E+02 -0.50986955869E+02  0.15691276094E+03  0.12499837920E+03 0.  0.
          5    1    3    3  501    0  0.57321864311E+02 -0.61378954006E+02  0.42293562363E+01  0.84089652022E+02  0.10000000000E+00 0. -1.
         -5    1    3    3    0  501 -0.44133491853E+02 -0.17509682102E+02 -0.55216312105E+02  0.72823108921E+02  0.10000000000E+00 0. -1.
         21    1    1    2  504  503 -0.13188372458E+02  0.78888636109E+02 -0.88495508926E+02  0.11928455548E+03  0.00000000000E+00 0.  1.
<mgrwt>
<rscale>  1 0.14839793E+03</rscale>
<asrwt>0</asrwt>
<pdfrwt beam="1">  1       21 0.10516527E-01 0.14839793E+03</pdfrwt>
<pdfrwt beam="2">  1       21 0.31975368E-01 0.14839793E+03</pdfrwt>
<totfact> 0.70122876E+05</totfact>
</mgrwt>
</event>
<event>
 6    1  0.4261782E-002  0.1292709E+03  0.7546771E-02  0.1228542E+00
         21   -1    0    0  503  502  0.00000000000E+00  0.00000000000E+00  0.11645951347E+03  0.11645951347E+03  0.00000000000E+00 0.  1.
         21   -1    0    0  504  503 -0.00000000000E+00 -0.00000000000E+00 -0.82007792167E+02  0.82007792167E+02  0.00000000000E+00 0. -1.
         25    2    1    2    0    0 -0.75247903531E+01  0.32094354248E+02 -0.23886952705E+02  0.13145931410E+03  0.12499717881E+03 0.  0.
          5    1    3    3  501    0  0.17363787853E+02 -0.41897170696E+02  0.98593915385E+01  0.46412192821E+02  0.10000000000E+00 0.  1.
         -5    1    3    3    0  501 -0.24888578206E+02  0.73991524944E+02 -0.33746344243E+02  0.85047121282E+02  0.10000000000E+00 0.  1.
         21    1    1    2  504  502  0.75247903531E+01 -0.32094354248E+02  0.58338674008E+02  0.67007991534E+02  0.00000000000E+00 0.  1.
<mgrwt>
<rscale>  1 0.12927090E+03</rscale>
<asrwt>0</asrwt>
<pdfrwt beam="1">  1       21 0.17916848E-01 0.12927090E+03</pdfrwt>
<pdfrwt beam="2">  1       21 0.12616583E-01 0.12927090E+03</pdfrwt>
<totfact> 0.15141169E+06</totfact>
</mgrwt>
</event>
<event>
 6    1  0.4261782E-002  0.1270009E+03  0.7546771E-02  0.1231975E+00
         21   -1    0    0  504  502  0.00000000000E+00  0.00000000000E+00  0.37423506018E+01  0.37423506018E+01  0.00000000000E+00 0. -1.
         21   -1    0    0  502  503 -0.00000000000E+00 -0.00000000000E+00 -0.16658441720E+04  0.16658441720E+04  0.00000000000E+00 0. -1.
         25    2    1    2    0    0  0.20550608385E+02 -0.90978429486E+01 -0.15535581322E+04  0.15587405451E+04  0.12499647491E+03 0.  0.
          5    1    3    3  501    0 -0.15472992553E+02  0.22626723443E+02 -0.83203717939E+02  0.87602801275E+02  0.10000000000E+00 0.  1.
         -5    1    3    3    0  501  0.36023600939E+02 -0.31724566391E+02 -0.14703544142E+04  0.14711377438E+04  0.10000000000E+00 0.  1.
         21    1    1    2  504  503 -0.20550608385E+02  0.90978429486E+01 -0.10854368927E+03  0.11084597751E+03  0.00000000000E+00 0. -1.
<mgrwt>
<rscale>  1 0.12700085E+03</rscale>
<asrwt>0</asrwt>
<pdfrwt beam="1">  1       21 0.57574761E-03 0.12700085E+03</pdfrwt>
<pdfrwt beam="2">  1       21 0.25628311E+00 0.12700085E+03</pdfrwt>
<totfact> 0.56754024E+05</totfact>
</mgrwt>
</event>
<event>
 6    1  0.4261782E-002  0.1261082E+03  0.7546771E-02  0.1233347E+00
         21   -1    0    0  503  502  0.00000000000E+00  0.00000000000E+00  0.41765493448E+02  0.41765493448E+02  0.00000000000E+00 0. -1.
         21   -1    0    0  504  503 -0.00000000000E+00 -0.00000000000E+00 -0.19091448731E+03  0.19091448731E+03  0.00000000000E+00 0. -1.
         25    2    1    2    0    0  0.15737687118E+02  0.55005030680E+01 -0.16633550203E+03  0.20873616334E+03  0.12500142526E+03 0.  0.
          5    1    3    3  501    0  0.43818925477E+02 -0.18990431172E+02 -0.11017897245E+02  0.49011618681E+02  0.10000000000E+00 0.  1.
         -5    1    3    3    0  501 -0.28081238359E+02  0.24490934240E+02 -0.15531760479E+03  0.15972454466E+03  0.10000000000E+00 0.  1.
         21    1    1    2  504  502 -0.15737687118E+02 -0.55005030680E+01  0.17186508169E+02  0.23943817425E+02  0.00000000000E+00 0. -1.
<mgrwt>
<rscale>  1 0.12610823E+03</rscale>
<asrwt>0</asrwt>
<pdfrwt beam="1">  1       21 0.64254604E-02 0.12610823E+03</pdfrwt>
<pdfrwt beam="2">  1       21 0.29371460E-01 0.12610823E+03</pdfrwt>
<totfact> 0.19355533E+06</totfact>
</mgrwt>
</event>
<event>
 6    1  0.4261782E-002  0.1264073E+03  0.7546771E-02  0.1232886E+00
         21   -1    0    0  504  502  0.00000000000E+00  0.00000000000E+00  0.46820356110E+03  0.46820356110E+03  0.00000000000E+00 0. -1.
         21   -1    0    0  502  503 -0.00000000000E+00 -0.00000000000E+00 -0.24900123850E+03  0.24900123850E+03  0.00000000000E+00 0.  1.
         25    2    1    2    0    0 -0.13949744316E+02  0.12576490135E+02 -0.23275070446E+03  0.26486167526E+03  0.12500421242E+03 0.  0.
          5    1    3    3  501    0 -0.13933714622E+02 -0.21457303696E+01 -0.24518550248E+03  0.24559049898E+03  0.10000000000E+00 0.  1.
         -5    1    3    3    0  501 -0.16029694021E-01  0.14722220505E+02  0.12434798018E+02  0.19271176282E+02  0.10000000000E+00 0.  1.
         21    1    1    2  504  503  0.13949744316E+02 -0.12576490135E+02  0.45195302706E+03  0.45234312434E+03  0.00000000000E+00 0. -1.
<mgrwt>
<rscale>  1 0.12640734E+03</rscale>
<asrwt>0</asrwt>
<pdfrwt beam="1">  1       21 0.72031317E-01 0.12640734E+03</pdfrwt>
<pdfrwt beam="2">  1       21 0.38307883E-01 0.12640734E+03</pdfrwt>
<totfact> 0.12009512E+04</totfact>
</mgrwt>
</event>
<event>
 6    1  0.4261782E-002  0.1795503E+03  0.7546771E-02  0.1168239E+00
         21   -1    0    0  504  502  0.00000000000E+00  0.00000000000E+00  0.27308473364E+03  0.27308473364E+03  0.00000000000E+00 0.  1.
         21   -1    0    0  502  503 -0.00000000000E+00 -0.00000000000E+00 -0.11307973852E+03  0.11307973852E+03  0.00000000000E+00 0.  1.
         25    2    1    2    0    0  0.50792292768E+02  0.11846513515E+03 -0.14667124362E+01  0.17955624968E+03  0.12499780120E+03 0.  0.
          5    1    3    3  501    0  0.25883137017E+02 -0.36110071590E+01  0.40402187755E+02  0.48117802630E+02  0.10000000000E+00 0.  1.
         -5    1    3    3    0  501  0.24909155751E+02  0.12207614231E+03 -0.41868900191E+02  0.13143844705E+03  0.10000000000E+00 0.  1.
         21    1    1    2  504  503 -0.50792292768E+02 -0.11846513515E+03  0.16147170756E+03  0.20660822247E+03  0.00000000000E+00 0.  1.
<mgrwt>
<rscale>  1 0.17955026E+03</rscale>
<asrwt>0</asrwt>
<pdfrwt beam="1">  1       21 0.42013036E-01 0.17955026E+03</pdfrwt>
<pdfrwt beam="2">  1       21 0.17396883E-01 0.17955026E+03</pdfrwt>
<totfact> 0.16369918E+05</totfact>
</mgrwt>
</event>
<event>
 6    1  0.4261782E-002  0.1266325E+03  0.7546771E-02  0.1232540E+00
         21   -1    0    0  503  502  0.00000000000E+00  0.00000000000E+00  0.16731675869E+03  0.16731675869E+03  0.00000000000E+00 0. -1.
         21   -1    0    0  504  503 -0.00000000000E+00 -0.00000000000E+00 -0.89455638935E+02  0.89455638935E+02  0.00000000000E+00 0. -1.
         25    2    1    2    0    0 -0.20011548401E+02 -0.33393355913E+01 -0.43371474512E+02  0.13385390779E+03  0.12499668234E+03 0.  0.
          5    1    3    3  501    0  0.49063483636E+02  0.10244221366E+02 -0.38658709094E+02  0.63298303980E+02  0.10000000000E+00 0.  1.
         -5    1    3    3    0  501 -0.69075032037E+02 -0.13583556957E+02 -0.47127654179E+01  0.70555603806E+02  0.10000000000E+00 0.  1.
         21    1    1    2  504  502  0.20011548401E+02  0.33393355913E+01  0.12123259427E+03  0.12291848984E+03  0.00000000000E+00 0. -1.
<mgrwt>
<rscale>  1 0.12663248E+03</rscale>
<asrwt>0</asrwt>
<pdfrwt beam="1">  1       21 0.25741040E-01 0.12663248E+03</pdfrwt>
<pdfrwt beam="2">  1       21 0.13762406E-01 0.12663248E+03</pdfrwt>
<totfact> 0.66037499E+05</totfact>
</mgrwt>
</event>
<event>
 6    1  0.4261782E-002  0.1271258E+03  0.7546771E-02  0.1231784E+00
         21   -1    0    0  504  502  0.00000000000E+00  0.00000000000E+00  0.21971279337E+02  0.21971279337E+02  0.00000000000E+00 0. -1.
         21   -1    0    0  502  503 -0.00000000000E+00 -0.00000000000E+00 -0.26843728032E+03  0.26843728032E+03  0.00000000000E+00 0. -1.
         25    2    1    2    0    0  0.14505406441E+02 -0.18032169273E+02 -0.22697840990E+03  0.26015410294E+03  0.12500157109E+03 0.  0.
          5    1    3    3  501    0  0.58877563241E+02 -0.14691094748E+02 -0.52980599539E+02  0.80556499710E+02  0.10000000000E+00 0.  1.
         -5    1    3    3    0  501 -0.44372156800E+02 -0.33410745250E+01 -0.17399781036E+03  0.17959760323E+03  0.10000000000E+00 0.  1.
         21    1    1    2  504  503 -0.14505406441E+02  0.18032169273E+02 -0.19487591088E+02  0.30254456715E+02  0.00000000000E+00 0. -1.
<mgrwt>
<rscale>  1 0.12712576E+03</rscale>
<asrwt>0</asrwt>
<pdfrwt beam="1">  1       21 0.33801969E-02 0.12712576E+03</pdfrwt>
<pdfrwt beam="2">  1       21 0.41298042E-01 0.12712576E+03</pdfrwt>
<totfact> 0.29051478E+06</totfact>
</mgrwt>
</event>
<event>
 6    1  0.4261782E-002  0.1597235E+03  0.7546771E-02  0.1189009E+00
         21   -1    0    0  503  502  0.00000000000E+00  0.00000000000E+00  0.81917031095E+03  0.81917031095E+03  0.00000000000E+00 0. -1.
         21   -1    0    0  504  503 -0.00000000000E+00 -0.00000000000E+00 -0.10279605826E+03  0.10279605826E+03  0.00000000000E+00 0.  1.
         25    2    1    2    0    0 -0.34058817798E+02 -0.93415567754E+02 -0.35437950092E+02  0.16360757575E+03  0.12500047667E+03 0.  0.
          5    1    3    3  501    0 -0.34920404990E+02 -0.26704191589E+02  0.42409223710E+02  0.61082737240E+02  0.10000000000E+00 0. -1.
         -5    1    3    3    0  501  0.86158719160E+00 -0.66711376164E+02 -0.77847173801E+02  0.10252483851E+03  0.10000000000E+00 0. -1.
         21    1    1    2  504  502  0.34058817798E+02  0.93415567754E+02  0.75181220278E+03  0.75835879346E+03  0.00000000000E+00 0. -1.
<mgrwt>
<rscale>  1 0.15972348E+03</rscale>
<asrwt>0</asrwt>
<pdfrwt beam="1">  1       21 0.12602620E+00 0.15972348E+03</pdfrwt>
<pdfrwt beam="2">  1       21 0.15814779E-01 0.15972348E+03</pdfrwt>
<totfact> 0.17034793E+04</totfact>
</mgrwt>
</event>
<event>
 6    1  0.4261782E-002  0.1260403E+03  0.7546771E-02  0.1233452E+00
         21   -1    0    0  504  502  0.00000000000E+00  0.00000000000E+00  0.40978580849E+03  0.40978580849E+03  0.00000000000E+00 0. -1.
         21   -1    0    0  502  503 -0.00000000000E+00 -0.00000000000E+00 -0.40052346791E+02  0.40052346791E+02  0.00000000000E+00 0.  1.
         25    2    1    2    0    0  0.14008366828E+02 -0.80250922261E+01  0.59839494380E+02  0.13952394770E+03  0.12500212177E+03 0.  0.
          5    1    3    3  501    0 -0.45101386530E+02 -0.19090512653E+02  0.62410203642E+02  0.79332378377E+02  0.10000000000E+00 0. -1.
         -5    1    3    3    0  501  0.59109753359E+02  0.11065420427E+02 -0.25707092614E+01  0.60191569322E+02  0.10000000000E+00 0. -1.
         21    1    1    2  504  503 -0.14008366828E+02  0.80250922261E+01  0.30989396732E+03  0.31031420758E+03  0.00000000000E+00 0. -1.
<mgrwt>
<rscale>  1 0.12604034E+03</rscale>
<asrwt>0</asrwt>
<pdfrwt beam="1">  1       21 0.63043968E-01 0.12604034E+03</pdfrwt>
<pdfrwt beam="2">  1       21 0.61618998E-02 0.12604034E+03</pdfrwt>
<totfact> 0.44355275E+05</totfact>
</mgrwt>
</event>
<event>
 6    1  0.4261782E-002  0.1288560E+03  0.7546771E-02  0.1229163E+00
         21   -1    0    0  503  502  0.00000000000E+00  0.00000000000E+00  0.49830517950E+03  0.49830517950E+03  0.00000000000E+00 0.  1.
         21   -1    0    0  504  503 -0.00000000000E+00 -0.00000000000E+00 -0.15889583193E+02  0.15889583193E+02  0.00000000000E+00 0.  1.
         25    2    1    2    0    0  0.37326591169E+01 -0.31054816684E+02  0.26640739934E+03  0.29593373653E+03  0.12500215843E+03 0.  0.
          5    1    3    3  501    0  0.51365805544E+02 -0.27319107562E+02  0.58117446437E+02  0.82233978364E+02  0.10000000000E+00 0.  1.
         -5    1    3    3    0  501 -0.47633146428E+02 -0.37357091223E+01  0.20828995290E+03  0.21369975817E+03  0.10000000000E+00 0.  1.
         21    1    1    2  504  502 -0.37326591169E+01  0.31054816684E+02  0.21600819697E+03  0.21826102616E+03  0.00000000000E+00 0.  1.
<mgrwt>
<rscale>  1 0.12885602E+03</rscale>
<asrwt>0</asrwt>
<pdfrwt beam="1">  1       21 0.76662323E-01 0.12885602E+03</pdfrwt>
<pdfrwt beam="2">  1       21 0.24445516E-02 0.12885602E+03</pdfrwt>
<totfact> 0.13436492E+06</totfact>
</mgrwt>
</event>
<event>
 6    1  0.4261782E-002  0.1282428E+03  0.7546771E-02  0.1230087E+00
         21   -1    0    0  504  502  0.00000000000E+00  0.00000000000E+00  0.10018078945E+02  0.10018078945E+02  0.00000000000E+00 0.  1.
         21   -1    0    0  502  503 -0.00000000000E+00 -0.00000000000E+00 -0.83643004811E+03  0.83643004811E+03  0.00000000000E+00 0.  1.
         25    2    1    2    0    0 -0.28904557194E+02 -0.54536983363E+00 -0.78802894437E+03  0.79839578635E+03  0.12494176099E+03 0.  0.
          5    1    3    3  501    0 -0.51196723252E+02 -0.43971200684E+02 -0.27962376005E+03  0.28765261713E+03  0.10000000000E+00 0.  1.
         -5    1    3    3    0  501  0.22292166058E+02  0.43425830851E+02 -0.50840518433E+03  0.51074316922E+03  0.10000000000E+00 0.  1.
         21    1    1    2  504  503  0.28904557194E+02  0.54536983363E+00 -0.38383024790E+02  0.48052340701E+02  0.00000000000E+00 0.  1.
<mgrwt>
<rscale>  1 0.12824280E+03</rscale>
<asrwt>0</asrwt>
<pdfrwt beam="1">  1       21 0.15412422E-02 0.12824280E+03</pdfrwt>
<pdfrwt beam="2">  1       21 0.12868161E+00 0.12824280E+03</pdfrwt>
<totfact> 0.84106282E+05</totfact>
</mgrwt>
</event>
<event>
 6    1  0.4261782E-002  0.1314047E+03  0.7546771E-02  0.1225386E+00
         21   -1    0    0  504  502  0.00000000000E+00  0.00000000000E+00  0.48765602229E+02  0.48765602229E+02  0.00000000000E+00 0. -1.
         21   -1    0    0  502  503 -0.00000000000E+00 -0.00000000000E+00 -0.20840721460E+03  0.20840721460E+03  0.00000000000E+00 0. -1.
         25    2    1    2    0    0  0.20808607766E+02 -0.34801059370E+02 -0.17043819622E+03  0.21521238173E+03  0.12499231428E+03 0.  0.
          5    1    3    3  501    0  0.37901060364E+02  0.38699097057E+02 -0.88993234850E+02  0.10418213061E+03  0.10000000000E+00 0. -1.
         -5    1    3    3    0  501 -0.17092452597E+02 -0.73500156427E+02 -0.81444961371E+02  0.11103025112E+03  0.10000000000E+00 0. -1.
         21    1    1    2  504  503 -0.20808607766E+02  0.34801059370E+02  0.10796583854E+02  0.41960435095E+02  0.00000000000E+00 0. -1.
<mgrwt>
<rscale>  1 0.13140468E+03</rscale>
<asrwt>0</asrwt>
<pdfrwt beam="1">  1       21 0.75024002E-02 0.13140468E+03</pdfrwt>
<pdfrwt beam="2">  1       21 0.32062649E-01 0.13140468E+03</pdfrwt>
<totfact> 0.12545344E+06</totfact>
</mgrwt>
</event>
<event>
 6    1  0.4261782E-002  0.1271231E+03  0.7546771E-02  0.1231788E+00
         21   -1    0    0  503  502  0.00000000000E+00  0.00000000000E+00  0.91851368087E+02  0.91851368087E+02  0.00000000000E+00 0.  1.
         21   -1    0    0  504  503 -0.00000000000E+00 -0.00000000000E+00 -0.10939353901E+03  0.10939353901E+03  0.00000000000E+00 0.  1.
         25    2    1    2    0    0  0.22647779056E+02  0.47547360590E+01 -0.69130293954E+02  0.14470409132E+03  0.12499898836E+03 0.  0.
          5    1    3    3  501    0  0.18669384938E+01  0.54798637863E+02  0.24991947518E+01  0.54887449799E+02  0.10000000000E+00 0. -1.
         -5    1    3    3    0  501  0.20780840562E+02 -0.50043901804E+02 -0.71629488706E+02  0.89816641523E+02  0.10000000000E+00 0. -1.
         21    1    1    2  504  502 -0.22647779056E+02 -0.47547360590E+01  0.51588123028E+02  0.56540815777E+02  0.00000000000E+00 0.  1.
<mgrwt>
<rscale>  1 0.12712308E+03</rscale>
<asrwt>0</asrwt>
<pdfrwt beam="1">  1       21 0.14130980E-01 0.12712308E+03</pdfrwt>
<pdfrwt beam="2">  1       21 0.16829775E-01 0.12712308E+03</pdfrwt>
<totfact> 0.13857312E+06</totfact>
</mgrwt>
</event>
<event>
 6    1  0.4261782E-002  0.1279864E+03  0.7546771E-02  0.1230475E+00
         21   -1    0    0  504  502  0.00000000000E+00  0.00000000000E+00  0.70236245764E+03  0.70236245764E+03  0.00000000000E+00 0. -1.
         21   -1    0    0  502  503 -0.00000000000E+00 -0.00000000000E+00 -0.10471606999E+02  0.10471606999E+02  0.00000000000E+00 0. -1.
         25    2    1    2    0    0  0.24767882086E+02 -0.11868863034E+02  0.40764726429E+03  0.42726667457E+03  0.12500480478E+03 0.  0.
          5    1    3    3  501    0 -0.35560538884E+02 -0.39097799842E+02  0.26211192895E+03  0.26738710361E+03  0.10000000000E+00 0. -1.
         -5    1    3    3    0  501  0.60328420970E+02  0.27228936807E+02  0.14553533534E+03  0.15987957096E+03  0.10000000000E+00 0. -1.
         21    1    1    2  504  503 -0.24767882086E+02  0.11868863034E+02  0.28424358634E+03  0.28556739007E+03  0.00000000000E+00 0. -1.
<mgrwt>
<rscale>  1 0.12798640E+03</rscale>
<asrwt>0</asrwt>
<pdfrwt beam="1">  1       21 0.10805573E+00 0.12798640E+03</pdfrwt>
<pdfrwt beam="2">  1       21 0.16110170E-02 0.12798640E+03</pdfrwt>
<totfact> 0.11975199E+06</totfact>
</mgrwt>
</event>
<event>
 6    1  0.4261782E-002  0.2253115E+03  0.7546771E-02  0.1129984E+00
         21   -1    0    0  503  502  0.00000000000E+00  0.00000000000E+00  0.20033794984E+02  0.20033794984E+02  0.00000000000E+00 0.  1.
         21   -1    0    0  504  503 -0.00000000000E+00 -0.00000000000E+00 -0.25123217611E+04  0.25123217611E+04  0.00000000000E+00 0.  1.
         25    2    1    2    0    0 -0.73726866645E+02  0.17235109603E+03 -0.18375094123E+04  0.18512714895E+04  0.12499894600E+03 0.  0.
          5    1    3    3  501    0 -0.73020139085E+02  0.11576902143E+03 -0.16431851709E+04  0.16488759575E+04  0.10000000000E+00 0. -1.
         -5    1    3    3    0  501 -0.70672756023E+00  0.56582074600E+02 -0.19432424132E+03  0.20239553205E+03  0.10000000000E+00 0. -1.
         21    1    1    2  504  502  0.73726866645E+02 -0.17235109603E+03 -0.65477855381E+03  0.68108406654E+03  0.00000000000E+00 0.  1.
<mgrwt>
<rscale>  1 0.22531153E+03</rscale>
<asrwt>0</asrwt>
<pdfrwt beam="1">  1       21 0.30821231E-02 0.22531153E+03</pdfrwt>
<pdfrwt beam="2">  1       21 0.38651094E+00 0.22531153E+03</pdfrwt>
<totfact> 0.61343876E+03</totfact>
</mgrwt>
</event>
<event>
 6    1  0.4261782E-002  0.1262633E+03  0.7546771E-02  0.1233108E+00
         21   -1    0    0  504  502  0.00000000000E+00  0.00000000000E+00  0.44212079542E+02  0.44212079542E+02  0.00000000000E+00 0. -1.
         21   -1    0    0  502  503 -0.00000000000E+00 -0.00000000000E+00 -0.14290086360E+03  0.14290086360E+03  0.00000000000E+00 0. -1.
         25    2    1    2    0    0 -0.16966165703E+02 -0.53764737269E+01 -0.10877440967E+03  0.16665623050E+03  0.12500267884E+03 0.  0.
          5    1    3    3  501    0  0.51929135188E+02  0.17861295835E+01 -0.24149193532E+02  0.57297634231E+02  0.10000000000E+00 0. -1.
         -5    1    3    3    0  501 -0.68895300891E+02 -0.71626033104E+01 -0.84625216136E+02  0.10935859627E+03  0.10000000000E+00 0. -1.
         21    1    1    2  504  503  0.16966165703E+02  0.53764737269E+01  0.10085625609E+02  0.20456712647E+02  0.00000000000E+00 0. -1.
<mgrwt>
<rscale>  1 0.12626332E+03</rscale>
<asrwt>0</asrwt>
<pdfrwt beam="1">  1       21 0.68018583E-02 0.12626332E+03</pdfrwt>
<pdfrwt beam="2">  1       21 0.21984748E-01 0.12626332E+03</pdfrwt>
<totfact> 0.30393808E+06</totfact>
</mgrwt>
</event>
<event>
 6    1  0.4261782E-002  0.1404361E+03  0.7546771E-02  0.1212743E+00
         21   -1    0    0  504  502  0.00000000000E+00  0.00000000000E+00  0.74997125975E+02  0.74997125975E+02  0.00000000000E+00 0.  1.
         21   -1    0    0  502  503 -0.00000000000E+00 -0.00000000000E+00 -0.18571183671E+03  0.18571183671E+03  0.00000000000E+00 0.  1.
         25    2    1    2    0    0 -0.63894526920E+02  0.35449499865E+01 -0.92377538342E+01  0.14073959150E+03  0.12500887680E+03 0.  0.
          5    1    3    3  501    0 -0.62019154778E+02  0.15540529592E+02  0.49437951692E+02  0.80820818400E+02  0.10000000000E+00 0. -1.
         -5    1    3    3    0  501 -0.18753721422E+01 -0.11995579605E+02 -0.58675705526E+02  0.59918773100E+02  0.10000000000E+00 0. -1.
         21    1    1    2  504  503  0.63894526920E+02 -0.35449499865E+01 -0.10147695690E+03  0.11996937119E+03  0.00000000000E+00 0.  1.
<mgrwt>
<rscale>  1 0.14043609E+03</rscale>
<asrwt>0</asrwt>
<pdfrwt beam="1">  1       21 0.11538019E-01 0.14043609E+03</pdfrwt>
<pdfrwt beam="2">  1       21 0.28571052E-01 0.14043609E+03</pdfrwt>
<totfact> 0.74048698E+05</totfact>
</mgrwt>
</event>
<event>
 6    1  0.4261782E-002  0.1339873E+03  0.7546771E-02  0.1221656E+00
         21   -1    0    0  504  502  0.00000000000E+00  0.00000000000E+00  0.92363819248E+02  0.92363819248E+02  0.00000000000E+00 0. -1.
         21   -1    0    0  502  503 -0.00000000000E+00 -0.00000000000E+00 -0.10360992582E+03  0.10360992582E+03  0.00000000000E+00 0. -1.
         25    2    1    2    0    0 -0.38988392203E+02  0.28412108273E+02 -0.39976830569E+02  0.13982397103E+03  0.12500101307E+03 0.  0.
          5    1    3    3  501    0 -0.37512205916E+02 -0.38458501629E+02  0.12082092127E+02  0.55065496369E+02  0.10000000000E+00 0.  1.
         -5    1    3    3    0  501 -0.14761862871E+01  0.66870609902E+02 -0.52058922696E+02  0.84758474662E+02  0.10000000000E+00 0.  1.
         21    1    1    2  504  503  0.38988392203E+02 -0.28412108273E+02  0.28730723997E+02  0.56149774038E+02  0.00000000000E+00 0. -1.
<mgrwt>
<rscale>  1 0.13398730E+03</rscale>
<asrwt>0</asrwt>
<pdfrwt beam="1">  1       21 0.14209818E-01 0.13398730E+03</pdfrwt>
<pdfrwt beam="2">  1       21 0.15939989E-01 0.13398730E+03</pdfrwt>
<totfact> 0.15157498E+06</totfact>
</mgrwt>
</event>
<event>
 6    1  0.4261782E-002  0.1265042E+03  0.7546771E-02  0.1232737E+00
         21   -1    0    0  504  502  0.00000000000E+00  0.00000000000E+00  0.10349731846E+03  0.10349731846E+03  0.00000000000E+00 0.  1.
         21   -1    0    0  502  503 -0.00000000000E+00 -0.00000000000E+00 -0.12670407983E+03  0.12670407983E+03  0.00000000000E+00 0.  1.
         25    2    1    2    0    0  0.55747650737E+01 -0.18634672083E+02 -0.93473983730E+02  0.15729178611E+03  0.12499996534E+03 0.  0.
          5    1    3    3  501    0 -0.15736840745E+02  0.24774217511E+02  0.18931163804E+02  0.34925763740E+02  0.10000000000E+00 0.  1.
         -5    1    3    3    0  501  0.21311605818E+02 -0.43408889594E+02 -0.11240514753E+03  0.12236602237E+03  0.10000000000E+00 0.  1.
         21    1    1    2  504  503 -0.55747650737E+01  0.18634672083E+02  0.70267222368E+02  0.72909612182E+02  0.00000000000E+00 0.  1.
<mgrwt>
<rscale>  1 0.12650423E+03</rscale>
<asrwt>0</asrwt>
<pdfrwt beam="1">  1       21 0.15922664E-01 0.12650423E+03</pdfrwt>
<pdfrwt beam="2">  1       21 0.19492935E-01 0.12650423E+03</pdfrwt>
<totfact> 0.85392384E+05</totfact>
</mgrwt>
</event>
<event>
 6    1  0.4261782E-002  0.1262553E+03  0.7546771E-02  0.1233120E+00
         21   -1    0    0  504  502  0.00000000000E+00  0.00000000000E+00  0.34547338557E+03  0.34547338557E+03  0.00000000000E+00 0. -1.
         21   -1    0    0  502  503 -0.00000000000E+00 -0.00000000000E+00 -0.23387944011E+02  0.23387944011E+02  0.00000000000E+00 0.  1.
         25    2    1    2    0    0 -0.16022494698E+02  0.77317087692E+01  0.15088991145E+03  0.19674390111E+03  0.12499559027E+03 0.  0.
          5    1    3    3  501    0 -0.52283872474E+02 -0.15216315277E+02  0.18400388544E+02  0.57478029455E+02  0.10000000000E+00 0. -1.
         -5    1    3    3    0  501  0.36261377776E+02  0.22948024046E+02  0.13248952291E+03  0.13926587165E+03  0.10000000000E+00 0. -1.
         21    1    1    2  504  503  0.16022494698E+02 -0.77317087692E+01  0.17119553011E+03  0.17211742848E+03  0.00000000000E+00 0. -1.
<mgrwt>
<rscale>  1 0.12625529E+03</rscale>
<asrwt>0</asrwt>
<pdfrwt beam="1">  1       21 0.53149748E-01 0.12625529E+03</pdfrwt>
<pdfrwt beam="2">  1       21 0.35981455E-02 0.12625529E+03</pdfrwt>
<totfact> 0.15647712E+06</totfact>
</mgrwt>
</event>
<event>
 6    1  0.4261782E-002  0.1319540E+03  0.7546771E-02  0.1224585E+00
         21   -1    0    0  504  502  0.00000000000E+00  0.00000000000E+00  0.71689503991E+02  0.71689503991E+02  0.00000000000E+00 0.  1.
         21   -1    0    0  502  503 -0.00000000000E+00 -0.00000000000E+00 -0.22374934635E+03  0.22374934635E+03  0.00000000000E+00 0.  1.
         25    2    1    2    0    0  0.39522110574E+02 -0.14931954361E+02 -0.19483695608E+03  0.23531529468E+03  0.12500755165E+03 0.  0.
          5    1    3    3  501    0  0.65692527274E+02 -0.11040745367E+02 -0.38880629940E+02  0.77130535992E+02  0.10000000000E+00 0.  1.
         -5    1    3    3    0  501 -0.26170416699E+02 -0.38912089933E+01 -0.15595632614E+03  0.15818475869E+03  0.10000000000E+00 0.  1.
         21    1    1    2  504  503 -0.39522110574E+02  0.14931954361E+02  0.42777113730E+02  0.60123555653E+02  0.00000000000E+00 0.  1.
<mgrwt>
<rscale>  1 0.13195396E+03</rscale>
<asrwt>0</asrwt>
<pdfrwt beam="1">  1       21 0.11029155E-01 0.13195396E+03</pdfrwt>
<pdfrwt beam="2">  1       21 0.34422976E-01 0.13195396E+03</pdfrwt>
<totfact> 0.55865366E+05</totfact>
</mgrwt>
</event>
<event>
 6    1  0.4261782E-002  0.1325462E+03  0.7546771E-02  0.1223726E+00
         21   -1    0    0  504  502  0.00000000000E+00  0.00000000000E+00  0.15969128398E+02  0.15969128398E+02  0.00000000000E+00 0.  1.
         21   -1    0    0  502  503 -0.00000000000E+00 -0.00000000000E+00 -0.54668036313E+03  0.54668036313E+03  0.00000000000E+00 0.  1.
         25    2    1    2    0    0  0.43447770122E+02  0.74517648243E+01 -0.46499819670E+03  0.48352022454E+03  0.12500098828E+03 0.  0.
          5    1    3    3  501    0  0.52063730566E+02  0.52507523218E+02 -0.37804715766E+03  0.38521076756E+03  0.10000000000E+00 0.  1.
         -5    1    3    3    0  501 -0.86159604448E+01 -0.45055758394E+02 -0.86951039049E+02  0.98309456974E+02  0.10000000000E+00 0.  1.
         21    1    1    2  504  503 -0.43447770122E+02 -0.74517648243E+01 -0.65713038024E+02  0.79129266987E+02  0.00000000000E+00 0.  1.
<mgrwt>
<rscale>  1 0.13254616E+03</rscale>
<asrwt>0</asrwt>
<pdfrwt beam="1">  1       21 0.24567886E-02 0.13254616E+03</pdfrwt>
<pdfrwt beam="2">  1       21 0.84104685E-01 0.13254616E+03</pdfrwt>
<totfact> 0.10834989E+06</totfact>
</mgrwt>
</event>
<event>
 6    1  0.4261782E-002  0.1265476E+03  0.7546771E-02  0.1232670E+00
         21   -1    0    0  504  502  0.00000000000E+00  0.00000000000E+00  0.22690277013E+03  0.22690277013E+03  0.00000000000E+00 0.  1.
         21   -1    0    0  502  503 -0.00000000000E+00 -0.00000000000E+00 -0.34578143323E+03  0.34578143323E+03  0.00000000000E+00 0. -1.
         25    2    1    2    0    0  0.56897173291E+01  0.18896937100E+02 -0.33373572381E+03  0.35692270621E+03  0.12499927098E+03 0.  0.
          5    1    3    3  501    0 -0.37178181186E+02  0.37772645468E+02 -0.63749688355E+02  0.82903695137E+02  0.10000000000E+00 0.  1.
         -5    1    3    3    0  501  0.42867898515E+02 -0.18875708367E+02 -0.26998603545E+03  0.27401901107E+03  0.10000000000E+00 0.  1.
         21    1    1    2  504  503 -0.56897173291E+01 -0.18896937100E+02  0.21485706071E+03  0.21576149714E+03  0.00000000000E+00 0.  1.
<mgrwt>
<rscale>  1 0.12654756E+03</rscale>
<asrwt>0</asrwt>
<pdfrwt beam="1">  1       21 0.34908119E-01 0.12654756E+03</pdfrwt>
<pdfrwt beam="2">  1       21 0.53197143E-01 0.12654756E+03</pdfrwt>
<totfact> 0.27547536E+04</totfact>
</mgrwt>
</event>
<event>
 6    1  0.4261782E-002  0.1770391E+03  0.7546771E-02  0.1170700E+00
         21   -1    0    0  504  502  0.00000000000E+00  0.00000000000E+00  0.24181149596E+02  0.24181149596E+02  0.00000000000E+00 0. -1.
         21   -1    0    0  502  503 -0.00000000000E+00 -0.00000000000E+00 -0.15502454382E+04  0.15502454382E+04  0.00000000000E+00 0. -1.
         25    2    1    2    0    0 -0.30835692130E+02 -0.12151340841E+03 -0.13298489538E+04  0.13415815622E+04  0.12500599903E+03 0.  0.
          5    1    3    3  501    0  0.78170491577E+01 -0.38114047811E+02 -0.94897793073E+03  0.94977518914E+03  0.10000000000E+00 0. -1.
         -5    1    3    3    0  501 -0.38652741288E+02 -0.83399360601E+02 -0.38087102303E+03  0.39180637303E+03  0.10000000000E+00 0. -1.
         21    1    1    2  504  503  0.30835692130E+02  0.12151340841E+03 -0.19621533485E+03  0.23284502564E+03  0.00000000000E+00 0. -1.
<mgrwt>
<rscale>  1 0.17703911E+03</rscale>
<asrwt>0</asrwt>
<pdfrwt beam="1">  1       21 0.37201764E-02 0.17703911E+03</pdfrwt>
<pdfrwt beam="2">  1       21 0.23849933E+00 0.17703911E+03</pdfrwt>
<totfact> 0.34841447E+04</totfact>
</mgrwt>
</event>
<event>
 6    1  0.4261782E-002  0.1278636E+03  0.7546771E-02  0.1230661E+00
         21   -1    0    0  503  502  0.00000000000E+00  0.00000000000E+00  0.73919855455E+02  0.73919855455E+02  0.00000000000E+00 0.  1.
         21   -1    0    0  504  503 -0.00000000000E+00 -0.00000000000E+00 -0.20214273538E+03  0.20214273538E+03  0.00000000000E+00 0. -1.
         25    2    1    2    0    0 -0.62028179458E+01  0.26164915018E+02 -0.17819030217E+03  0.21931912413E+03  0.12500406671E+03 0.  0.
          5    1    3    3  501    0 -0.50347010067E+01 -0.50064880037E+02 -0.55901890168E+02  0.75212178214E+02  0.10000000000E+00 0. -1.
         -5    1    3    3    0  501 -0.11681169391E+01  0.76229795055E+02 -0.12228841200E+03  0.14410694592E+03  0.10000000000E+00 0. -1.
         21    1    1    2  504  502  0.62028179458E+01 -0.26164915018E+02  0.49967422243E+02  0.56743466708E+02  0.00000000000E+00 0.  1.
<mgrwt>
<rscale>  1 0.12786358E+03</rscale>
<asrwt>0</asrwt>
<pdfrwt beam="1">  1       21 0.11372285E-01 0.12786358E+03</pdfrwt>
<pdfrwt beam="2">  1       21 0.31098883E-01 0.12786358E+03</pdfrwt>
<totfact> 0.64519102E+05</totfact>
</mgrwt>
</event>
<event>
 6    1  0.4261782E-002  0.1271866E+03  0.7546771E-02  0.1231691E+00
         21   -1    0    0  503  502  0.00000000000E+00  0.00000000000E+00  0.74920654554E+02  0.74920654554E+02  0.00000000000E+00 0.  1.
         21   -1    0    0  504  503 -0.00000000000E+00 -0.00000000000E+00 -0.11817426458E+03  0.11817426458E+03  0.00000000000E+00 0.  1.
         25    2    1    2    0    0 -0.19861429521E+02 -0.12564916147E+02 -0.79432025490E+02  0.14995292978E+03  0.12499632385E+03 0.  0.
          5    1    3    3  501    0 -0.36737763547E+02  0.34830010763E+02  0.58255452942E+01  0.50958217180E+02  0.10000000000E+00 0. -1.
         -5    1    3    3    0  501  0.16876334027E+02 -0.47394926910E+02 -0.85257570784E+02  0.98994712601E+02  0.10000000000E+00 0. -1.
         21    1    1    2  504  502  0.19861429521E+02  0.12564916147E+02  0.36178415461E+02  0.43141989357E+02  0.00000000000E+00 0.  1.
<mgrwt>
<rscale>  1 0.12718661E+03</rscale>
<asrwt>0</asrwt>
<pdfrwt beam="1">  1       21 0.11526255E-01 0.12718661E+03</pdfrwt>
<pdfrwt beam="2">  1       21 0.18180656E-01 0.12718661E+03</pdfrwt>
<totfact> 0.17295276E+06</totfact>
</mgrwt>
</event>
<event>
 6    1  0.4261782E-002  0.1278152E+03  0.7546771E-02  0.1230734E+00
         21   -1    0    0  504  502  0.00000000000E+00  0.00000000000E+00  0.37531558640E+03  0.37531558640E+03  0.00000000000E+00 0. -1.
         21   -1    0    0  502  503 -0.00000000000E+00 -0.00000000000E+00 -0.21036752165E+02  0.21036752165E+02  0.00000000000E+00 0. -1.
         25    2    1    2    0    0  0.25400307349E+02 -0.81329322683E+01  0.18423959034E+03  0.22423416793E+03  0.12500166085E+03 0.  0.
          5    1    3    3  501    0  0.74472121449E+02  0.70418642931E+01  0.91163619608E+02  0.11792582527E+03  0.10000000000E+00 0. -1.
         -5    1    3    3    0  501 -0.49071814100E+02 -0.15174796561E+02  0.93075970735E+02  0.10630834265E+03  0.10000000000E+00 0. -1.
         21    1    1    2  504  503 -0.25400307349E+02  0.81329322683E+01  0.17003924389E+03  0.17211817064E+03  0.00000000000E+00 0. -1.
<mgrwt>
<rscale>  1 0.12781524E+03</rscale>
<asrwt>0</asrwt>
<pdfrwt beam="1">  1       21 0.57740854E-01 0.12781524E+03</pdfrwt>
<pdfrwt beam="2">  1       21 0.32364237E-02 0.12781524E+03</pdfrwt>
<totfact> 0.15668668E+06</totfact>
</mgrwt>
</event>
<event>
 6    1  0.4261782E-002  0.1431912E+03  0.7546771E-02  0.1209098E+00
         21   -1    0    0  504  502  0.00000000000E+00  0.00000000000E+00  0.25125052036E+02  0.25125052036E+02  0.00000000000E+00 0. -1.
         21   -1    0    0  502  503 -0.00000000000E+00 -0.00000000000E+00 -0.79003822525E+03  0.79003822525E+03  0.00000000000E+00 0. -1.
         25    2    1    2    0    0  0.17992993147E+02  0.67542849615E+02 -0.71518960592E+03  0.72938322435E+03  0.12497172168E+03 0.  0.
          5    1    3    3  501    0  0.29997059429E+02 -0.30726108719E+02 -0.26307902911E+03  0.26656050512E+03  0.10000000000E+00 0.  1.
         -5    1    3    3    0  501 -0.12004066282E+02  0.98268958334E+02 -0.45211057681E+03  0.46282271923E+03  0.10000000000E+00 0.  1.
         21    1    1    2  504  503 -0.17992993147E+02 -0.67542849615E+02 -0.49723567298E+02  0.85780052934E+02  0.00000000000E+00 0. -1.
<mgrwt>
<rscale>  1 0.14319119E+03</rscale>
<asrwt>0</asrwt>
<pdfrwt beam="1">  1       21 0.38653925E-02 0.14319119E+03</pdfrwt>
<pdfrwt beam="2">  1       21 0.12154435E+00 0.14319119E+03</pdfrwt>
<totfact> 0.21589578E+05</totfact>
</mgrwt>
</event>
<event>
 6    1  0.4261782E-002  0.1306973E+03  0.7546771E-02  0.1226425E+00
         21   -1    0    0  504  502  0.00000000000E+00  0.00000000000E+00  0.25774639274E+04  0.25774639274E+04  0.00000000000E+00 0. -1.
         21   -1    0    0  502  503 -0.00000000000E+00 -0.00000000000E+00 -0.33962975781E+01  0.33962975781E+01  0.00000000000E+00 0. -1.
         25    2    1    2    0    0 -0.38259239446E+02  0.57215854306E+00  0.13788727219E+04  0.13850529810E+04  0.12497071768E+03 0.  0.
          5    1    3    3  501    0  0.24721880294E+02 -0.25642150417E+02  0.14554752707E+03  0.14984253028E+03  0.10000000000E+00 0. -1.
         -5    1    3    3    0  501 -0.62981119739E+02  0.26214308960E+02  0.12333251948E+04  0.12352104507E+04  0.10000000000E+00 0. -1.
         21    1    1    2  504  503  0.38259239446E+02 -0.57215854306E+00  0.11951949080E+04  0.11958072440E+04  0.00000000000E+00 0. -1.
<mgrwt>
<rscale>  1 0.13069727E+03</rscale>
<asrwt>0</asrwt>
<pdfrwt beam="1">  1       21 0.39653135E+00 0.13069727E+03</pdfrwt>
<pdfrwt beam="2">  1       21 0.52250938E-03 0.13069727E+03</pdfrwt>
<totfact> 0.10278028E+05</totfact>
</mgrwt>
</event>
<event>
 6    1  0.4261782E-002  0.1260428E+03  0.7546771E-02  0.1233448E+00
         21   -1    0    0  503  502  0.00000000000E+00  0.00000000000E+00  0.39258321329E+02  0.39258321329E+02  0.00000000000E+00 0. -1.
         21   -1    0    0  504  503 -0.00000000000E+00 -0.00000000000E+00 -0.13132899553E+03  0.13132899553E+03  0.00000000000E+00 0. -1.
         25    2    1    2    0    0 -0.16054562471E+02 -0.12117634764E+01 -0.88735337873E+02  0.15414524231E+03  0.12501031235E+03 0.  0.
          5    1    3    3  501    0  0.49539174358E+02 -0.68379898118E+00 -0.81050005992E+01  0.50202573757E+02  0.10000000000E+00 0. -1.
         -5    1    3    3    0  501 -0.65593736829E+02 -0.52796449527E+00 -0.80630337273E+02  0.10394266856E+03  0.10000000000E+00 0. -1.
         21    1    1    2  504  502  0.16054562471E+02  0.12117634764E+01 -0.33353363257E+01  0.16442074543E+02  0.00000000000E+00 0. -1.
<mgrwt>
<rscale>  1 0.12604283E+03</rscale>
<asrwt>0</asrwt>
<pdfrwt beam="1">  1       21 0.60397417E-02 0.12604283E+03</pdfrwt>
<pdfrwt beam="2">  1       21 0.20204461E-01 0.12604283E+03</pdfrwt>
<totfact> 0.43516630E+06</totfact>
</mgrwt>
</event>
<event>
 6    1  0.4261782E-002  0.1456273E+03  0.7546771E-02  0.1205951E+00
         21   -1    0    0  503  502  0.00000000000E+00  0.00000000000E+00  0.85008722935E+02  0.85008722935E+02  0.00000000000E+00 0. -1.
         21   -1    0    0  504  503 -0.00000000000E+00 -0.00000000000E+00 -0.46692928660E+03  0.46692928660E+03  0.00000000000E+00 0. -1.
         25    2    1    2    0    0 -0.55846205088E+02 -0.49632459599E+02 -0.43601854900E+03  0.45969500609E+03  0.12500057554E+03 0.  0.
          5    1    3    3  501    0 -0.53498020101E+02 -0.79182408231E+02 -0.40752090932E+03  0.41857519451E+03  0.10000000000E+00 0. -1.
         -5    1    3    3    0  501 -0.23481849865E+01  0.29549948632E+02 -0.28497639674E+02  0.41119811574E+02  0.10000000000E+00 0. -1.
         21    1    1    2  504  502  0.55846205088E+02  0.49632459599E+02  0.54097985330E+02  0.92243003449E+02  0.00000000000E+00 0. -1.
<mgrwt>
<rscale>  1 0.14562734E+03</rscale>
<asrwt>0</asrwt>
<pdfrwt beam="1">  1       21 0.13078265E-01 0.14562734E+03</pdfrwt>
<pdfrwt beam="2">  1       21 0.71835276E-01 0.14562734E+03</pdfrwt>
<totfact> 0.89718034E+04</totfact>
</mgrwt>
</event>
<event>
 6    1  0.4261782E-002  0.1339697E+03  0.7546771E-02  0.1221681E+00
         21   -1    0    0  503  502  0.00000000000E+00  0.00000000000E+00  0.64302747660E+03  0.64302747660E+03  0.00000000000E+00 0. -1.
         21   -1    0    0  504  503 -0.00000000000E+00 -0.00000000000E+00 -0.14034659743E+02  0.14034659743E+02  0.00000000000E+00 0. -1.
         25    2    1    2    0    0 -0.93258147435E+00  0.48204893138E+02  0.36740427143E+03  0.39106749631E+03  0.12499322609E+03 0.  0.
          5    1    3    3  501    0 -0.66882534892E+01  0.48828565761E+02  0.37681161780E+03  0.38002100847E+03  0.10000000000E+00 0. -1.
         -5    1    3    3    0  501  0.57556720148E+01 -0.62367262275E+00 -0.94073463667E+01  0.11046487838E+02  0.10000000000E+00 0. -1.
         21    1    1    2  504  502  0.93258147435E+00 -0.48204893138E+02  0.26158854543E+03  0.26599464004E+03  0.00000000000E+00 0. -1.
<mgrwt>
<rscale>  1 0.13396973E+03</rscale>
<asrwt>0</asrwt>
<pdfrwt beam="1">  1       21 0.98927281E-01 0.13396973E+03</pdfrwt>
<pdfrwt beam="2">  1       21 0.21591789E-02 0.13396973E+03</pdfrwt>
<totfact> 0.92051830E+05</totfact>
</mgrwt>
</event>
<event>
 6    1  0.4261782E-002  0.1282347E+03  0.7546771E-02  0.1230099E+00
         21   -1    0    0  504  502  0.00000000000E+00  0.00000000000E+00  0.26711492002E+02  0.26711492002E+02  0.00000000000E+00 0.  1.
         21   -1    0    0  502  503 -0.00000000000E+00 -0.00000000000E+00 -0.48266049601E+03  0.48266049601E+03  0.00000000000E+00 0.  1.
         25    2    1    2    0    0 -0.28234465584E+02 -0.48813493952E+01 -0.46252612826E+03  0.47997349856E+03  0.12499250927E+03 0.  0.
          5    1    3    3  501    0 -0.19881597935E+02 -0.11266888300E+00 -0.46832177021E+03  0.46874361978E+03  0.10000000000E+00 0.  1.
         -5    1    3    3    0  501 -0.83528676483E+01 -0.47686805122E+01  0.57956419482E+01  0.11229878778E+02  0.10000000000E+00 0.  1.
         21    1    1    2  504  503  0.28234465584E+02  0.48813493952E+01  0.65771242551E+01  0.29398489454E+02  0.00000000000E+00 0.  1.
<mgrwt>
<rscale>  1 0.12823471E+03</rscale>
<asrwt>0</asrwt>
<pdfrwt beam="1">  1       21 0.41094604E-02 0.12823471E+03</pdfrwt>
<pdfrwt beam="2">  1       21 0.74255459E-01 0.12823471E+03</pdfrwt>
<totfact> 0.61381842E+05</totfact>
</mgrwt>
</event>
<event>
 6    1  0.4261782E-002  0.1573258E+03  0.7546771E-02  0.1191749E+00
         21   -1    0    0  504  502  0.00000000000E+00  0.00000000000E+00  0.13073628461E+04  0.13073628461E+04  0.00000000000E+00 0. -1.
         21   -1    0    0  502  503 -0.00000000000E+00 -0.00000000000E+00 -0.91146348064E+02  0.91146348064E+02  0.00000000000E+00 0. -1.
         25    2    1    2    0    0 -0.76904511688E+02  0.56690563248E+02 -0.20012726926E+02  0.15859354359E+03  0.12499311561E+03 0.  0.
          5    1    3    3  501    0  0.70433343141E+00  0.61560914446E+02 -0.45728734551E+02  0.76690086952E+02  0.10000000000E+00 0. -1.
         -5    1    3    3    0  501 -0.77608845120E+02 -0.48703511981E+01  0.25716007625E+02  0.81903456641E+02  0.10000000000E+00 0. -1.
         21    1    1    2  504  503  0.76904511688E+02 -0.56690563248E+02  0.12362292249E+04  0.12399156505E+04  0.00000000000E+00 0. -1.
<mgrwt>
<rscale>  1 0.15732579E+03</rscale>
<asrwt>0</asrwt>
<pdfrwt beam="1">  1       21 0.20113273E+00 0.15732579E+03</pdfrwt>
<pdfrwt beam="2">  1       21 0.14022516E-01 0.15732579E+03</pdfrwt>
<totfact> 0.60596537E+03</totfact>
</mgrwt>
</event>
<event>
 6    1  0.4261782E-002  0.1262749E+03  0.7546771E-02  0.1233090E+00
         21   -1    0    0  503  502  0.00000000000E+00  0.00000000000E+00  0.26354082660E+03  0.26354082660E+03  0.00000000000E+00 0.  1.
         21   -1    0    0  504  503 -0.00000000000E+00 -0.00000000000E+00 -0.20123511628E+02  0.20123511628E+02  0.00000000000E+00 0.  1.
         25    2    1    2    0    0 -0.17636755818E+02  0.29367470237E+01  0.22489190611E+03  0.25791806836E+03  0.12500272362E+03 0.  0.
          5    1    3    3  501    0  0.45313283577E+02  0.54119163479E+00  0.33301758846E+02  0.56237031386E+02  0.10000000000E+00 0.  1.
         -5    1    3    3    0  501 -0.62950039394E+02  0.23955553889E+01  0.19159014726E+03  0.20168103697E+03  0.10000000000E+00 0.  1.
         21    1    1    2  504  502  0.17636755818E+02 -0.29367470237E+01  0.18525408869E+02  0.25746269878E+02  0.00000000000E+00 0.  1.
<mgrwt>
<rscale>  1 0.12627494E+03</rscale>
<asrwt>0</asrwt>
<pdfrwt beam="1">  1       21 0.40544740E-01 0.12627494E+03</pdfrwt>
<pdfrwt beam="2">  1       21 0.30959251E-02 0.12627494E+03</pdfrwt>
<totfact> 0.34820730E+06</totfact>
</mgrwt>
</event>
<event>
 6    1  0.4261782E-002  0.1301098E+03  0.7546771E-02  0.1227293E+00
         21   -1    0    0  503  502  0.00000000000E+00  0.00000000000E+00  0.23673010089E+02  0.23673010089E+02  0.00000000000E+00 0.  1.
         21   -1    0    0  504  503 -0.00000000000E+00 -0.00000000000E+00 -0.37896385911E+03  0.37896385911E+03  0.00000000000E+00 0.  1.
         25    2    1    2    0    0  0.10555814657E+02  0.34564772141E+02 -0.33877562311E+03  0.36290147712E+03  0.12498964193E+03 0.  0.
          5    1    3    3  501    0  0.10068786873E+02 -0.43907570058E+02 -0.18316951834E+03  0.18862751026E+03  0.10000000000E+00 0.  1.
         -5    1    3    3    0  501  0.48702778446E+00  0.78472342199E+02 -0.15560610477E+03  0.17427396687E+03  0.10000000000E+00 0.  1.
         21    1    1    2  504  502 -0.10555814657E+02 -0.34564772141E+02 -0.16515225912E+02  0.39735392073E+02  0.00000000000E+00 0.  1.
<mgrwt>
<rscale>  1 0.13010980E+03</rscale>
<asrwt>0</asrwt>
<pdfrwt beam="1">  1       21 0.36420019E-02 0.13010980E+03</pdfrwt>
<pdfrwt beam="2">  1       21 0.58302127E-01 0.13010980E+03</pdfrwt>
<totfact> 0.12637987E+06</totfact>
</mgrwt>
</event>
<event>
 6    1  0.4261782E-002  0.1327124E+03  0.7546771E-02  0.1223486E+00
         21   -1    0    0  503  502  0.00000000000E+00  0.00000000000E+00  0.10055188153E+03  0.10055188153E+03  0.00000000000E+00 0. -1.
         21   -1    0    0  504  503 -0.00000000000E+00 -0.00000000000E+00 -0.11512143308E+03  0.11512143308E+03  0.00000000000E+00 0. -1.
         25    2    1    2    0    0  0.35851190713E+02  0.26491538328E+02 -0.65495020591E+02  0.14799382824E+03  0.12500186397E+03 0.  0.
          5    1    3    3  501    0 -0.40305678850E+02 -0.75632947085E+01 -0.47311218692E+02  0.62610802491E+02  0.10000000000E+00 0.  1.
         -5    1    3    3    0  501  0.76156869564E+02  0.34054833036E+02 -0.18183801899E+02  0.85383025751E+02  0.10000000000E+00 0.  1.
         21    1    1    2  504  502 -0.35851190713E+02 -0.26491538328E+02  0.50925469043E+02  0.67679486374E+02  0.00000000000E+00 0. -1.
<mgrwt>
<rscale>  1 0.13271238E+03</rscale>
<asrwt>0</asrwt>
<pdfrwt beam="1">  1       21 0.15469520E-01 0.13271238E+03</pdfrwt>
<pdfrwt beam="2">  1       21 0.17710990E-01 0.13271238E+03</pdfrwt>
<totfact> 0.10733755E+06</totfact>
</mgrwt>
</event>
<event>
 6    1  0.4261782E-002  0.1460027E+03  0.7546771E-02  0.1205473E+00
         21   -1    0    0  504  502  0.00000000000E+00  0.00000000000E+00  0.41197837995E+03  0.41197837995E+03  0.00000000000E+00 0.  1.
         21   -1    0    0  502  503 -0.00000000000E+00 -0.00000000000E+00 -0.43299466865E+02  0.43299466865E+02  0.00000000000E+00 0. -1.
         25    2    1    2    0    0 -0.67299270738E+02 -0.33969136544E+02  0.10188428954E+03  0.17803703951E+03  0.12503473479E+03 0.  0.
          5    1    3    3  501    0 -0.74572576172E+01  0.38992971836E+02  0.73707686234E+00  0.39706621942E+02  0.10000000000E+00 0.  1.
         -5    1    3    3    0  501 -0.59842013121E+02 -0.72962108380E+02  0.10114721268E+03  0.13833041757E+03  0.10000000000E+00 0.  1.
         21    1    1    2  504  503  0.67299270738E+02  0.33969136544E+02  0.26679462355E+03  0.27724080730E+03  0.00000000000E+00 0.  1.
<mgrwt>
<rscale>  1 0.14600267E+03</rscale>
<asrwt>0</asrwt>
<pdfrwt beam="1">  1       21 0.63381287E-01 0.14600267E+03</pdfrwt>
<pdfrwt beam="2">  1       21 0.66614567E-02 0.14600267E+03</pdfrwt>
<totfact> 0.38287508E+05</totfact>
</mgrwt>
</event>
<event>
 6    1  0.4261782E-002  0.1274091E+03  0.7546771E-02  0.1231352E+00
         21   -1    0    0  503  502  0.00000000000E+00  0.00000000000E+00  0.75547378517E+03  0.75547378517E+03  0.00000000000E+00 0. -1.
         21   -1    0    0  504  503 -0.00000000000E+00 -0.00000000000E+00 -0.76758524058E+01  0.76758524058E+01  0.00000000000E+00 0. -1.
         25    2    1    2    0    0 -0.16778852886E+02  0.18065207471E+02  0.61007096002E+03  0.62323323165E+03  0.12500081260E+03 0.  0.
          5    1    3    3  501    0  0.27335076792E+02 -0.42837941294E+02  0.20221377999E+03  0.20850112339E+03  0.10000000000E+00 0.  1.
         -5    1    3    3    0  501 -0.44113929678E+02  0.60903148765E+02  0.40785718003E+03  0.41473210826E+03  0.10000000000E+00 0.  1.
         21    1    1    2  504  502  0.16778852886E+02 -0.18065207471E+02  0.13772697274E+03  0.13991640592E+03  0.00000000000E+00 0. -1.
<mgrwt>
<rscale>  1 0.12740912E+03</rscale>
<asrwt>0</asrwt>
<pdfrwt beam="1">  1       21 0.11622668E+00 0.12740912E+03</pdfrwt>
<pdfrwt beam="2">  1       21 0.11809010E-02 0.12740912E+03</pdfrwt>
<totfact> 0.16489449E+06</totfact>
</mgrwt>
</event>
<event>
 6    1  0.4261782E-002  0.1266330E+03  0.7546771E-02  0.1232539E+00
         21   -1    0    0  504  502  0.00000000000E+00  0.00000000000E+00  0.71913430155E+02  0.71913430155E+02  0.00000000000E+00 0. -1.
         21   -1    0    0  502  503 -0.00000000000E+00 -0.00000000000E+00 -0.12639476094E+04  0.12639476094E+04  0.00000000000E+00 0.  1.
         25    2    1    2    0    0 -0.20028757580E+02 -0.22215518538E+01 -0.12592951711E+04  0.12656461733E+04  0.12501928524E+03 0.  0.
          5    1    3    3  501    0  0.16369586554E+02  0.29588753170E+02 -0.10440089755E+03  0.10974067199E+03  0.10000000000E+00 0. -1.
         -5    1    3    3    0  501 -0.36398344134E+02 -0.31810305023E+02 -0.11548942736E+04  0.11559055013E+04  0.10000000000E+00 0. -1.
         21    1    1    2  504  503  0.20028757580E+02  0.22215518538E+01  0.67260991822E+02  0.70214866259E+02  0.00000000000E+00 0. -1.
<mgrwt>
<rscale>  1 0.12663297E+03</rscale>
<asrwt>0</asrwt>
<pdfrwt beam="1">  1       21 0.11063605E-01 0.12663297E+03</pdfrwt>
<pdfrwt beam="2">  1       21 0.19445347E+00 0.12663297E+03</pdfrwt>
<totfact> 0.10530890E+04</totfact>
</mgrwt>
</event>
<event>
 6    1  0.4261782E-002  0.1581080E+03  0.7546771E-02  0.1190850E+00
         21   -1    0    0  504  502  0.00000000000E+00  0.00000000000E+00  0.54581610785E+02  0.54581610785E+02  0.00000000000E+00 0. -1.
         21   -1    0    0  502  503 -0.00000000000E+00 -0.00000000000E+00 -0.30311971646E+03  0.30311971646E+03  0.00000000000E+00 0. -1.
         25    2    1    2    0    0 -0.34815097516E+02 -0.90338775093E+02 -0.17693290808E+03  0.23728334842E+03  0.12499979272E+03 0.  0.
          5    1    3    3  501    0  0.37553095896E+02 -0.55547113735E+02 -0.38689406690E+02  0.77411866310E+02  0.10000000000E+00 0. -1.
         -5    1    3    3    0  501 -0.72368193411E+02 -0.34791661358E+02 -0.13824350139E+03  0.15987148211E+03  0.10000000000E+00 0. -1.
         21    1    1    2  504  503  0.34815097516E+02  0.90338775093E+02 -0.71605197599E+02  0.12041797882E+03  0.00000000000E+00 0. -1.
<mgrwt>
<rscale>  1 0.15810798E+03</rscale>
<asrwt>0</asrwt>
<pdfrwt beam="1">  1       21 0.83971708E-02 0.15810798E+03</pdfrwt>
<pdfrwt beam="2">  1       21 0.46633803E-01 0.15810798E+03</pdfrwt>
<totfact> 0.48851966E+05</totfact>
</mgrwt>
</event>
<event>
 6    1  0.4261782E-002  0.1277425E+03  0.7546771E-02  0.1230844E+00
         21   -1    0    0  503  502  0.00000000000E+00  0.00000000000E+00  0.51305756443E+01  0.51305756443E+01  0.00000000000E+00 0. -1.
         21   -1    0    0  504  503 -0.00000000000E+00 -0.00000000000E+00 -0.14921641643E+04  0.14921641643E+04  0.00000000000E+00 0. -1.
         25    2    1    2    0    0  0.80979417478E+01  0.25040276722E+02 -0.14122507351E+04  0.14180163235E+04  0.12500225184E+03 0.  0.
          5    1    3    3  501    0  0.44573503417E+02 -0.33835213073E+02 -0.49462362430E+03  0.49777922673E+03  0.10000000000E+00 0. -1.
         -5    1    3    3    0  501 -0.36475561669E+02  0.58875489796E+02 -0.91762711077E+03  0.92023709679E+03  0.10000000000E+00 0. -1.
         21    1    1    2  504  502 -0.80979417478E+01 -0.25040276722E+02 -0.74782853555E+02  0.79278416386E+02  0.00000000000E+00 0. -1.
<mgrwt>
<rscale>  1 0.12774253E+03</rscale>
<asrwt>0</asrwt>
<pdfrwt beam="1">  1       21 0.78931957E-03 0.12774253E+03</pdfrwt>
<pdfrwt beam="2">  1       21 0.22956365E+00 0.12774253E+03</pdfrwt>
<totfact> 0.49554609E+05</totfact>
</mgrwt>
</event>
<event>
 6    1  0.4261782E-002  0.1309803E+03  0.7546771E-02  0.1226008E+00
         21   -1    0    0  503  502  0.00000000000E+00  0.00000000000E+00  0.23948262313E+03  0.23948262313E+03  0.00000000000E+00 0.  1.
         21   -1    0    0  504  503 -0.00000000000E+00 -0.00000000000E+00 -0.12305310875E+03  0.12305310875E+03  0.00000000000E+00 0.  1.
         25    2    1    2    0    0  0.33325367236E+01 -0.39020676420E+02 -0.85779424406E+02  0.15656929307E+03  0.12498845903E+03 0.  0.
          5    1    3    3  501    0 -0.41233399042E+02 -0.28014785961E+02 -0.97224182778E+02  0.10925920165E+03  0.10000000000E+00 0.  1.
         -5    1    3    3    0  501  0.44565935766E+02 -0.11005890459E+02  0.11444758373E+02  0.47310091415E+02  0.10000000000E+00 0.  1.
         21    1    1    2  504  502 -0.33325367236E+01  0.39020676420E+02  0.20220893879E+03  0.20596643881E+03  0.00000000000E+00 0.  1.
<mgrwt>
<rscale>  1 0.13098028E+03</rscale>
<asrwt>0</asrwt>
<pdfrwt beam="1">  1       21 0.36843480E-01 0.13098028E+03</pdfrwt>
<pdfrwt beam="2">  1       21 0.18931248E-01 0.13098028E+03</pdfrwt>
<totfact> 0.18491592E+05</totfact>
</mgrwt>
</event>
<event>
 6    1  0.4261782E-002  0.1268245E+03  0.7546771E-02  0.1232245E+00
         21   -1    0    0  504  502  0.00000000000E+00  0.00000000000E+00  0.10651474186E+03  0.10651474186E+03  0.00000000000E+00 0.  1.
         21   -1    0    0  502  503 -0.00000000000E+00 -0.00000000000E+00 -0.68123660666E+02  0.68123660666E+02  0.00000000000E+00 0.  1.
         25    2    1    2    0    0  0.13815252719E+02  0.16400638172E+02 -0.42642611421E+01  0.12689617415E+03  0.12499845180E+03 0.  0.
          5    1    3    3  501    0 -0.15814655981E+02  0.41394339195E+02  0.45701349452E+02  0.63657034198E+02  0.10000000000E+00 0. -1.
         -5    1    3    3    0  501  0.29629908699E+02 -0.24993701023E+02 -0.49965610594E+02  0.63239139956E+02  0.10000000000E+00 0. -1.
         21    1    1    2  504  503 -0.13815252719E+02 -0.16400638172E+02  0.42655342331E+02  0.47742228368E+02  0.00000000000E+00 0.  1.
<mgrwt>
<rscale>  1 0.12682451E+03</rscale>
<asrwt>0</asrwt>
<pdfrwt beam="1">  1       21 0.16386883E-01 0.12682451E+03</pdfrwt>
<pdfrwt beam="2">  1       21 0.10480563E-01 0.12682451E+03</pdfrwt>
<totfact> 0.24707216E+06</totfact>
</mgrwt>
</event>
<event>
 6    1  0.4261782E-002  0.1265020E+03  0.7546771E-02  0.1232740E+00
         21   -1    0    0  504  502  0.00000000000E+00  0.00000000000E+00  0.13107677015E+03  0.13107677015E+03  0.00000000000E+00 0.  1.
         21   -1    0    0  502  503 -0.00000000000E+00 -0.00000000000E+00 -0.11959415008E+03  0.11959415008E+03  0.00000000000E+00 0. -1.
         25    2    1    2    0    0 -0.15698617631E+02 -0.11424236536E+02 -0.84900923331E+02  0.15235130258E+03  0.12500317131E+03 0.  0.
          5    1    3    3  501    0 -0.58267747886E+00 -0.67586323986E+02 -0.53867389811E+02  0.86428909446E+02  0.10000000000E+00 0. -1.
         -5    1    3    3    0  501 -0.15115940152E+02  0.56162087450E+02 -0.31033533521E+02  0.65922393131E+02  0.10000000000E+00 0. -1.
         21    1    1    2  504  503  0.15698617631E+02  0.11424236536E+02  0.96383543406E+02  0.98319617653E+02  0.00000000000E+00 0.  1.
<mgrwt>
<rscale>  1 0.12650199E+03</rscale>
<asrwt>0</asrwt>
<pdfrwt beam="1">  1       21 0.20165657E-01 0.12650199E+03</pdfrwt>
<pdfrwt beam="2">  1       21 0.18399100E-01 0.12650199E+03</pdfrwt>
<totfact> 0.61638132E+05</totfact>
</mgrwt>
</event>
<event>
 6    1  0.4261782E-002  0.1287459E+03  0.7546771E-02  0.1229329E+00
         21   -1    0    0  503  502  0.00000000000E+00  0.00000000000E+00  0.50492796883E+02  0.50492796883E+02  0.00000000000E+00 0. -1.
         21   -1    0    0  504  503 -0.00000000000E+00 -0.00000000000E+00 -0.12708346299E+03  0.12708346299E+03  0.00000000000E+00 0. -1.
         25    2    1    2    0    0  0.19598444040E+02 -0.23771015304E+02 -0.55259875356E+02  0.14010409939E+03  0.12500537854E+03 0.  0.
          5    1    3    3  501    0 -0.43683311719E+02 -0.47334112864E+01 -0.59406929783E+02  0.73890663898E+02  0.10000000000E+00 0.  1.
         -5    1    3    3    0  501  0.63281755759E+02 -0.19037604018E+02  0.41470544264E+01  0.66213435488E+02  0.10000000000E+00 0.  1.
         21    1    1    2  504  502 -0.19598444040E+02  0.23771015304E+02 -0.21330790747E+02  0.37472160483E+02  0.00000000000E+00 0. -1.
<mgrwt>
<rscale>  1 0.12874589E+03</rscale>
<asrwt>0</asrwt>
<pdfrwt beam="1">  1       21 0.77681226E-02 0.12874589E+03</pdfrwt>
<pdfrwt beam="2">  1       21 0.19551302E-01 0.12874589E+03</pdfrwt>
<totfact> 0.30111480E+06</totfact>
</mgrwt>
</event>
<event>
 6    1  0.4261782E-002  0.1259681E+03  0.7546771E-02  0.1233564E+00
         21   -1    0    0  504  502  0.00000000000E+00  0.00000000000E+00  0.99265288236E+02  0.99265288236E+02  0.00000000000E+00 0. -1.
         21   -1    0    0  502  503 -0.00000000000E+00 -0.00000000000E+00 -0.54266183839E+03  0.54266183839E+03  0.00000000000E+00 0.  1.
         25    2    1    2    0    0  0.12003953284E+02 -0.98517325264E+01 -0.53468705980E+03  0.54932524393E+03  0.12500728047E+03 0.  0.
          5    1    3    3  501    0  0.63737292556E+02 -0.24490988548E+02 -0.22963631118E+03  0.23957273717E+03  0.10000000000E+00 0. -1.
         -5    1    3    3    0  501 -0.51733339272E+02  0.14639256021E+02 -0.30505074862E+03  0.30975250676E+03  0.10000000000E+00 0. -1.
         21    1    1    2  504  503 -0.12003953284E+02  0.98517325264E+01  0.91290509645E+02  0.92601882700E+02  0.00000000000E+00 0. -1.
<mgrwt>
<rscale>  1 0.12596814E+03</rscale>
<asrwt>0</asrwt>
<pdfrwt beam="1">  1       21 0.15271583E-01 0.12596814E+03</pdfrwt>
<pdfrwt beam="2">  1       21 0.83486437E-01 0.12596814E+03</pdfrwt>
<totfact> 0.49082344E+04</totfact>
</mgrwt>
</event>
<event>
 6    1  0.4261782E-002  0.1317803E+03  0.7546771E-02  0.1224838E+00
         21   -1    0    0  503  502  0.00000000000E+00  0.00000000000E+00  0.33508256613E+02  0.33508256613E+02  0.00000000000E+00 0. -1.
         21   -1    0    0  504  503 -0.00000000000E+00 -0.00000000000E+00 -0.51789319636E+03  0.51789319636E+03  0.00000000000E+00 0.  1.
         25    2    1    2    0    0 -0.37383673004E+02  0.18566849905E+02 -0.49167528056E+03  0.50902910359E+03  0.12499511936E+03 0.  0.
          5    1    3    3  501    0 -0.10868444130E+02 -0.39331829326E+02 -0.36473885378E+03  0.36701438301E+03  0.10000000000E+00 0. -1.
         -5    1    3    3    0  501 -0.26515228874E+02  0.57898679230E+02 -0.12693642678E+03  0.14201472059E+03  0.10000000000E+00 0. -1.
         21    1    1    2  504  502  0.37383673004E+02 -0.18566849905E+02  0.72903408180E+01  0.42372349379E+02  0.00000000000E+00 0. -1.
<mgrwt>
<rscale>  1 0.13178030E+03</rscale>
<asrwt>0</asrwt>
<pdfrwt beam="1">  1       21 0.51551166E-02 0.13178030E+03</pdfrwt>
<pdfrwt beam="2">  1       21 0.79675873E-01 0.13178030E+03</pdfrwt>
<totfact> 0.35913578E+05</totfact>
</mgrwt>
</event>
<event>
 6    1  0.4261782E-002  0.1279609E+03  0.7546771E-02  0.1230513E+00
         21   -1    0    0  503  502  0.00000000000E+00  0.00000000000E+00  0.10939327589E+02  0.10939327589E+02  0.00000000000E+00 0.  1.
         21   -1    0    0  504  503 -0.00000000000E+00 -0.00000000000E+00 -0.68324787158E+03  0.68324787158E+03  0.00000000000E+00 0.  1.
         25    2    1    2    0    0 -0.23018680619E+02  0.14778900380E+02 -0.63590368442E+03  0.64865051776E+03  0.12500289104E+03 0.  0.
          5    1    3    3  501    0  0.48401842914E+02  0.26545985157E+02 -0.25083915062E+03  0.25684181359E+03  0.10000000000E+00 0. -1.
         -5    1    3    3    0  501 -0.71420523534E+02 -0.11767084777E+02 -0.38506453381E+03  0.39180870417E+03  0.10000000000E+00 0. -1.
         21    1    1    2  504  502  0.23018680619E+02 -0.14778900380E+02 -0.36404859567E+02  0.45536681412E+02  0.00000000000E+00 0.  1.
<mgrwt>
<rscale>  1 0.12796092E+03</rscale>
<asrwt>0</asrwt>
<pdfrwt beam="1">  1       21 0.16829734E-02 0.12796092E+03</pdfrwt>
<pdfrwt beam="2">  1       21 0.10511506E+00 0.12796092E+03</pdfrwt>
<totfact> 0.11921979E+06</totfact>
</mgrwt>
</event>
<event>
 6    1  0.4261782E-002  0.1265617E+03  0.7546771E-02  0.1232649E+00
         21   -1    0    0  504  502  0.00000000000E+00  0.00000000000E+00  0.10397004444E+02  0.10397004444E+02  0.00000000000E+00 0. -1.
         21   -1    0    0  502  503 -0.00000000000E+00 -0.00000000000E+00 -0.65687556263E+03  0.65687556263E+03  0.00000000000E+00 0. -1.
         25    2    1    2    0    0 -0.10805105543E+02 -0.16691525484E+02 -0.62623950659E+03  0.63890045862E+03  0.12499007592E+03 0.  0.
          5    1    3    3  501    0 -0.64299434816E+02 -0.27001653757E+02 -0.28942568088E+03  0.29770915568E+03  0.10000000000E+00 0.  1.
         -5    1    3    3    0  501  0.53494329274E+02  0.10310128273E+02 -0.33681382571E+03  0.34119130294E+03  0.10000000000E+00 0.  1.
         21    1    1    2  504  503  0.10805105543E+02  0.16691525484E+02 -0.20239051593E+02  0.28372108454E+02  0.00000000000E+00 0. -1.
<mgrwt>
<rscale>  1 0.12656175E+03</rscale>
<asrwt>0</asrwt>
<pdfrwt beam="1">  1       21 0.15995393E-02 0.12656175E+03</pdfrwt>
<pdfrwt beam="2">  1       21 0.10105777E+00 0.12656175E+03</pdfrwt>
<totfact> 0.14192493E+06</totfact>
</mgrwt>
</event>
<event>
 6    1  0.4261782E-002  0.1335202E+03  0.7546771E-02  0.1222324E+00
         21   -1    0    0  503  502  0.00000000000E+00  0.00000000000E+00  0.10261297742E+03  0.10261297742E+03  0.00000000000E+00 0.  1.
         21   -1    0    0  504  503 -0.00000000000E+00 -0.00000000000E+00 -0.79399942837E+02  0.79399942837E+02  0.00000000000E+00 0.  1.
         25    2    1    2    0    0 -0.45903860827E+02 -0.97039069106E+01  0.19665858167E+02  0.13496068642E+03  0.12500524251E+03 0.  0.
          5    1    3    3  501    0 -0.42839031299E+02  0.48139226865E+02 -0.16696999597E+02  0.66568517794E+02  0.10000000000E+00 0. -1.
         -5    1    3    3    0  501 -0.30648295280E+01 -0.57843133776E+02  0.36362857764E+02  0.68392168629E+02  0.10000000000E+00 0. -1.
         21    1    1    2  504  502  0.45903860827E+02  0.97039069106E+01  0.35471764144E+01  0.47052233833E+02  0.00000000000E+00 0.  1.
<mgrwt>
<rscale>  1 0.13352019E+03</rscale>
<asrwt>0</asrwt>
<pdfrwt beam="1">  1       21 0.15786612E-01 0.13352019E+03</pdfrwt>
<pdfrwt beam="2">  1       21 0.12215376E-01 0.13352019E+03</pdfrwt>
<totfact> 0.20207838E+06</totfact>
</mgrwt>
</event>
<event>
 6    1  0.4261782E-002  0.1270706E+03  0.7546771E-02  0.1231868E+00
         21   -1    0    0  504  502  0.00000000000E+00  0.00000000000E+00  0.56988623268E+02  0.56988623268E+02  0.00000000000E+00 0.  1.
         21   -1    0    0  502  503 -0.00000000000E+00 -0.00000000000E+00 -0.10970176073E+03  0.10970176073E+03  0.00000000000E+00 0.  1.
         25    2    1    2    0    0 -0.18762002703E+02 -0.13013209450E+02 -0.62783964071E+02  0.14173486529E+03  0.12500235810E+03 0.  0.
          5    1    3    3  501    0 -0.28871996972E+02  0.80793675413E+01  0.32150916414E+02  0.43960889610E+02  0.10000000000E+00 0. -1.
         -5    1    3    3    0  501  0.10109994270E+02 -0.21092576991E+02 -0.94934880484E+02  0.97773975683E+02  0.10000000000E+00 0. -1.
         21    1    1    2  504  503  0.18762002703E+02  0.13013209450E+02  0.10070826604E+02  0.24955518710E+02  0.00000000000E+00 0.  1.
<mgrwt>
<rscale>  1 0.12707063E+03</rscale>
<asrwt>0</asrwt>
<pdfrwt beam="1">  1       21 0.87674806E-02 0.12707063E+03</pdfrwt>
<pdfrwt beam="2">  1       21 0.16877194E-01 0.12707063E+03</pdfrwt>
<totfact> 0.31970433E+06</totfact>
</mgrwt>
</event>
<event>
 6    1  0.4261782E-002  0.1291669E+03  0.7546771E-02  0.1228697E+00
         21   -1    0    0  503  502  0.00000000000E+00  0.00000000000E+00  0.24402117917E+02  0.24402117917E+02  0.00000000000E+00 0.  1.
         21   -1    0    0  504  503 -0.00000000000E+00 -0.00000000000E+00 -0.59769421082E+03  0.59769421082E+03  0.00000000000E+00 0.  1.
         25    2    1    2    0    0 -0.85332082900E+00  0.32530011795E+02 -0.57517558731E+03  0.58950066377E+03  0.12500058607E+03 0.  0.
          5    1    3    3  501    0  0.95801447183E+01  0.73243059533E+02 -0.22507196870E+03  0.23688335956E+03  0.10000000000E+00 0. -1.
         -5    1    3    3    0  501 -0.10433465547E+02 -0.40713047738E+02 -0.35010361861E+03  0.35261730420E+03  0.10000000000E+00 0. -1.
         21    1    1    2  504  502  0.85332082900E+00 -0.32530011795E+02  0.18834944069E+01  0.32595664972E+02  0.00000000000E+00 0.  1.
<mgrwt>
<rscale>  1 0.12916685E+03</rscale>
<asrwt>0</asrwt>
<pdfrwt beam="1">  1       21 0.37541726E-02 0.12916685E+03</pdfrwt>
<pdfrwt beam="2">  1       21 0.91952941E-01 0.12916685E+03</pdfrwt>
<totfact> 0.44097449E+05</totfact>
</mgrwt>
</event>
<event>
 6    1  0.4261782E-002  0.1292833E+03  0.7546771E-02  0.1228523E+00
         21   -1    0    0  504  502  0.00000000000E+00  0.00000000000E+00  0.14918691342E+04  0.14918691342E+04  0.00000000000E+00 0.  1.
         21   -1    0    0  502  503 -0.00000000000E+00 -0.00000000000E+00 -0.83379562951E+01  0.83379562951E+01  0.00000000000E+00 0. -1.
         25    2    1    2    0    0  0.31488245338E+02  0.97849433137E+01  0.51045462427E+03  0.52657202850E+03  0.12500769197E+03 0.  0.
          5    1    3    3  501    0  0.39022383161E+02 -0.11317329926E+02  0.45196639832E+02  0.60774785860E+02  0.10000000000E+00 0. -1.
         -5    1    3    3    0  501 -0.75341378235E+01  0.21102273240E+02  0.46525798444E+03  0.46579724264E+03  0.10000000000E+00 0. -1.
         21    1    1    2  504  503 -0.31488245338E+02 -0.97849433137E+01  0.97307655361E+03  0.97363506197E+03  0.00000000000E+00 0.  1.
<mgrwt>
<rscale>  1 0.12928332E+03</rscale>
<asrwt>0</asrwt>
<pdfrwt beam="1">  1       21 0.22951812E+00 0.12928332E+03</pdfrwt>
<pdfrwt beam="2">  1       21 0.12827637E-02 0.12928332E+03</pdfrwt>
<totfact> 0.23044005E+05</totfact>
</mgrwt>
</event>
<event>
 6    1  0.4261782E-002  0.1378267E+03  0.7546771E-02  0.1216284E+00
         21   -1    0    0  503  502  0.00000000000E+00  0.00000000000E+00  0.28401090655E+03  0.28401090655E+03  0.00000000000E+00 0. -1.
         21   -1    0    0  504  503 -0.00000000000E+00 -0.00000000000E+00 -0.41431482865E+02  0.41431482865E+02  0.00000000000E+00 0. -1.
         25    2    1    2    0    0  0.44077793988E+01  0.57880395147E+02  0.22661899408E+03  0.26524019698E+03  0.12500649965E+03 0.  0.
          5    1    3    3  501    0 -0.17629735970E+02 -0.21864925919E+02  0.14957143728E+03  0.15218576618E+03  0.10000000000E+00 0.  1.
         -5    1    3    3    0  501  0.22037515369E+02  0.79745321066E+02  0.77047556792E+02  0.11305443080E+03  0.10000000000E+00 0.  1.
         21    1    1    2  504  502 -0.44077793988E+01 -0.57880395147E+02  0.15960429614E+02  0.60202192444E+02  0.00000000000E+00 0. -1.
<mgrwt>
<rscale>  1 0.13782668E+03</rscale>
<asrwt>0</asrwt>
<pdfrwt beam="1">  1       21 0.43693984E-01 0.13782668E+03</pdfrwt>
<pdfrwt beam="2">  1       21 0.63740745E-02 0.13782668E+03</pdfrwt>
<totfact> 0.89744361E+05</totfact>
</mgrwt>
</event>
<event>
 6    1  0.4261782E-002  0.1264877E+03  0.7546771E-02  0.1232762E+00
         21   -1    0    0  504  502  0.00000000000E+00  0.00000000000E+00  0.24629433861E+02  0.24629433861E+02  0.00000000000E+00 0. -1.
         21   -1    0    0  502  503 -0.00000000000E+00 -0.00000000000E+00 -0.31230247405E+03  0.31230247405E+03  0.00000000000E+00 0. -1.
         25    2    1    2    0    0 -0.14106068618E+02  0.13239368938E+02 -0.29100067301E+03  0.31730195116E+03  0.12499949784E+03 0.  0.
          5    1    3    3  501    0  0.22029833504E+02  0.40562714843E+02 -0.25579816305E+03  0.25992952433E+03  0.10000000000E+00 0. -1.
         -5    1    3    3    0  501 -0.36135902122E+02 -0.27323345905E+02 -0.35202509960E+02  0.57372426837E+02  0.10000000000E+00 0. -1.
         21    1    1    2  504  503  0.14106068618E+02 -0.13239368938E+02  0.33276328175E+01  0.19629956747E+02  0.00000000000E+00 0. -1.
<mgrwt>
<rscale>  1 0.12648769E+03</rscale>
<asrwt>0</asrwt>
<pdfrwt beam="1">  1       21 0.37891436E-02 0.12648769E+03</pdfrwt>
<pdfrwt beam="2">  1       21 0.48046535E-01 0.12648769E+03</pdfrwt>
<totfact> 0.17694725E+06</totfact>
</mgrwt>
</event>
<event>
 6    1  0.4261782E-002  0.1285233E+03  0.7546771E-02  0.1229663E+00
         21   -1    0    0  503  502  0.00000000000E+00  0.00000000000E+00  0.39709491302E+02  0.39709491302E+02  0.00000000000E+00 0. -1.
         21   -1    0    0  504  503 -0.00000000000E+00 -0.00000000000E+00 -0.15833403476E+03  0.15833403476E+03  0.00000000000E+00 0. -1.
         25    2    1    2    0    0  0.25531845594E+02  0.15666451732E+02 -0.99005254360E+02  0.16223529581E+03  0.12498375080E+03 0.  0.
          5    1    3    3  501    0  0.53692891315E+01 -0.51500434098E+02 -0.17372317012E+02  0.54616218987E+02  0.10000000000E+00 0.  1.
         -5    1    3    3    0  501  0.20162556463E+02  0.67166885830E+02 -0.81632937349E+02  0.10761907682E+03  0.10000000000E+00 0.  1.
         21    1    1    2  504  502 -0.25531845594E+02 -0.15666451732E+02 -0.19619289096E+02  0.35808230255E+02  0.00000000000E+00 0. -1.
<mgrwt>
<rscale>  1 0.12852335E+03</rscale>
<asrwt>0</asrwt>
<pdfrwt beam="1">  1       21 0.61091526E-02 0.12852335E+03</pdfrwt>
<pdfrwt beam="2">  1       21 0.24359082E-01 0.12852335E+03</pdfrwt>
<totfact> 0.30129983E+06</totfact>
</mgrwt>
</event>
<event>
 6    1  0.4261782E-002  0.1261439E+03  0.7546771E-02  0.1233292E+00
         21   -1    0    0  503  502  0.00000000000E+00  0.00000000000E+00  0.64170698332E+02  0.64170698332E+02  0.00000000000E+00 0. -1.
         21   -1    0    0  504  503 -0.00000000000E+00 -0.00000000000E+00 -0.80876146359E+02  0.80876146359E+02  0.00000000000E+00 0. -1.
         25    2    1    2    0    0 -0.10784015077E+02  0.13068890879E+02 -0.20187488630E+02  0.12774899810E+03  0.12500072371E+03 0.  0.
          5    1    3    3  501    0  0.28334038245E+02 -0.46246731965E+02 -0.14029564497E+01  0.54254550293E+02  0.10000000000E+00 0. -1.
         -5    1    3    3    0  501 -0.39118053322E+02  0.59315622843E+02 -0.18784532180E+02  0.73494447806E+02  0.10000000000E+00 0. -1.
         21    1    1    2  504  502  0.10784015077E+02 -0.13068890879E+02  0.34820406031E+01  0.17297846593E+02  0.00000000000E+00 0. -1.
<mgrwt>
<rscale>  1 0.12614385E+03</rscale>
<asrwt>0</asrwt>
<pdfrwt beam="1">  1       21 0.98724152E-02 0.12614385E+03</pdfrwt>
<pdfrwt beam="2">  1       21 0.12442484E-01 0.12614385E+03</pdfrwt>
<totfact> 0.44959464E+06</totfact>
</mgrwt>
</event>
<event>
 6    1  0.4261782E-002  0.1263877E+03  0.7546771E-02  0.1232916E+00
         21   -1    0    0  503  502  0.00000000000E+00  0.00000000000E+00  0.70534344696E+02  0.70534344696E+02  0.00000000000E+00 0. -1.
         21   -1    0    0  504  503 -0.00000000000E+00 -0.00000000000E+00 -0.77137370968E+02  0.77137370968E+02  0.00000000000E+00 0. -1.
         25    2    1    2    0    0 -0.72299096217E+01  0.17206833558E+02 -0.14868713074E+02  0.12725926132E+03  0.12500197698E+03 0.  0.
          5    1    3    3  501    0  0.34484749903E+02  0.57347930958E+02 -0.17957469142E+02  0.69285379836E+02  0.10000000000E+00 0.  1.
         -5    1    3    3    0  501 -0.41714659524E+02 -0.40141097400E+02  0.30887560687E+01  0.57973881479E+02  0.10000000000E+00 0.  1.
         21    1    1    2  504  502  0.72299096217E+01 -0.17206833558E+02  0.82656868015E+01  0.20412454349E+02  0.00000000000E+00 0.  1.
<mgrwt>
<rscale>  1 0.12638766E+03</rscale>
<asrwt>0</asrwt>
<pdfrwt beam="1">  1       21 0.10851438E-01 0.12638766E+03</pdfrwt>
<pdfrwt beam="2">  1       21 0.11867288E-01 0.12638766E+03</pdfrwt>
<totfact> 0.41431076E+06</totfact>
</mgrwt>
</event>
<event>
 6    1  0.4261782E-002  0.1272051E+03  0.7546771E-02  0.1231663E+00
         21   -1    0    0  503  502  0.00000000000E+00  0.00000000000E+00  0.66324759327E+03  0.66324759327E+03  0.00000000000E+00 0.  1.
         21   -1    0    0  504  503 -0.00000000000E+00 -0.00000000000E+00 -0.31569335997E+02  0.31569335997E+02  0.00000000000E+00 0.  1.
         25    2    1    2    0    0 -0.21009103183E+02  0.10787009185E+02  0.97900077511E+02  0.16051655759E+03  0.12499359224E+03 0.  0.
          5    1    3    3  501    0 -0.39109847917E+02  0.37397089628E+01  0.12280252589E+03  0.12893423127E+03  0.10000000000E+00 0.  1.
         -5    1    3    3    0  501  0.18100744734E+02  0.70473002223E+01 -0.24902448383E+02  0.31582326321E+02  0.10000000000E+00 0.  1.
         21    1    1    2  504  502  0.21009103183E+02 -0.10787009185E+02  0.53377817976E+03  0.53430037168E+03  0.00000000000E+00 0.  1.
<mgrwt>
<rscale>  1 0.12720511E+03</rscale>
<asrwt>0</asrwt>
<pdfrwt beam="1">  1       21 0.10203808E+00 0.12720511E+03</pdfrwt>
<pdfrwt beam="2">  1       21 0.48568214E-02 0.12720511E+03</pdfrwt>
<totfact> 0.22555003E+05</totfact>
</mgrwt>
</event>
<event>
 6    1  0.4261782E-002  0.1271853E+03  0.7546771E-02  0.1231693E+00
         21   -1    0    0  504  502  0.00000000000E+00  0.00000000000E+00  0.41570924998E+02  0.41570924998E+02  0.00000000000E+00 0.  1.
         21   -1    0    0  502  503 -0.00000000000E+00 -0.00000000000E+00 -0.13655446193E+03  0.13655446193E+03  0.00000000000E+00 0.  1.
         25    2    1    2    0    0  0.88083157493E+01  0.21659459736E+02 -0.82760904649E+02  0.15174146451E+03  0.12501754313E+03 0.  0.
          5    1    3    3  501    0  0.19245600872E+02  0.11653610067E+02  0.30311059381E+02  0.37748776156E+02  0.10000000000E+00 0. -1.
         -5    1    3    3    0  501 -0.10437285122E+02  0.10005849669E+02 -0.11307196403E+03  0.11399268835E+03  0.10000000000E+00 0. -1.
         21    1    1    2  504  503 -0.88083157493E+01 -0.21659459736E+02 -0.12222632288E+02  0.26383922423E+02  0.00000000000E+00 0.  1.
<mgrwt>
<rscale>  1 0.12718532E+03</rscale>
<asrwt>0</asrwt>
<pdfrwt beam="1">  1       21 0.63955270E-02 0.12718532E+03</pdfrwt>
<pdfrwt beam="2">  1       21 0.21008379E-01 0.12718532E+03</pdfrwt>
<totfact> 0.36746375E+06</totfact>
</mgrwt>
</event>
<event>
 6    1  0.4261782E-002  0.1284129E+03  0.7546771E-02  0.1229830E+00
         21   -1    0    0  503  502  0.00000000000E+00  0.00000000000E+00  0.89616583671E+01  0.89616583671E+01  0.00000000000E+00 0. -1.
         21   -1    0    0  504  503 -0.00000000000E+00 -0.00000000000E+00 -0.20235547933E+04  0.20235547933E+04  0.00000000000E+00 0. -1.
         25    2    1    2    0    0  0.24933124916E+02  0.15630782639E+02 -0.19900742023E+04  0.19942129252E+04  0.12499551251E+03 0.  0.
          5    1    3    3  501    0 -0.26281203318E+02  0.52874656357E+02 -0.66135571695E+03  0.66398631407E+03  0.10000000000E+00 0.  1.
         -5    1    3    3    0  501  0.51214328234E+02 -0.37243873718E+02 -0.13287184854E+04  0.13302266111E+04  0.10000000000E+00 0.  1.
         21    1    1    2  504  502 -0.24933124916E+02 -0.15630782639E+02 -0.24518932592E+02  0.38303526462E+02  0.00000000000E+00 0. -1.
<mgrwt>
<rscale>  1 0.12841285E+03</rscale>
<asrwt>0</asrwt>
<pdfrwt beam="1">  1       21 0.13787181E-02 0.12841285E+03</pdfrwt>
<pdfrwt beam="2">  1       21 0.31131580E+00 0.12841285E+03</pdfrwt>
<totfact> 0.70456781E+04</totfact>
</mgrwt>
</event>
<event>
 6    1  0.4261782E-002  0.1287688E+03  0.7546771E-02  0.1229294E+00
         21   -1    0    0  503  502  0.00000000000E+00  0.00000000000E+00  0.59268876781E+02  0.59268876781E+02  0.00000000000E+00 0.  1.
         21   -1    0    0  504  503 -0.00000000000E+00 -0.00000000000E+00 -0.19053836236E+03  0.19053836236E+03  0.00000000000E+00 0.  1.
         25    2    1    2    0    0  0.30327287923E+02  0.60770528508E+01 -0.16150368882E+03  0.20655470153E+03  0.12499891302E+03 0.  0.
          5    1    3    3  501    0  0.27461858445E+02 -0.54042112928E+02 -0.45253894676E+02  0.75648057624E+02  0.10000000000E+00 0.  1.
         -5    1    3    3    0  501  0.28654294776E+01  0.60119165779E+02 -0.11624979414E+03  0.13090664390E+03  0.10000000000E+00 0.  1.
         21    1    1    2  504  502 -0.30327287923E+02 -0.60770528508E+01  0.30234203241E+02  0.43252537610E+02  0.00000000000E+00 0.  1.
<mgrwt>
<rscale>  1 0.12876880E+03</rscale>
<asrwt>0</asrwt>
<pdfrwt beam="1">  1       21 0.91182887E-02 0.12876880E+03</pdfrwt>
<pdfrwt beam="2">  1       21 0.29313594E-01 0.12876880E+03</pdfrwt>
<totfact> 0.10648158E+06</totfact>
</mgrwt>
</event>
<event>
 6    1  0.4261782E-002  0.1260909E+03  0.7546771E-02  0.1233374E+00
         21   -1    0    0  504  502  0.00000000000E+00  0.00000000000E+00  0.41507778744E+03  0.41507778744E+03  0.00000000000E+00 0. -1.
         21   -1    0    0  502  503 -0.00000000000E+00 -0.00000000000E+00 -0.20107347502E+02  0.20107347502E+02  0.00000000000E+00 0. -1.
         25    2    1    2    0    0 -0.70899061831E+01 -0.14906576759E+02  0.18106244863E+03  0.22064119644E+03  0.12500581772E+03 0.  0.
          5    1    3    3  501    0 -0.10892567723E+02  0.54106331197E+02  0.62308835693E+02  0.83237876670E+02  0.10000000000E+00 0.  1.
         -5    1    3    3    0  501  0.38026615400E+01 -0.69012907956E+02  0.11875361293E+03  0.13740331977E+03  0.10000000000E+00 0.  1.
         21    1    1    2  504  503  0.70899061831E+01  0.14906576759E+02  0.21390799131E+03  0.21454393850E+03  0.00000000000E+00 0. -1.
<mgrwt>
<rscale>  1 0.12609095E+03</rscale>
<asrwt>0</asrwt>
<pdfrwt beam="1">  1       21 0.63858115E-01 0.12609095E+03</pdfrwt>
<pdfrwt beam="2">  1       21 0.30934384E-02 0.12609095E+03</pdfrwt>
<totfact> 0.13619612E+06</totfact>
</mgrwt>
</event>
<event>
 6    1  0.4261782E-002  0.1265372E+03  0.7546771E-02  0.1232686E+00
         21   -1    0    0  504  502  0.00000000000E+00  0.00000000000E+00  0.57051772249E+02  0.57051772249E+02  0.00000000000E+00 0.  1.
         21   -1    0    0  502  503 -0.00000000000E+00 -0.00000000000E+00 -0.10105902422E+03  0.10105902422E+03  0.00000000000E+00 0.  1.
         25    2    1    2    0    0  0.11444682565E+02 -0.15964472329E+02 -0.52130023000E+02  0.13685463160E+03  0.12500322298E+03 0.  0.
          5    1    3    3  501    0 -0.54829400624E+02 -0.23719847058E+02 -0.26906563359E+02  0.65519977632E+02  0.10000000000E+00 0.  1.
         -5    1    3    3    0  501  0.66274083189E+02  0.77553747286E+01 -0.25223459641E+02  0.71334653963E+02  0.10000000000E+00 0.  1.
         21    1    1    2  504  503 -0.11444682565E+02  0.15964472329E+02  0.81227710316E+01  0.21256164870E+02  0.00000000000E+00 0. -1.
<mgrwt>
<rscale>  1 0.12653715E+03</rscale>
<asrwt>0</asrwt>
<pdfrwt beam="1">  1       21 0.87771958E-02 0.12653715E+03</pdfrwt>
<pdfrwt beam="2">  1       21 0.15547542E-01 0.12653715E+03</pdfrwt>
<totfact> 0.37021838E+06</totfact>
</mgrwt>
</event>
<event>
 6    1  0.4261782E-002  0.1263738E+03  0.7546771E-02  0.1232938E+00
         21   -1    0    0  504  502  0.00000000000E+00  0.00000000000E+00  0.73413512632E+02  0.73413512632E+02  0.00000000000E+00 0. -1.
         21   -1    0    0  502  503 -0.00000000000E+00 -0.00000000000E+00 -0.13917879219E+03  0.13917879219E+03  0.00000000000E+00 0. -1.
         25    2    1    2    0    0  0.87190388817E+01  0.16489013000E+02 -0.10811908862E+03  0.16631321309E+03  0.12498975293E+03 0.  0.
          5    1    3    3  501    0  0.43184478764E+02  0.10096353524E+02  0.79591739961E+01  0.45057674278E+02  0.10000000000E+00 0.  1.
         -5    1    3    3    0  501 -0.34465439882E+02  0.63926594761E+01 -0.11607826262E+03  0.12125553882E+03  0.10000000000E+00 0.  1.
         21    1    1    2  504  503 -0.87190388817E+01 -0.16489013000E+02  0.42353809065E+02  0.46279091726E+02  0.00000000000E+00 0. -1.
<mgrwt>
<rscale>  1 0.12637384E+03</rscale>
<asrwt>0</asrwt>
<pdfrwt beam="1">  1       21 0.11294387E-01 0.12637384E+03</pdfrwt>
<pdfrwt beam="2">  1       21 0.21412122E-01 0.12637384E+03</pdfrwt>
<totfact> 0.13252584E+06</totfact>
</mgrwt>
</event>
<event>
 6    1  0.4261782E-002  0.1304777E+03  0.7546771E-02  0.1226749E+00
         21   -1    0    0  503  502  0.00000000000E+00  0.00000000000E+00  0.41225491508E+02  0.41225491508E+02  0.00000000000E+00 0. -1.
         21   -1    0    0  504  503 -0.00000000000E+00 -0.00000000000E+00 -0.43186888042E+03  0.43186888042E+03  0.00000000000E+00 0.  1.
         25    2    1    2    0    0 -0.23079518225E+02 -0.29402783081E+02 -0.41052193774E+03  0.43075828191E+03  0.12500899269E+03 0.  0.
          5    1    3    3  501    0  0.38987951291E+02  0.21063179037E+02 -0.21473060014E+03  0.21925546400E+03  0.10000000000E+00 0. -1.
         -5    1    3    3    0  501 -0.62067469516E+02 -0.50465962118E+02 -0.19579133760E+03  0.21150281791E+03  0.10000000000E+00 0. -1.
         21    1    1    2  504  502  0.23079518225E+02  0.29402783081E+02  0.19878548830E+02  0.42336090018E+02  0.00000000000E+00 0. -1.
<mgrwt>
<rscale>  1 0.13047772E+03</rscale>
<asrwt>0</asrwt>
<pdfrwt beam="1">  1       21 0.63423831E-02 0.13047772E+03</pdfrwt>
<pdfrwt beam="2">  1       21 0.66441368E-01 0.13047772E+03</pdfrwt>
<totfact> 0.37701015E+05</totfact>
</mgrwt>
</event>
<event>
 6    1  0.4261782E-002  0.1889493E+03  0.7546771E-02  0.1159412E+00
         21   -1    0    0  503  502  0.00000000000E+00  0.00000000000E+00  0.12264500102E+03  0.12264500102E+03  0.00000000000E+00 0.  1.
         21   -1    0    0  504  503 -0.00000000000E+00 -0.00000000000E+00 -0.25266331961E+03  0.25266331961E+03  0.00000000000E+00 0.  1.
         25    2    1    2    0    0 -0.13831340012E+03  0.30808527277E+02 -0.13706832476E+03  0.23342997629E+03  0.12498826414E+03 0.  0.
          5    1    3    3  501    0 -0.41058277140E+02 -0.10091268719E+02  0.17934934770E+02  0.45926982388E+02  0.10000000000E+00 0. -1.
         -5    1    3    3    0  501 -0.97255122981E+02  0.40899795996E+02 -0.15500325953E+03  0.18750299391E+03  0.10000000000E+00 0. -1.
         21    1    1    2  504  502  0.13831340012E+03 -0.30808527277E+02  0.70500061715E+01  0.14187834434E+03  0.00000000000E+00 0.  1.
<mgrwt>
<rscale>  1 0.18894927E+03</rscale>
<asrwt>0</asrwt>
<pdfrwt beam="1">  1       21 0.18868462E-01 0.18894927E+03</pdfrwt>
<pdfrwt beam="2">  1       21 0.38871279E-01 0.18894927E+03</pdfrwt>
<totfact> 0.16437278E+05</totfact>
</mgrwt>
</event>
<event>
 6    1  0.4261782E-002  0.1264437E+03  0.7546771E-02  0.1232830E+00
         21   -1    0    0  503  502  0.00000000000E+00  0.00000000000E+00  0.47389052305E+03  0.47389052305E+03  0.00000000000E+00 0. -1.
         21   -1    0    0  504  503 -0.00000000000E+00 -0.00000000000E+00 -0.16134024350E+02  0.16134024350E+02  0.00000000000E+00 0. -1.
         25    2    1    2    0    0 -0.18735659034E+02 -0.35188786038E+01  0.23853577070E+03  0.26997651852E+03  0.12499839689E+03 0.  0.
          5    1    3    3  501    0 -0.43462615150E+02 -0.16629991540E+02  0.23745030455E+03  0.24196737934E+03  0.10000000000E+00 0.  1.
         -5    1    3    3    0  501  0.24726956116E+02  0.13111112936E+02  0.10854661508E+01  0.28009139186E+02  0.10000000000E+00 0.  1.
         21    1    1    2  504  502  0.18735659034E+02  0.35188786038E+01  0.21922072800E+03  0.22004802887E+03  0.00000000000E+00 0. -1.
<mgrwt>
<rscale>  1 0.12644369E+03</rscale>
<asrwt>0</asrwt>
<pdfrwt beam="1">  1       21 0.72906224E-01 0.12644369E+03</pdfrwt>
<pdfrwt beam="2">  1       21 0.24821580E-02 0.12644369E+03</pdfrwt>
<totfact> 0.14639701E+06</totfact>
</mgrwt>
</event>
<event>
 6    1  0.4261782E-002  0.1268107E+03  0.7546771E-02  0.1232266E+00
         21   -1    0    0  504  502  0.00000000000E+00  0.00000000000E+00  0.28166758281E+02  0.28166758281E+02  0.00000000000E+00 0.  1.
         21   -1    0    0  502  503 -0.00000000000E+00 -0.00000000000E+00 -0.57304024268E+03  0.57304024268E+03  0.00000000000E+00 0.  1.
         25    2    1    2    0    0  0.12177899301E+02  0.17559488756E+02 -0.56054325436E+03  0.57470834878E+03  0.12499723706E+03 0.  0.
          5    1    3    3  501    0 -0.16400170588E+02  0.59274695101E+02 -0.16765615256E+03  0.17858065563E+03  0.10000000000E+00 0. -1.
         -5    1    3    3    0  501  0.28578069889E+02 -0.41715206346E+02 -0.39288710180E+03  0.39612769315E+03  0.10000000000E+00 0. -1.
         21    1    1    2  504  503 -0.12177899301E+02 -0.17559488756E+02  0.15669769961E+02  0.26498652180E+02  0.00000000000E+00 0.  1.
<mgrwt>
<rscale>  1 0.12681067E+03</rscale>
<asrwt>0</asrwt>
<pdfrwt beam="1">  1       21 0.43333477E-02 0.12681067E+03</pdfrwt>
<pdfrwt beam="2">  1       21 0.88160031E-01 0.12681067E+03</pdfrwt>
<totfact> 0.38272169E+05</totfact>
</mgrwt>
</event>
<event>
 6    1  0.4261782E-002  0.1273147E+03  0.7546771E-02  0.1231496E+00
         21   -1    0    0  503  502  0.00000000000E+00  0.00000000000E+00  0.74750557083E+03  0.74750557083E+03  0.00000000000E+00 0.  1.
         21   -1    0    0  504  503 -0.00000000000E+00 -0.00000000000E+00 -0.64623386895E+02  0.64623386895E+02  0.00000000000E+00 0. -1.
         25    2    1    2    0    0 -0.23406707032E+02  0.59748584743E+01 -0.14970692830E+01  0.12732348527E+03  0.12500182326E+03 0.  0.
          5    1    3    3  501    0 -0.43212418959E+02  0.16693218107E+02 -0.53431158861E+02  0.70716868004E+02  0.10000000000E+00 0. -1.
         -5    1    3    3    0  501  0.19805711927E+02 -0.10718359632E+02  0.51934089578E+02  0.56606617267E+02  0.10000000000E+00 0. -1.
         21    1    1    2  504  502  0.23406707032E+02 -0.59748584743E+01  0.68437925322E+03  0.68480547246E+03  0.00000000000E+00 0.  1.
<mgrwt>
<rscale>  1 0.12731468E+03</rscale>
<asrwt>0</asrwt>
<pdfrwt beam="1">  1       21 0.11500085E+00 0.12731468E+03</pdfrwt>
<pdfrwt beam="2">  1       21 0.99420601E-02 0.12731468E+03</pdfrwt>
<totfact> 0.49826705E+04</totfact>
</mgrwt>
</event>
<event>
 6    1  0.4261782E-002  0.1273642E+03  0.7546771E-02  0.1231420E+00
         21   -1    0    0  504  502  0.00000000000E+00  0.00000000000E+00  0.32449762816E+03  0.32449762816E+03  0.00000000000E+00 0. -1.
         21   -1    0    0  502  503 -0.00000000000E+00 -0.00000000000E+00 -0.25003188968E+02  0.25003188968E+02  0.00000000000E+00 0. -1.
         25    2    1    2    0    0 -0.15680671765E+00 -0.24449887293E+02  0.14462135527E+03  0.19270957470E+03  0.12499528873E+03 0.  0.
          5    1    3    3  501    0 -0.21646105042E+02 -0.10160782159E+02 -0.16809166967E+02  0.29229325201E+02  0.10000000000E+00 0. -1.
         -5    1    3    3    0  501  0.21489298324E+02 -0.14289105134E+02  0.16143052223E+03  0.16348024950E+03  0.10000000000E+00 0. -1.
         21    1    1    2  504  503  0.15680671765E+00  0.24449887293E+02  0.15487308392E+03  0.15679124242E+03  0.00000000000E+00 0. -1.
<mgrwt>
<rscale>  1 0.12736422E+03</rscale>
<asrwt>0</asrwt>
<pdfrwt beam="1">  1       21 0.49922709E-01 0.12736422E+03</pdfrwt>
<pdfrwt beam="2">  1       21 0.38466447E-02 0.12736422E+03</pdfrwt>
<totfact> 0.15953845E+06</totfact>
</mgrwt>
</event>
<event>
 6    1  0.4261782E-002  0.1293272E+03  0.7546771E-02  0.1228457E+00
         21   -1    0    0  503  502  0.00000000000E+00  0.00000000000E+00  0.86689593355E+03  0.86689593355E+03  0.00000000000E+00 0. -1.
         21   -1    0    0  504  503 -0.00000000000E+00 -0.00000000000E+00 -0.24346912129E+03  0.24346912129E+03  0.00000000000E+00 0. -1.
         25    2    1    2    0    0 -0.31914432039E+02  0.94550078069E+01 -0.22594594118E+03  0.26034034788E+03  0.12497039750E+03 0.  0.
          5    1    3    3  501    0 -0.17444405936E+02  0.18075824982E+02  0.75553378112E+01  0.26232344094E+02  0.10000000000E+00 0. -1.
         -5    1    3    3    0  501 -0.14470026103E+02 -0.86208171747E+01 -0.23350127899E+03  0.23410800379E+03  0.10000000000E+00 0. -1.
         21    1    1    2  504  502  0.31914432039E+02 -0.94550078069E+01  0.84937275344E+03  0.85002470695E+03  0.00000000000E+00 0. -1.
<mgrwt>
<rscale>  1 0.12932721E+03</rscale>
<asrwt>0</asrwt>
<pdfrwt beam="1">  1       21 0.13336860E+00 0.12932721E+03</pdfrwt>
<pdfrwt beam="2">  1       21 0.37456788E-01 0.12932721E+03</pdfrwt>
<totfact> 0.29715376E+03</totfact>
</mgrwt>
</event>
<event>
 6    1  0.4261782E-002  0.1261365E+03  0.7546771E-02  0.1233304E+00
         21   -1    0    0  503  502  0.00000000000E+00  0.00000000000E+00  0.55295342730E+03  0.55295342730E+03  0.00000000000E+00 0. -1.
         21   -1    0    0  504  503 -0.00000000000E+00 -0.00000000000E+00 -0.11276479982E+02  0.11276479982E+02  0.00000000000E+00 0. -1.
         25    2    1    2    0    0  0.14514564895E+02  0.85922734075E+01  0.35408324632E+03  0.37587944561E+03  0.12500365016E+03 0.  0.
          5    1    3    3  501    0 -0.59960445618E+01 -0.45183466855E+02  0.55585287469E+02  0.71883464096E+02  0.10000000000E+00 0.  1.
         -5    1    3    3    0  501  0.20510609456E+02  0.53775740263E+02  0.29849795885E+03  0.30399598151E+03  0.10000000000E+00 0.  1.
         21    1    1    2  504  502 -0.14514564895E+02 -0.85922734075E+01  0.18759370100E+03  0.18835046167E+03  0.00000000000E+00 0. -1.
<mgrwt>
<rscale>  1 0.12613648E+03</rscale>
<asrwt>0</asrwt>
<pdfrwt beam="1">  1       21 0.85069737E-01 0.12613648E+03</pdfrwt>
<pdfrwt beam="2">  1       21 0.17348435E-02 0.12613648E+03</pdfrwt>
<totfact> 0.18517674E+06</totfact>
</mgrwt>
</event>
<event>
 6    1  0.4261782E-002  0.1279606E+03  0.7546771E-02  0.1230514E+00
         21   -1    0    0  503  502  0.00000000000E+00  0.00000000000E+00  0.46992726391E+02  0.46992726391E+02  0.00000000000E+00 0.  1.
         21   -1    0    0  504  503 -0.00000000000E+00 -0.00000000000E+00 -0.25668306107E+03  0.25668306107E+03  0.00000000000E+00 0.  1.
         25    2    1    2    0    0 -0.58241738552E+01 -0.26731581211E+02 -0.23424309746E+03  0.26691525706E+03  0.12500170921E+03 0.  0.
          5    1    3    3  501    0  0.27106153395E+02 -0.21473101361E+02 -0.46258241258E+01  0.34889051044E+02  0.10000000000E+00 0.  1.
         -5    1    3    3    0  501 -0.32930327250E+02 -0.52584798507E+01 -0.22961727333E+03  0.23202620601E+03  0.10000000000E+00 0.  1.
         21    1    1    2  504  502  0.58241738552E+01  0.26731581211E+02  0.24552762783E+02  0.36760530402E+02  0.00000000000E+00 0.  1.
<mgrwt>
<rscale>  1 0.12796064E+03</rscale>
<asrwt>0</asrwt>
<pdfrwt beam="1">  1       21 0.72296502E-02 0.12796064E+03</pdfrwt>
<pdfrwt beam="2">  1       21 0.39489702E-01 0.12796064E+03</pdfrwt>
<totfact> 0.88675251E+05</totfact>
</mgrwt>
</event>
<event>
 6    1  0.4261782E-002  0.1265930E+03  0.7546771E-02  0.1232601E+00
         21   -1    0    0  503  502  0.00000000000E+00  0.00000000000E+00  0.12232895421E+03  0.12232895421E+03  0.00000000000E+00 0. -1.
         21   -1    0    0  504  503 -0.00000000000E+00 -0.00000000000E+00 -0.68923771329E+02  0.68923771329E+02  0.00000000000E+00 0. -1.
         25    2    1    2    0    0 -0.80899200395E+01 -0.18216867244E+02 -0.78499768713E+01  0.12683614650E+03  0.12501393868E+03 0.  0.
          5    1    3    3  501    0 -0.13518002215E+02 -0.66545538934E+02  0.20006277353E+02  0.70790580372E+02  0.10000000000E+00 0.  1.
         -5    1    3    3    0  501  0.54280821760E+01  0.48328671690E+02 -0.27856254224E+02  0.56045566130E+02  0.10000000000E+00 0.  1.
         21    1    1    2  504  502  0.80899200395E+01  0.18216867244E+02  0.61255159748E+02  0.64416579032E+02  0.00000000000E+00 0.  1.
<mgrwt>
<rscale>  1 0.12659299E+03</rscale>
<asrwt>0</asrwt>
<pdfrwt beam="1">  1       21 0.18819839E-01 0.12659299E+03</pdfrwt>
<pdfrwt beam="2">  1       21 0.10603657E-01 0.12659299E+03</pdfrwt>
<totfact> 0.18799254E+06</totfact>
</mgrwt>
</event>
<event>
 6    1  0.4261782E-002  0.1273732E+03  0.7546771E-02  0.1231406E+00
         21   -1    0    0  503  502  0.00000000000E+00  0.00000000000E+00  0.34517786724E+03  0.34517786724E+03  0.00000000000E+00 0. -1.
         21   -1    0    0  504  503 -0.00000000000E+00 -0.00000000000E+00 -0.54801820346E+02  0.54801820346E+02  0.00000000000E+00 0. -1.
         25    2    1    2    0    0  0.78190655421E+01 -0.23187678597E+02  0.20518934634E+02  0.12901535919E+03  0.12500052002E+03 0.  0.
          5    1    3    3  501    0 -0.31882664777E+01  0.29016773780E+02  0.57235400986E+02  0.64249819687E+02  0.10000000000E+00 0.  1.
         -5    1    3    3    0  501  0.11007332020E+02 -0.52204452377E+02 -0.36716466352E+02  0.64765539506E+02  0.10000000000E+00 0.  1.
         21    1    1    2  504  502 -0.78190655421E+01  0.23187678597E+02  0.26985711226E+03  0.27096432839E+03  0.00000000000E+00 0. -1.
<mgrwt>
<rscale>  1 0.12737322E+03</rscale>
<asrwt>0</asrwt>
<pdfrwt beam="1">  1       21 0.53104286E-01 0.12737322E+03</pdfrwt>
<pdfrwt beam="2">  1       21 0.84310495E-02 0.12737322E+03</pdfrwt>
<totfact> 0.37226122E+05</totfact>
</mgrwt>
</event>
<event>
 6    1  0.4261782E-002  0.1260572E+03  0.7546771E-02  0.1233426E+00
         21   -1    0    0  504  502  0.00000000000E+00  0.00000000000E+00  0.18690477768E+03  0.18690477768E+03  0.00000000000E+00 0.  1.
         21   -1    0    0  502  503 -0.00000000000E+00 -0.00000000000E+00 -0.35139956375E+02  0.35139956375E+02  0.00000000000E+00 0. -1.
         25    2    1    2    0    0 -0.11425895565E+02  0.11597790597E+02  0.81942738541E+02  0.15034966395E+03  0.12500139685E+03 0.  0.
          5    1    3    3  501    0 -0.42388368458E+01  0.21553633268E+02  0.11396032470E+03  0.11605814255E+03  0.10000000000E+00 0. -1.
         -5    1    3    3    0  501 -0.71870587192E+01 -0.99558426709E+01 -0.32017586162E+02  0.34291521401E+02  0.10000000000E+00 0. -1.
         21    1    1    2  504  503  0.11425895565E+02 -0.11597790597E+02  0.69822082767E+02  0.71695070110E+02  0.00000000000E+00 0.  1.
<mgrwt>
<rscale>  1 0.12605717E+03</rscale>
<asrwt>0</asrwt>
<pdfrwt beam="1">  1       21 0.28754581E-01 0.12605717E+03</pdfrwt>
<pdfrwt beam="2">  1       21 0.54061473E-02 0.12605717E+03</pdfrwt>
<totfact> 0.27009442E+06</totfact>
</mgrwt>
</event>
<event>
 6    1  0.4261782E-002  0.1339798E+03  0.7546771E-02  0.1221667E+00
         21   -1    0    0  504  502  0.00000000000E+00  0.00000000000E+00  0.78139249516E+02  0.78139249516E+02  0.00000000000E+00 0. -1.
         21   -1    0    0  502  503 -0.00000000000E+00 -0.00000000000E+00 -0.18922182650E+03  0.18922182650E+03  0.00000000000E+00 0. -1.
         25    2    1    2    0    0  0.45013842040E+02 -0.17223429212E+02 -0.15308227133E+03  0.20343246886E+03  0.12501077993E+03 0.  0.
          5    1    3    3  501    0  0.42616618384E+02  0.10468439357E+02  0.38550740037E+01  0.44052650098E+02  0.10000000000E+00 0. -1.
         -5    1    3    3    0  501  0.23972236559E+01 -0.27691868569E+02 -0.15693734534E+03  0.15937981876E+03  0.10000000000E+00 0. -1.
         21    1    1    2  504  503 -0.45013842040E+02  0.17223429212E+02  0.41999694344E+02  0.63928607164E+02  0.00000000000E+00 0. -1.
<mgrwt>
<rscale>  1 0.13397980E+03</rscale>
<asrwt>0</asrwt>
<pdfrwt beam="1">  1       21 0.12021423E-01 0.13397980E+03</pdfrwt>
<pdfrwt beam="2">  1       21 0.29111050E-01 0.13397980E+03</pdfrwt>
<totfact> 0.66431295E+05</totfact>
</mgrwt>
</event>
<event>
 6    1  0.4261782E-002  0.1420282E+03  0.7546771E-02  0.1210626E+00
         21   -1    0    0  504  502  0.00000000000E+00  0.00000000000E+00  0.90633730304E+02  0.90633730304E+02  0.00000000000E+00 0.  1.
         21   -1    0    0  502  503 -0.00000000000E+00 -0.00000000000E+00 -0.20152900245E+03  0.20152900245E+03  0.00000000000E+00 0.  1.
         25    2    1    2    0    0  0.65378387031E+02  0.16365406618E+02 -0.15607509581E+03  0.21102472384E+03  0.12501935256E+03 0.  0.
          5    1    3    3  501    0  0.84542604673E+02 -0.27128826058E+02 -0.12813642881E+03  0.15589220506E+03  0.10000000000E+00 0. -1.
         -5    1    3    3    0  501 -0.19164217643E+02  0.43494232676E+02 -0.27938666993E+02  0.55132518782E+02  0.10000000000E+00 0. -1.
         21    1    1    2  504  503 -0.65378387031E+02 -0.16365406618E+02  0.45179823661E+02  0.81138008914E+02  0.00000000000E+00 0.  1.
<mgrwt>
<rscale>  1 0.14202816E+03</rscale>
<asrwt>0</asrwt>
<pdfrwt beam="1">  1       21 0.13943651E-01 0.14202816E+03</pdfrwt>
<pdfrwt beam="2">  1       21 0.31004462E-01 0.14202816E+03</pdfrwt>
<totfact> 0.45105828E+05</totfact>
</mgrwt>
</event>
<event>
 6    1  0.4261782E-002  0.1464842E+03  0.7546771E-02  0.1204861E+00
         21   -1    0    0  503  502  0.00000000000E+00  0.00000000000E+00  0.10597822947E+02  0.10597822947E+02  0.00000000000E+00 0. -1.
         21   -1    0    0  504  503 -0.00000000000E+00 -0.00000000000E+00 -0.12573597375E+04  0.12573597375E+04  0.00000000000E+00 0. -1.
         25    2    1    2    0    0 -0.75285816799E+02  0.12840573341E+02 -0.96387896122E+03  0.97494629817E+03  0.12499919160E+03 0.  0.
          5    1    3    3  501    0 -0.78464088038E+02 -0.27447920264E+02 -0.85100906632E+03  0.85505932098E+03  0.10000000000E+00 0.  1.
         -5    1    3    3    0  501  0.31782712384E+01  0.40288493605E+02 -0.11286989489E+03  0.11988697718E+03  0.10000000000E+00 0.  1.
         21    1    1    2  504  502  0.75285816799E+02 -0.12840573341E+02 -0.28288295338E+03  0.29301126232E+03  0.00000000000E+00 0. -1.
<mgrwt>
<rscale>  1 0.14648424E+03</rscale>
<asrwt>0</asrwt>
<pdfrwt beam="1">  1       21 0.16304347E-02 0.14648424E+03</pdfrwt>
<pdfrwt beam="2">  1       21 0.19343992E+00 0.14648424E+03</pdfrwt>
<totfact> 0.25931507E+05</totfact>
</mgrwt>
</event>
<event>
 6    1  0.4261782E-002  0.1482154E+03  0.7546771E-02  0.1202683E+00
         21   -1    0    0  503  502  0.00000000000E+00  0.00000000000E+00  0.22989073454E+03  0.22989073454E+03  0.00000000000E+00 0.  1.
         21   -1    0    0  504  503 -0.00000000000E+00 -0.00000000000E+00 -0.69011815613E+02  0.69011815613E+02  0.00000000000E+00 0.  1.
         25    2    1    2    0    0  0.26516007996E+02 -0.75093516047E+02  0.38911758995E+02  0.15323813125E+03  0.12500266017E+03 0.  0.
          5    1    3    3  501    0 -0.16585490339E+02  0.12536203264E+02  0.50772578869E+02  0.54864375027E+02  0.10000000000E+00 0. -1.
         -5    1    3    3    0  501  0.43101498336E+02 -0.87629719311E+02 -0.11860819874E+02  0.98373756223E+02  0.10000000000E+00 0. -1.
         21    1    1    2  504  502 -0.26516007996E+02  0.75093516047E+02  0.12196715993E+03  0.14566441890E+03  0.00000000000E+00 0.  1.
<mgrwt>
<rscale>  1 0.14821538E+03</rscale>
<asrwt>0</asrwt>
<pdfrwt beam="1">  1       21 0.35367805E-01 0.14821538E+03</pdfrwt>
<pdfrwt beam="2">  1       21 0.10617203E-01 0.14821538E+03</pdfrwt>
<totfact> 0.56577662E+05</totfact>
</mgrwt>
</event>
<event>
 6    1  0.4261782E-002  0.1284436E+03  0.7546771E-02  0.1229784E+00
         21   -1    0    0  504  502  0.00000000000E+00  0.00000000000E+00  0.72255839507E+02  0.72255839507E+02  0.00000000000E+00 0.  1.
         21   -1    0    0  502  503 -0.00000000000E+00 -0.00000000000E+00 -0.26734976631E+03  0.26734976631E+03  0.00000000000E+00 0.  1.
         25    2    1    2    0    0  0.43413383599E+01  0.28837944433E+02 -0.24794688667E+03  0.27924080129E+03  0.12508913717E+03 0.  0.
          5    1    3    3  501    0 -0.42230553041E+02  0.47410913276E+02 -0.70635783490E+02  0.94977040473E+02  0.10000000000E+00 0. -1.
         -5    1    3    3    0  501  0.46571891401E+02 -0.18572968843E+02 -0.17731110318E+03  0.18426376082E+03  0.10000000000E+00 0. -1.
         21    1    1    2  504  503 -0.43413383599E+01 -0.28837944433E+02  0.52852959871E+02  0.60364804522E+02  0.00000000000E+00 0.  1.
<mgrwt>
<rscale>  1 0.12844363E+03</rscale>
<asrwt>0</asrwt>
<pdfrwt beam="1">  1       21 0.11116283E-01 0.12844363E+03</pdfrwt>
<pdfrwt beam="2">  1       21 0.41130734E-01 0.12844363E+03</pdfrwt>
<totfact> 0.38717185E+05</totfact>
</mgrwt>
</event>
<event>
 6    1  0.4261782E-002  0.1745728E+03  0.7546771E-02  0.1173161E+00
         21   -1    0    0  504  502  0.00000000000E+00  0.00000000000E+00  0.19498855038E+03  0.19498855038E+03  0.00000000000E+00 0. -1.
         21   -1    0    0  502  503 -0.00000000000E+00 -0.00000000000E+00 -0.21561916338E+03  0.21561916338E+03  0.00000000000E+00 0. -1.
         25    2    1    2    0    0  0.25289158382E+02  0.11920909630E+03 -0.15196193129E+03  0.23144782613E+03  0.12500126993E+03 0.  0.
          5    1    3    3  501    0  0.28391446207E+02  0.98044755335E+02 -0.17336871354E+03  0.20118540976E+03  0.10000000000E+00 0. -1.
         -5    1    3    3    0  501 -0.31022878246E+01  0.21164340968E+02  0.21406782245E+02  0.30262416369E+02  0.10000000000E+00 0. -1.
         21    1    1    2  504  503 -0.25289158382E+02 -0.11920909630E+03  0.13133131829E+03  0.17915988763E+03  0.00000000000E+00 0. -1.
<mgrwt>
<rscale>  1 0.17457281E+03</rscale>
<asrwt>0</asrwt>
<pdfrwt beam="1">  1       21 0.29998239E-01 0.17457281E+03</pdfrwt>
<pdfrwt beam="2">  1       21 0.33172179E-01 0.17457281E+03</pdfrwt>
<totfact> 0.93912978E+04</totfact>
</mgrwt>
</event>
<event>
 6    1  0.4261782E-002  0.1273710E+03  0.7546771E-02  0.1231410E+00
         21   -1    0    0  503  502  0.00000000000E+00  0.00000000000E+00  0.14129502736E+02  0.14129502736E+02  0.00000000000E+00 0. -1.
         21   -1    0    0  504  503 -0.00000000000E+00 -0.00000000000E+00 -0.50536350975E+03  0.50536350975E+03  0.00000000000E+00 0. -1.
         25    2    1    2    0    0  0.18788222690E+02  0.15687046616E+02 -0.28951719627E+03  0.31629667275E+03  0.12499719003E+03 0.  0.
          5    1    3    3  501    0  0.63132873299E+02  0.24791678735E+02 -0.95924789001E+02  0.11748175250E+03  0.10000000000E+00 0.  1.
         -5    1    3    3    0  501 -0.44344650609E+02 -0.91046321196E+01 -0.19359240727E+03  0.19881492025E+03  0.10000000000E+00 0.  1.
         21    1    1    2  504  502 -0.18788222690E+02 -0.15687046616E+02 -0.20171681074E+03  0.20319633973E+03  0.00000000000E+00 0. -1.
<mgrwt>
<rscale>  1 0.12737103E+03</rscale>
<asrwt>0</asrwt>
<pdfrwt beam="1">  1       21 0.21737699E-02 0.12737103E+03</pdfrwt>
<pdfrwt beam="2">  1       21 0.77748225E-01 0.12737103E+03</pdfrwt>
<totfact> 0.15753776E+06</totfact>
</mgrwt>
</event>
<event>
 6    1  0.4261782E-002  0.1294997E+03  0.7546771E-02  0.1228200E+00
         21   -1    0    0  503  502  0.00000000000E+00  0.00000000000E+00  0.69498986336E+02  0.69498986336E+02  0.00000000000E+00 0. -1.
         21   -1    0    0  504  503 -0.00000000000E+00 -0.00000000000E+00 -0.96002721350E+02  0.96002721350E+02  0.00000000000E+00 0. -1.
         25    2    1    2    0    0 -0.32910545803E+02  0.77898116183E+01 -0.19417163904E+02  0.13094733488E+03  0.12500557214E+03 0.  0.
          5    1    3    3  501    0  0.14420611900E+01  0.63500353913E+02 -0.15494181223E+02  0.65379309719E+02  0.10000000000E+00 0. -1.
         -5    1    3    3    0  501 -0.34352606993E+02 -0.55710542295E+02 -0.39229826807E+01  0.65568025158E+02  0.10000000000E+00 0. -1.
         21    1    1    2  504  502  0.32910545803E+02 -0.77898116183E+01 -0.70865711104E+01  0.34554372809E+02  0.00000000000E+00 0.  1.
<mgrwt>
<rscale>  1 0.12949972E+03</rscale>
<asrwt>0</asrwt>
<pdfrwt beam="1">  1       21 0.10692152E-01 0.12949972E+03</pdfrwt>
<pdfrwt beam="2">  1       21 0.14769649E-01 0.12949972E+03</pdfrwt>
<totfact> 0.28806450E+06</totfact>
</mgrwt>
</event>
<event>
 6    1  0.4261782E-002  0.1264583E+03  0.7546771E-02  0.1232808E+00
         21   -1    0    0  503  502  0.00000000000E+00  0.00000000000E+00  0.73234991261E+02  0.73234991261E+02  0.00000000000E+00 0.  1.
         21   -1    0    0  504  503 -0.00000000000E+00 -0.00000000000E+00 -0.75865176951E+02  0.75865176951E+02  0.00000000000E+00 0.  1.
         25    2    1    2    0    0  0.39297635324E+01  0.18754722959E+02 -0.13320399751E+02  0.12715789505E+03  0.12499805819E+03 0.  0.
          5    1    3    3  501    0  0.55344309031E+02 -0.18413553435E+02  0.10737155316E+02  0.59307233931E+02  0.10000000000E+00 0. -1.
         -5    1    3    3    0  501 -0.51414545498E+02  0.37168276394E+02 -0.24057555068E+02  0.67850661123E+02  0.10000000000E+00 0. -1.
         21    1    1    2  504  502 -0.39297635324E+01 -0.18754722959E+02  0.10690214062E+02  0.21942273159E+02  0.00000000000E+00 0.  1.
<mgrwt>
<rscale>  1 0.12645828E+03</rscale>
<asrwt>0</asrwt>
<pdfrwt beam="1">  1       21 0.11266922E-01 0.12645828E+03</pdfrwt>
<pdfrwt beam="2">  1       21 0.11671566E-01 0.12645828E+03</pdfrwt>
<totfact> 0.39937554E+06</totfact>
</mgrwt>
</event>
<event>
 6    1  0.4261782E-002  0.1280868E+03  0.7546771E-02  0.1230322E+00
         21   -1    0    0  503  502  0.00000000000E+00  0.00000000000E+00  0.35805864606E+02  0.35805864606E+02  0.00000000000E+00 0. -1.
         21   -1    0    0  504  503 -0.00000000000E+00 -0.00000000000E+00 -0.17369867532E+03  0.17369867532E+03  0.00000000000E+00 0. -1.
         25    2    1    2    0    0 -0.19833883145E+02  0.19701088647E+02 -0.12404542997E+03  0.17830733223E+03  0.12499888086E+03 0.  0.
          5    1    3    3  501    0 -0.90001245114E+00  0.66250823971E+02 -0.10581989832E+03  0.12485128185E+03  0.10000000000E+00 0. -1.
         -5    1    3    3    0  501 -0.18933870694E+02 -0.46549735324E+02 -0.18225531644E+02  0.53456050377E+02  0.10000000000E+00 0. -1.
         21    1    1    2  504  502  0.19833883145E+02 -0.19701088647E+02 -0.13847380747E+02  0.31197207696E+02  0.00000000000E+00 0. -1.
<mgrwt>
<rscale>  1 0.12808683E+03</rscale>
<asrwt>0</asrwt>
<pdfrwt beam="1">  1       21 0.55085945E-02 0.12808683E+03</pdfrwt>
<pdfrwt beam="2">  1       21 0.26722873E-01 0.12808683E+03</pdfrwt>
<totfact> 0.30118259E+06</totfact>
</mgrwt>
</event>
<event>
 6    1  0.4261782E-002  0.1409964E+03  0.7546771E-02  0.1211994E+00
         21   -1    0    0  504  502  0.00000000000E+00  0.00000000000E+00  0.38091648612E+02  0.38091648612E+02  0.00000000000E+00 0.  1.
         21   -1    0    0  502  503 -0.00000000000E+00 -0.00000000000E+00 -0.34203617455E+03  0.34203617455E+03  0.00000000000E+00 0.  1.
         25    2    1    2    0    0  0.29401752673E+02  0.58231594030E+02 -0.27442291014E+03  0.30852539721E+03  0.12499842202E+03 0.  0.
          5    1    3    3  501    0  0.60128833375E+02  0.33532573504E+02 -0.62557983483E+02  0.93023767857E+02  0.10000000000E+00 0.  1.
         -5    1    3    3    0  501 -0.30727080702E+02  0.24699020525E+02 -0.21186492666E+03  0.21550162935E+03  0.10000000000E+00 0.  1.
         21    1    1    2  504  503 -0.29401752673E+02 -0.58231594030E+02 -0.29521615795E+02  0.71602425955E+02  0.00000000000E+00 0.  1.
<mgrwt>
<rscale>  1 0.14099641E+03</rscale>
<asrwt>0</asrwt>
<pdfrwt beam="1">  1       21 0.58602537E-02 0.14099641E+03</pdfrwt>
<pdfrwt beam="2">  1       21 0.52620949E-01 0.14099641E+03</pdfrwt>
<totfact> 0.70654278E+05</totfact>
</mgrwt>
</event>
<event>
 6    1  0.4261782E-002  0.1259619E+03  0.7546771E-02  0.1233574E+00
         21   -1    0    0  503  502  0.00000000000E+00  0.00000000000E+00  0.39746452859E+03  0.39746452859E+03  0.00000000000E+00 0. -1.
         21   -1    0    0  504  503 -0.00000000000E+00 -0.00000000000E+00 -0.12992282223E+02  0.12992282223E+02  0.00000000000E+00 0. -1.
         25    2    1    2    0    0  0.15560477135E+02  0.10254686305E+00  0.31474816559E+03  0.33901742108E+03  0.12499706033E+03 0.  0.
          5    1    3    3  501    0  0.42710347183E+02  0.45930196830E+02  0.23417649315E+03  0.24243018929E+03  0.10000000000E+00 0.  1.
         -5    1    3    3    0  501 -0.27149870047E+02 -0.45827649967E+02  0.80571672441E+02  0.96587231791E+02  0.10000000000E+00 0.  1.
         21    1    1    2  504  502 -0.15560477135E+02 -0.10254686305E+00  0.69724080782E+02  0.71439389733E+02  0.00000000000E+00 0. -1.
<mgrwt>
<rscale>  1 0.12596192E+03</rscale>
<asrwt>0</asrwt>
<pdfrwt beam="1">  1       21 0.61148380E-01 0.12596192E+03</pdfrwt>
<pdfrwt beam="2">  1       21 0.19988130E-02 0.12596192E+03</pdfrwt>
<totfact> 0.30402276E+06</totfact>
</mgrwt>
</event>
<event>
 6    1  0.4261782E-002  0.1422415E+03  0.7546771E-02  0.1210344E+00
         21   -1    0    0  503  502  0.00000000000E+00  0.00000000000E+00  0.26015455086E+03  0.26015455086E+03  0.00000000000E+00 0.  1.
         21   -1    0    0  504  503 -0.00000000000E+00 -0.00000000000E+00 -0.81280186144E+02  0.81280186144E+02  0.00000000000E+00 0. -1.
         25    2    1    2    0    0 -0.59351060884E+02 -0.32960925835E+02 -0.81449077397E+01  0.14247449140E+03  0.12499468036E+03 0.  0.
          5    1    3    3  501    0 -0.62522971983E+01 -0.22318145894E+02  0.54763978197E+02  0.59466748392E+02  0.10000000000E+00 0.  1.
         -5    1    3    3    0  501 -0.53098763686E+02 -0.10642779941E+02 -0.62908885937E+02  0.83007743010E+02  0.10000000000E+00 0.  1.
         21    1    1    2  504  502  0.59351060884E+02  0.32960925835E+02  0.18701927246E+03  0.19896024560E+03  0.00000000000E+00 0.  1.
<mgrwt>
<rscale>  1 0.14224149E+03</rscale>
<asrwt>0</asrwt>
<pdfrwt beam="1">  1       21 0.40023777E-01 0.14224149E+03</pdfrwt>
<pdfrwt beam="2">  1       21 0.12504644E-01 0.14224149E+03</pdfrwt>
<totfact> 0.33130371E+05</totfact>
</mgrwt>
</event>
<event>
 6    1  0.4261782E-002  0.1260501E+03  0.7546771E-02  0.1233437E+00
         21   -1    0    0  504  502  0.00000000000E+00  0.00000000000E+00  0.17134033889E+03  0.17134033889E+03  0.00000000000E+00 0. -1.
         21   -1    0    0  502  503 -0.00000000000E+00 -0.00000000000E+00 -0.42103871993E+02  0.42103871993E+02  0.00000000000E+00 0. -1.
         25    2    1    2    0    0 -0.86474201122E+01 -0.13757260813E+02  0.55132891899E+02  0.13757999055E+03  0.12499831171E+03 0.  0.
          5    1    3    3  501    0  0.21803355153E+02  0.50447884041E+02  0.22514132004E+02  0.59390836330E+02  0.10000000000E+00 0. -1.
         -5    1    3    3    0  501 -0.30450775265E+02 -0.64205144854E+02  0.32618759895E+02  0.78189154216E+02  0.10000000000E+00 0. -1.
         21    1    1    2  504  503  0.86474201122E+01  0.13757260813E+02  0.74103574996E+02  0.75864220334E+02  0.00000000000E+00 0.  1.
<mgrwt>
<rscale>  1 0.12605006E+03</rscale>
<asrwt>0</asrwt>
<pdfrwt beam="1">  1       21 0.26360052E-01 0.12605006E+03</pdfrwt>
<pdfrwt beam="2">  1       21 0.64775189E-02 0.12605006E+03</pdfrwt>
<totfact> 0.23475899E+06</totfact>
</mgrwt>
</event>
<event>
 6    1  0.4261782E-002  0.1503980E+03  0.7546771E-02  0.1199985E+00
         21   -1    0    0  504  502  0.00000000000E+00  0.00000000000E+00  0.41593796337E+02  0.41593796337E+02  0.00000000000E+00 0.  1.
         21   -1    0    0  502  503 -0.00000000000E+00 -0.00000000000E+00 -0.43277816725E+03  0.43277816725E+03  0.00000000000E+00 0. -1.
         25    2    1    2    0    0 -0.79969238466E+02  0.24502747516E+02 -0.35041243298E+03  0.38132458501E+03  0.12499640879E+03 0.  0.
          5    1    3    3  501    0 -0.22267050689E+02 -0.50828351766E+02 -0.12671609521E+03  0.13833409441E+03  0.10000000000E+00 0. -1.
         -5    1    3    3    0  501 -0.57702187777E+02  0.75331099281E+02 -0.22369633777E+03  0.24299049060E+03  0.10000000000E+00 0. -1.
         21    1    1    2  504  503  0.79969238466E+02 -0.24502747516E+02 -0.40771937931E+02  0.93047378573E+02  0.00000000000E+00 0.  1.
<mgrwt>
<rscale>  1 0.15039803E+03</rscale>
<asrwt>0</asrwt>
<pdfrwt beam="1">  1       21 0.63990456E-02 0.15039803E+03</pdfrwt>
<pdfrwt beam="2">  1       21 0.66581256E-01 0.15039803E+03</pdfrwt>
<totfact> 0.36845367E+05</totfact>
</mgrwt>
</event>
<event>
 6    1  0.4261782E-002  0.1260345E+03  0.7546771E-02  0.1233461E+00
         21   -1    0    0  503  502  0.00000000000E+00  0.00000000000E+00  0.67086855593E+03  0.67086855593E+03  0.00000000000E+00 0.  1.
         21   -1    0    0  504  503 -0.00000000000E+00 -0.00000000000E+00 -0.75288600072E+01  0.75288600072E+01  0.00000000000E+00 0.  1.
         25    2    1    2    0    0 -0.14946852765E+01  0.16030725711E+02  0.58652769882E+03  0.59991620067E+03  0.12500195235E+03 0.  0.
          5    1    3    3  501    0  0.17807398265E+01  0.19410493934E+02  0.59221366686E+03  0.59253436653E+03  0.10000000000E+00 0.  1.
         -5    1    3    3    0  501 -0.32754251031E+01 -0.33797682225E+01 -0.56859680324E+01  0.73818341426E+01  0.10000000000E+00 0.  1.
         21    1    1    2  504  502  0.14946852765E+01 -0.16030725711E+02  0.76811997099E+02  0.78481215263E+02  0.00000000000E+00 0.  1.
<mgrwt>
<rscale>  1 0.12603454E+03</rscale>
<asrwt>0</asrwt>
<pdfrwt beam="1">  1       21 0.10321050E+00 0.12603454E+03</pdfrwt>
<pdfrwt beam="2">  1       21 0.11582867E-02 0.12603454E+03</pdfrwt>
<totfact> 0.22567456E+06</totfact>
</mgrwt>
</event>
<event>
 6    1  0.4261782E-002  0.1303510E+03  0.7546771E-02  0.1226936E+00
         21   -1    0    0  503  502  0.00000000000E+00  0.00000000000E+00  0.96772477595E+02  0.96772477595E+02  0.00000000000E+00 0. -1.
         21   -1    0    0  504  503 -0.00000000000E+00 -0.00000000000E+00 -0.24041756695E+04  0.24041756695E+04  0.00000000000E+00 0. -1.
         25    2    1    2    0    0 -0.34246244199E+02 -0.13929722959E+02 -0.23988093193E+04  0.24023483369E+04  0.12499815713E+03 0.  0.
          5    1    3    3  501    0 -0.80078868980E+02  0.32535970943E+01 -0.16453275505E+04  0.16472783521E+04  0.10000000000E+00 0.  1.
         -5    1    3    3    0  501  0.45832624781E+02 -0.17183320053E+02 -0.75348176883E+03  0.75506998480E+03  0.10000000000E+00 0.  1.
         21    1    1    2  504  502  0.34246244199E+02  0.13929722959E+02  0.91406127424E+02  0.98599810111E+02  0.00000000000E+00 0. -1.
<mgrwt>
<rscale>  1 0.13035099E+03</rscale>
<asrwt>0</asrwt>
<pdfrwt beam="1">  1       21 0.14888073E-01 0.13035099E+03</pdfrwt>
<pdfrwt beam="2">  1       21 0.36987318E+00 0.13035099E+03</pdfrwt>
<totfact> 0.59523020E+02</totfact>
</mgrwt>
</event>
<event>
 6    1  0.4261782E-002  0.1501888E+03  0.7546771E-02  0.1200241E+00
         21   -1    0    0  503  502  0.00000000000E+00  0.00000000000E+00  0.75453299247E+02  0.75453299247E+02  0.00000000000E+00 0.  1.
         21   -1    0    0  504  503 -0.00000000000E+00 -0.00000000000E+00 -0.22515765519E+03  0.22515765519E+03  0.00000000000E+00 0.  1.
         25    2    1    2    0    0 -0.81744346340E+02  0.15764933968E+02 -0.15671851292E+03  0.21706533996E+03  0.12500399281E+03 0.  0.
          5    1    3    3  501    0 -0.10721366736E+03  0.42196835949E+01 -0.15569059827E+03  0.18908238572E+03  0.10000000000E+00 0.  1.
         -5    1    3    3    0  501  0.25469321021E+02  0.11545250373E+02 -0.10279146491E+01  0.27982954240E+02  0.10000000000E+00 0.  1.
         21    1    1    2  504  502  0.81744346340E+02 -0.15764933968E+02  0.70141569731E+01  0.83545614484E+02  0.00000000000E+00 0.  1.
<mgrwt>
<rscale>  1 0.15018878E+03</rscale>
<asrwt>0</asrwt>
<pdfrwt beam="1">  1       21 0.11608200E-01 0.15018878E+03</pdfrwt>
<pdfrwt beam="2">  1       21 0.34639639E-01 0.15018878E+03</pdfrwt>
<totfact> 0.50334655E+05</totfact>
</mgrwt>
</event>
<event>
 6    1  0.4261782E-002  0.1280724E+03  0.7546771E-02  0.1230344E+00
         21   -1    0    0  504  502  0.00000000000E+00  0.00000000000E+00  0.11507475262E+03  0.11507475262E+03  0.00000000000E+00 0.  1.
         21   -1    0    0  502  503 -0.00000000000E+00 -0.00000000000E+00 -0.61873000236E+02  0.61873000236E+02  0.00000000000E+00 0.  1.
         25    2    1    2    0    0 -0.26858861004E+02 -0.75376977960E+01  0.14002746801E+02  0.12883561986E+03  0.12499729887E+03 0.  0.
          5    1    3    3  501    0  0.28004845844E+02  0.43784564869E+02  0.13532466808E+02  0.53707515018E+02  0.10000000000E+00 0.  1.
         -5    1    3    3    0  501 -0.54863706848E+02 -0.51322262665E+02  0.47027999306E+00  0.75128104844E+02  0.10000000000E+00 0.  1.
         21    1    1    2  504  503  0.26858861004E+02  0.75376977960E+01  0.39199005584E+02  0.48112132995E+02  0.00000000000E+00 0.  1.
<mgrwt>
<rscale>  1 0.12807240E+03</rscale>
<asrwt>0</asrwt>
<pdfrwt beam="1">  1       21 0.17703808E-01 0.12807240E+03</pdfrwt>
<pdfrwt beam="2">  1       21 0.95189231E-02 0.12807240E+03</pdfrwt>
<totfact> 0.25405388E+06</totfact>
</mgrwt>
</event>
<event>
 6    1  0.4261782E-002  0.1267918E+03  0.7546771E-02  0.1232295E+00
         21   -1    0    0  504  502  0.00000000000E+00  0.00000000000E+00  0.40773472892E+03  0.40773472892E+03  0.00000000000E+00 0.  1.
         21   -1    0    0  502  503 -0.00000000000E+00 -0.00000000000E+00 -0.63549166705E+02  0.63549166705E+02  0.00000000000E+00 0. -1.
         25    2    1    2    0    0 -0.20996874765E+02  0.32536335867E+01  0.34984301171E+00  0.12679230403E+03  0.12499884435E+03 0.  0.
          5    1    3    3  501    0 -0.35107003872E+01 -0.18974011764E+02  0.58786081121E+02  0.61872057289E+02  0.10000000000E+00 0. -1.
         -5    1    3    3    0  501 -0.17486174377E+02  0.22227645350E+02 -0.58436238110E+02  0.64920246738E+02  0.10000000000E+00 0. -1.
         21    1    1    2  504  503  0.20996874765E+02 -0.32536335867E+01  0.34383571920E+03  0.34449159160E+03  0.00000000000E+00 0.  1.
<mgrwt>
<rscale>  1 0.12679182E+03</rscale>
<asrwt>0</asrwt>
<pdfrwt beam="1">  1       21 0.62728418E-01 0.12679182E+03</pdfrwt>
<pdfrwt beam="2">  1       21 0.97767951E-02 0.12679182E+03</pdfrwt>
<totfact> 0.20257265E+05</totfact>
</mgrwt>
</event>
<event>
 6    1  0.4261782E-002  0.1282697E+03  0.7546771E-02  0.1230046E+00
         21   -1    0    0  503  502  0.00000000000E+00  0.00000000000E+00  0.26367641091E+02  0.26367641091E+02  0.00000000000E+00 0. -1.
         21   -1    0    0  504  503 -0.00000000000E+00 -0.00000000000E+00 -0.14729382223E+04  0.14729382223E+04  0.00000000000E+00 0. -1.
         25    2    1    2    0    0 -0.23068161418E+02 -0.17135417828E+02 -0.14613659950E+04  0.14669845564E+04  0.12500941894E+03 0.  0.
          5    1    3    3  501    0 -0.42801361678E+02 -0.40848956783E+02 -0.33422846907E+03  0.33942491565E+03  0.10000000000E+00 0. -1.
         -5    1    3    3    0  501  0.19733200260E+02  0.23713538955E+02 -0.11271375259E+04  0.11275596408E+04  0.10000000000E+00 0. -1.
         21    1    1    2  504  502  0.23068161418E+02  0.17135417828E+02  0.14795413787E+02  0.32321306973E+02  0.00000000000E+00 0. -1.
<mgrwt>
<rscale>  1 0.12826971E+03</rscale>
<asrwt>0</asrwt>
<pdfrwt beam="1">  1       21 0.40565589E-02 0.12826971E+03</pdfrwt>
<pdfrwt beam="2">  1       21 0.22660595E+00 0.12826971E+03</pdfrwt>
<totfact> 0.37041366E+04</totfact>
</mgrwt>
</event>
<event>
 6    1  0.4261782E-002  0.1587914E+03  0.7546771E-02  0.1190068E+00
         21   -1    0    0  504  502  0.00000000000E+00  0.00000000000E+00  0.10314926174E+04  0.10314926174E+04  0.00000000000E+00 0.  1.
         21   -1    0    0  502  503 -0.00000000000E+00 -0.00000000000E+00 -0.58437281883E+02  0.58437281883E+02  0.00000000000E+00 0. -1.
         25    2    1    2    0    0 -0.20119658602E+01  0.97900847792E+02  0.57085574350E+02  0.16874087016E+03  0.12500437776E+03 0.  0.
          5    1    3    3  501    0  0.52987438910E+02  0.26210005903E+02  0.51176689910E+02  0.78190131614E+02  0.10000000000E+00 0. -1.
         -5    1    3    3    0  501 -0.54999404770E+02  0.71690841890E+02  0.59088844406E+01  0.90550738546E+02  0.10000000000E+00 0. -1.
         21    1    1    2  504  503  0.20119658602E+01 -0.97900847792E+02  0.91596976116E+03  0.92118902912E+03  0.00000000000E+00 0.  1.
<mgrwt>
<rscale>  1 0.15879143E+03</rscale>
<asrwt>0</asrwt>
<pdfrwt beam="1">  1       21 0.15869116E+00 0.15879143E+03</pdfrwt>
<pdfrwt beam="2">  1       21 0.89903518E-02 0.15879143E+03</pdfrwt>
<totfact> 0.25780274E+04</totfact>
</mgrwt>
</event>
<event>
 6    1  0.4261782E-002  0.1266903E+03  0.7546771E-02  0.1232451E+00
         21   -1    0    0  503  502  0.00000000000E+00  0.00000000000E+00  0.54402389470E+02  0.54402389470E+02  0.00000000000E+00 0. -1.
         21   -1    0    0  504  503 -0.00000000000E+00 -0.00000000000E+00 -0.41979593474E+03  0.41979593474E+03  0.00000000000E+00 0. -1.
         25    2    1    2    0    0  0.10958753422E+02 -0.17485657345E+02 -0.40780611699E+03  0.42703193014E+03  0.12499839126E+03 0.  0.
          5    1    3    3  501    0  0.52858412662E+02  0.25027912933E+02 -0.27904510927E+03  0.28510803430E+03  0.10000000000E+00 0.  1.
         -5    1    3    3    0  501 -0.41899659240E+02 -0.42513570278E+02 -0.12876100771E+03  0.14192389584E+03  0.10000000000E+00 0.  1.
         21    1    1    2  504  502 -0.10958753422E+02  0.17485657345E+02  0.42412571720E+02  0.47166394067E+02  0.00000000000E+00 0. -1.
<mgrwt>
<rscale>  1 0.12669033E+03</rscale>
<asrwt>0</asrwt>
<pdfrwt beam="1">  1       21 0.83695982E-02 0.12669033E+03</pdfrwt>
<pdfrwt beam="2">  1       21 0.64583992E-01 0.12669033E+03</pdfrwt>
<totfact> 0.24927611E+05</totfact>
</mgrwt>
</event>
<event>
 6    1  0.4261782E-002  0.1260329E+03  0.7546771E-02  0.1233464E+00
         21   -1    0    0  503  502  0.00000000000E+00  0.00000000000E+00  0.39643617659E+03  0.39643617659E+03  0.00000000000E+00 0. -1.
         21   -1    0    0  504  503 -0.00000000000E+00 -0.00000000000E+00 -0.13419793794E+02  0.13419793794E+02  0.00000000000E+00 0. -1.
         25    2    1    2    0    0  0.22630773294E+00  0.16137083232E+02  0.36229772034E+03  0.38359345633E+03  0.12499537954E+03 0.  0.
          5    1    3    3  501    0 -0.46736338783E+02 -0.32240714427E+02  0.19853216823E+03  0.20649159995E+03  0.10000000000E+00 0.  1.
         -5    1    3    3    0  501  0.46962646516E+02  0.48377797659E+02  0.16376555211E+03  0.17710185638E+03  0.10000000000E+00 0.  1.
         21    1    1    2  504  502 -0.22630773294E+00 -0.16137083232E+02  0.20718662459E+02  0.26262514056E+02  0.00000000000E+00 0. -1.
<mgrwt>
<rscale>  1 0.12603294E+03</rscale>
<asrwt>0</asrwt>
<pdfrwt beam="1">  1       21 0.60990172E-01 0.12603294E+03</pdfrwt>
<pdfrwt beam="2">  1       21 0.20645840E-02 0.12603294E+03</pdfrwt>
<totfact> 0.29014736E+06</totfact>
</mgrwt>
</event>
<event>
 6    1  0.4261782E-002  0.1268466E+03  0.7546771E-02  0.1232211E+00
         21   -1    0    0  503  502  0.00000000000E+00  0.00000000000E+00  0.72033277047E+03  0.72033277047E+03  0.00000000000E+00 0. -1.
         21   -1    0    0  504  503 -0.00000000000E+00 -0.00000000000E+00 -0.15471317456E+02  0.15471317456E+02  0.00000000000E+00 0.  1.
         25    2    1    2    0    0 -0.12178137215E+02 -0.17796294768E+02  0.24913817042E+03  0.27957089598E+03  0.12500017115E+03 0.  0.
          5    1    3    3  501    0 -0.16811308274E+01  0.26983625734E+02  0.22686039499E+03  0.22846573282E+03  0.10000000000E+00 0.  1.
         -5    1    3    3    0  501 -0.10497006387E+02 -0.44779920502E+02  0.22277775424E+02  0.51105163155E+02  0.10000000000E+00 0.  1.
         21    1    1    2  504  502  0.12178137215E+02  0.17796294768E+02  0.45572328259E+03  0.45623319195E+03  0.00000000000E+00 0. -1.
<mgrwt>
<rscale>  1 0.12684659E+03</rscale>
<asrwt>0</asrwt>
<pdfrwt beam="1">  1       21 0.11082040E+00 0.12684659E+03</pdfrwt>
<pdfrwt beam="2">  1       21 0.23802033E-02 0.12684659E+03</pdfrwt>
<totfact> 0.60102832E+05</totfact>
</mgrwt>
</event>
<event>
 6    1  0.4261782E-002  0.1683262E+03  0.7546771E-02  0.1179605E+00
         21   -1    0    0  503  502  0.00000000000E+00  0.00000000000E+00  0.92257206961E+03  0.92257206961E+03  0.00000000000E+00 0.  1.
         21   -1    0    0  504  503 -0.00000000000E+00 -0.00000000000E+00 -0.25630443113E+02  0.25630443113E+02  0.00000000000E+00 0.  1.
         25    2    1    2    0    0  0.84247296473E+02  0.74892300578E+02  0.33322849360E+03  0.37332951818E+03  0.12500894589E+03 0.  0.
          5    1    3    3  501    0  0.39396761251E+02  0.10529196441E+03  0.24866341927E+03  0.27289560027E+03  0.10000000000E+00 0.  1.
         -5    1    3    3    0  501  0.44850535222E+02 -0.30399663829E+02  0.84565074333E+02  0.10043391791E+03  0.10000000000E+00 0.  1.
         21    1    1    2  504  502 -0.84247296473E+02 -0.74892300578E+02  0.56371313290E+03  0.57487299454E+03  0.00000000000E+00 0.  1.
<mgrwt>
<rscale>  1 0.16832617E+03</rscale>
<asrwt>0</asrwt>
<pdfrwt beam="1">  1       21 0.14193414E+00 0.16832617E+03</pdfrwt>
<pdfrwt beam="2">  1       21 0.39431458E-02 0.16832617E+03</pdfrwt>
<totfact> 0.14007422E+05</totfact>
</mgrwt>
</event>
<event>
 6    1  0.4261782E-002  0.1340554E+03  0.7546771E-02  0.1221559E+00
         21   -1    0    0  504  502  0.00000000000E+00  0.00000000000E+00  0.21677397313E+03  0.21677397313E+03  0.00000000000E+00 0.  1.
         21   -1    0    0  502  503 -0.00000000000E+00 -0.00000000000E+00 -0.52336161567E+02  0.52336161567E+02  0.00000000000E+00 0.  1.
         25    2    1    2    0    0 -0.40828723722E+02 -0.26033623994E+02  0.46957346110E+02  0.14204167275E+03  0.12500444066E+03 0.  0.
          5    1    3    3  501    0  0.32563324783E+02 -0.45952372385E+02  0.31179194959E+02  0.64375017259E+02  0.10000000000E+00 0. -1.
         -5    1    3    3    0  501 -0.73392048505E+02  0.19918748391E+02  0.15778151150E+02  0.77666655490E+02  0.10000000000E+00 0. -1.
         21    1    1    2  504  503  0.40828723722E+02  0.26033623994E+02  0.11748046545E+03  0.12706846195E+03  0.00000000000E+00 0.  1.
<mgrwt>
<rscale>  1 0.13405538E+03</rscale>
<asrwt>0</asrwt>
<pdfrwt beam="1">  1       21 0.33349842E-01 0.13405538E+03</pdfrwt>
<pdfrwt beam="2">  1       21 0.80517173E-02 0.13405538E+03</pdfrwt>
<totfact> 0.10289196E+06</totfact>
</mgrwt>
</event>
<event>
 6    1  0.4261782E-002  0.1271579E+03  0.7546771E-02  0.1231735E+00
         21   -1    0    0  503  502  0.00000000000E+00  0.00000000000E+00  0.22473931095E+02  0.22473931095E+02  0.00000000000E+00 0. -1.
         21   -1    0    0  504  503 -0.00000000000E+00 -0.00000000000E+00 -0.63061219120E+03  0.63061219120E+03  0.00000000000E+00 0. -1.
         25    2    1    2    0    0 -0.17145777828E+02  0.15827786737E+02 -0.61559378091E+03  0.62858956497E+03  0.12499856626E+03 0.  0.
          5    1    3    3  501    0  0.44197461797E+02 -0.31499324569E+01 -0.42847208614E+03  0.43075709664E+03  0.10000000000E+00 0. -1.
         -5    1    3    3    0  501 -0.61343239624E+02  0.18977719194E+02 -0.18712169477E+03  0.19783246833E+03  0.10000000000E+00 0. -1.
         21    1    1    2  504  502  0.17145777828E+02 -0.15827786737E+02  0.74555208027E+01  0.24496557324E+02  0.00000000000E+00 0. -1.
<mgrwt>
<rscale>  1 0.12715793E+03</rscale>
<asrwt>0</asrwt>
<pdfrwt beam="1">  1       21 0.34575280E-02 0.12715793E+03</pdfrwt>
<pdfrwt beam="2">  1       21 0.97017257E-01 0.12715793E+03</pdfrwt>
<totfact> 0.44656035E+05</totfact>
</mgrwt>
</event>
<event>
 6    1  0.4261782E-002  0.1262704E+03  0.7546771E-02  0.1233097E+00
         21   -1    0    0  504  502  0.00000000000E+00  0.00000000000E+00  0.28761267612E+03  0.28761267612E+03  0.00000000000E+00 0. -1.
         21   -1    0    0  502  503 -0.00000000000E+00 -0.00000000000E+00 -0.20577532653E+02  0.20577532653E+02  0.00000000000E+00 0. -1.
         25    2    1    2    0    0  0.13099505329E+02  0.12153090304E+02  0.18338489918E+03  0.22265274322E+03  0.12499971269E+03 0.  0.
          5    1    3    3  501    0  0.10196274784E+02 -0.32317848654E+02  0.17379341375E+03  0.17706656382E+03  0.10000000000E+00 0. -1.
         -5    1    3    3    0  501  0.29032305458E+01  0.44470938958E+02  0.95914854309E+01  0.45586179399E+02  0.10000000000E+00 0. -1.
         21    1    1    2  504  503 -0.13099505329E+02 -0.12153090304E+02  0.83650244290E+02  0.85537465555E+02  0.00000000000E+00 0. -1.
<mgrwt>
<rscale>  1 0.12627044E+03</rscale>
<asrwt>0</asrwt>
<pdfrwt beam="1">  1       21 0.44248101E-01 0.12627044E+03</pdfrwt>
<pdfrwt beam="2">  1       21 0.31657745E-02 0.12627044E+03</pdfrwt>
<totfact> 0.28149936E+06</totfact>
</mgrwt>
</event>
<event>
 6    1  0.4261782E-002  0.1259158E+03  0.7546771E-02  0.1233645E+00
         21   -1    0    0  504  502  0.00000000000E+00  0.00000000000E+00  0.77997760466E+01  0.77997760466E+01  0.00000000000E+00 0.  1.
         21   -1    0    0  502  503 -0.00000000000E+00 -0.00000000000E+00 -0.64321863245E+03  0.64321863245E+03  0.00000000000E+00 0.  1.
         25    2    1    2    0    0 -0.99395451823E+01  0.11401728483E+02 -0.58404334018E+03  0.59746247850E+03  0.12500398407E+03 0.  0.
          5    1    3    3  501    0 -0.34892378678E+02  0.61045433627E+02 -0.31875957567E+03  0.32642257909E+03  0.10000000000E+00 0.  1.
         -5    1    3    3    0  501  0.24952833496E+02 -0.49643705144E+02 -0.26528376451E+03  0.27103989941E+03  0.10000000000E+00 0.  1.
         21    1    1    2  504  503  0.99395451823E+01 -0.11401728483E+02 -0.51375516219E+02  0.53555929995E+02  0.00000000000E+00 0. -1.
<mgrwt>
<rscale>  1 0.12591581E+03</rscale>
<asrwt>0</asrwt>
<pdfrwt beam="1">  1       21 0.11999658E-02 0.12591581E+03</pdfrwt>
<pdfrwt beam="2">  1       21 0.98956691E-01 0.12591581E+03</pdfrwt>
<totfact> 0.23555863E+06</totfact>
</mgrwt>
</event>
<event>
 6    1  0.4261782E-002  0.1794714E+03  0.7546771E-02  0.1168316E+00
         21   -1    0    0  503  502  0.00000000000E+00  0.00000000000E+00  0.14075492666E+03  0.14075492666E+03  0.00000000000E+00 0. -1.
         21   -1    0    0  504  503 -0.00000000000E+00 -0.00000000000E+00 -0.31092345436E+03  0.31092345436E+03  0.00000000000E+00 0.  1.
         25    2    1    2    0    0  0.94220017599E+02  0.87797611746E+02 -0.24425620708E+03  0.30310241870E+03  0.12499659666E+03 0.  0.
          5    1    3    3  501    0  0.32438993716E+01  0.15672106956E+02 -0.15714339195E+03  0.15795630236E+03  0.10000000000E+00 0. -1.
         -5    1    3    3    0  501  0.90976118227E+02  0.72125504790E+02 -0.87112815130E+02  0.14514611634E+03  0.10000000000E+00 0. -1.
         21    1    1    2  504  502 -0.94220017599E+02 -0.87797611746E+02  0.74087679383E+02  0.14857596233E+03  0.00000000000E+00 0. -1.
<mgrwt>
<rscale>  1 0.17947139E+03</rscale>
<asrwt>0</asrwt>
<pdfrwt beam="1">  1       21 0.21654604E-01 0.17947139E+03</pdfrwt>
<pdfrwt beam="2">  1       21 0.47834378E-01 0.17947139E+03</pdfrwt>
<totfact> 0.83524775E+04</totfact>
</mgrwt>
</event>
<event>
 6    1  0.4261782E-002  0.1272883E+03  0.7546771E-02  0.1231536E+00
         21   -1    0    0  504  502  0.00000000000E+00  0.00000000000E+00  0.10114785876E+03  0.10114785876E+03  0.00000000000E+00 0.  1.
         21   -1    0    0  502  503 -0.00000000000E+00 -0.00000000000E+00 -0.13211007240E+03  0.13211007240E+03  0.00000000000E+00 0. -1.
         25    2    1    2    0    0 -0.11268991512E+02 -0.21207976616E+02 -0.98903971767E+02  0.16119649252E+03  0.12500218049E+03 0.  0.
          5    1    3    3  501    0 -0.35908337676E+01 -0.73847499555E+02 -0.61445321079E+02  0.96134721928E+02  0.10000000000E+00 0.  1.
         -5    1    3    3    0  501 -0.76781577447E+01  0.52639522939E+02 -0.37458650688E+02  0.65061770595E+02  0.10000000000E+00 0.  1.
         21    1    1    2  504  503  0.11268991512E+02  0.21207976616E+02  0.67941758119E+02  0.72061438635E+02  0.00000000000E+00 0.  1.
<mgrwt>
<rscale>  1 0.12728831E+03</rscale>
<asrwt>0</asrwt>
<pdfrwt beam="1">  1       21 0.15561209E-01 0.12728831E+03</pdfrwt>
<pdfrwt beam="2">  1       21 0.20324627E-01 0.12728831E+03</pdfrwt>
<totfact> 0.82404973E+05</totfact>
</mgrwt>
</event>
<event>
 6    1  0.4261782E-002  0.1262909E+03  0.7546771E-02  0.1233066E+00
         21   -1    0    0  504  502  0.00000000000E+00  0.00000000000E+00  0.23250868267E+03  0.23250868267E+03  0.00000000000E+00 0. -1.
         21   -1    0    0  502  503 -0.00000000000E+00 -0.00000000000E+00 -0.27656536057E+02  0.27656536057E+02  0.00000000000E+00 0. -1.
         25    2    1    2    0    0 -0.52880994165E+00  0.18012300604E+02  0.12277685248E+03  0.17613500678E+03  0.12499864997E+03 0.  0.
          5    1    3    3  501    0 -0.45084395577E+02  0.51728703356E+02  0.52763902822E+02  0.86559233572E+02  0.10000000000E+00 0. -1.
         -5    1    3    3    0  501  0.44555585635E+02 -0.33716402752E+02  0.70012949658E+02  0.89575773207E+02  0.10000000000E+00 0. -1.
         21    1    1    2  504  503  0.52880994165E+00 -0.18012300604E+02  0.82075294137E+02  0.84030211952E+02  0.00000000000E+00 0. -1.
<mgrwt>
<rscale>  1 0.12629087E+03</rscale>
<asrwt>0</asrwt>
<pdfrwt beam="1">  1       21 0.35770565E-01 0.12629087E+03</pdfrwt>
<pdfrwt beam="2">  1       21 0.42548519E-02 0.12629087E+03</pdfrwt>
<totfact> 0.26396438E+06</totfact>
</mgrwt>
</event>
<event>
 6    1  0.4261782E-002  0.1342204E+03  0.7546771E-02  0.1221324E+00
         21   -1    0    0  503  502  0.00000000000E+00  0.00000000000E+00  0.39499578367E+03  0.39499578367E+03  0.00000000000E+00 0. -1.
         21   -1    0    0  504  503 -0.00000000000E+00 -0.00000000000E+00 -0.61504850776E+02  0.61504850776E+02  0.00000000000E+00 0. -1.
         25    2    1    2    0    0 -0.34204852869E+02  0.34887691717E+02  0.15883213618E+02  0.13515691452E+03  0.12501196772E+03 0.  0.
          5    1    3    3  501    0 -0.38648699951E+01 -0.41205650795E+02 -0.19708999203E+02  0.45839911945E+02  0.10000000000E+00 0. -1.
         -5    1    3    3    0  501 -0.30339982874E+02  0.76093342512E+02  0.35592212821E+02  0.89317002575E+02  0.10000000000E+00 0. -1.
         21    1    1    2  504  502  0.34204852869E+02 -0.34887691717E+02  0.31760771928E+03  0.32134371993E+03  0.00000000000E+00 0. -1.
<mgrwt>
<rscale>  1 0.13422040E+03</rscale>
<asrwt>0</asrwt>
<pdfrwt beam="1">  1       21 0.60768581E-01 0.13422040E+03</pdfrwt>
<pdfrwt beam="2">  1       21 0.94622850E-02 0.13422040E+03</pdfrwt>
<totfact> 0.22906425E+05</totfact>
</mgrwt>
</event>
<event>
 6    1  0.4261782E-002  0.1259442E+03  0.7546771E-02  0.1233601E+00
         21   -1    0    0  504  502  0.00000000000E+00  0.00000000000E+00  0.42115344724E+03  0.42115344724E+03  0.00000000000E+00 0.  1.
         21   -1    0    0  502  503 -0.00000000000E+00 -0.00000000000E+00 -0.11870370758E+02  0.11870370758E+02  0.00000000000E+00 0.  1.
         25    2    1    2    0    0 -0.55356337322E+01  0.14343664472E+02  0.36940758592E+03  0.39028696389E+03  0.12500226277E+03 0.  0.
          5    1    3    3  501    0 -0.26226728380E+02 -0.51028388853E+02  0.16719232464E+03  0.17676261247E+03  0.10000000000E+00 0. -1.
         -5    1    3    3    0  501  0.20691094647E+02  0.65372053326E+02  0.20221526128E+03  0.21352435142E+03  0.10000000000E+00 0. -1.
         21    1    1    2  504  503  0.55356337322E+01 -0.14343664472E+02  0.39875490570E+02  0.42736854113E+02  0.00000000000E+00 0.  1.
<mgrwt>
<rscale>  1 0.12594423E+03</rscale>
<asrwt>0</asrwt>
<pdfrwt beam="1">  1       21 0.64792827E-01 0.12594423E+03</pdfrwt>
<pdfrwt beam="2">  1       21 0.18262112E-02 0.12594423E+03</pdfrwt>
<totfact> 0.31063565E+06</totfact>
</mgrwt>
</event>
<event>
 6    1  0.4261782E-002  0.1280667E+03  0.7546771E-02  0.1230353E+00
         21   -1    0    0  504  502  0.00000000000E+00  0.00000000000E+00  0.23389013761E+02  0.23389013761E+02  0.00000000000E+00 0.  1.
         21   -1    0    0  502  503 -0.00000000000E+00 -0.00000000000E+00 -0.55508777354E+03  0.55508777354E+03  0.00000000000E+00 0.  1.
         25    2    1    2    0    0 -0.27842518966E+02  0.24088680592E+00 -0.53529540643E+03  0.55040189182E+03  0.12500322593E+03 0.  0.
          5    1    3    3  501    0  0.86170336223E+01  0.51564145360E+02 -0.12791970598E+03  0.13819035977E+03  0.10000000000E+00 0. -1.
         -5    1    3    3    0  501 -0.36459552588E+02 -0.51323258554E+02 -0.40737570045E+03  0.41221153205E+03  0.10000000000E+00 0. -1.
         21    1    1    2  504  503  0.27842518966E+02 -0.24088680592E+00  0.35966466504E+01  0.28074895476E+02  0.00000000000E+00 0.  1.
<mgrwt>
<rscale>  1 0.12806666E+03</rscale>
<asrwt>0</asrwt>
<pdfrwt beam="1">  1       21 0.35983102E-02 0.12806666E+03</pdfrwt>
<pdfrwt beam="2">  1       21 0.85398110E-01 0.12806666E+03</pdfrwt>
<totfact> 0.55994813E+05</totfact>
</mgrwt>
</event>
<event>
 6    1  0.4261782E-002  0.1267610E+03  0.7546771E-02  0.1232343E+00
         21   -1    0    0  504  502  0.00000000000E+00  0.00000000000E+00  0.45856228134E+03  0.45856228134E+03  0.00000000000E+00 0.  1.
         21   -1    0    0  502  503 -0.00000000000E+00 -0.00000000000E+00 -0.44924950339E+02  0.44924950339E+02  0.00000000000E+00 0.  1.
         25    2    1    2    0    0 -0.13328718590E+02  0.16240896800E+02  0.45392237671E+02  0.13464326707E+03  0.12500773039E+03 0.  0.
          5    1    3    3  501    0 -0.18175598719E+02  0.66908353106E+02  0.47262460969E+01  0.69494082528E+02  0.10000000000E+00 0.  1.
         -5    1    3    3    0  501  0.48468801297E+01 -0.50667456306E+02  0.40665991574E+02  0.65149184540E+02  0.10000000000E+00 0.  1.
         21    1    1    2  504  503  0.13328718590E+02 -0.16240896800E+02  0.36824509333E+03  0.36884396461E+03  0.00000000000E+00 0.  1.
<mgrwt>
<rscale>  1 0.12676101E+03</rscale>
<asrwt>0</asrwt>
<pdfrwt beam="1">  1       21 0.70548040E-01 0.12676101E+03</pdfrwt>
<pdfrwt beam="2">  1       21 0.69115312E-02 0.12676101E+03</pdfrwt>
<totfact> 0.28604946E+05</totfact>
</mgrwt>
</event>
<event>
 6    1  0.4261782E-002  0.1261709E+03  0.7546771E-02  0.1233251E+00
         21   -1    0    0  504  502  0.00000000000E+00  0.00000000000E+00  0.45666856276E+03  0.45666856276E+03  0.00000000000E+00 0. -1.
         21   -1    0    0  502  503 -0.00000000000E+00 -0.00000000000E+00 -0.14706139101E+02  0.14706139101E+02  0.00000000000E+00 0. -1.
         25    2    1    2    0    0 -0.16854590782E+02  0.33724521122E+01  0.26417700178E+03  0.29276029344E+03  0.12499460181E+03 0.  0.
          5    1    3    3  501    0  0.51239072561E+02 -0.17321462305E+02  0.13176511950E+03  0.14243430883E+03  0.10000000000E+00 0.  1.
         -5    1    3    3    0  501 -0.68093663343E+02  0.20693914417E+02  0.13241188228E+03  0.15032598461E+03  0.10000000000E+00 0.  1.
         21    1    1    2  504  503  0.16854590782E+02 -0.33724521122E+01  0.17778542188E+03  0.17861440842E+03  0.00000000000E+00 0. -1.
<mgrwt>
<rscale>  1 0.12617092E+03</rscale>
<asrwt>0</asrwt>
<pdfrwt beam="1">  1       21 0.70256691E-01 0.12617092E+03</pdfrwt>
<pdfrwt beam="2">  1       21 0.22624833E-02 0.12617092E+03</pdfrwt>
<totfact> 0.18450936E+06</totfact>
</mgrwt>
</event>
<event>
 6    1  0.4261782E-002  0.1262438E+03  0.7546771E-02  0.1233138E+00
         21   -1    0    0  504  502  0.00000000000E+00  0.00000000000E+00  0.54530404682E+03  0.54530404682E+03  0.00000000000E+00 0.  1.
         21   -1    0    0  502  503 -0.00000000000E+00 -0.00000000000E+00 -0.13969933423E+02  0.13969933423E+02  0.00000000000E+00 0.  1.
         25    2    1    2    0    0  0.32060610429E+01  0.17370820765E+02  0.27796756506E+03  0.30529242174E+03  0.12500188522E+03 0.  0.
          5    1    3    3  501    0 -0.48802927366E+02 -0.37555849913E+01  0.21685484881E+03  0.22231029124E+03  0.10000000000E+00 0. -1.
         -5    1    3    3    0  501  0.52008988409E+02  0.21126405756E+02  0.61112716245E+02  0.82982130500E+02  0.10000000000E+00 0. -1.
         21    1    1    2  504  503 -0.32060610429E+01 -0.17370820765E+02  0.25336654834E+03  0.25398155850E+03  0.00000000000E+00 0.  1.
<mgrwt>
<rscale>  1 0.12624379E+03</rscale>
<asrwt>0</asrwt>
<pdfrwt beam="1">  1       21 0.83892914E-01 0.12624379E+03</pdfrwt>
<pdfrwt beam="2">  1       21 0.21492209E-02 0.12624379E+03</pdfrwt>
<totfact> 0.13533823E+06</totfact>
</mgrwt>
</event>
<event>
 6    1  0.4261782E-002  0.1455091E+03  0.7546771E-02  0.1206103E+00
         21   -1    0    0  504  502  0.00000000000E+00  0.00000000000E+00  0.15901513755E+03  0.15901513755E+03  0.00000000000E+00 0. -1.
         21   -1    0    0  502  503 -0.00000000000E+00 -0.00000000000E+00 -0.16252170850E+03  0.16252170850E+03  0.00000000000E+00 0. -1.
         25    2    1    2    0    0 -0.67394000397E+02 -0.31715946302E+02 -0.11636440198E+03  0.18631575834E+03  0.12500014087E+03 0.  0.
          5    1    3    3  501    0 -0.87799833534E+01  0.40792387034E+02 -0.65144437520E+01  0.42232155107E+02  0.10000000000E+00 0. -1.
         -5    1    3    3    0  501 -0.58614017044E+02 -0.72508333336E+02 -0.10984995823E+03  0.14408360323E+03  0.10000000000E+00 0. -1.
         21    1    1    2  504  503  0.67394000397E+02  0.31715946302E+02  0.11285783103E+03  0.13522108772E+03  0.00000000000E+00 0. -1.
<mgrwt>
<rscale>  1 0.14550906E+03</rscale>
<asrwt>0</asrwt>
<pdfrwt beam="1">  1       21 0.24463867E-01 0.14550906E+03</pdfrwt>
<pdfrwt beam="2">  1       21 0.25003340E-01 0.14550906E+03</pdfrwt>
<totfact> 0.24186529E+05</totfact>
</mgrwt>
</event>
<event>
 6    1  0.4261782E-002  0.1301410E+03  0.7546771E-02  0.1227247E+00
         21   -1    0    0  503  502  0.00000000000E+00  0.00000000000E+00  0.20865427477E+04  0.20865427477E+04  0.00000000000E+00 0.  1.
         21   -1    0    0  504  503 -0.00000000000E+00 -0.00000000000E+00 -0.54035843511E+01  0.54035843511E+01  0.00000000000E+00 0.  1.
         25    2    1    2    0    0 -0.13576120122E+02 -0.33572028542E+02  0.81796863074E+03  0.82825681853E+03  0.12500113769E+03 0.  0.
          5    1    3    3  501    0  0.37495772387E+02 -0.37253309093E+02  0.16445522261E+03  0.17274047652E+03  0.10000000000E+00 0.  1.
         -5    1    3    3    0  501 -0.51071892509E+02  0.36812805507E+01  0.65351340813E+03  0.65551634201E+03  0.10000000000E+00 0.  1.
         21    1    1    2  504  502  0.13576120122E+02  0.33572028542E+02  0.12631705326E+04  0.12636895135E+04  0.00000000000E+00 0.  1.
<mgrwt>
<rscale>  1 0.13014099E+03</rscale>
<asrwt>0</asrwt>
<pdfrwt beam="1">  1       21 0.32100594E+00 0.13014099E+03</pdfrwt>
<pdfrwt beam="2">  1       21 0.83132233E-03 0.13014099E+03</pdfrwt>
<totfact> 0.13783126E+05</totfact>
</mgrwt>
</event>
<event>
 6    1  0.4261782E-002  0.1281786E+03  0.7546771E-02  0.1230184E+00
         21   -1    0    0  503  502  0.00000000000E+00  0.00000000000E+00  0.26820834504E+02  0.26820834504E+02  0.00000000000E+00 0. -1.
         21   -1    0    0  504  503 -0.00000000000E+00 -0.00000000000E+00 -0.77184309352E+03  0.77184309352E+03  0.00000000000E+00 0.  1.
         25    2    1    2    0    0  0.25753003946E+02  0.11907812544E+02 -0.75706638240E+03  0.76784065564E+03  0.12499900758E+03 0.  0.
          5    1    3    3  501    0 -0.26289369449E+02  0.32667234034E+01 -0.62593331362E+03  0.62649367556E+03  0.10000000000E+00 0. -1.
         -5    1    3    3    0  501  0.52042373396E+02  0.86410891408E+01 -0.13113306878E+03  0.14134698008E+03  0.10000000000E+00 0. -1.
         21    1    1    2  504  502 -0.25753003946E+02 -0.11907812544E+02  0.12044123383E+02  0.30823272375E+02  0.00000000000E+00 0. -1.
<mgrwt>
<rscale>  1 0.12817865E+03</rscale>
<asrwt>0</asrwt>
<pdfrwt beam="1">  1       21 0.41262821E-02 0.12817865E+03</pdfrwt>
<pdfrwt beam="2">  1       21 0.11874509E+00 0.12817865E+03</pdfrwt>
<totfact> 0.20608975E+05</totfact>
</mgrwt>
</event>
<event>
 6    1  0.4261782E-002  0.1266022E+03  0.7546771E-02  0.1232586E+00
         21   -1    0    0  503  502  0.00000000000E+00  0.00000000000E+00  0.13878026553E+03  0.13878026553E+03  0.00000000000E+00 0.  1.
         21   -1    0    0  504  503 -0.00000000000E+00 -0.00000000000E+00 -0.14571027830E+04  0.14571027830E+04  0.00000000000E+00 0. -1.
         25    2    1    2    0    0  0.10563998853E+02 -0.17049206176E+02 -0.14536120742E+04  0.14591148589E+04  0.12500334216E+03 0.  0.
          5    1    3    3  501    0  0.33894882596E+02 -0.22448391463E+02 -0.13976871279E+04  0.13982782666E+04  0.10000000000E+00 0.  1.
         -5    1    3    3    0  501 -0.23330883743E+02  0.53991852867E+01 -0.55924946303E+02  0.60836592253E+02  0.10000000000E+00 0.  1.
         21    1    1    2  504  502 -0.10563998853E+02  0.17049206176E+02  0.13528955682E+03  0.13676818960E+03  0.00000000000E+00 0.  1.
<mgrwt>
<rscale>  1 0.12660217E+03</rscale>
<asrwt>0</asrwt>
<pdfrwt beam="1">  1       21 0.21350810E-01 0.12660217E+03</pdfrwt>
<pdfrwt beam="2">  1       21 0.22416966E+00 0.12660217E+03</pdfrwt>
<totfact> 0.21087630E+03</totfact>
</mgrwt>
</event>
<event>
 6    1  0.4261782E-002  0.1263086E+03  0.7546771E-02  0.1233038E+00
         21   -1    0    0  504  502  0.00000000000E+00  0.00000000000E+00  0.12874165918E+03  0.12874165918E+03  0.00000000000E+00 0.  1.
         21   -1    0    0  502  503 -0.00000000000E+00 -0.00000000000E+00 -0.18919994233E+03  0.18919994233E+03  0.00000000000E+00 0. -1.
         25    2    1    2    0    0  0.87891343974E-01  0.18126925377E+02 -0.16727020253E+03  0.20960241531E+03  0.12500103480E+03 0.  0.
          5    1    3    3  501    0  0.61964233765E+02  0.20879258506E+01 -0.74162275138E+02  0.96664257894E+02  0.10000000000E+00 0. -1.
         -5    1    3    3    0  501 -0.61876342421E+02  0.16038999527E+02 -0.93107927387E+02  0.11293815741E+03  0.10000000000E+00 0. -1.
         21    1    1    2  504  503 -0.87891343974E-01 -0.18126925377E+02  0.10681191937E+03  0.10833918621E+03  0.00000000000E+00 0.  1.
<mgrwt>
<rscale>  1 0.12630856E+03</rscale>
<asrwt>0</asrwt>
<pdfrwt beam="1">  1       21 0.19806409E-01 0.12630856E+03</pdfrwt>
<pdfrwt beam="2">  1       21 0.29107684E-01 0.12630856E+03</pdfrwt>
<totfact> 0.26961028E+05</totfact>
</mgrwt>
</event>
<event>
 6    1  0.4261782E-002  0.1291251E+03  0.7546771E-02  0.1228760E+00
         21   -1    0    0  504  502  0.00000000000E+00  0.00000000000E+00  0.14191683522E+03  0.14191683522E+03  0.00000000000E+00 0. -1.
         21   -1    0    0  502  503 -0.00000000000E+00 -0.00000000000E+00 -0.56623879845E+02  0.56623879845E+02  0.00000000000E+00 0. -1.
         25    2    1    2    0    0  0.24551315333E+02 -0.21317699913E+02  0.27187072114E+02  0.13195614415E+03  0.12496429760E+03 0.  0.
          5    1    3    3  501    0  0.67498910844E+02  0.18929001100E+02  0.11465903411E+02  0.71034407077E+02  0.10000000000E+00 0. -1.
         -5    1    3    3    0  501 -0.42947595511E+02 -0.40246701014E+02  0.15721168703E+02  0.60921737073E+02  0.10000000000E+00 0. -1.
         21    1    1    2  504  503 -0.24551315333E+02  0.21317699913E+02  0.58105883256E+02  0.66584570909E+02  0.00000000000E+00 0.  1.
<mgrwt>
<rscale>  1 0.12912508E+03</rscale>
<asrwt>0</asrwt>
<pdfrwt beam="1">  1       21 0.21833359E-01 0.12912508E+03</pdfrwt>
<pdfrwt beam="2">  1       21 0.87113662E-02 0.12912508E+03</pdfrwt>
<totfact> 0.20132718E+06</totfact>
</mgrwt>
</event>
<event>
 6    1  0.4261782E-002  0.1641850E+03  0.7546771E-02  0.1184051E+00
         21   -1    0    0  503  502  0.00000000000E+00  0.00000000000E+00  0.59303519717E+02  0.59303519717E+02  0.00000000000E+00 0.  1.
         21   -1    0    0  504  503 -0.00000000000E+00 -0.00000000000E+00 -0.10510181577E+04  0.10510181577E+04  0.00000000000E+00 0.  1.
         25    2    1    2    0    0  0.10102729654E+03 -0.33535978974E+02 -0.99034743222E+03  0.10038648985E+04  0.12500208526E+03 0.  0.
          5    1    3    3  501    0  0.52323381299E+02 -0.75188372618E+02 -0.41674761055E+03  0.42669615479E+03  0.10000000000E+00 0. -1.
         -5    1    3    3    0  501  0.48703915245E+02  0.41652393644E+02 -0.57359982167E+03  0.57716874367E+03  0.10000000000E+00 0. -1.
         21    1    1    2  504  502 -0.10102729654E+03  0.33535978974E+02 -0.13672057539E+01  0.10645677895E+03  0.00000000000E+00 0.  1.
<mgrwt>
<rscale>  1 0.16418495E+03</rscale>
<asrwt>0</asrwt>
<pdfrwt beam="1">  1       21 0.91236194E-02 0.16418495E+03</pdfrwt>
<pdfrwt beam="2">  1       21 0.16169508E+00 0.16418495E+03</pdfrwt>
<totfact> 0.23800377E+04</totfact>
</mgrwt>
</event>
<event>
 6    1  0.4261782E-002  0.1262592E+03  0.7546771E-02  0.1233114E+00
         21   -1    0    0  504  502  0.00000000000E+00  0.00000000000E+00  0.79240223358E+02  0.79240223358E+02  0.00000000000E+00 0. -1.
         21   -1    0    0  502  503 -0.00000000000E+00 -0.00000000000E+00 -0.93106499886E+02  0.93106499886E+02  0.00000000000E+00 0. -1.
         25    2    1    2    0    0 -0.43825896703E+01 -0.17251175810E+02 -0.47009323053E+02  0.13472662633E+03  0.12499830890E+03 0.  0.
          5    1    3    3  501    0  0.11164144616E+02 -0.16623604559E+01 -0.87720397229E+02  0.88443652442E+02  0.10000000000E+00 0.  1.
         -5    1    3    3    0  501 -0.15546734287E+02 -0.15588815354E+02  0.40711074176E+02  0.46282973885E+02  0.10000000000E+00 0.  1.
         21    1    1    2  504  503  0.43825896703E+01  0.17251175810E+02  0.33143046525E+02  0.37620096917E+02  0.00000000000E+00 0. -1.
<mgrwt>
<rscale>  1 0.12625921E+03</rscale>
<asrwt>0</asrwt>
<pdfrwt beam="1">  1       21 0.12190804E-01 0.12625921E+03</pdfrwt>
<pdfrwt beam="2">  1       21 0.14324077E-01 0.12625921E+03</pdfrwt>
<totfact> 0.24125236E+06</totfact>
</mgrwt>
</event>
<event>
 6    1  0.4261782E-002  0.1266423E+03  0.7546771E-02  0.1232525E+00
         21   -1    0    0  503  502  0.00000000000E+00  0.00000000000E+00  0.11723110074E+03  0.11723110074E+03  0.00000000000E+00 0.  1.
         21   -1    0    0  504  503 -0.00000000000E+00 -0.00000000000E+00 -0.49249283314E+02  0.49249283314E+02  0.00000000000E+00 0.  1.
         25    2    1    2    0    0  0.15634327864E+02 -0.12977206827E+02  0.41848161252E+02  0.13337739190E+03  0.12500167984E+03 0.  0.
          5    1    3    3  501    0  0.34038111368E+02 -0.23025128677E+02 -0.34839155443E+02  0.53875099333E+02  0.10000000000E+00 0.  1.
         -5    1    3    3    0  501 -0.18403783504E+02  0.10047921850E+02  0.76687316695E+02  0.79502292562E+02  0.10000000000E+00 0.  1.
         21    1    1    2  504  502 -0.15634327864E+02  0.12977206827E+02  0.26133656169E+02  0.33102992155E+02  0.00000000000E+00 0.  1.
<mgrwt>
<rscale>  1 0.12664225E+03</rscale>
<asrwt>0</asrwt>
<pdfrwt beam="1">  1       21 0.18035554E-01 0.12664225E+03</pdfrwt>
<pdfrwt beam="2">  1       21 0.75768128E-02 0.12664225E+03</pdfrwt>
<totfact> 0.36429010E+06</totfact>
</mgrwt>
</event>
<event>
 6    1  0.4261782E-002  0.1287773E+03  0.7546771E-02  0.1229281E+00
         21   -1    0    0  503  502  0.00000000000E+00  0.00000000000E+00  0.65043395606E+02  0.65043395606E+02  0.00000000000E+00 0. -1.
         21   -1    0    0  504  503 -0.00000000000E+00 -0.00000000000E+00 -0.11534952539E+03  0.11534952539E+03  0.00000000000E+00 0. -1.
         25    2    1    2    0    0 -0.29729228630E+02 -0.86387059203E+01 -0.67059639997E+02  0.14519158040E+03  0.12500058171E+03 0.  0.
          5    1    3    3  501    0  0.69755188060E+01 -0.22626861705E+02  0.31318327554E+02  0.39261690921E+02  0.10000000000E+00 0.  1.
         -5    1    3    3    0  501 -0.36704747436E+02  0.13988155785E+02 -0.98377967550E+02  0.10592988948E+03  0.10000000000E+00 0.  1.
         21    1    1    2  504  502  0.29729228630E+02  0.86387059203E+01  0.16753510214E+02  0.35201340591E+02  0.00000000000E+00 0. -1.
<mgrwt>
<rscale>  1 0.12877733E+03</rscale>
<asrwt>0</asrwt>
<pdfrwt beam="1">  1       21 0.10006676E-01 0.12877733E+03</pdfrwt>
<pdfrwt beam="2">  1       21 0.17746081E-01 0.12877733E+03</pdfrwt>
<totfact> 0.23185322E+06</totfact>
</mgrwt>
</event>
<event>
 6    1  0.4261782E-002  0.1267825E+03  0.7546771E-02  0.1232310E+00
         21   -1    0    0  503  502  0.00000000000E+00  0.00000000000E+00  0.15442310259E+03  0.15442310259E+03  0.00000000000E+00 0.  1.
         21   -1    0    0  504  503 -0.00000000000E+00 -0.00000000000E+00 -0.35682030915E+02  0.35682030915E+02  0.00000000000E+00 0.  1.
         25    2    1    2    0    0 -0.11105130640E+02 -0.18034847272E+02  0.10692967800E+03  0.16585459407E+03  0.12500084277E+03 0.  0.
          5    1    3    3  501    0 -0.72757707960E+01 -0.67291307862E+02  0.92053957797E+02  0.11425847059E+03  0.10000000000E+00 0.  1.
         -5    1    3    3    0  501 -0.38293598436E+01  0.49256460590E+02  0.14875720207E+02  0.51596123482E+02  0.10000000000E+00 0.  1.
         21    1    1    2  504  502  0.11105130640E+02  0.18034847272E+02  0.11811393676E+02  0.24250539442E+02  0.00000000000E+00 0. -1.
<mgrwt>
<rscale>  1 0.12678245E+03</rscale>
<asrwt>0</asrwt>
<pdfrwt beam="1">  1       21 0.23757400E-01 0.12678245E+03</pdfrwt>
<pdfrwt beam="2">  1       21 0.54895433E-02 0.12678245E+03</pdfrwt>
<totfact> 0.37824268E+06</totfact>
</mgrwt>
</event>
<event>
 6    1  0.4261782E-002  0.1259365E+03  0.7546771E-02  0.1233613E+00
         21   -1    0    0  504  502  0.00000000000E+00  0.00000000000E+00  0.48109284820E+02  0.48109284820E+02  0.00000000000E+00 0.  1.
         21   -1    0    0  502  503 -0.00000000000E+00 -0.00000000000E+00 -0.14244438950E+03  0.14244438950E+03  0.00000000000E+00 0.  1.
         25    2    1    2    0    0  0.15227400728E+02  0.19705332754E+01 -0.11101550919E+03  0.16788226879E+03  0.12499702459E+03 0.  0.
          5    1    3    3  501    0  0.56582709774E+02  0.14756244512E+02 -0.11826393001E+02  0.59659227022E+02  0.10000000000E+00 0. -1.
         -5    1    3    3    0  501 -0.41355309047E+02 -0.12785711236E+02 -0.99189116188E+02  0.10822304176E+03  0.10000000000E+00 0. -1.
         21    1    1    2  504  503 -0.15227400728E+02 -0.19705332754E+01  0.16680404510E+02  0.22671405535E+02  0.00000000000E+00 0.  1.
<mgrwt>
<rscale>  1 0.12593654E+03</rscale>
<asrwt>0</asrwt>
<pdfrwt beam="1">  1       21 0.74014285E-02 0.12593654E+03</pdfrwt>
<pdfrwt beam="2">  1       21 0.21914521E-01 0.12593654E+03</pdfrwt>
<totfact> 0.26458163E+06</totfact>
</mgrwt>
</event>
<event>
 6    1  0.4261782E-002  0.1270283E+03  0.7546771E-02  0.1231933E+00
         21   -1    0    0  503  502  0.00000000000E+00  0.00000000000E+00  0.29370899389E+02  0.29370899389E+02  0.00000000000E+00 0.  1.
         21   -1    0    0  504  503 -0.00000000000E+00 -0.00000000000E+00 -0.22654217817E+03  0.22654217817E+03  0.00000000000E+00 0.  1.
         25    2    1    2    0    0  0.16537954303E+02  0.15370133738E+02 -0.19566799872E+03  0.23328555462E+03  0.12500575717E+03 0.  0.
          5    1    3    3  501    0  0.25111633508E+02  0.57231348250E+02 -0.45903801660E+02  0.77544763633E+02  0.10000000000E+00 0.  1.
         -5    1    3    3    0  501 -0.85736792053E+01 -0.41861214512E+02 -0.14976419706E+03  0.15574079099E+03  0.10000000000E+00 0.  1.
         21    1    1    2  504  502 -0.16537954303E+02 -0.15370133738E+02 -0.15032800631E+01  0.22627522944E+02  0.00000000000E+00 0.  1.
<mgrwt>
<rscale>  1 0.12702828E+03</rscale>
<asrwt>0</asrwt>
<pdfrwt beam="1">  1       21 0.45186001E-02 0.12702828E+03</pdfrwt>
<pdfrwt beam="2">  1       21 0.34852641E-01 0.12702828E+03</pdfrwt>
<totfact> 0.25133309E+06</totfact>
</mgrwt>
</event>
<event>
 6    1  0.4261782E-002  0.1260131E+03  0.7546771E-02  0.1233494E+00
         21   -1    0    0  503  502  0.00000000000E+00  0.00000000000E+00  0.32757325981E+02  0.32757325981E+02  0.00000000000E+00 0. -1.
         21   -1    0    0  504  503 -0.00000000000E+00 -0.00000000000E+00 -0.16076139306E+03  0.16076139306E+03  0.00000000000E+00 0. -1.
         25    2    1    2    0    0  0.40300356365E+01  0.15403918075E+02 -0.12464748552E+03  0.17724639533E+03  0.12500306848E+03 0.  0.
          5    1    3    3  501    0  0.55332334009E+02 -0.17638409441E+02 -0.89892367977E+02  0.10702069190E+03  0.10000000000E+00 0.  1.
         -5    1    3    3    0  501 -0.51302298373E+02  0.33042327516E+02 -0.34755117546E+02  0.70225703426E+02  0.10000000000E+00 0.  1.
         21    1    1    2  504  502 -0.40300356365E+01 -0.15403918075E+02 -0.33565815572E+01  0.16272323714E+02  0.00000000000E+00 0. -1.
<mgrwt>
<rscale>  1 0.12601305E+03</rscale>
<asrwt>0</asrwt>
<pdfrwt beam="1">  1       21 0.50395887E-02 0.12601305E+03</pdfrwt>
<pdfrwt beam="2">  1       21 0.24732522E-01 0.12601305E+03</pdfrwt>
<totfact> 0.40482748E+06</totfact>
</mgrwt>
</event>
<event>
 6    1  0.4261782E-002  0.1297997E+03  0.7546771E-02  0.1227753E+00
         21   -1    0    0  503  502  0.00000000000E+00  0.00000000000E+00  0.53834506527E+02  0.53834506527E+02  0.00000000000E+00 0.  1.
         21   -1    0    0  504  503 -0.00000000000E+00 -0.00000000000E+00 -0.15802843384E+03  0.15802843384E+03  0.00000000000E+00 0.  1.
         25    2    1    2    0    0 -0.31118823878E+02 -0.15946555780E+02 -0.11687809444E+03  0.17466667797E+03  0.12500114237E+03 0.  0.
          5    1    3    3  501    0  0.23216000006E+01  0.53011992993E+02 -0.51163581197E+02  0.73711486680E+02  0.10000000000E+00 0.  1.
         -5    1    3    3    0  501 -0.33440423878E+02 -0.68958548773E+02 -0.65714513240E+02  0.10095519129E+03  0.10000000000E+00 0.  1.
         21    1    1    2  504  502  0.31118823878E+02  0.15946555780E+02  0.12684167122E+02  0.37196262398E+02  0.00000000000E+00 0.  1.
<mgrwt>
<rscale>  1 0.12979969E+03</rscale>
<asrwt>0</asrwt>
<pdfrwt beam="1">  1       21 0.82822319E-02 0.12979969E+03</pdfrwt>
<pdfrwt beam="2">  1       21 0.24312066E-01 0.12979969E+03</pdfrwt>
<totfact> 0.17963452E+06</totfact>
</mgrwt>
</event>
<event>
 6    1  0.4261782E-002  0.1274313E+03  0.7546771E-02  0.1231318E+00
         21   -1    0    0  503  502  0.00000000000E+00  0.00000000000E+00  0.54260364110E+03  0.54260364110E+03  0.00000000000E+00 0. -1.
         21   -1    0    0  504  503 -0.00000000000E+00 -0.00000000000E+00 -0.10759529297E+02  0.10759529297E+02  0.00000000000E+00 0. -1.
         25    2    1    2    0    0 -0.16058591553E+02  0.18872776867E+02  0.42563646704E+03  0.44430298575E+03  0.12499872400E+03 0.  0.
          5    1    3    3  501    0 -0.68935882545E+02  0.19522862333E+01  0.18750151981E+03  0.19978187419E+03  0.10000000000E+00 0. -1.
         -5    1    3    3    0  501  0.52877290992E+02  0.16920490633E+02  0.23813494723E+03  0.24452111156E+03  0.10000000000E+00 0. -1.
         21    1    1    2  504  502  0.16058591553E+02 -0.18872776867E+02  0.10620764476E+03  0.10906018464E+03  0.00000000000E+00 0. -1.
<mgrwt>
<rscale>  1 0.12743132E+03</rscale>
<asrwt>0</asrwt>
<pdfrwt beam="1">  1       21 0.83477462E-01 0.12743132E+03</pdfrwt>
<pdfrwt beam="2">  1       21 0.16553126E-02 0.12743132E+03</pdfrwt>
<totfact> 0.20837351E+06</totfact>
</mgrwt>
</event>
<event>
 6    1  0.4261782E-002  0.1263002E+03  0.7546771E-02  0.1233051E+00
         21   -1    0    0  503  502  0.00000000000E+00  0.00000000000E+00  0.42947746504E+01  0.42947746504E+01  0.00000000000E+00 0.  1.
         21   -1    0    0  504  503 -0.00000000000E+00 -0.00000000000E+00 -0.12458797066E+04  0.12458797066E+04  0.00000000000E+00 0.  1.
         25    2    1    2    0    0 -0.11732648222E+02  0.13771833430E+02 -0.11416576009E+04  0.11486225737E+04  0.12499768301E+03 0.  0.
          5    1    3    3  501    0 -0.37325009174E+02  0.87679450973E+01 -0.10907591161E+04  0.10914327705E+04  0.10000000000E+00 0. -1.
         -5    1    3    3    0  501  0.25592360952E+02  0.50038883331E+01 -0.50898484741E+02  0.57189803169E+02  0.10000000000E+00 0. -1.
         21    1    1    2  504  502  0.11732648222E+02 -0.13771833430E+02 -0.99927331056E+02  0.10155190753E+03  0.00000000000E+00 0.  1.
<mgrwt>
<rscale>  1 0.12630019E+03</rscale>
<asrwt>0</asrwt>
<pdfrwt beam="1">  1       21 0.66073447E-03 0.12630019E+03</pdfrwt>
<pdfrwt beam="2">  1       21 0.19167383E+00 0.12630019E+03</pdfrwt>
<totfact> 0.11172096E+06</totfact>
</mgrwt>
</event>
<event>
 6    1  0.4261782E-002  0.1308602E+03  0.7546771E-02  0.1226185E+00
         21   -1    0    0  503  502  0.00000000000E+00  0.00000000000E+00  0.41115754664E+02  0.41115754664E+02  0.00000000000E+00 0.  1.
         21   -1    0    0  504  503 -0.00000000000E+00 -0.00000000000E+00 -0.18485754645E+03  0.18485754645E+03  0.00000000000E+00 0.  1.
         25    2    1    2    0    0  0.40956999220E+01  0.38501061640E+02 -0.13112401890E+03  0.18525089085E+03  0.12500111089E+03 0.  0.
          5    1    3    3  501    0 -0.37893005187E+02  0.48651973907E+02 -0.18124913014E+02  0.64276098816E+02  0.10000000000E+00 0.  1.
         -5    1    3    3    0  501  0.41988705109E+02 -0.10150912267E+02 -0.11299910588E+03  0.12097479203E+03  0.10000000000E+00 0.  1.
         21    1    1    2  504  502 -0.40956999220E+01 -0.38501061640E+02 -0.12617772889E+02  0.40722410267E+02  0.00000000000E+00 0.  1.
<mgrwt>
<rscale>  1 0.13086017E+03</rscale>
<asrwt>0</asrwt>
<pdfrwt beam="1">  1       21 0.63255007E-02 0.13086017E+03</pdfrwt>
<pdfrwt beam="2">  1       21 0.28439623E-01 0.13086017E+03</pdfrwt>
<totfact> 0.21170311E+06</totfact>
</mgrwt>
</event>
<event>
 6    1  0.4261782E-002  0.1273952E+03  0.7546771E-02  0.1231373E+00
         21   -1    0    0  503  502  0.00000000000E+00  0.00000000000E+00  0.56968992770E+02  0.56968992770E+02  0.00000000000E+00 0. -1.
         21   -1    0    0  504  503 -0.00000000000E+00 -0.00000000000E+00 -0.13364861913E+03  0.13364861913E+03  0.00000000000E+00 0. -1.
         25    2    1    2    0    0  0.20248528438E+02  0.14023959981E+02 -0.95833093662E+02  0.15941617497E+03  0.12499144228E+03 0.  0.
          5    1    3    3  501    0  0.40355949045E+02 -0.26121648099E+02  0.56895643303E+01  0.48407894655E+02  0.10000000000E+00 0.  1.
         -5    1    3    3    0  501 -0.20107420606E+02  0.40145608080E+02 -0.10152265799E+03  0.11100828031E+03  0.10000000000E+00 0.  1.
         21    1    1    2  504  502 -0.20248528438E+02 -0.14023959981E+02  0.19153467299E+02  0.31201436939E+02  0.00000000000E+00 0. -1.
<mgrwt>
<rscale>  1 0.12739519E+03</rscale>
<asrwt>0</asrwt>
<pdfrwt beam="1">  1       21 0.87644605E-02 0.12739519E+03</pdfrwt>
<pdfrwt beam="2">  1       21 0.20561326E-01 0.12739519E+03</pdfrwt>
<totfact> 0.22264428E+06</totfact>
</mgrwt>
</event>
<event>
 6    1  0.4261782E-002  0.1418604E+03  0.7546771E-02  0.1210847E+00
         21   -1    0    0  504  502  0.00000000000E+00  0.00000000000E+00  0.26181908020E+02  0.26181908020E+02  0.00000000000E+00 0. -1.
         21   -1    0    0  502  503 -0.00000000000E+00 -0.00000000000E+00 -0.50336346531E+03  0.50336346531E+03  0.00000000000E+00 0. -1.
         25    2    1    2    0    0 -0.17334058697E+02 -0.64805857503E+02 -0.41307602475E+03  0.43675642970E+03  0.12499643156E+03 0.  0.
          5    1    3    3  501    0  0.49545656121E+02 -0.43680915595E+01 -0.11367916761E+03  0.12408390473E+03  0.10000000000E+00 0.  1.
         -5    1    3    3    0  501 -0.66879714818E+02 -0.60437765944E+02 -0.29939685714E+03  0.31267252497E+03  0.10000000000E+00 0.  1.
         21    1    1    2  504  503  0.17334058697E+02  0.64805857503E+02 -0.64105532539E+02  0.92788943629E+02  0.00000000000E+00 0. -1.
<mgrwt>
<rscale>  1 0.14186041E+03</rscale>
<asrwt>0</asrwt>
<pdfrwt beam="1">  1       21 0.40279863E-02 0.14186041E+03</pdfrwt>
<pdfrwt beam="2">  1       21 0.77440524E-01 0.14186041E+03</pdfrwt>
<totfact> 0.57755257E+05</totfact>
</mgrwt>
</event>
<event>
 6    1  0.4261782E-002  0.1305791E+03  0.7546771E-02  0.1226599E+00
         21   -1    0    0  503  502  0.00000000000E+00  0.00000000000E+00  0.72500570972E+02  0.72500570972E+02  0.00000000000E+00 0. -1.
         21   -1    0    0  504  503 -0.00000000000E+00 -0.00000000000E+00 -0.21450961780E+03  0.21450961780E+03  0.00000000000E+00 0. -1.
         25    2    1    2    0    0  0.28155403626E+02  0.25149454725E+02 -0.18712595613E+03  0.22818198694E+03  0.12500269549E+03 0.  0.
          5    1    3    3  501    0  0.49360475922E+02  0.17486802761E+02 -0.19679924567E+03  0.20364723899E+03  0.10000000000E+00 0.  1.
         -5    1    3    3    0  501 -0.21205072295E+02  0.76626519640E+01  0.96732895410E+01  0.24534747945E+02  0.10000000000E+00 0.  1.
         21    1    1    2  504  502 -0.28155403626E+02 -0.25149454725E+02  0.45116909299E+02  0.58828201834E+02  0.00000000000E+00 0. -1.
<mgrwt>
<rscale>  1 0.13057908E+03</rscale>
<asrwt>0</asrwt>
<pdfrwt beam="1">  1       21 0.11153934E-01 0.13057908E+03</pdfrwt>
<pdfrwt beam="2">  1       21 0.33001479E-01 0.13057908E+03</pdfrwt>
<totfact> 0.59481836E+05</totfact>
</mgrwt>
</event>
<event>
 6    1  0.4261782E-002  0.1276156E+03  0.7546771E-02  0.1231037E+00
         21   -1    0    0  503  502  0.00000000000E+00  0.00000000000E+00  0.35893504683E+02  0.35893504683E+02  0.00000000000E+00 0.  1.
         21   -1    0    0  504  503 -0.00000000000E+00 -0.00000000000E+00 -0.30506208446E+03  0.30506208446E+03  0.00000000000E+00 0.  1.
         25    2    1    2    0    0 -0.18144036029E+02 -0.18059414142E+02 -0.28401068743E+03  0.31136443097E+03  0.12502155741E+03 0.  0.
          5    1    3    3  501    0 -0.38267262480E+02 -0.19530235398E+02 -0.28766794292E+03  0.29085850315E+03  0.10000000000E+00 0. -1.
         -5    1    3    3    0  501  0.20123226451E+02  0.14708212563E+01  0.36572554897E+01  0.20505927818E+02  0.10000000000E+00 0. -1.
         21    1    1    2  504  502  0.18144036029E+02  0.18059414142E+02  0.14842107651E+02  0.29591158174E+02  0.00000000000E+00 0.  1.
<mgrwt>
<rscale>  1 0.12761559E+03</rscale>
<asrwt>0</asrwt>
<pdfrwt beam="1">  1       21 0.55220777E-02 0.12761559E+03</pdfrwt>
<pdfrwt beam="2">  1       21 0.46932628E-01 0.12761559E+03</pdfrwt>
<totfact> 0.98932761E+05</totfact>
</mgrwt>
</event>
<event>
 6    1  0.4261782E-002  0.1261848E+03  0.7546771E-02  0.1233229E+00
         21   -1    0    0  503  502  0.00000000000E+00  0.00000000000E+00  0.12681692217E+02  0.12681692217E+02  0.00000000000E+00 0. -1.
         21   -1    0    0  504  503 -0.00000000000E+00 -0.00000000000E+00 -0.40969720698E+03  0.40969720698E+03  0.00000000000E+00 0. -1.
         25    2    1    2    0    0  0.15737109058E+02  0.71707967863E+01 -0.36119544930E+03  0.38260259950E+03  0.12499407833E+03 0.  0.
          5    1    3    3  501    0  0.64050456695E+02  0.17796078650E+02 -0.12816567413E+03  0.14438009366E+03  0.10000000000E+00 0. -1.
         -5    1    3    3    0  501 -0.48313347637E+02 -0.10625281864E+02 -0.23302977517E+03  0.23822250584E+03  0.10000000000E+00 0. -1.
         21    1    1    2  504  502 -0.15737109058E+02 -0.71707967863E+01 -0.35820065465E+02  0.39776299702E+02  0.00000000000E+00 0. -1.
<mgrwt>
<rscale>  1 0.12618477E+03</rscale>
<asrwt>0</asrwt>
<pdfrwt beam="1">  1       21 0.19510297E-02 0.12618477E+03</pdfrwt>
<pdfrwt beam="2">  1       21 0.63030336E-01 0.12618477E+03</pdfrwt>
<totfact> 0.29632368E+06</totfact>
</mgrwt>
</event>
<event>
 6    1  0.4261782E-002  0.1297469E+03  0.7546771E-02  0.1227832E+00
         21   -1    0    0  504  502  0.00000000000E+00  0.00000000000E+00  0.46424797726E+02  0.46424797726E+02  0.00000000000E+00 0.  1.
         21   -1    0    0  502  503 -0.00000000000E+00 -0.00000000000E+00 -0.17871756740E+03  0.17871756740E+03  0.00000000000E+00 0.  1.
         25    2    1    2    0    0 -0.18158443349E+02 -0.29683166019E+02 -0.13851777957E+03  0.18979310548E+03  0.12499371272E+03 0.  0.
          5    1    3    3  501    0  0.21196269714E+02 -0.49591712326E+02 -0.13520555524E+03  0.14556500936E+03  0.10000000000E+00 0. -1.
         -5    1    3    3    0  501 -0.39354713063E+02  0.19908546307E+02 -0.33122243292E+01  0.44228096119E+02  0.10000000000E+00 0. -1.
         21    1    1    2  504  503  0.18158443349E+02  0.29683166019E+02  0.62250098940E+01  0.35349259652E+02  0.00000000000E+00 0.  1.
<mgrwt>
<rscale>  1 0.12974686E+03</rscale>
<asrwt>0</asrwt>
<pdfrwt beam="1">  1       21 0.71422765E-02 0.12974686E+03</pdfrwt>
<pdfrwt beam="2">  1       21 0.27495011E-01 0.12974686E+03</pdfrwt>
<totfact> 0.18351368E+06</totfact>
</mgrwt>
</event>
<event>
 6    1  0.4261782E-002  0.1291997E+03  0.7546771E-02  0.1228648E+00
         21   -1    0    0  504  502  0.00000000000E+00  0.00000000000E+00  0.55609409180E+02  0.55609409180E+02  0.00000000000E+00 0. -1.
         21   -1    0    0  502  503 -0.00000000000E+00 -0.00000000000E+00 -0.22624807101E+03  0.22624807101E+03  0.00000000000E+00 0. -1.
         25    2    1    2    0    0 -0.19807680199E+02 -0.25972089018E+02 -0.19989076432E+03  0.23801025561E+03  0.12500268202E+03 0.  0.
          5    1    3    3  501    0  0.21125929695E+02  0.17203580958E+02  0.22098721097E+01  0.27334257591E+02  0.10000000000E+00 0.  1.
         -5    1    3    3    0  501 -0.40933609895E+02 -0.43175669976E+02 -0.20210063643E+03  0.21067599802E+03  0.10000000000E+00 0.  1.
         21    1    1    2  504  503  0.19807680199E+02  0.25972089018E+02  0.29252102493E+02  0.43847224577E+02  0.00000000000E+00 0. -1.
<mgrwt>
<rscale>  1 0.12919971E+03</rscale>
<asrwt>0</asrwt>
<pdfrwt beam="1">  1       21 0.85552935E-02 0.12919971E+03</pdfrwt>
<pdfrwt beam="2">  1       21 0.34807396E-01 0.12919971E+03</pdfrwt>
<totfact> 0.85181102E+05</totfact>
</mgrwt>
</event>
<event>
 6    1  0.4261782E-002  0.1308468E+03  0.7546771E-02  0.1226205E+00
         21   -1    0    0  504  502  0.00000000000E+00  0.00000000000E+00  0.15562678604E+02  0.15562678604E+02  0.00000000000E+00 0.  1.
         21   -1    0    0  502  503 -0.00000000000E+00 -0.00000000000E+00 -0.46201038954E+03  0.46201038954E+03  0.00000000000E+00 0.  1.
         25    2    1    2    0    0  0.38379905214E+02  0.48022608803E+01 -0.33902531994E+03  0.36339930180E+03  0.12499922462E+03 0.  0.
          5    1    3    3  501    0 -0.14712871773E+02 -0.50877728402E+02 -0.11721096222E+03  0.12862127160E+03  0.10000000000E+00 0. -1.
         -5    1    3    3    0  501  0.53092776987E+02  0.55679989283E+02 -0.22181435771E+03  0.23477803020E+03  0.10000000000E+00 0. -1.
         21    1    1    2  504  503 -0.38379905214E+02 -0.48022608803E+01 -0.10742239100E+03  0.11417376635E+03  0.00000000000E+00 0.  1.
<mgrwt>
<rscale>  1 0.13084680E+03</rscale>
<asrwt>0</asrwt>
<pdfrwt beam="1">  1       21 0.23942583E-02 0.13084680E+03</pdfrwt>
<pdfrwt beam="2">  1       21 0.71078520E-01 0.13084680E+03</pdfrwt>
<totfact> 0.16419266E+06</totfact>
</mgrwt>
</event>
<event>
 6    1  0.4261782E-002  0.1289216E+03  0.7546771E-02  0.1229065E+00
         21   -1    0    0  503  502  0.00000000000E+00  0.00000000000E+00  0.25634533621E+02  0.25634533621E+02  0.00000000000E+00 0.  1.
         21   -1    0    0  504  503 -0.00000000000E+00 -0.00000000000E+00 -0.25999114716E+03  0.25999114716E+03  0.00000000000E+00 0.  1.
         25    2    1    2    0    0  0.31359221114E+02  0.26259865373E+01 -0.20732753488E+03  0.24414233897E+03  0.12502191171E+03 0.  0.
          5    1    3    3  501    0  0.63799136131E+02 -0.10160745558E+01 -0.43813216894E+02  0.77401357566E+02  0.10000000000E+00 0. -1.
         -5    1    3    3    0  501 -0.32439915016E+02  0.36420610930E+01 -0.16351431798E+03  0.16674098141E+03  0.10000000000E+00 0. -1.
         21    1    1    2  504  502 -0.31359221114E+02 -0.26259865373E+01 -0.27029078664E+02  0.41483341809E+02  0.00000000000E+00 0.  1.
<mgrwt>
<rscale>  1 0.12892158E+03</rscale>
<asrwt>0</asrwt>
<pdfrwt beam="1">  1       21 0.39437743E-02 0.12892158E+03</pdfrwt>
<pdfrwt beam="2">  1       21 0.39998639E-01 0.12892158E+03</pdfrwt>
<totfact> 0.24011451E+06</totfact>
</mgrwt>
</event>
<event>
 6    1  0.4261782E-002  0.1315053E+03  0.7546771E-02  0.1225239E+00
         21   -1    0    0  503  502  0.00000000000E+00  0.00000000000E+00  0.48617821295E+02  0.48617821295E+02  0.00000000000E+00 0. -1.
         21   -1    0    0  504  503 -0.00000000000E+00 -0.00000000000E+00 -0.16163254426E+03  0.16163254426E+03  0.00000000000E+00 0. -1.
         25    2    1    2    0    0 -0.39184292496E+02 -0.11287944802E+02 -0.63287758769E+02  0.14594175459E+03  0.12502331321E+03 0.  0.
          5    1    3    3  501    0 -0.16595141559E+02 -0.62504769687E+02 -0.62533660777E+02  0.89959511377E+02  0.10000000000E+00 0.  1.
         -5    1    3    3    0  501 -0.22589150937E+02  0.51216824885E+02 -0.75409799213E+00  0.55982243213E+02  0.10000000000E+00 0.  1.
         21    1    1    2  504  502  0.39184292496E+02  0.11287944802E+02 -0.49726964199E+02  0.64308610968E+02  0.00000000000E+00 0. -1.
<mgrwt>
<rscale>  1 0.13150534E+03</rscale>
<asrwt>0</asrwt>
<pdfrwt beam="1">  1       21 0.74796647E-02 0.13150534E+03</pdfrwt>
<pdfrwt beam="2">  1       21 0.24866546E-01 0.13150534E+03</pdfrwt>
<totfact> 0.20527081E+06</totfact>
</mgrwt>
</event>
<event>
 6    1  0.4261782E-002  0.1259953E+03  0.7546771E-02  0.1233522E+00
         21   -1    0    0  503  502  0.00000000000E+00  0.00000000000E+00  0.10434033307E+02  0.10434033307E+02  0.00000000000E+00 0.  1.
         21   -1    0    0  504  503 -0.00000000000E+00 -0.00000000000E+00 -0.51752051318E+03  0.51752051318E+03  0.00000000000E+00 0.  1.
         25    2    1    2    0    0  0.13335470121E+02 -0.85087452836E+01 -0.48280806684E+03  0.49897740292E+03  0.12499834285E+03 0.  0.
          5    1    3    3  501    0  0.14629893433E+02  0.51161521169E+02 -0.34091361405E+03  0.34504150080E+03  0.10000000000E+00 0.  1.
         -5    1    3    3    0  501 -0.12944233122E+01 -0.59670266452E+02 -0.14189445278E+03  0.15393590212E+03  0.10000000000E+00 0.  1.
         21    1    1    2  504  502 -0.13335470121E+02  0.85087452836E+01 -0.24278413037E+02  0.28977143566E+02  0.00000000000E+00 0.  1.
<mgrwt>
<rscale>  1 0.12599531E+03</rscale>
<asrwt>0</asrwt>
<pdfrwt beam="1">  1       21 0.16052357E-02 0.12599531E+03</pdfrwt>
<pdfrwt beam="2">  1       21 0.79618552E-01 0.12599531E+03</pdfrwt>
<totfact> 0.24331190E+06</totfact>
</mgrwt>
</event>
<event>
 6    1  0.4261782E-002  0.1428402E+03  0.7546771E-02  0.1209558E+00
         21   -1    0    0  503  502  0.00000000000E+00  0.00000000000E+00  0.21354406210E+03  0.21354406210E+03  0.00000000000E+00 0.  1.
         21   -1    0    0  504  503 -0.00000000000E+00 -0.00000000000E+00 -0.67780263217E+02  0.67780263217E+02  0.00000000000E+00 0.  1.
         25    2    1    2    0    0  0.51413515587E+01  0.68929855251E+02  0.29180276360E+02  0.14579028470E+03  0.12500224056E+03 0.  0.
          5    1    3    3  501    0 -0.36295556842E+02  0.35497058263E+02 -0.35549027495E+02  0.61977027580E+02  0.10000000000E+00 0.  1.
         -5    1    3    3    0  501  0.41436908401E+02  0.33432796988E+02  0.64729303855E+02  0.83813257125E+02  0.10000000000E+00 0.  1.
         21    1    1    2  504  502 -0.51413515587E+01 -0.68929855251E+02  0.11658352252E+03  0.13553404061E+03  0.00000000000E+00 0.  1.
<mgrwt>
<rscale>  1 0.14284019E+03</rscale>
<asrwt>0</asrwt>
<pdfrwt beam="1">  1       21 0.32852932E-01 0.14284019E+03</pdfrwt>
<pdfrwt beam="2">  1       21 0.10427733E-01 0.14284019E+03</pdfrwt>
<totfact> 0.67524320E+05</totfact>
</mgrwt>
</event>
<event>
 6    1  0.4261782E-002  0.1266106E+03  0.7546771E-02  0.1232573E+00
         21   -1    0    0  504  502  0.00000000000E+00  0.00000000000E+00  0.25633150026E+03  0.25633150026E+03  0.00000000000E+00 0.  1.
         21   -1    0    0  502  503 -0.00000000000E+00 -0.00000000000E+00 -0.14402205184E+03  0.14402205184E+03  0.00000000000E+00 0. -1.
         25    2    1    2    0    0 -0.56983574538E+01  0.19317133111E+02 -0.11566602953E+03  0.17149018357E+03  0.12499851905E+03 0.  0.
          5    1    3    3  501    0  0.27457992546E+02  0.55160842125E+02 -0.10463891194E+03  0.12143299285E+03  0.10000000000E+00 0.  1.
         -5    1    3    3    0  501 -0.33156350000E+02 -0.35843709014E+02 -0.11027117588E+02  0.50057190727E+02  0.10000000000E+00 0.  1.
         21    1    1    2  504  503  0.56983574538E+01 -0.19317133111E+02  0.22797547794E+03  0.22886336853E+03  0.00000000000E+00 0.  1.
<mgrwt>
<rscale>  1 0.12661063E+03</rscale>
<asrwt>0</asrwt>
<pdfrwt beam="1">  1       21 0.39435615E-01 0.12661063E+03</pdfrwt>
<pdfrwt beam="2">  1       21 0.22157239E-01 0.12661063E+03</pdfrwt>
<totfact> 0.12086903E+05</totfact>
</mgrwt>
</event>
<event>
 6    1  0.4261782E-002  0.1345764E+03  0.7546771E-02  0.1220819E+00
         21   -1    0    0  504  502  0.00000000000E+00  0.00000000000E+00  0.50379457799E+03  0.50379457799E+03  0.00000000000E+00 0. -1.
         21   -1    0    0  502  503 -0.00000000000E+00 -0.00000000000E+00 -0.25501159679E+02  0.25501159679E+02  0.00000000000E+00 0. -1.
         25    2    1    2    0    0 -0.60595874649E+01 -0.49504210473E+02  0.16914423366E+03  0.21614943987E+03  0.12499369233E+03 0.  0.
          5    1    3    3  501    0 -0.15402173104E+02  0.12592475934E+02 -0.12811172869E+02  0.23662914798E+02  0.10000000000E+00 0. -1.
         -5    1    3    3    0  501  0.93425856389E+01 -0.62096686407E+02  0.18195540653E+03  0.19248652507E+03  0.10000000000E+00 0. -1.
         21    1    1    2  504  503  0.60595874649E+01  0.49504210473E+02  0.30914918465E+03  0.31314629780E+03  0.00000000000E+00 0. -1.
<mgrwt>
<rscale>  1 0.13457640E+03</rscale>
<asrwt>0</asrwt>
<pdfrwt beam="1">  1       21 0.77506851E-01 0.13457640E+03</pdfrwt>
<pdfrwt beam="2">  1       21 0.39232557E-02 0.13457640E+03</pdfrwt>
<totfact> 0.60270001E+05</totfact>
</mgrwt>
</event>
<event>
 6    1  0.4261782E-002  0.1268003E+03  0.7546771E-02  0.1232282E+00
         21   -1    0    0  504  502  0.00000000000E+00  0.00000000000E+00  0.14943643036E+03  0.14943643036E+03  0.00000000000E+00 0. -1.
         21   -1    0    0  502  503 -0.00000000000E+00 -0.00000000000E+00 -0.92645250083E+03  0.92645250083E+03  0.00000000000E+00 0.  1.
         25    2    1    2    0    0  0.12863799115E+02  0.16937460143E+02 -0.92133075536E+03  0.93001541352E+03  0.12500381482E+03 0.  0.
          5    1    3    3  501    0  0.68517304391E+02 -0.30022795117E+00 -0.50619975196E+03  0.51081592577E+03  0.10000000000E+00 0.  1.
         -5    1    3    3    0  501 -0.55653505275E+02  0.17237688094E+02 -0.41513100340E+03  0.41919948774E+03  0.10000000000E+00 0.  1.
         21    1    1    2  504  503 -0.12863799115E+02 -0.16937460143E+02  0.14431468489E+03  0.14587351768E+03  0.00000000000E+00 0. -1.
<mgrwt>
<rscale>  1 0.12680027E+03</rscale>
<asrwt>0</asrwt>
<pdfrwt beam="1">  1       21 0.22990220E-01 0.12680027E+03</pdfrwt>
<pdfrwt beam="2">  1       21 0.14253115E+00 0.12680027E+03</pdfrwt>
<totfact> 0.64459549E+03</totfact>
</mgrwt>
</event>
<event>
 6    1  0.4261782E-002  0.1753578E+03  0.7546771E-02  0.1172373E+00
         21   -1    0    0  503  502  0.00000000000E+00  0.00000000000E+00  0.25919419451E+03  0.25919419451E+03  0.00000000000E+00 0. -1.
         21   -1    0    0  504  503 -0.00000000000E+00 -0.00000000000E+00 -0.70977628547E+03  0.70977628547E+03  0.00000000000E+00 0. -1.
         25    2    1    2    0    0 -0.87726259682E+02  0.86194013167E+02 -0.68346805605E+03  0.70560537736E+03  0.12500024148E+03 0.  0.
          5    1    3    3  501    0 -0.69400724447E+02  0.10167190260E+03 -0.34528152555E+03  0.36656919977E+03  0.10000000000E+00 0.  1.
         -5    1    3    3    0  501 -0.18325535235E+02 -0.15477889434E+02 -0.33818653050E+03  0.33903617759E+03  0.10000000000E+00 0.  1.
         21    1    1    2  504  502  0.87726259682E+02 -0.86194013167E+02  0.23288596509E+03  0.26336510262E+03  0.00000000000E+00 0. -1.
<mgrwt>
<rscale>  1 0.17535782E+03</rscale>
<asrwt>0</asrwt>
<pdfrwt beam="1">  1       21 0.39876031E-01 0.17535782E+03</pdfrwt>
<pdfrwt beam="2">  1       21 0.10919635E+00 0.17535782E+03</pdfrwt>
<totfact> 0.40892525E+03</totfact>
</mgrwt>
</event>
<event>
 6    1  0.4261782E-002  0.1261358E+03  0.7546771E-02  0.1233305E+00
         21   -1    0    0  504  502  0.00000000000E+00  0.00000000000E+00  0.86709415300E+01  0.86709415300E+01  0.00000000000E+00 0.  1.
         21   -1    0    0  502  503 -0.00000000000E+00 -0.00000000000E+00 -0.59047801081E+03  0.59047801081E+03  0.00000000000E+00 0.  1.
         25    2    1    2    0    0  0.14319076971E+02  0.89830282953E+01 -0.50682986935E+03  0.52228991727E+03  0.12499804180E+03 0.  0.
          5    1    3    3  501    0 -0.13997388479E+02  0.15514090479E+02 -0.48620701202E+03  0.48665581516E+03  0.10000000000E+00 0.  1.
         -5    1    3    3    0  501  0.28316465451E+02 -0.65310621833E+01 -0.20622857326E+02  0.35634102110E+02  0.10000000000E+00 0.  1.
         21    1    1    2  504  503 -0.14319076971E+02 -0.89830282953E+01 -0.74977199927E+02  0.76859035068E+02  0.00000000000E+00 0.  1.
<mgrwt>
<rscale>  1 0.12613580E+03</rscale>
<asrwt>0</asrwt>
<pdfrwt beam="1">  1       21 0.13339907E-02 0.12613580E+03</pdfrwt>
<pdfrwt beam="2">  1       21 0.90842790E-01 0.12613580E+03</pdfrwt>
<totfact> 0.24264095E+06</totfact>
</mgrwt>
</event>
<event>
 6    1  0.4261782E-002  0.1567012E+03  0.7546771E-02  0.1192472E+00
         21   -1    0    0  503  502  0.00000000000E+00  0.00000000000E+00  0.12473461432E+02  0.12473461432E+02  0.00000000000E+00 0.  1.
         21   -1    0    0  504  503 -0.00000000000E+00 -0.00000000000E+00 -0.12711449609E+04  0.12711449609E+04  0.00000000000E+00 0. -1.
         25    2    1    2    0    0 -0.80160513139E+02 -0.50055126177E+02 -0.82838827684E+03  0.84307912193E+03  0.12499618035E+03 0.  0.
          5    1    3    3  501    0 -0.25964792995E+01 -0.71490365061E+02 -0.49350351812E+03  0.49866155496E+03  0.10000000000E+00 0.  1.
         -5    1    3    3    0  501 -0.77564033840E+02  0.21435238885E+02 -0.33488475872E+03  0.34441756697E+03  0.10000000000E+00 0.  1.
         21    1    1    2  504  502  0.80160513139E+02  0.50055126177E+02 -0.43028322258E+03  0.44053930036E+03  0.00000000000E+00 0.  1.
<mgrwt>
<rscale>  1 0.15670121E+03</rscale>
<asrwt>0</asrwt>
<pdfrwt beam="1">  1       21 0.19189949E-02 0.15670121E+03</pdfrwt>
<pdfrwt beam="2">  1       21 0.19556067E+00 0.15670121E+03</pdfrwt>
<totfact> 0.19230169E+05</totfact>
</mgrwt>
</event>
<event>
 6    1  0.4261782E-002  0.1329214E+03  0.7546771E-02  0.1223184E+00
         21   -1    0    0  504  502  0.00000000000E+00  0.00000000000E+00  0.65229833033E+02  0.65229833033E+02  0.00000000000E+00 0. -1.
         21   -1    0    0  502  503 -0.00000000000E+00 -0.00000000000E+00 -0.12758200730E+03  0.12758200730E+03  0.00000000000E+00 0. -1.
         25    2    1    2    0    0  0.13865907163E+02 -0.43054802472E+02 -0.27565303550E+02  0.13574954305E+03  0.12498845179E+03 0.  0.
          5    1    3    3  501    0  0.50210722475E+02  0.13442863307E+02  0.17510965151E+02  0.54849531683E+02  0.10000000000E+00 0.  1.
         -5    1    3    3    0  501 -0.36344815312E+02 -0.56497665779E+02 -0.45076268701E+02  0.80900011363E+02  0.10000000000E+00 0.  1.
         21    1    1    2  504  503 -0.13865907163E+02  0.43054802472E+02 -0.34786870717E+02  0.57062297287E+02  0.00000000000E+00 0. -1.
<mgrwt>
<rscale>  1 0.13292138E+03</rscale>
<asrwt>0</asrwt>
<pdfrwt beam="1">  1       21 0.10035359E-01 0.13292138E+03</pdfrwt>
<pdfrwt beam="2">  1       21 0.19628001E-01 0.13292138E+03</pdfrwt>
<totfact> 0.19187095E+06</totfact>
</mgrwt>
</event>
<event>
 6    1  0.4261782E-002  0.1275814E+03  0.7546771E-02  0.1231089E+00
         21   -1    0    0  504  502  0.00000000000E+00  0.00000000000E+00  0.23267466679E+03  0.23267466679E+03  0.00000000000E+00 0.  1.
         21   -1    0    0  502  503 -0.00000000000E+00 -0.00000000000E+00 -0.88255688455E+02  0.88255688455E+02  0.00000000000E+00 0.  1.
         25    2    1    2    0    0 -0.11675141314E+02  0.22702008442E+02 -0.40810763165E+02  0.13394974864E+03  0.12500130662E+03 0.  0.
          5    1    3    3  501    0 -0.50323349823E+02 -0.30619843763E+02 -0.53374888548E+01  0.59148230377E+02  0.10000000000E+00 0. -1.
         -5    1    3    3    0  501  0.38648208509E+02  0.53321852204E+02 -0.35473274310E+02  0.74801518258E+02  0.10000000000E+00 0. -1.
         21    1    1    2  504  503  0.11675141314E+02 -0.22702008442E+02  0.18522974150E+03  0.18698060661E+03  0.00000000000E+00 0.  1.
<mgrwt>
<rscale>  1 0.12758141E+03</rscale>
<asrwt>0</asrwt>
<pdfrwt beam="1">  1       21 0.35796102E-01 0.12758141E+03</pdfrwt>
<pdfrwt beam="2">  1       21 0.13577798E-01 0.12758141E+03</pdfrwt>
<totfact> 0.35785115E+05</totfact>
</mgrwt>
</event>
<event>
 6    1  0.4261782E-002  0.1264208E+03  0.7546771E-02  0.1232865E+00
         21   -1    0    0  503  502  0.00000000000E+00  0.00000000000E+00  0.19564386622E+03  0.19564386622E+03  0.00000000000E+00 0. -1.
         21   -1    0    0  504  503 -0.00000000000E+00 -0.00000000000E+00 -0.45603010187E+02  0.45603010187E+02  0.00000000000E+00 0. -1.
         25    2    1    2    0    0 -0.18865251323E+02 -0.72283812832E+00  0.44489767235E+02  0.13402070167E+03  0.12500315550E+03 0.  0.
          5    1    3    3  501    0  0.44493632806E+02  0.32282712403E+02  0.20135401611E+02  0.58543157400E+02  0.10000000000E+00 0.  1.
         -5    1    3    3    0  501 -0.63358884130E+02 -0.33005550531E+02  0.24354365625E+02  0.75477544270E+02  0.10000000000E+00 0.  1.
         21    1    1    2  504  502  0.18865251323E+02  0.72283812832E+00  0.10555108880E+03  0.10722617474E+03  0.00000000000E+00 0. -1.
<mgrwt>
<rscale>  1 0.12642076E+03</rscale>
<asrwt>0</asrwt>
<pdfrwt beam="1">  1       21 0.30099056E-01 0.12642076E+03</pdfrwt>
<pdfrwt beam="2">  1       21 0.70158479E-02 0.12642076E+03</pdfrwt>
<totfact> 0.15894482E+06</totfact>
</mgrwt>
</event>
<event>
 6    1  0.4261782E-002  0.1259042E+03  0.7546771E-02  0.1233663E+00
         21   -1    0    0  503  502  0.00000000000E+00  0.00000000000E+00  0.10352489111E+02  0.10352489111E+02  0.00000000000E+00 0. -1.
         21   -1    0    0  504  503 -0.00000000000E+00 -0.00000000000E+00 -0.64755987699E+03  0.64755987699E+03  0.00000000000E+00 0. -1.
         25    2    1    2    0    0 -0.57589850204E+01  0.13920219820E+02 -0.62746520903E+03  0.63997223017E+03  0.12499971369E+03 0.  0.
          5    1    3    3  501    0  0.24169006317E+02 -0.29414309605E+02 -0.67179522088E+02  0.77216841841E+02  0.10000000000E+00 0.  1.
         -5    1    3    3    0  501 -0.29927991338E+02  0.43334529425E+02 -0.56028568694E+03  0.56275538833E+03  0.10000000000E+00 0.  1.
         21    1    1    2  504  502  0.57589850204E+01 -0.13920219820E+02 -0.97421788438E+01  0.17940135923E+02  0.00000000000E+00 0. -1.
<mgrwt>
<rscale>  1 0.12590420E+03</rscale>
<asrwt>0</asrwt>
<pdfrwt beam="1">  1       21 0.15926907E-02 0.12590420E+03</pdfrwt>
<pdfrwt beam="2">  1       21 0.99624592E-01 0.12590420E+03</pdfrwt>
<totfact> 0.14776576E+06</totfact>
</mgrwt>
</event>
<event>
 6    1  0.4261782E-002  0.1270365E+03  0.7546771E-02  0.1231921E+00
         21   -1    0    0  503  502  0.00000000000E+00  0.00000000000E+00  0.67559785056E+03  0.67559785056E+03  0.00000000000E+00 0.  1.
         21   -1    0    0  504  503 -0.00000000000E+00 -0.00000000000E+00 -0.13932515614E+02  0.13932515614E+02  0.00000000000E+00 0.  1.
         25    2    1    2    0    0  0.90552466575E+01 -0.20713612127E+02  0.28316729536E+03  0.31035782341E+03  0.12500884036E+03 0.  0.
          5    1    3    3  501    0  0.43812171286E+02 -0.36450791478E+02  0.25899437138E+03  0.26519098959E+03  0.10000000000E+00 0.  1.
         -5    1    3    3    0  501 -0.34756924628E+02  0.15737179352E+02  0.24172923987E+02  0.45166833823E+02  0.10000000000E+00 0.  1.
         21    1    1    2  504  502 -0.90552466575E+01  0.20713612127E+02  0.37849803959E+03  0.37917254277E+03  0.00000000000E+00 0.  1.
<mgrwt>
<rscale>  1 0.12703646E+03</rscale>
<asrwt>0</asrwt>
<pdfrwt beam="1">  1       21 0.10393811E+00 0.12703646E+03</pdfrwt>
<pdfrwt beam="2">  1       21 0.21434645E-02 0.12703646E+03</pdfrwt>
<totfact> 0.82950800E+05</totfact>
</mgrwt>
</event>
<event>
 6    1  0.4261782E-002  0.1269284E+03  0.7546771E-02  0.1232086E+00
         21   -1    0    0  504  502  0.00000000000E+00  0.00000000000E+00  0.37101978900E+03  0.37101978900E+03  0.00000000000E+00 0. -1.
         21   -1    0    0  502  503 -0.00000000000E+00 -0.00000000000E+00 -0.16297697551E+02  0.16297697551E+02  0.00000000000E+00 0. -1.
         25    2    1    2    0    0 -0.22001498190E+01 -0.21947188480E+02  0.25090941856E+03  0.28118742109E+03  0.12499723884E+03 0.  0.
          5    1    3    3  501    0  0.54162768986E+01 -0.15090561256E+02 -0.10765197723E+02  0.19312187253E+02  0.10000000000E+00 0. -1.
         -5    1    3    3    0  501 -0.76164267177E+01 -0.68566272239E+01  0.26167461628E+03  0.26187523384E+03  0.10000000000E+00 0. -1.
         21    1    1    2  504  503  0.22001498190E+01  0.21947188480E+02  0.10381267289E+03  0.10613006546E+03  0.00000000000E+00 0. -1.
<mgrwt>
<rscale>  1 0.12692844E+03</rscale>
<asrwt>0</asrwt>
<pdfrwt beam="1">  1       21 0.57079961E-01 0.12692844E+03</pdfrwt>
<pdfrwt beam="2">  1       21 0.25073384E-02 0.12692844E+03</pdfrwt>
<totfact> 0.24369657E+06</totfact>
</mgrwt>
</event>
<event>
 6    1  0.4261782E-002  0.2235899E+03  0.7546771E-02  0.1131235E+00
         21   -1    0    0  504  502  0.00000000000E+00  0.00000000000E+00  0.10426249541E+04  0.10426249541E+04  0.00000000000E+00 0.  1.
         21   -1    0    0  502  503 -0.00000000000E+00 -0.00000000000E+00 -0.43664793419E+02  0.43664793419E+02  0.00000000000E+00 0.  1.
         25    2    1    2    0    0  0.16299202583E+03  0.88329520640E+02  0.38789807021E+03  0.44772465051E+03  0.12499578035E+03 0.  0.
          5    1    3    3  501    0  0.42636114536E+01  0.24687284988E+02  0.16444151178E+03  0.16633899489E+03  0.10000000000E+00 0. -1.
         -5    1    3    3    0  501  0.15872841437E+03  0.63642235652E+02  0.22345655843E+03  0.28138565563E+03  0.10000000000E+00 0. -1.
         21    1    1    2  504  503 -0.16299202583E+03 -0.88329520640E+02  0.61106209044E+03  0.63856509697E+03  0.00000000000E+00 0.  1.
<mgrwt>
<rscale>  1 0.22358991E+03</rscale>
<asrwt>0</asrwt>
<pdfrwt beam="1">  1       21 0.16040382E+00 0.22358991E+03</pdfrwt>
<pdfrwt beam="2">  1       21 0.67176613E-02 0.22358991E+03</pdfrwt>
<totfact> 0.39866658E+04</totfact>
</mgrwt>
</event>
<event>
 6    1  0.4261782E-002  0.1260377E+03  0.7546771E-02  0.1233456E+00
         21   -1    0    0  503  502  0.00000000000E+00  0.00000000000E+00  0.47352677885E+02  0.47352677885E+02  0.00000000000E+00 0.  1.
         21   -1    0    0  504  503 -0.00000000000E+00 -0.00000000000E+00 -0.10790121154E+03  0.10790121154E+03  0.00000000000E+00 0.  1.
         25    2    1    2    0    0 -0.15410445279E+02 -0.48165903805E+01 -0.58588867494E+02  0.13898976762E+03  0.12499927497E+03 0.  0.
          5    1    3    3  501    0 -0.45153867136E+02  0.30436892212E+02 -0.72628675512E+02  0.90775605927E+02  0.10000000000E+00 0.  1.
         -5    1    3    3    0  501  0.29743421857E+02 -0.35253482592E+02  0.14039808018E+02  0.48214161693E+02  0.10000000000E+00 0.  1.
         21    1    1    2  504  502  0.15410445279E+02  0.48165903805E+01 -0.19596661591E+01  0.16264121804E+02  0.00000000000E+00 0. -1.
<mgrwt>
<rscale>  1 0.12603769E+03</rscale>
<asrwt>0</asrwt>
<pdfrwt beam="1">  1       21 0.72850274E-02 0.12603769E+03</pdfrwt>
<pdfrwt beam="2">  1       21 0.16600186E-01 0.12603769E+03</pdfrwt>
<totfact> 0.45318368E+06</totfact>
</mgrwt>
</event>
<event>
 6    1  0.4261782E-002  0.1411568E+03  0.7546771E-02  0.1211781E+00
         21   -1    0    0  504  502  0.00000000000E+00  0.00000000000E+00  0.18951625101E+03  0.18951625101E+03  0.00000000000E+00 0. -1.
         21   -1    0    0  502  503 -0.00000000000E+00 -0.00000000000E+00 -0.27955855755E+03  0.27955855755E+03  0.00000000000E+00 0. -1.
         25    2    1    2    0    0  0.82831745257E+01  0.65048948454E+02 -0.25505493225E+03  0.29151033205E+03  0.12500111421E+03 0.  0.
          5    1    3    3  501    0  0.54310114978E+02  0.71156229041E+02 -0.12764495343E+03  0.15590395010E+03  0.10000000000E+00 0.  1.
         -5    1    3    3    0  501 -0.46026940452E+02 -0.61072805869E+01 -0.12740997882E+03  0.13560638195E+03  0.10000000000E+00 0.  1.
         21    1    1    2  504  503 -0.82831745257E+01 -0.65048948454E+02  0.16501262571E+03  0.17756447651E+03  0.00000000000E+00 0. -1.
<mgrwt>
<rscale>  1 0.14115685E+03</rscale>
<asrwt>0</asrwt>
<pdfrwt beam="1">  1       21 0.29156346E-01 0.14115685E+03</pdfrwt>
<pdfrwt beam="2">  1       21 0.43009009E-01 0.14115685E+03</pdfrwt>
<totfact> 0.59970417E+04</totfact>
</mgrwt>
</event>
<event>
 6    1  0.4261782E-002  0.1261364E+03  0.7546771E-02  0.1233304E+00
         21   -1    0    0  504  502  0.00000000000E+00  0.00000000000E+00  0.92528018920E+01  0.92528018920E+01  0.00000000000E+00 0.  1.
         21   -1    0    0  502  503 -0.00000000000E+00 -0.00000000000E+00 -0.72177292961E+03  0.72177292961E+03  0.00000000000E+00 0.  1.
         25    2    1    2    0    0  0.17064469058E+01 -0.16870151047E+02 -0.69605171526E+03  0.70738841849E+03  0.12499148109E+03 0.  0.
          5    1    3    3  501    0  0.26735645486E+02 -0.37399137902E+02 -0.64691754268E+03  0.64854900145E+03  0.10000000000E+00 0.  1.
         -5    1    3    3    0  501 -0.25029198581E+02  0.20528986855E+02 -0.49134172582E+02  0.58839417045E+02  0.10000000000E+00 0.  1.
         21    1    1    2  504  503 -0.17064469058E+01  0.16870151047E+02 -0.16468412460E+02  0.23637313010E+02  0.00000000000E+00 0.  1.
<mgrwt>
<rscale>  1 0.12613637E+03</rscale>
<asrwt>0</asrwt>
<pdfrwt beam="1">  1       21 0.14235079E-02 0.12613637E+03</pdfrwt>
<pdfrwt beam="2">  1       21 0.11104200E+00 0.12613637E+03</pdfrwt>
<totfact> 0.13672780E+06</totfact>
</mgrwt>
</event>
<event>
 6    1  0.4261782E-002  0.2058907E+03  0.7546771E-02  0.1144862E+00
         21   -1    0    0  503  502  0.00000000000E+00  0.00000000000E+00  0.91335964720E+03  0.91335964720E+03  0.00000000000E+00 0.  1.
         21   -1    0    0  504  503 -0.00000000000E+00 -0.00000000000E+00 -0.41462836218E+02  0.41462836218E+02  0.00000000000E+00 0.  1.
         25    2    1    2    0    0  0.63191553226E+02 -0.15091160025E+03  0.33180484402E+03  0.39049384134E+03  0.12499400834E+03 0.  0.
          5    1    3    3  501    0  0.75420120732E+01 -0.28895868565E+02 -0.28193481401E+01  0.29996864672E+02  0.10000000000E+00 0.  1.
         -5    1    3    3    0  501  0.55649541153E+02 -0.12201573169E+03  0.33462419216E+03  0.36049697667E+03  0.10000000000E+00 0.  1.
         21    1    1    2  504  502 -0.63191553226E+02  0.15091160025E+03  0.54009196696E+03  0.56432864208E+03  0.00000000000E+00 0.  1.
<mgrwt>
<rscale>  1 0.20589071E+03</rscale>
<asrwt>0</asrwt>
<pdfrwt beam="1">  1       21 0.14051685E+00 0.20589071E+03</pdfrwt>
<pdfrwt beam="2">  1       21 0.63788985E-02 0.20589071E+03</pdfrwt>
<totfact> 0.62481909E+04</totfact>
</mgrwt>
</event>
<event>
 6    1  0.4261782E-002  0.1667763E+03  0.7546771E-02  0.1181252E+00
         21   -1    0    0  503  502  0.00000000000E+00  0.00000000000E+00  0.18060557638E+04  0.18060557638E+04  0.00000000000E+00 0.  1.
         21   -1    0    0  504  503 -0.00000000000E+00 -0.00000000000E+00 -0.11310738978E+02  0.11310738978E+02  0.00000000000E+00 0. -1.
         25    2    1    2    0    0  0.98765548668E+02 -0.49346076315E+02  0.85124364373E+03  0.86742728105E+03  0.12499871228E+03 0.  0.
          5    1    3    3  501    0  0.85097316725E+02 -0.73572145982E+02  0.40543413741E+03  0.42075083334E+03  0.10000000000E+00 0.  1.
         -5    1    3    3    0  501  0.13668231942E+02  0.24226069667E+02  0.44580950632E+03  0.44667644771E+03  0.10000000000E+00 0.  1.
         21    1    1    2  504  502 -0.98765548668E+02  0.49346076315E+02  0.94350138113E+03  0.94993922176E+03  0.00000000000E+00 0.  1.
<mgrwt>
<rscale>  1 0.16677634E+03</rscale>
<asrwt>0</asrwt>
<pdfrwt beam="1">  1       21 0.27785450E+00 0.16677634E+03</pdfrwt>
<pdfrwt beam="2">  1       21 0.17401151E-02 0.16677634E+03</pdfrwt>
<totfact> 0.72202355E+04</totfact>
</mgrwt>
</event>
<event>
 6    1  0.4261782E-002  0.1260212E+03  0.7546771E-02  0.1233482E+00
         21   -1    0    0  503  502  0.00000000000E+00  0.00000000000E+00  0.17383901888E+02  0.17383901888E+02  0.00000000000E+00 0. -1.
         21   -1    0    0  504  503 -0.00000000000E+00 -0.00000000000E+00 -0.29728202991E+03  0.29728202991E+03  0.00000000000E+00 0. -1.
         25    2    1    2    0    0 -0.12423149089E+02 -0.10074076445E+02 -0.22993307129E+03  0.26220329230E+03  0.12500211025E+03 0.  0.
          5    1    3    3  501    0  0.44627133496E+02  0.71027260789E+01 -0.17643283778E+03  0.18212793857E+03  0.10000000000E+00 0.  1.
         -5    1    3    3    0  501 -0.57050282585E+02 -0.17176802524E+02 -0.53500233514E+02  0.80075353724E+02  0.10000000000E+00 0.  1.
         21    1    1    2  504  502  0.12423149089E+02  0.10074076445E+02 -0.49965056729E+02  0.52462639502E+02  0.00000000000E+00 0. -1.
<mgrwt>
<rscale>  1 0.12602123E+03</rscale>
<asrwt>0</asrwt>
<pdfrwt beam="1">  1       21 0.26744469E-02 0.12602123E+03</pdfrwt>
<pdfrwt beam="2">  1       21 0.45735689E-01 0.12602123E+03</pdfrwt>
<totfact> 0.34688748E+06</totfact>
</mgrwt>
</event>
<event>
 6    1  0.4261782E-002  0.1284842E+03  0.7546771E-02  0.1229722E+00
         21   -1    0    0  504  502  0.00000000000E+00  0.00000000000E+00  0.68909410678E+03  0.68909410678E+03  0.00000000000E+00 0.  1.
         21   -1    0    0  502  503 -0.00000000000E+00 -0.00000000000E+00 -0.21747196348E+02  0.21747196348E+02  0.00000000000E+00 0.  1.
         25    2    1    2    0    0  0.52266673127E+01 -0.29304857247E+02  0.17245816538E+03  0.21505812200E+03  0.12498833675E+03 0.  0.
          5    1    3    3  501    0 -0.46768947180E+02 -0.52702503683E+02  0.10852770506E+03  0.12939536730E+03  0.10000000000E+00 0. -1.
         -5    1    3    3    0  501  0.51995614493E+02  0.23397646436E+02  0.63930460326E+02  0.85662754700E+02  0.10000000000E+00 0. -1.
         21    1    1    2  504  503 -0.52266673127E+01  0.29304857247E+02  0.49488874505E+03  0.49578318113E+03  0.00000000000E+00 0.  1.
<mgrwt>
<rscale>  1 0.12848415E+03</rscale>
<asrwt>0</asrwt>
<pdfrwt beam="1">  1       21 0.10601446E+00 0.12848415E+03</pdfrwt>
<pdfrwt beam="2">  1       21 0.33457230E-02 0.12848415E+03</pdfrwt>
<totfact> 0.38264263E+05</totfact>
</mgrwt>
</event>
<event>
 6    1  0.4261782E-002  0.1259453E+03  0.7546771E-02  0.1233599E+00
         21   -1    0    0  504  502  0.00000000000E+00  0.00000000000E+00  0.41265517413E+01  0.41265517413E+01  0.00000000000E+00 0.  1.
         21   -1    0    0  502  503 -0.00000000000E+00 -0.00000000000E+00 -0.13150166921E+04  0.13150166921E+04  0.00000000000E+00 0.  1.
         25    2    1    2    0    0  0.15150050718E+02 -0.31082109424E+01 -0.12496423973E+04  0.12559730685E+04  0.12499217126E+03 0.  0.
          5    1    3    3  501    0 -0.50371900866E+02 -0.10852266751E+01 -0.31199958594E+03  0.31604154433E+03  0.10000000000E+00 0.  1.
         -5    1    3    3    0  501  0.65521951584E+02 -0.20229842673E+01 -0.93764281132E+03  0.93993152422E+03  0.10000000000E+00 0.  1.
         21    1    1    2  504  503 -0.15150050718E+02  0.31082109424E+01 -0.61247743133E+02  0.63170175328E+02  0.00000000000E+00 0. -1.
<mgrwt>
<rscale>  1 0.12594534E+03</rscale>
<asrwt>0</asrwt>
<pdfrwt beam="1">  1       21 0.63485499E-03 0.12594534E+03</pdfrwt>
<pdfrwt beam="2">  1       21 0.20230998E+00 0.12594534E+03</pdfrwt>
<totfact> 0.10181016E+06</totfact>
</mgrwt>
</event>
<event>
 6    1  0.4261782E-002  0.1281079E+03  0.7546771E-02  0.1230291E+00
         21   -1    0    0  504  502  0.00000000000E+00  0.00000000000E+00  0.16594515608E+04  0.16594515608E+04  0.00000000000E+00 0. -1.
         21   -1    0    0  502  503 -0.00000000000E+00 -0.00000000000E+00 -0.37772370184E+01  0.37772370184E+01  0.00000000000E+00 0. -1.
         25    2    1    2    0    0 -0.27968299053E+02 -0.33429273780E+01  0.14474223389E+04  0.14530805403E+04  0.12497291164E+03 0.  0.
          5    1    3    3  501    0  0.42596161675E+02  0.44302747746E+01  0.90765153728E+03  0.90866131394E+03  0.10000000000E+00 0.  1.
         -5    1    3    3    0  501 -0.70564460728E+02 -0.77732021527E+01  0.53977080159E+03  0.54441922636E+03  0.10000000000E+00 0.  1.
         21    1    1    2  504  503  0.27968299053E+02  0.33429273780E+01  0.20825198495E+03  0.21014825755E+03  0.00000000000E+00 0. -1.
<mgrwt>
<rscale>  1 0.12810788E+03</rscale>
<asrwt>0</asrwt>
<pdfrwt beam="1">  1       21 0.25529966E+00 0.12810788E+03</pdfrwt>
<pdfrwt beam="2">  1       21 0.58111471E-03 0.12810788E+03</pdfrwt>
<totfact> 0.56630353E+05</totfact>
</mgrwt>
</event>
<event>
 6    1  0.4261782E-002  0.1275910E+03  0.7546771E-02  0.1231075E+00
         21   -1    0    0  504  502  0.00000000000E+00  0.00000000000E+00  0.46567049072E+02  0.46567049072E+02  0.00000000000E+00 0.  1.
         21   -1    0    0  502  503 -0.00000000000E+00 -0.00000000000E+00 -0.13598016168E+03  0.13598016168E+03  0.00000000000E+00 0.  1.
         25    2    1    2    0    0  0.91517925207E+01  0.23872897166E+02 -0.91328183223E+02  0.15690860664E+03  0.12500321300E+03 0.  0.
          5    1    3    3  501    0 -0.24970217586E+02  0.29133711106E+02  0.17909806748E+02  0.42344492757E+02  0.10000000000E+00 0. -1.
         -5    1    3    3    0  501  0.34122010106E+02 -0.52608139395E+01 -0.10923798997E+03  0.11456411388E+03  0.10000000000E+00 0. -1.
         21    1    1    2  504  503 -0.91517925207E+01 -0.23872897166E+02  0.19150706134E+01  0.25638604114E+02  0.00000000000E+00 0.  1.
<mgrwt>
<rscale>  1 0.12759104E+03</rscale>
<asrwt>0</asrwt>
<pdfrwt beam="1">  1       21 0.71641615E-02 0.12759104E+03</pdfrwt>
<pdfrwt beam="2">  1       21 0.20920024E-01 0.12759104E+03</pdfrwt>
<totfact> 0.30516761E+06</totfact>
</mgrwt>
</event>
<event>
 6    1  0.4261782E-002  0.1337893E+03  0.7546771E-02  0.1221939E+00
         21   -1    0    0  503  502  0.00000000000E+00  0.00000000000E+00  0.89254189259E+02  0.89254189259E+02  0.00000000000E+00 0. -1.
         21   -1    0    0  504  503 -0.00000000000E+00 -0.00000000000E+00 -0.96613842150E+02  0.96613842150E+02  0.00000000000E+00 0. -1.
         25    2    1    2    0    0 -0.37875807744E+02 -0.28993954091E+02 -0.22828785156E+02  0.13572303925E+03  0.12499745503E+03 0.  0.
          5    1    3    3  501    0 -0.82734471804E+02 -0.17322906377E+02 -0.28088802010E+02  0.89073378225E+02  0.10000000000E+00 0.  1.
         -5    1    3    3    0  501  0.44858664060E+02 -0.11671047714E+02  0.52600168537E+01  0.46649661020E+02  0.10000000000E+00 0.  1.
         21    1    1    2  504  502  0.37875807744E+02  0.28993954091E+02  0.15469132264E+02  0.50144992164E+02  0.00000000000E+00 0. -1.
<mgrwt>
<rscale>  1 0.13378935E+03</rscale>
<asrwt>0</asrwt>
<pdfrwt beam="1">  1       21 0.13731414E-01 0.13378935E+03</pdfrwt>
<pdfrwt beam="2">  1       21 0.14863668E-01 0.13378935E+03</pdfrwt>
<totfact> 0.18289718E+06</totfact>
</mgrwt>
</event>
<event>
 6    1  0.4261782E-002  0.1305042E+03  0.7546771E-02  0.1226710E+00
         21   -1    0    0  504  502  0.00000000000E+00  0.00000000000E+00  0.60376488060E+02  0.60376488060E+02  0.00000000000E+00 0. -1.
         21   -1    0    0  502  503 -0.00000000000E+00 -0.00000000000E+00 -0.11739794070E+03  0.11739794070E+03  0.00000000000E+00 0. -1.
         25    2    1    2    0    0 -0.35552519834E+02  0.11914266040E+02 -0.39238601975E+02  0.13627549890E+03  0.12500164924E+03 0.  0.
          5    1    3    3  501    0 -0.52052483204E+02  0.18495124618E+02  0.31329033344E+02  0.63506290811E+02  0.10000000000E+00 0. -1.
         -5    1    3    3    0  501  0.16499963370E+02 -0.65808585779E+01 -0.70567635319E+02  0.72769208085E+02  0.10000000000E+00 0. -1.
         21    1    1    2  504  503  0.35552519834E+02 -0.11914266040E+02 -0.17782850660E+02  0.41498929859E+02  0.00000000000E+00 0.  1.
<mgrwt>
<rscale>  1 0.13050419E+03</rscale>
<asrwt>0</asrwt>
<pdfrwt beam="1">  1       21 0.92886905E-02 0.13050419E+03</pdfrwt>
<pdfrwt beam="2">  1       21 0.18061222E-01 0.13050419E+03</pdfrwt>
<totfact> 0.25577538E+06</totfact>
</mgrwt>
</event>
<event>
 6    1  0.4261782E-002  0.1263861E+03  0.7546771E-02  0.1232919E+00
         21   -1    0    0  503  502  0.00000000000E+00  0.00000000000E+00  0.64574688864E+02  0.64574688864E+02  0.00000000000E+00 0.  1.
         21   -1    0    0  504  503 -0.00000000000E+00 -0.00000000000E+00 -0.98244145819E+03  0.98244145819E+03  0.00000000000E+00 0. -1.
         25    2    1    2    0    0 -0.91046151261E+01  0.16389848525E+02 -0.97691823858E+03  0.98505973357E+03  0.12498765009E+03 0.  0.
          5    1    3    3  501    0 -0.59775515647E+02  0.18479658092E+02 -0.31207865161E+03  0.31828871301E+03  0.10000000000E+00 0.  1.
         -5    1    3    3    0  501  0.50670900520E+02 -0.20898095672E+01 -0.66483958697E+03  0.66677102056E+03  0.10000000000E+00 0.  1.
         21    1    1    2  504  502  0.91046151261E+01 -0.16389848525E+02  0.59051469253E+02  0.61956413487E+02  0.00000000000E+00 0.  1.
<mgrwt>
<rscale>  1 0.12638605E+03</rscale>
<asrwt>0</asrwt>
<pdfrwt beam="1">  1       21 0.99345674E-02 0.12638605E+03</pdfrwt>
<pdfrwt beam="2">  1       21 0.15114484E+00 0.12638605E+03</pdfrwt>
<totfact> 0.25219778E+04</totfact>
</mgrwt>
</event>
<event>
 6    1  0.4261782E-002  0.1276524E+03  0.7546771E-02  0.1230981E+00
         21   -1    0    0  503  502  0.00000000000E+00  0.00000000000E+00  0.27921623143E+03  0.27921623143E+03  0.00000000000E+00 0. -1.
         21   -1    0    0  504  503 -0.00000000000E+00 -0.00000000000E+00 -0.23137099136E+02  0.23137099136E+02  0.00000000000E+00 0. -1.
         25    2    1    2    0    0  0.16640812255E+02 -0.19822069475E+02  0.17078932929E+03  0.21322319219E+03  0.12500121446E+03 0.  0.
          5    1    3    3  501    0  0.24851720062E+02  0.42696070356E+02  0.12750585228E+03  0.13674178139E+03  0.10000000000E+00 0.  1.
         -5    1    3    3    0  501 -0.82109078065E+01 -0.62518139831E+02  0.43283477015E+02  0.76481410797E+02  0.10000000000E+00 0.  1.
         21    1    1    2  504  502 -0.16640812255E+02  0.19822069475E+02  0.85289803006E+02  0.89130138380E+02  0.00000000000E+00 0. -1.
<mgrwt>
<rscale>  1 0.12765240E+03</rscale>
<asrwt>0</asrwt>
<pdfrwt beam="1">  1       21 0.42956341E-01 0.12765240E+03</pdfrwt>
<pdfrwt beam="2">  1       21 0.35595539E-02 0.12765240E+03</pdfrwt>
<totfact> 0.24647052E+06</totfact>
</mgrwt>
</event>
<event>
 6    1  0.4261782E-002  0.1294707E+03  0.7546771E-02  0.1228243E+00
         21   -1    0    0  503  502  0.00000000000E+00  0.00000000000E+00  0.87181208573E+03  0.87181208573E+03  0.00000000000E+00 0. -1.
         21   -1    0    0  504  503 -0.00000000000E+00 -0.00000000000E+00 -0.21375303087E+02  0.21375303087E+02  0.00000000000E+00 0.  1.
         25    2    1    2    0    0  0.67267561547E+01  0.33111268619E+02  0.17907699749E+03  0.22097792260E+03  0.12498426256E+03 0.  0.
          5    1    3    3  501    0  0.19133180063E+02  0.22477500539E+02 -0.10022806469E+02  0.31173438362E+02  0.10000000000E+00 0.  1.
         -5    1    3    3    0  501 -0.12406423908E+02  0.10633768080E+02  0.18909980396E+03  0.18980448423E+03  0.10000000000E+00 0.  1.
         21    1    1    2  504  502 -0.67267561547E+01 -0.33111268619E+02  0.67135978516E+03  0.67220946622E+03  0.00000000000E+00 0. -1.
<mgrwt>
<rscale>  1 0.12947074E+03</rscale>
<asrwt>0</asrwt>
<pdfrwt beam="1">  1       21 0.13412491E+00 0.12947074E+03</pdfrwt>
<pdfrwt beam="2">  1       21 0.32885088E-02 0.12947074E+03</pdfrwt>
<totfact> 0.22193711E+05</totfact>
</mgrwt>
</event>
<event>
 6    1  0.4261782E-002  0.1282413E+03  0.7546771E-02  0.1230089E+00
         21   -1    0    0  504  502  0.00000000000E+00  0.00000000000E+00  0.15078125148E+03  0.15078125148E+03  0.00000000000E+00 0. -1.
         21   -1    0    0  502  503 -0.00000000000E+00 -0.00000000000E+00 -0.54106442521E+03  0.54106442521E+03  0.00000000000E+00 0.  1.
         25    2    1    2    0    0 -0.14019087967E+02  0.24986713183E+02 -0.53201194579E+03  0.54724998003E+03  0.12499983808E+03 0.  0.
          5    1    3    3  501    0 -0.11053695358E+01  0.63408269273E+02 -0.46214788470E+03  0.46647883960E+03  0.10000000000E+00 0.  1.
         -5    1    3    3    0  501 -0.12913718431E+02 -0.38421556090E+02 -0.69864061087E+02  0.80771140438E+02  0.10000000000E+00 0.  1.
         21    1    1    2  504  503  0.14019087967E+02 -0.24986713183E+02  0.14172877206E+03  0.14459569666E+03  0.00000000000E+00 0. -1.
<mgrwt>
<rscale>  1 0.12824130E+03</rscale>
<asrwt>0</asrwt>
<pdfrwt beam="1">  1       21 0.23197116E-01 0.12824130E+03</pdfrwt>
<pdfrwt beam="2">  1       21 0.83240679E-01 0.12824130E+03</pdfrwt>
<totfact> 0.22878041E+04</totfact>
</mgrwt>
</event>
<event>
 6    1  0.4261782E-002  0.1261576E+03  0.7546771E-02  0.1233271E+00
         21   -1    0    0  503  502  0.00000000000E+00  0.00000000000E+00  0.10630999973E+03  0.10630999973E+03  0.00000000000E+00 0.  1.
         21   -1    0    0  504  503 -0.00000000000E+00 -0.00000000000E+00 -0.82486254249E+02  0.82486254249E+02  0.00000000000E+00 0.  1.
         25    2    1    2    0    0 -0.16878891958E+02 -0.11742578785E+00 -0.32268768736E+02  0.13021911737E+03  0.12502333506E+03 0.  0.
          5    1    3    3  501    0 -0.12114275906E+02  0.34546027568E+02 -0.69855641248E+02  0.78867003973E+02  0.10000000000E+00 0.  1.
         -5    1    3    3    0  501 -0.47646160513E+01 -0.34663453356E+02  0.37586872513E+02  0.51352113394E+02  0.10000000000E+00 0.  1.
         21    1    1    2  504  502  0.16878891958E+02  0.11742578785E+00  0.56092514220E+02  0.58577136615E+02  0.00000000000E+00 0.  1.
<mgrwt>
<rscale>  1 0.12615762E+03</rscale>
<asrwt>0</asrwt>
<pdfrwt beam="1">  1       21 0.16355385E-01 0.12615762E+03</pdfrwt>
<pdfrwt beam="2">  1       21 0.12690193E-01 0.12615762E+03</pdfrwt>
<totfact> 0.17683648E+06</totfact>
</mgrwt>
</event>
<event>
 6    1  0.4261782E-002  0.1278227E+03  0.7546771E-02  0.1230723E+00
         21   -1    0    0  503  502  0.00000000000E+00  0.00000000000E+00  0.39037491208E+03  0.39037491208E+03  0.00000000000E+00 0. -1.
         21   -1    0    0  504  503 -0.00000000000E+00 -0.00000000000E+00 -0.15297123319E+02  0.15297123319E+02  0.00000000000E+00 0. -1.
         25    2    1    2    0    0  0.18930398017E+02 -0.18856870625E+02  0.30845957928E+03  0.33389510754E+03  0.12499875699E+03 0.  0.
          5    1    3    3  501    0 -0.38193347993E+02 -0.36253927386E+02  0.22618605085E+03  0.23223526580E+03  0.10000000000E+00 0.  1.
         -5    1    3    3    0  501  0.57123746010E+02  0.17397056761E+02  0.82273528436E+02  0.10165984174E+03  0.10000000000E+00 0.  1.
         21    1    1    2  504  502 -0.18930398017E+02  0.18856870625E+02  0.66618209481E+02  0.71776927862E+02  0.00000000000E+00 0. -1.
<mgrwt>
<rscale>  1 0.12782265E+03</rscale>
<asrwt>0</asrwt>
<pdfrwt beam="1">  1       21 0.60057671E-01 0.12782265E+03</pdfrwt>
<pdfrwt beam="2">  1       21 0.23534039E-02 0.12782265E+03</pdfrwt>
<totfact> 0.24263436E+06</totfact>
</mgrwt>
</event>
<event>
 6    1  0.4261782E-002  0.1264398E+03  0.7546771E-02  0.1232836E+00
         21   -1    0    0  504  502  0.00000000000E+00  0.00000000000E+00  0.23859599703E+03  0.23859599703E+03  0.00000000000E+00 0.  1.
         21   -1    0    0  502  503 -0.00000000000E+00 -0.00000000000E+00 -0.22287191202E+02  0.22287191202E+02  0.00000000000E+00 0.  1.
         25    2    1    2    0    0  0.18670042374E+02  0.34489700978E+01  0.19428736130E+03  0.23180725495E+03  0.12500623509E+03 0.  0.
          5    1    3    3  501    0  0.56065451676E+02 -0.12807986358E+02  0.34865547681E+02  0.67253221494E+02  0.10000000000E+00 0. -1.
         -5    1    3    3    0  501 -0.37395409302E+02  0.16256956456E+02  0.15942181362E+03  0.16455403346E+03  0.10000000000E+00 0. -1.
         21    1    1    2  504  503 -0.18670042374E+02 -0.34489700978E+01  0.22021444526E+02  0.29075933278E+02  0.00000000000E+00 0.  1.
<mgrwt>
<rscale>  1 0.12643981E+03</rscale>
<asrwt>0</asrwt>
<pdfrwt beam="1">  1       21 0.36707075E-01 0.12643981E+03</pdfrwt>
<pdfrwt beam="2">  1       21 0.34287988E-02 0.12643981E+03</pdfrwt>
<totfact> 0.35871007E+06</totfact>
</mgrwt>
</event>
<event>
 6    1  0.4261782E-002  0.1364027E+03  0.7546771E-02  0.1218253E+00
         21   -1    0    0  504  502  0.00000000000E+00  0.00000000000E+00  0.24427671661E+02  0.24427671661E+02  0.00000000000E+00 0. -1.
         21   -1    0    0  502  503 -0.00000000000E+00 -0.00000000000E+00 -0.39700949346E+03  0.39700949346E+03  0.00000000000E+00 0. -1.
         25    2    1    2    0    0  0.53375169701E+02  0.11449236724E+02 -0.30814636320E+03  0.33698645709E+03  0.12500278936E+03 0.  0.
          5    1    3    3  501    0  0.80401518026E+02  0.43400314071E+02 -0.17496250768E+03  0.19738257384E+03  0.10000000000E+00 0.  1.
         -5    1    3    3    0  501 -0.27026348326E+02 -0.31951077347E+02 -0.13318385552E+03  0.13960388325E+03  0.10000000000E+00 0.  1.
         21    1    1    2  504  503 -0.53375169701E+02 -0.11449236724E+02 -0.64435458606E+02  0.84450708037E+02  0.00000000000E+00 0. -1.
<mgrwt>
<rscale>  1 0.13640268E+03</rscale>
<asrwt>0</asrwt>
<pdfrwt beam="1">  1       21 0.37581034E-02 0.13640268E+03</pdfrwt>
<pdfrwt beam="2">  1       21 0.61078382E-01 0.13640268E+03</pdfrwt>
<totfact> 0.10872650E+06</totfact>
</mgrwt>
</event>
<event>
 6    1  0.4261782E-002  0.1264101E+03  0.7546771E-02  0.1232882E+00
         21   -1    0    0  504  502  0.00000000000E+00  0.00000000000E+00  0.17857052415E+03  0.17857052415E+03  0.00000000000E+00 0. -1.
         21   -1    0    0  502  503 -0.00000000000E+00 -0.00000000000E+00 -0.36428689387E+02  0.36428689387E+02  0.00000000000E+00 0. -1.
         25    2    1    2    0    0  0.57865277036E+01 -0.17879959196E+02  0.78872755980E+02  0.14899805314E+03  0.12500532533E+03 0.  0.
          5    1    3    3  501    0 -0.61011583954E+01  0.17142627664E+02 -0.29403957009E+02  0.34578844758E+02  0.10000000000E+00 0.  1.
         -5    1    3    3    0  501  0.11887686099E+02 -0.35022586860E+02  0.10827671299E+03  0.11441920838E+03  0.10000000000E+00 0.  1.
         21    1    1    2  504  503 -0.57865277036E+01  0.17879959196E+02  0.63269078787E+02  0.66001160401E+02  0.00000000000E+00 0. -1.
<mgrwt>
<rscale>  1 0.12641008E+03</rscale>
<asrwt>0</asrwt>
<pdfrwt beam="1">  1       21 0.27472388E-01 0.12641008E+03</pdfrwt>
<pdfrwt beam="2">  1       21 0.56044139E-02 0.12641008E+03</pdfrwt>
<totfact> 0.27738573E+06</totfact>
</mgrwt>
</event>
<event>
 6    1  0.4261782E-002  0.1342100E+03  0.7546771E-02  0.1221339E+00
         21   -1    0    0  504  502  0.00000000000E+00  0.00000000000E+00  0.37599231799E+03  0.37599231799E+03  0.00000000000E+00 0. -1.
         21   -1    0    0  502  503 -0.00000000000E+00 -0.00000000000E+00 -0.25730160270E+02  0.25730160270E+02  0.00000000000E+00 0. -1.
         25    2    1    2    0    0  0.47718298077E+02  0.10369758564E+02  0.31214624945E+03  0.33977580501E+03  0.12501099454E+03 0.  0.
          5    1    3    3  501    0 -0.23575474065E+02 -0.12673959296E+02  0.21712254330E+03  0.21876617890E+03  0.10000000000E+00 0.  1.
         -5    1    3    3    0  501  0.71293772143E+02  0.23043717860E+02  0.95023706152E+02  0.12100962610E+03  0.10000000000E+00 0.  1.
         21    1    1    2  504  503 -0.47718298077E+02 -0.10369758564E+02  0.38115908265E+02  0.61946673251E+02  0.00000000000E+00 0. -1.
<mgrwt>
<rscale>  1 0.13420997E+03</rscale>
<asrwt>0</asrwt>
<pdfrwt beam="1">  1       21 0.57844968E-01 0.13420997E+03</pdfrwt>
<pdfrwt beam="2">  1       21 0.39584865E-02 0.13420997E+03</pdfrwt>
<totfact> 0.11194771E+06</totfact>
</mgrwt>
</event>
<event>
 6    1  0.4261782E-002  0.1269702E+03  0.7546771E-02  0.1232022E+00
         21   -1    0    0  503  502  0.00000000000E+00  0.00000000000E+00  0.20310037639E+03  0.20310037639E+03  0.00000000000E+00 0.  1.
         21   -1    0    0  504  503 -0.00000000000E+00 -0.00000000000E+00 -0.36586014503E+02  0.36586014503E+02  0.00000000000E+00 0.  1.
         25    2    1    2    0    0  0.12152351400E+02 -0.18702273653E+02  0.79377737017E+02  0.14974059567E+03  0.12499586463E+03 0.  0.
          5    1    3    3  501    0  0.37697469312E+02  0.20272285963E+02  0.91992822080E+02  0.10146306759E+03  0.10000000000E+00 0.  1.
         -5    1    3    3    0  501 -0.25545117913E+02 -0.38974559616E+02 -0.12615085063E+02  0.48277528080E+02  0.10000000000E+00 0.  1.
         21    1    1    2  504  502 -0.12152351400E+02  0.18702273653E+02  0.87136624874E+02  0.89945795226E+02  0.00000000000E+00 0.  1.
<mgrwt>
<rscale>  1 0.12697016E+03</rscale>
<asrwt>0</asrwt>
<pdfrwt beam="1">  1       21 0.31246211E-01 0.12697016E+03</pdfrwt>
<pdfrwt beam="2">  1       21 0.56286177E-02 0.12697016E+03</pdfrwt>
<totfact> 0.21502768E+06</totfact>
</mgrwt>
</event>
<event>
 6    1  0.4261782E-002  0.1344505E+03  0.7546771E-02  0.1220997E+00
         21   -1    0    0  504  502  0.00000000000E+00  0.00000000000E+00  0.54832695612E+03  0.54832695612E+03  0.00000000000E+00 0. -1.
         21   -1    0    0  502  503 -0.00000000000E+00 -0.00000000000E+00 -0.17756917706E+02  0.17756917706E+02  0.00000000000E+00 0. -1.
         25    2    1    2    0    0 -0.29109731877E+02 -0.40052590038E+02  0.27923270961E+03  0.30991588342E+03  0.12500144888E+03 0.  0.
          5    1    3    3  501    0  0.34884693269E+02 -0.68241005126E+01  0.19883541795E+02  0.40729294207E+02  0.10000000000E+00 0.  1.
         -5    1    3    3    0  501 -0.63994425146E+02 -0.33228489525E+02  0.25934916781E+03  0.26918658921E+03  0.10000000000E+00 0.  1.
         21    1    1    2  504  503  0.29109731877E+02  0.40052590038E+02  0.25133732881E+03  0.25616799041E+03  0.00000000000E+00 0. -1.
<mgrwt>
<rscale>  1 0.13445054E+03</rscale>
<asrwt>0</asrwt>
<pdfrwt beam="1">  1       21 0.84357980E-01 0.13445054E+03</pdfrwt>
<pdfrwt beam="2">  1       21 0.27318339E-02 0.13445054E+03</pdfrwt>
<totfact> 0.90508856E+05</totfact>
</mgrwt>
</event>
<event>
 6    1  0.4261782E-002  0.1825830E+03  0.7546771E-02  0.1165326E+00
         21   -1    0    0  503  502  0.00000000000E+00  0.00000000000E+00  0.24148443410E+04  0.24148443410E+04  0.00000000000E+00 0. -1.
         21   -1    0    0  504  503 -0.00000000000E+00 -0.00000000000E+00 -0.74495479713E+02  0.74495479713E+02  0.00000000000E+00 0.  1.
         25    2    1    2    0    0 -0.95912007330E+02 -0.92260237325E+02  0.42271846495E+02  0.18741257806E+03  0.12500200346E+03 0.  0.
          5    1    3    3  501    0 -0.12313429251E+03 -0.71645790657E+02  0.52404389346E+02  0.15179395026E+03  0.10000000000E+00 0.  1.
         -5    1    3    3    0  501  0.27222285185E+02 -0.20614446667E+02 -0.10132542851E+02  0.35618627805E+02  0.10000000000E+00 0.  1.
         21    1    1    2  504  502  0.95912007330E+02  0.92260237325E+02  0.22980770148E+04  0.23019272426E+04  0.00000000000E+00 0. -1.
<mgrwt>
<rscale>  1 0.18258304E+03</rscale>
<asrwt>0</asrwt>
<pdfrwt beam="1">  1       21 0.37151445E+00 0.18258304E+03</pdfrwt>
<pdfrwt beam="2">  1       21 0.11460845E-01 0.18258304E+03</pdfrwt>
<totfact> 0.84245631E+02</totfact>
</mgrwt>
</event>
<event>
 6    1  0.4261782E-002  0.1259040E+03  0.7546771E-02  0.1233663E+00
         21   -1    0    0  504  502  0.00000000000E+00  0.00000000000E+00  0.71523181517E+03  0.71523181517E+03  0.00000000000E+00 0. -1.
         21   -1    0    0  502  503 -0.00000000000E+00 -0.00000000000E+00 -0.72917484171E+01  0.72917484171E+01  0.00000000000E+00 0. -1.
         25    2    1    2    0    0  0.10163976650E+02  0.11154613899E+02  0.56881532004E+03  0.58258276546E+03  0.12499631381E+03 0.  0.
          5    1    3    3  501    0 -0.54344106681E+02 -0.91193930196E+01  0.19211046549E+03  0.19985716452E+03  0.10000000000E+00 0. -1.
         -5    1    3    3    0  501  0.64508083331E+02  0.20274006918E+02  0.37670485455E+03  0.38272560094E+03  0.10000000000E+00 0. -1.
         21    1    1    2  504  503 -0.10163976650E+02 -0.11154613899E+02  0.13912474672E+03  0.13994079813E+03  0.00000000000E+00 0. -1.
<mgrwt>
<rscale>  1 0.12590397E+03</rscale>
<asrwt>0</asrwt>
<pdfrwt beam="1">  1       21 0.11003561E+00 0.12590397E+03</pdfrwt>
<pdfrwt beam="2">  1       21 0.11218080E-02 0.12590397E+03</pdfrwt>
<totfact> 0.20390887E+06</totfact>
</mgrwt>
</event>
<event>
 6    1  0.4261782E-002  0.1291393E+03  0.7546771E-02  0.1228738E+00
         21   -1    0    0  503  502  0.00000000000E+00  0.00000000000E+00  0.69293158431E+02  0.69293158431E+02  0.00000000000E+00 0. -1.
         21   -1    0    0  504  503 -0.00000000000E+00 -0.00000000000E+00 -0.13285684155E+03  0.13285684155E+03  0.00000000000E+00 0. -1.
         25    2    1    2    0    0 -0.30860184400E+02  0.10054512574E+02 -0.92353639212E+02  0.15876445198E+03  0.12499404918E+03 0.  0.
          5    1    3    3  501    0  0.41988807660E+02  0.25840872007E+02 -0.59589347233E+02  0.77341521439E+02  0.10000000000E+00 0. -1.
         -5    1    3    3    0  501 -0.72848992059E+02 -0.15786359434E+02 -0.32764291979E+02  0.81422930536E+02  0.10000000000E+00 0. -1.
         21    1    1    2  504  502  0.30860184400E+02 -0.10054512574E+02  0.28789956091E+02  0.43385548008E+02  0.00000000000E+00 0. -1.
<mgrwt>
<rscale>  1 0.12913929E+03</rscale>
<asrwt>0</asrwt>
<pdfrwt beam="1">  1       21 0.10660486E-01 0.12913929E+03</pdfrwt>
<pdfrwt beam="2">  1       21 0.20439514E-01 0.12913929E+03</pdfrwt>
<totfact> 0.15999922E+06</totfact>
</mgrwt>
</event>
<event>
 6    1  0.4261782E-002  0.1259910E+03  0.7546771E-02  0.1233529E+00
         21   -1    0    0  503  502  0.00000000000E+00  0.00000000000E+00  0.75276260184E+02  0.75276260184E+02  0.00000000000E+00 0.  1.
         21   -1    0    0  504  503 -0.00000000000E+00 -0.00000000000E+00 -0.73931424023E+02  0.73931424023E+02  0.00000000000E+00 0.  1.
         25    2    1    2    0    0  0.10979202476E+02 -0.11350235058E+02 -0.14517896782E+02  0.12682472150E+03  0.12499747971E+03 0.  0.
          5    1    3    3  501    0  0.40903481427E+02 -0.12622347165E+02 -0.59186265115E+02  0.73044112830E+02  0.10000000000E+00 0. -1.
         -5    1    3    3    0  501 -0.29924278951E+02  0.12721121072E+01  0.44668368333E+02  0.53780608675E+02  0.10000000000E+00 0. -1.
         21    1    1    2  504  502 -0.10979202476E+02  0.11350235058E+02  0.15862732943E+02  0.22382962702E+02  0.00000000000E+00 0.  1.
<mgrwt>
<rscale>  1 0.12599103E+03</rscale>
<asrwt>0</asrwt>
<pdfrwt beam="1">  1       21 0.11580963E-01 0.12599103E+03</pdfrwt>
<pdfrwt beam="2">  1       21 0.11374065E-01 0.12599103E+03</pdfrwt>
<totfact> 0.39814121E+06</totfact>
</mgrwt>
</event>
<event>
 6    1  0.4261782E-002  0.1264413E+03  0.7546771E-02  0.1232834E+00
         21   -1    0    0  503  502  0.00000000000E+00  0.00000000000E+00  0.32219781242E+03  0.32219781242E+03  0.00000000000E+00 0.  1.
         21   -1    0    0  504  503 -0.00000000000E+00 -0.00000000000E+00 -0.18204380055E+02  0.18204380055E+02  0.00000000000E+00 0.  1.
         25    2    1    2    0    0 -0.15342784769E+02  0.11279865079E+02  0.21525931862E+03  0.24964769207E+03  0.12499903802E+03 0.  0.
          5    1    3    3  501    0 -0.14883173907E+02  0.55531544324E+02  0.19039735352E+03  0.19888796722E+03  0.10000000000E+00 0.  1.
         -5    1    3    3    0  501 -0.45961086225E+00 -0.44251679245E+02  0.24861965103E+02  0.50759724851E+02  0.10000000000E+00 0.  1.
         21    1    1    2  504  502  0.15342784769E+02 -0.11279865079E+02  0.88734113749E+02  0.90754500403E+02  0.00000000000E+00 0.  1.
<mgrwt>
<rscale>  1 0.12644127E+03</rscale>
<asrwt>0</asrwt>
<pdfrwt beam="1">  1       21 0.49568890E-01 0.12644127E+03</pdfrwt>
<pdfrwt beam="2">  1       21 0.28006741E-02 0.12644127E+03</pdfrwt>
<totfact> 0.27288751E+06</totfact>
</mgrwt>
</event>
<event>
 6    1  0.4261782E-002  0.1268833E+03  0.7546771E-02  0.1232155E+00
         21   -1    0    0  504  502  0.00000000000E+00  0.00000000000E+00  0.96803141079E+02  0.96803141079E+02  0.00000000000E+00 0. -1.
         21   -1    0    0  502  503 -0.00000000000E+00 -0.00000000000E+00 -0.93694819592E+02  0.93694819592E+02  0.00000000000E+00 0. -1.
         25    2    1    2    0    0 -0.11697833390E+02  0.18340172037E+02 -0.47444505811E+02  0.13546352087E+03  0.12500473246E+03 0.  0.
          5    1    3    3  501    0 -0.55046948678E+02  0.42483197003E+02 -0.50210274081E+02  0.85767535873E+02  0.10000000000E+00 0. -1.
         -5    1    3    3    0  501  0.43349115288E+02 -0.24143024965E+02  0.27657682700E+01  0.49695984997E+02  0.10000000000E+00 0. -1.
         21    1    1    2  504  503  0.11697833390E+02 -0.18340172037E+02  0.50552827298E+02  0.55034439801E+02  0.00000000000E+00 0. -1.
<mgrwt>
<rscale>  1 0.12688335E+03</rscale>
<asrwt>0</asrwt>
<pdfrwt beam="1">  1       21 0.14892791E-01 0.12688335E+03</pdfrwt>
<pdfrwt beam="2">  1       21 0.14414588E-01 0.12688335E+03</pdfrwt>
<totfact> 0.16683317E+06</totfact>
</mgrwt>
</event>
<event>
 6    1  0.4261782E-002  0.1340019E+03  0.7546771E-02  0.1221636E+00
         21   -1    0    0  504  502  0.00000000000E+00  0.00000000000E+00  0.85322703526E+03  0.85322703526E+03  0.00000000000E+00 0.  1.
         21   -1    0    0  502  503 -0.00000000000E+00 -0.00000000000E+00 -0.97593017884E+01  0.97593017884E+01  0.00000000000E+00 0.  1.
         25    2    1    2    0    0  0.27991147405E+02 -0.39165557942E+02  0.59578376187E+03  0.61066750095E+03  0.12505622954E+03 0.  0.
          5    1    3    3  501    0 -0.16512716842E+02 -0.33729408540E+02  0.47494444870E+02  0.60548122279E+02  0.10000000000E+00 0.  1.
         -5    1    3    3    0  501  0.44503864247E+02 -0.54361494023E+01  0.54828931700E+03  0.55011937867E+03  0.10000000000E+00 0.  1.
         21    1    1    2  504  503 -0.27991147405E+02  0.39165557942E+02  0.24768397161E+03  0.25231883610E+03  0.00000000000E+00 0.  1.
<mgrwt>
<rscale>  1 0.13400189E+03</rscale>
<asrwt>0</asrwt>
<pdfrwt beam="1">  1       21 0.13126564E+00 0.13400189E+03</pdfrwt>
<pdfrwt beam="2">  1       21 0.15014317E-02 0.13400189E+03</pdfrwt>
<totfact> 0.83410931E+05</totfact>
</mgrwt>
</event>
<event>
 6    1  0.4261782E-002  0.1630630E+03  0.7546771E-02  0.1185281E+00
         21   -1    0    0  504  502  0.00000000000E+00  0.00000000000E+00  0.31524106312E+03  0.31524106312E+03  0.00000000000E+00 0. -1.
         21   -1    0    0  502  503 -0.00000000000E+00 -0.00000000000E+00 -0.12801752756E+03  0.12801752756E+03  0.00000000000E+00 0. -1.
         25    2    1    2    0    0 -0.88810554738E+02 -0.55458464971E+02 -0.60808516067E+02  0.17403219040E+03  0.12500628664E+03 0.  0.
          5    1    3    3  501    0 -0.92656723971E+02 -0.67937605000E+02 -0.87431994362E+02  0.14437849670E+03  0.10000000000E+00 0.  1.
         -5    1    3    3    0  501  0.38461692329E+01  0.12479140029E+02  0.26623478295E+02  0.29653693702E+02  0.10000000000E+00 0.  1.
         21    1    1    2  504  503  0.88810554738E+02  0.55458464971E+02  0.24803205163E+03  0.26922640028E+03  0.00000000000E+00 0. -1.
<mgrwt>
<rscale>  1 0.16306296E+03</rscale>
<asrwt>0</asrwt>
<pdfrwt beam="1">  1       21 0.48498625E-01 0.16306296E+03</pdfrwt>
<pdfrwt beam="2">  1       21 0.19695004E-01 0.16306296E+03</pdfrwt>
<totfact> 0.97583857E+04</totfact>
</mgrwt>
</event>
<event>
 6    1  0.4261782E-002  0.1262625E+03  0.7546771E-02  0.1233109E+00
         21   -1    0    0  503  502  0.00000000000E+00  0.00000000000E+00  0.71492865975E+01  0.71492865975E+01  0.00000000000E+00 0. -1.
         21   -1    0    0  504  503 -0.00000000000E+00 -0.00000000000E+00 -0.10893011296E+04  0.10893011296E+04  0.00000000000E+00 0. -1.
         25    2    1    2    0    0  0.17181404359E+02 -0.46648353502E+01 -0.10623299406E+04  0.10698070463E+04  0.12500100914E+03 0.  0.
          5    1    3    3  501    0  0.39443787091E+02  0.27230295780E+02 -0.94465781369E+03  0.94587298107E+03  0.10000000000E+00 0.  1.
         -5    1    3    3    0  501 -0.22262382732E+02 -0.31895131130E+02 -0.11767212690E+03  0.12393406523E+03  0.10000000000E+00 0.  1.
         21    1    1    2  504  502 -0.17181404359E+02  0.46648353502E+01 -0.19821902420E+02  0.26643369910E+02  0.00000000000E+00 0. -1.
<mgrwt>
<rscale>  1 0.12626248E+03</rscale>
<asrwt>0</asrwt>
<pdfrwt beam="1">  1       21 0.10998914E-02 0.12626248E+03</pdfrwt>
<pdfrwt beam="2">  1       21 0.16758462E+00 0.12626248E+03</pdfrwt>
<totfact> 0.72797389E+05</totfact>
</mgrwt>
</event>
<event>
 6    1  0.4261782E-002  0.1534253E+03  0.7546771E-02  0.1196326E+00
         21   -1    0    0  503  502  0.00000000000E+00  0.00000000000E+00  0.21672901329E+03  0.21672901329E+03  0.00000000000E+00 0. -1.
         21   -1    0    0  504  503 -0.00000000000E+00 -0.00000000000E+00 -0.67839766159E+02  0.67839766159E+02  0.00000000000E+00 0. -1.
         25    2    1    2    0    0 -0.88255487535E+02 -0.10916330139E+02  0.99169745634E+02  0.18268538447E+03  0.12502445323E+03 0.  0.
          5    1    3    3  501    0  0.52352332364E+01 -0.51108162938E+02  0.38592054635E+02  0.64255806484E+02  0.10000000000E+00 0.  1.
         -5    1    3    3    0  501 -0.93490720771E+02  0.40191832799E+02  0.60577691000E+02  0.11842957798E+03  0.10000000000E+00 0.  1.
         21    1    1    2  504  502  0.88255487535E+02  0.10916330139E+02  0.49719501492E+02  0.10188339498E+03  0.00000000000E+00 0. -1.
<mgrwt>
<rscale>  1 0.15342526E+03</rscale>
<asrwt>0</asrwt>
<pdfrwt beam="1">  1       21 0.33342925E-01 0.15342526E+03</pdfrwt>
<pdfrwt beam="2">  1       21 0.10436887E-01 0.15342526E+03</pdfrwt>
<totfact> 0.65467143E+05</totfact>
</mgrwt>
</event>
<event>
 6    1  0.4261782E-002  0.1259750E+03  0.7546771E-02  0.1233553E+00
         21   -1    0    0  504  502  0.00000000000E+00  0.00000000000E+00  0.95459096409E+01  0.95459096409E+01  0.00000000000E+00 0. -1.
         21   -1    0    0  502  503 -0.00000000000E+00 -0.00000000000E+00 -0.56168240149E+03  0.56168240149E+03  0.00000000000E+00 0. -1.
         25    2    1    2    0    0  0.35332767575E+00 -0.15277873396E+02 -0.52668672103E+03  0.54154280810E+03  0.12504468254E+03 0.  0.
          5    1    3    3  501    0 -0.13889466278E+02 -0.50132599591E+02 -0.47365813920E+03  0.47650628291E+03  0.10000000000E+00 0.  1.
         -5    1    3    3    0  501  0.14242793954E+02  0.34854726195E+02 -0.53028581829E+02  0.65036525188E+02  0.10000000000E+00 0.  1.
         21    1    1    2  504  503 -0.35332767575E+00  0.15277873396E+02 -0.25449770819E+02  0.29685503039E+02  0.00000000000E+00 0. -1.
<mgrwt>
<rscale>  1 0.12597504E+03</rscale>
<asrwt>0</asrwt>
<pdfrwt beam="1">  1       21 0.14686016E-02 0.12597504E+03</pdfrwt>
<pdfrwt beam="2">  1       21 0.86412673E-01 0.12597504E+03</pdfrwt>
<totfact> 0.23330627E+06</totfact>
</mgrwt>
</event>
<event>
 6    1  0.4261782E-002  0.1269486E+03  0.7546771E-02  0.1232055E+00
         21   -1    0    0  504  502  0.00000000000E+00  0.00000000000E+00  0.17215855816E+02  0.17215855816E+02  0.00000000000E+00 0.  1.
         21   -1    0    0  502  503 -0.00000000000E+00 -0.00000000000E+00 -0.34459946750E+03  0.34459946750E+03  0.00000000000E+00 0.  1.
         25    2    1    2    0    0  0.10615070234E+02 -0.19483400259E+02 -0.30468484310E+03  0.33007391981E+03  0.12499462516E+03 0.  0.
          5    1    3    3  501    0  0.42603139852E+02 -0.60036130766E+02 -0.20472325223E+03  0.21755685355E+03  0.10000000000E+00 0.  1.
         -5    1    3    3    0  501 -0.31988069618E+02  0.40552730507E+02 -0.99961590873E+02  0.11251706626E+03  0.10000000000E+00 0.  1.
         21    1    1    2  504  503 -0.10615070234E+02  0.19483400259E+02 -0.22698768584E+02  0.31741403513E+02  0.00000000000E+00 0.  1.
<mgrwt>
<rscale>  1 0.12694857E+03</rscale>
<asrwt>0</asrwt>
<pdfrwt beam="1">  1       21 0.26485931E-02 0.12694857E+03</pdfrwt>
<pdfrwt beam="2">  1       21 0.53015305E-01 0.12694857E+03</pdfrwt>
<totfact> 0.26013656E+06</totfact>
</mgrwt>
</event>
<event>
 6    1  0.4261782E-002  0.1413994E+03  0.7546771E-02  0.1211458E+00
         21   -1    0    0  503  502  0.00000000000E+00  0.00000000000E+00  0.62855053497E+02  0.62855053497E+02  0.00000000000E+00 0. -1.
         21   -1    0    0  504  503 -0.00000000000E+00 -0.00000000000E+00 -0.27441260543E+03  0.27441260543E+03  0.00000000000E+00 0. -1.
         25    2    1    2    0    0  0.18749359016E+02  0.63383389486E+02 -0.22879129629E+03  0.26895957397E+03  0.12499921059E+03 0.  0.
          5    1    3    3  501    0 -0.10437488645E+02  0.48443135087E+02 -0.23084759304E+03  0.23610654315E+03  0.10000000000E+00 0.  1.
         -5    1    3    3    0  501  0.29186847661E+02  0.14940254400E+02  0.20562967514E+01  0.32853030823E+02  0.10000000000E+00 0.  1.
         21    1    1    2  504  502 -0.18749359016E+02 -0.63383389486E+02  0.17233744350E+02  0.68308084958E+02  0.00000000000E+00 0. -1.
<mgrwt>
<rscale>  1 0.14139942E+03</rscale>
<asrwt>0</asrwt>
<pdfrwt beam="1">  1       21 0.96700083E-02 0.14139942E+03</pdfrwt>
<pdfrwt beam="2">  1       21 0.42217324E-01 0.14139942E+03</pdfrwt>
<totfact> 0.46849905E+05</totfact>
</mgrwt>
</event>
<event>
 6    1  0.4261782E-002  0.1261192E+03  0.7546771E-02  0.1233330E+00
         21   -1    0    0  503  502  0.00000000000E+00  0.00000000000E+00  0.59856018473E+02  0.59856018473E+02  0.00000000000E+00 0. -1.
         21   -1    0    0  504  503 -0.00000000000E+00 -0.00000000000E+00 -0.19973531009E+03  0.19973531009E+03  0.00000000000E+00 0. -1.
         25    2    1    2    0    0 -0.84557154733E+01 -0.14464196236E+02 -0.17788432715E+03  0.21805706773E+03  0.12500135537E+03 0.  0.
          5    1    3    3  501    0  0.44954277879E+02 -0.28678003061E+02 -0.32319330608E+02  0.62352739235E+02  0.10000000000E+00 0. -1.
         -5    1    3    3    0  501 -0.53409993352E+02  0.14213806825E+02 -0.14556499654E+03  0.15570432850E+03  0.10000000000E+00 0. -1.
         21    1    1    2  504  502  0.84557154733E+01  0.14464196236E+02  0.38005035533E+02  0.41534260831E+02  0.00000000000E+00 0. -1.
<mgrwt>
<rscale>  1 0.12611919E+03</rscale>
<asrwt>0</asrwt>
<pdfrwt beam="1">  1       21 0.92086183E-02 0.12611919E+03</pdfrwt>
<pdfrwt beam="2">  1       21 0.30728509E-01 0.12611919E+03</pdfrwt>
<totfact> 0.95556967E+05</totfact>
</mgrwt>
</event>
<event>
 6    1  0.4261782E-002  0.1274914E+03  0.7546771E-02  0.1231226E+00
         21   -1    0    0  503  502  0.00000000000E+00  0.00000000000E+00  0.20924551360E+02  0.20924551360E+02  0.00000000000E+00 0. -1.
         21   -1    0    0  504  503 -0.00000000000E+00 -0.00000000000E+00 -0.74058278966E+03  0.74058278966E+03  0.00000000000E+00 0. -1.
         25    2    1    2    0    0 -0.33876442426E+01  0.24856306307E+02 -0.72477667042E+03  0.73590440283E+03  0.12499902407E+03 0.  0.
          5    1    3    3  501    0 -0.54794487613E+02  0.28287017893E+01 -0.54180544327E+03  0.54457651968E+03  0.10000000000E+00 0.  1.
         -5    1    3    3    0  501  0.51406843370E+02  0.22027604518E+02 -0.18297122715E+03  0.19132788315E+03  0.10000000000E+00 0.  1.
         21    1    1    2  504  502  0.33876442426E+01 -0.24856306307E+02  0.51184321190E+01  0.25602938193E+02  0.00000000000E+00 0. -1.
<mgrwt>
<rscale>  1 0.12749144E+03</rscale>
<asrwt>0</asrwt>
<pdfrwt beam="1">  1       21 0.32191618E-02 0.12749144E+03</pdfrwt>
<pdfrwt beam="2">  1       21 0.11393581E+00 0.12749144E+03</pdfrwt>
<totfact> 0.34335595E+05</totfact>
</mgrwt>
</event>
<event>
 6    1  0.4261782E-002  0.1366514E+03  0.7546771E-02  0.1217907E+00
         21   -1    0    0  504  502  0.00000000000E+00  0.00000000000E+00  0.60049729466E+03  0.60049729466E+03  0.00000000000E+00 0. -1.
         21   -1    0    0  502  503 -0.00000000000E+00 -0.00000000000E+00 -0.35762145150E+02  0.35762145150E+02  0.00000000000E+00 0. -1.
         25    2    1    2    0    0  0.28240369419E+02  0.47448879734E+02  0.10271192911E+03  0.17094839240E+03  0.12499879131E+03 0.  0.
          5    1    3    3  501    0  0.62605806978E+02  0.49041934145E+02  0.11004431119E+03  0.13577318880E+03  0.10000000000E+00 0.  1.
         -5    1    3    3    0  501 -0.34365437559E+02 -0.15930544109E+01 -0.73323820827E+01  0.35175203596E+02  0.10000000000E+00 0.  1.
         21    1    1    2  504  503 -0.28240369419E+02 -0.47448879734E+02  0.46202322040E+03  0.46531104741E+03  0.00000000000E+00 0. -1.
<mgrwt>
<rscale>  1 0.13665143E+03</rscale>
<asrwt>0</asrwt>
<pdfrwt beam="1">  1       21 0.92384192E-01 0.13665143E+03</pdfrwt>
<pdfrwt beam="2">  1       21 0.55018689E-02 0.13665143E+03</pdfrwt>
<totfact> 0.22978995E+05</totfact>
</mgrwt>
</event>
<event>
 6    1  0.4261782E-002  0.1298888E+03  0.7546771E-02  0.1227621E+00
         21   -1    0    0  504  502  0.00000000000E+00  0.00000000000E+00  0.14657895417E+02  0.14657895417E+02  0.00000000000E+00 0. -1.
         21   -1    0    0  502  503 -0.00000000000E+00 -0.00000000000E+00 -0.49573317401E+03  0.49573317401E+03  0.00000000000E+00 0. -1.
         25    2    1    2    0    0  0.26379959095E+02 -0.23446024640E+02 -0.42239619546E+03  0.44191586873E+03  0.12500188311E+03 0.  0.
          5    1    3    3  501    0 -0.28868702996E+02  0.16038870462E+02 -0.33158960859E+02  0.46799295546E+02  0.10000000000E+00 0.  1.
         -5    1    3    3    0  501  0.55248662091E+02 -0.39484895101E+02 -0.38923723460E+03  0.39511657318E+03  0.10000000000E+00 0.  1.
         21    1    1    2  504  503 -0.26379959095E+02  0.23446024640E+02 -0.58679083129E+02  0.68475200695E+02  0.00000000000E+00 0. -1.
<mgrwt>
<rscale>  1 0.12988876E+03</rscale>
<asrwt>0</asrwt>
<pdfrwt beam="1">  1       21 0.22550609E-02 0.12988876E+03</pdfrwt>
<pdfrwt beam="2">  1       21 0.76266641E-01 0.12988876E+03</pdfrwt>
<totfact> 0.15495315E+06</totfact>
</mgrwt>
</event>
<event>
 6    1  0.4261782E-002  0.1272403E+03  0.7546771E-02  0.1231609E+00
         21   -1    0    0  504  502  0.00000000000E+00  0.00000000000E+00  0.25018800239E+03  0.25018800239E+03  0.00000000000E+00 0.  1.
         21   -1    0    0  502  503 -0.00000000000E+00 -0.00000000000E+00 -0.19735535937E+03  0.19735535937E+03  0.00000000000E+00 0.  1.
         25    2    1    2    0    0 -0.22090066656E+02 -0.87770089481E+01 -0.17616727131E+03  0.21731311245E+03  0.12500029773E+03 0.  0.
          5    1    3    3  501    0  0.24156458740E+02  0.36564095835E+02 -0.19848322223E+02  0.48108559510E+02  0.10000000000E+00 0. -1.
         -5    1    3    3    0  501 -0.46246525396E+02 -0.45341104783E+02 -0.15631894908E+03  0.16920455294E+03  0.10000000000E+00 0. -1.
         21    1    1    2  504  503  0.22090066656E+02  0.87770089481E+01  0.22899991433E+03  0.23023024930E+03  0.00000000000E+00 0.  1.
<mgrwt>
<rscale>  1 0.12724025E+03</rscale>
<asrwt>0</asrwt>
<pdfrwt beam="1">  1       21 0.38490462E-01 0.12724025E+03</pdfrwt>
<pdfrwt beam="2">  1       21 0.30362363E-01 0.12724025E+03</pdfrwt>
<totfact> 0.69758201E+04</totfact>
</mgrwt>
</event>
<event>
 6    1  0.4261782E-002  0.1266012E+03  0.7546771E-02  0.1232588E+00
         21   -1    0    0  504  502  0.00000000000E+00  0.00000000000E+00  0.16670169040E+03  0.16670169040E+03  0.00000000000E+00 0.  1.
         21   -1    0    0  502  503 -0.00000000000E+00 -0.00000000000E+00 -0.31828018251E+03  0.31828018251E+03  0.00000000000E+00 0. -1.
         25    2    1    2    0    0  0.20120684647E+02 -0.20733479169E+01 -0.30500062876E+03  0.33023209832E+03  0.12497485544E+03 0.  0.
          5    1    3    3  501    0  0.16657773153E+02  0.80927108958E+01  0.56758389652E+01  0.19370041921E+02  0.10000000000E+00 0. -1.
         -5    1    3    3    0  501  0.34629114937E+01 -0.10166058813E+02 -0.31067646773E+03  0.31086205639E+03  0.10000000000E+00 0. -1.
         21    1    1    2  504  503 -0.20120684647E+02  0.20733479169E+01  0.15342213665E+03  0.15474977460E+03  0.00000000000E+00 0.  1.
<mgrwt>
<rscale>  1 0.12660117E+03</rscale>
<asrwt>0</asrwt>
<pdfrwt beam="1">  1       21 0.25646414E-01 0.12660117E+03</pdfrwt>
<pdfrwt beam="2">  1       21 0.48966182E-01 0.12660117E+03</pdfrwt>
<totfact> 0.59239807E+04</totfact>
</mgrwt>
</event>
<event>
 6    1  0.4261782E-002  0.1694999E+03  0.7546771E-02  0.1178370E+00
         21   -1    0    0  503  502  0.00000000000E+00  0.00000000000E+00  0.32731466306E+02  0.32731466306E+02  0.00000000000E+00 0. -1.
         21   -1    0    0  504  503 -0.00000000000E+00 -0.00000000000E+00 -0.64007019047E+03  0.64007019047E+03  0.00000000000E+00 0. -1.
         25    2    1    2    0    0 -0.11238857292E+03  0.21782160791E+02 -0.42439250014E+03  0.45698929676E+03  0.12499827730E+03 0.  0.
          5    1    3    3  501    0  0.72496568509E+01 -0.69956561930E+01 -0.20655102181E+03  0.20679659412E+03  0.10000000000E+00 0. -1.
         -5    1    3    3    0  501 -0.11963822977E+03  0.28777816984E+02 -0.21784147833E+03  0.25019270264E+03  0.10000000000E+00 0. -1.
         21    1    1    2  504  502  0.11238857292E+03 -0.21782160791E+02 -0.18294622403E+03  0.21581236002E+03  0.00000000000E+00 0. -1.
<mgrwt>
<rscale>  1 0.16949992E+03</rscale>
<asrwt>0</asrwt>
<pdfrwt beam="1">  1       21 0.50356107E-02 0.16949992E+03</pdfrwt>
<pdfrwt beam="2">  1       21 0.98472327E-01 0.16949992E+03</pdfrwt>
<totfact> 0.22792386E+05</totfact>
</mgrwt>
</event>
<event>
 6    1  0.4261782E-002  0.1267329E+03  0.7546771E-02  0.1232386E+00
         21   -1    0    0  503  502  0.00000000000E+00  0.00000000000E+00  0.38518547428E+03  0.38518547428E+03  0.00000000000E+00 0. -1.
         21   -1    0    0  504  503 -0.00000000000E+00 -0.00000000000E+00 -0.48196847434E+02  0.48196847434E+02  0.00000000000E+00 0. -1.
         25    2    1    2    0    0 -0.12235063146E+01  0.20797599292E+02  0.36101225593E+02  0.13177452119E+03  0.12500875506E+03 0.  0.
          5    1    3    3  501    0 -0.44581601753E+02  0.99540175427E+01 -0.28039033149E+02  0.53598498673E+02  0.10000000000E+00 0.  1.
         -5    1    3    3    0  501  0.43358095438E+02  0.10843581749E+02  0.64140258742E+02  0.78176022517E+02  0.10000000000E+00 0.  1.
         21    1    1    2  504  502  0.12235063146E+01 -0.20797599292E+02  0.30088740125E+03  0.30160780052E+03  0.00000000000E+00 0. -1.
<mgrwt>
<rscale>  1 0.12673289E+03</rscale>
<asrwt>0</asrwt>
<pdfrwt beam="1">  1       21 0.59259302E-01 0.12673289E+03</pdfrwt>
<pdfrwt beam="2">  1       21 0.74148999E-02 0.12673289E+03</pdfrwt>
<totfact> 0.36895101E+05</totfact>
</mgrwt>
</event>
<event>
 6    1  0.4261782E-002  0.1262932E+03  0.7546771E-02  0.1233062E+00
         21   -1    0    0  503  502  0.00000000000E+00  0.00000000000E+00  0.22213891832E+03  0.22213891832E+03  0.00000000000E+00 0. -1.
         21   -1    0    0  504  503 -0.00000000000E+00 -0.00000000000E+00 -0.26793974977E+02  0.26793974977E+02  0.00000000000E+00 0. -1.
         25    2    1    2    0    0  0.17660801460E+02  0.31047138878E+01  0.13029744819E+03  0.18145904812E+03  0.12501367119E+03 0.  0.
          5    1    3    3  501    0  0.17212735321E+02  0.53011063300E+02  0.11732718110E+03  0.12989275775E+03  0.10000000000E+00 0. -1.
         -5    1    3    3    0  501  0.44806613859E+00 -0.49906349412E+02  0.12970267084E+02  0.51566290376E+02  0.10000000000E+00 0. -1.
         21    1    1    2  504  502 -0.17660801460E+02 -0.31047138878E+01  0.65047495159E+02  0.67473845177E+02  0.00000000000E+00 0.  1.
<mgrwt>
<rscale>  1 0.12629316E+03</rscale>
<asrwt>0</asrwt>
<pdfrwt beam="1">  1       21 0.34175217E-01 0.12629316E+03</pdfrwt>
<pdfrwt beam="2">  1       21 0.41221501E-02 0.12629316E+03</pdfrwt>
<totfact> 0.30432403E+06</totfact>
</mgrwt>
</event>
<event>
 6    1  0.4261782E-002  0.1282501E+03  0.7546771E-02  0.1230076E+00
         21   -1    0    0  504  502  0.00000000000E+00  0.00000000000E+00  0.31907797758E+03  0.31907797758E+03  0.00000000000E+00 0.  1.
         21   -1    0    0  502  503 -0.00000000000E+00 -0.00000000000E+00 -0.84737372988E+02  0.84737372988E+02  0.00000000000E+00 0.  1.
         25    2    1    2    0    0  0.28363647985E+02 -0.40450648270E+01 -0.35011975092E+02  0.13294329358E+03  0.12500888701E+03 0.  0.
          5    1    3    3  501    0  0.31378277724E+01  0.59100812694E+02 -0.77735904372E+01  0.59692467971E+02  0.10000000000E+00 0. -1.
         -5    1    3    3    0  501  0.25225820212E+02 -0.63145877521E+02 -0.27238384654E+02  0.73250825605E+02  0.10000000000E+00 0. -1.
         21    1    1    2  504  503 -0.28363647985E+02  0.40450648270E+01  0.26935257968E+03  0.27087205699E+03  0.00000000000E+00 0.  1.
<mgrwt>
<rscale>  1 0.12825007E+03</rscale>
<asrwt>0</asrwt>
<pdfrwt beam="1">  1       21 0.49088919E-01 0.12825007E+03</pdfrwt>
<pdfrwt beam="2">  1       21 0.13036519E-01 0.12825007E+03</pdfrwt>
<totfact> 0.20382405E+05</totfact>
</mgrwt>
</event>
<event>
 6    1  0.4261782E-002  0.1259195E+03  0.7546771E-02  0.1233639E+00
         21   -1    0    0  504  502  0.00000000000E+00  0.00000000000E+00  0.20641768426E+03  0.20641768426E+03  0.00000000000E+00 0. -1.
         21   -1    0    0  502  503 -0.00000000000E+00 -0.00000000000E+00 -0.24478188136E+02  0.24478188136E+02  0.00000000000E+00 0. -1.
         25    2    1    2    0    0 -0.14786774437E+02  0.35550430270E+01  0.15256205670E+03  0.19781534978E+03  0.12499777773E+03 0.  0.
          5    1    3    3  501    0 -0.29937421478E+02  0.19958033288E+01 -0.12171760106E+02  0.32378915667E+02  0.10000000000E+00 0.  1.
         -5    1    3    3    0  501  0.15150647041E+02  0.15592396982E+01  0.16473381681E+03  0.16543643412E+03  0.10000000000E+00 0.  1.
         21    1    1    2  504  503  0.14786774437E+02 -0.35550430270E+01  0.29377439429E+02  0.33080522616E+02  0.00000000000E+00 0.  1.
<mgrwt>
<rscale>  1 0.12591954E+03</rscale>
<asrwt>0</asrwt>
<pdfrwt beam="1">  1       21 0.31756566E-01 0.12591954E+03</pdfrwt>
<pdfrwt beam="2">  1       21 0.37658752E-02 0.12591954E+03</pdfrwt>
<totfact> 0.40788389E+06</totfact>
</mgrwt>
</event>
<event>
 6    1  0.4261782E-002  0.1261390E+03  0.7546771E-02  0.1233300E+00
         21   -1    0    0  504  502  0.00000000000E+00  0.00000000000E+00  0.45326631824E+02  0.45326631824E+02  0.00000000000E+00 0. -1.
         21   -1    0    0  502  503 -0.00000000000E+00 -0.00000000000E+00 -0.13043981099E+03  0.13043981099E+03  0.00000000000E+00 0. -1.
         25    2    1    2    0    0 -0.16793060439E+02 -0.21440036137E+01 -0.93364768539E+02  0.15693316489E+03  0.12499773841E+03 0.  0.
          5    1    3    3  501    0 -0.45395363156E+02  0.46247623781E+02 -0.27650997780E+02  0.70456861835E+02  0.10000000000E+00 0.  1.
         -5    1    3    3    0  501  0.28602302717E+02 -0.48391627394E+02 -0.65713770760E+02  0.86476303055E+02  0.10000000000E+00 0.  1.
         21    1    1    2  504  503  0.16793060439E+02  0.21440036137E+01  0.82515893694E+01  0.18833277928E+02  0.00000000000E+00 0. -1.
<mgrwt>
<rscale>  1 0.12613896E+03</rscale>
<asrwt>0</asrwt>
<pdfrwt beam="1">  1       21 0.69733280E-02 0.12613896E+03</pdfrwt>
<pdfrwt beam="2">  1       21 0.20067663E-01 0.12613896E+03</pdfrwt>
<totfact> 0.34503252E+06</totfact>
</mgrwt>
</event>
<event>
 6    1  0.4261782E-002  0.1599270E+03  0.7546771E-02  0.1188779E+00
         21   -1    0    0  503  502  0.00000000000E+00  0.00000000000E+00  0.92921154201E+02  0.92921154201E+02  0.00000000000E+00 0.  1.
         21   -1    0    0  504  503 -0.00000000000E+00 -0.00000000000E+00 -0.18215844022E+03  0.18215844022E+03  0.00000000000E+00 0.  1.
         25    2    1    2    0    0 -0.84974066269E+02  0.52306775569E+02 -0.63146417242E+02  0.17194219024E+03  0.12498022269E+03 0.  0.
          5    1    3    3  501    0 -0.20305164406E+02  0.71487111641E+02  0.69777193636E+01  0.74641847511E+02  0.10000000000E+00 0. -1.
         -5    1    3    3    0  501 -0.64668901864E+02 -0.19180336072E+02 -0.70124136606E+02  0.97300342727E+02  0.10000000000E+00 0. -1.
         21    1    1    2  504  502  0.84974066269E+02 -0.52306775569E+02 -0.26090868780E+02  0.10313740419E+03  0.00000000000E+00 0.  1.
<mgrwt>
<rscale>  1 0.15992700E+03</rscale>
<asrwt>0</asrwt>
<pdfrwt beam="1">  1       21 0.14295562E-01 0.15992700E+03</pdfrwt>
<pdfrwt beam="2">  1       21 0.28024375E-01 0.15992700E+03</pdfrwt>
<totfact> 0.52346783E+05</totfact>
</mgrwt>
</event>
<event>
 6    1  0.4261782E-002  0.1412034E+03  0.7546771E-02  0.1211719E+00
         21   -1    0    0  504  502  0.00000000000E+00  0.00000000000E+00  0.34305412869E+03  0.34305412869E+03  0.00000000000E+00 0.  1.
         21   -1    0    0  502  503 -0.00000000000E+00 -0.00000000000E+00 -0.50533042324E+02  0.50533042324E+02  0.00000000000E+00 0.  1.
         25    2    1    2    0    0  0.58041972348E+02 -0.30725195916E+02  0.62576203725E+02  0.15444797040E+03  0.12500194426E+03 0.  0.
          5    1    3    3  501    0 -0.35146037135E+02 -0.31553133822E+02  0.28823431452E+02  0.55332127927E+02  0.10000000000E+00 0. -1.
         -5    1    3    3    0  501  0.93188009483E+02  0.82793790566E+00  0.33752772273E+02  0.99115842471E+02  0.10000000000E+00 0. -1.
         21    1    1    2  504  503 -0.58041972348E+02  0.30725195916E+02  0.22994488264E+03  0.23913920062E+03  0.00000000000E+00 0.  1.
<mgrwt>
<rscale>  1 0.14120338E+03</rscale>
<asrwt>0</asrwt>
<pdfrwt beam="1">  1       21 0.52777557E-01 0.14120338E+03</pdfrwt>
<pdfrwt beam="2">  1       21 0.77743144E-02 0.14120338E+03</pdfrwt>
<totfact> 0.43294251E+05</totfact>
</mgrwt>
</event>
<event>
 6    1  0.4261782E-002  0.1276725E+03  0.7546771E-02  0.1230951E+00
         21   -1    0    0  504  502  0.00000000000E+00  0.00000000000E+00  0.38026231925E+02  0.38026231925E+02  0.00000000000E+00 0. -1.
         21   -1    0    0  502  503 -0.00000000000E+00 -0.00000000000E+00 -0.10020969625E+04  0.10020969625E+04  0.00000000000E+00 0.  1.
         25    2    1    2    0    0  0.15517317941E+02  0.20837774361E+02 -0.99303805004E+03  0.10012116847E+04  0.12500107509E+03 0.  0.
          5    1    3    3  501    0 -0.26695375196E+02 -0.24921371278E+02 -0.10841718205E+03  0.11440285472E+03  0.10000000000E+00 0. -1.
         -5    1    3    3    0  501  0.42212693137E+02  0.45759145639E+02 -0.88462086799E+03  0.88680882999E+03  0.10000000000E+00 0. -1.
         21    1    1    2  504  503 -0.15517317941E+02 -0.20837774361E+02  0.28967319428E+02  0.38911509753E+02  0.00000000000E+00 0. -1.
<mgrwt>
<rscale>  1 0.12767251E+03</rscale>
<asrwt>0</asrwt>
<pdfrwt beam="1">  1       21 0.58501890E-02 0.12767251E+03</pdfrwt>
<pdfrwt beam="2">  1       21 0.15416878E+00 0.12767251E+03</pdfrwt>
<totfact> 0.59472568E+04</totfact>
</mgrwt>
</event>
<event>
 6    1  0.4261782E-002  0.1280860E+03  0.7546771E-02  0.1230324E+00
         21   -1    0    0  504  502  0.00000000000E+00  0.00000000000E+00  0.19081115800E+03  0.19081115800E+03  0.00000000000E+00 0. -1.
         21   -1    0    0  502  503 -0.00000000000E+00 -0.00000000000E+00 -0.19135303858E+03  0.19135303858E+03  0.00000000000E+00 0.  1.
         25    2    1    2    0    0  0.39794339287E+01  0.27634886486E+02 -0.16863757706E+03  0.21176558737E+03  0.12500603487E+03 0.  0.
          5    1    3    3  501    0 -0.58575324158E+02 -0.23649410119E+01 -0.81119569428E+02  0.10008524412E+03  0.10000000000E+00 0.  1.
         -5    1    3    3    0  501  0.62554758087E+02  0.29999827498E+02 -0.87518007630E+02  0.11168034325E+03  0.10000000000E+00 0.  1.
         21    1    1    2  504  503 -0.39794339287E+01 -0.27634886486E+02  0.16809569648E+03  0.17039860921E+03  0.00000000000E+00 0. -1.
<mgrwt>
<rscale>  1 0.12808603E+03</rscale>
<asrwt>0</asrwt>
<pdfrwt beam="1">  1       21 0.29355563E-01 0.12808603E+03</pdfrwt>
<pdfrwt beam="2">  1       21 0.29438929E-01 0.12808603E+03</pdfrwt>
<totfact> 0.12568565E+05</totfact>
</mgrwt>
</event>
<event>
 6    1  0.4261782E-002  0.1262225E+03  0.7546771E-02  0.1233171E+00
         21   -1    0    0  504  502  0.00000000000E+00  0.00000000000E+00  0.58442320510E+02  0.58442320510E+02  0.00000000000E+00 0.  1.
         21   -1    0    0  502  503 -0.00000000000E+00 -0.00000000000E+00 -0.23036185341E+03  0.23036185341E+03  0.00000000000E+00 0.  1.
         25    2    1    2    0    0  0.17156947496E+02 -0.37951954232E+01 -0.21104681924E+03  0.24591234612E+03  0.12499343065E+03 0.  0.
          5    1    3    3  501    0 -0.42097290778E+02 -0.35718038699E+02 -0.66259917205E+02  0.86245850957E+02  0.10000000000E+00 0. -1.
         -5    1    3    3    0  501  0.59254238274E+02  0.31922843276E+02 -0.14478690204E+03  0.15966649516E+03  0.10000000000E+00 0. -1.
         21    1    1    2  504  503 -0.17156947496E+02  0.37951954232E+01  0.39127286341E+02  0.42891827801E+02  0.00000000000E+00 0.  1.
<mgrwt>
<rscale>  1 0.12622251E+03</rscale>
<asrwt>0</asrwt>
<pdfrwt beam="1">  1       21 0.89911262E-02 0.12622251E+03</pdfrwt>
<pdfrwt beam="2">  1       21 0.35440285E-01 0.12622251E+03</pdfrwt>
<totfact> 0.75426887E+05</totfact>
</mgrwt>
</event>
<event>
 6    1  0.4261782E-002  0.1342449E+03  0.7546771E-02  0.1221290E+00
         21   -1    0    0  504  502  0.00000000000E+00  0.00000000000E+00  0.13669243232E+02  0.13669243232E+02  0.00000000000E+00 0. -1.
         21   -1    0    0  502  503 -0.00000000000E+00 -0.00000000000E+00 -0.67827327921E+03  0.67827327921E+03  0.00000000000E+00 0. -1.
         25    2    1    2    0    0  0.37408810081E+02  0.31610346798E+02 -0.56780639716E+03  0.58346019219E+03  0.12499223223E+03 0.  0.
          5    1    3    3  501    0 -0.23832014900E+02 -0.86099292566E+01 -0.39436664677E+03  0.39517990574E+03  0.10000000000E+00 0.  1.
         -5    1    3    3    0  501  0.61240824981E+02  0.40220276055E+02 -0.17343975040E+03  0.18828028646E+03  0.10000000000E+00 0.  1.
         21    1    1    2  504  503 -0.37408810081E+02 -0.31610346798E+02 -0.96797638814E+02  0.10848233025E+03  0.00000000000E+00 0. -1.
<mgrwt>
<rscale>  1 0.13424489E+03</rscale>
<asrwt>0</asrwt>
<pdfrwt beam="1">  1       21 0.21029601E-02 0.13424489E+03</pdfrwt>
<pdfrwt beam="2">  1       21 0.10434976E+00 0.13424489E+03</pdfrwt>
<totfact> 0.84715815E+05</totfact>
</mgrwt>
</event>
<event>
 6    1  0.4261782E-002  0.1259430E+03  0.7546771E-02  0.1233603E+00
         21   -1    0    0  504  502  0.00000000000E+00  0.00000000000E+00  0.34499020845E+02  0.34499020845E+02  0.00000000000E+00 0. -1.
         21   -1    0    0  502  503 -0.00000000000E+00 -0.00000000000E+00 -0.15425270005E+03  0.15425270005E+03  0.00000000000E+00 0. -1.
         25    2    1    2    0    0  0.50970938458E+01 -0.14496502949E+02 -0.11914988895E+03  0.17337337488E+03  0.12500200845E+03 0.  0.
          5    1    3    3  501    0  0.40824097750E+02 -0.19658793013E+02 -0.12835675914E+03  0.13611958976E+03  0.10000000000E+00 0. -1.
         -5    1    3    3    0  501 -0.35727003904E+02  0.51622900647E+01  0.92068701957E+01  0.37253785116E+02  0.10000000000E+00 0. -1.
         21    1    1    2  504  503 -0.50970938458E+01  0.14496502949E+02 -0.60379025509E+00  0.15378346013E+02  0.00000000000E+00 0. -1.
<mgrwt>
<rscale>  1 0.12594297E+03</rscale>
<asrwt>0</asrwt>
<pdfrwt beam="1">  1       21 0.53075417E-02 0.12594297E+03</pdfrwt>
<pdfrwt beam="2">  1       21 0.23731184E-01 0.12594297E+03</pdfrwt>
<totfact> 0.40106800E+06</totfact>
</mgrwt>
</event>
<event>
 6    1  0.4261782E-002  0.1258967E+03  0.7546771E-02  0.1233675E+00
         21   -1    0    0  503  502  0.00000000000E+00  0.00000000000E+00  0.87124398803E+02  0.87124398803E+02  0.00000000000E+00 0. -1.
         21   -1    0    0  504  503 -0.00000000000E+00 -0.00000000000E+00 -0.61551340338E+02  0.61551340338E+02  0.00000000000E+00 0. -1.
         25    2    1    2    0    0  0.14024324468E+02  0.53537808346E+01  0.88558672293E+01  0.12620778132E+03  0.12499853213E+03 0.  0.
          5    1    3    3  501    0 -0.19736779371E+02 -0.36308675921E+02 -0.37137205536E+02  0.55561159474E+02  0.10000000000E+00 0.  1.
         -5    1    3    3    0  501  0.33761103839E+02  0.41662456756E+02  0.45993072766E+02  0.70646621843E+02  0.10000000000E+00 0.  1.
         21    1    1    2  504  502 -0.14024324468E+02 -0.53537808346E+01  0.16717191236E+02  0.22467957825E+02  0.00000000000E+00 0. -1.
<mgrwt>
<rscale>  1 0.12589669E+03</rscale>
<asrwt>0</asrwt>
<pdfrwt beam="1">  1       21 0.13403754E-01 0.12589669E+03</pdfrwt>
<pdfrwt beam="2">  1       21 0.94694370E-02 0.12589669E+03</pdfrwt>
<totfact> 0.42345815E+06</totfact>
</mgrwt>
</event>
<event>
 6    1  0.4261782E-002  0.1262029E+03  0.7546771E-02  0.1233201E+00
         21   -1    0    0  503  502  0.00000000000E+00  0.00000000000E+00  0.18394047557E+02  0.18394047557E+02  0.00000000000E+00 0. -1.
         21   -1    0    0  504  503 -0.00000000000E+00 -0.00000000000E+00 -0.28081631366E+03  0.28081631366E+03  0.00000000000E+00 0. -1.
         25    2    1    2    0    0  0.17082098634E+02 -0.33020382537E+01 -0.23474060601E+03  0.26651516500E+03  0.12499791803E+03 0.  0.
          5    1    3    3  501    0 -0.11898249042E+02 -0.60588758812E+02 -0.10659631625E+03  0.12318827324E+03  0.10000000000E+00 0.  1.
         -5    1    3    3    0  501  0.28980347677E+02  0.57286720558E+02 -0.12814428975E+03  0.14332689176E+03  0.10000000000E+00 0.  1.
         21    1    1    2  504  502 -0.17082098634E+02  0.33020382537E+01 -0.27681660097E+02  0.32695196224E+02  0.00000000000E+00 0. -1.
<mgrwt>
<rscale>  1 0.12620294E+03</rscale>
<asrwt>0</asrwt>
<pdfrwt beam="1">  1       21 0.28298536E-02 0.12620294E+03</pdfrwt>
<pdfrwt beam="2">  1       21 0.43202508E-01 0.12620294E+03</pdfrwt>
<totfact> 0.35507785E+06</totfact>
</mgrwt>
</event>
<event>
 6    1  0.4261782E-002  0.1667510E+03  0.7546771E-02  0.1181279E+00
         21   -1    0    0  504  502  0.00000000000E+00  0.00000000000E+00  0.17403058033E+03  0.17403058033E+03  0.00000000000E+00 0.  1.
         21   -1    0    0  502  503 -0.00000000000E+00 -0.00000000000E+00 -0.11086918419E+03  0.11086918419E+03  0.00000000000E+00 0.  1.
         25    2    1    2    0    0 -0.10797106068E+03 -0.22905120868E+02  0.28182414808E+02  0.16911581208E+03  0.12499405939E+03 0.  0.
          5    1    3    3  501    0 -0.18739996267E+02  0.48707180342E+02  0.12156077802E+02  0.53585045530E+02  0.10000000000E+00 0.  1.
         -5    1    3    3    0  501 -0.89231064418E+02 -0.71612301210E+02  0.16026337006E+02  0.11553076655E+03  0.10000000000E+00 0.  1.
         21    1    1    2  504  503  0.10797106068E+03  0.22905120868E+02  0.34978981328E+02  0.11578395244E+03  0.00000000000E+00 0.  1.
<mgrwt>
<rscale>  1 0.16675104E+03</rscale>
<asrwt>0</asrwt>
<pdfrwt beam="1">  1       21 0.26773935E-01 0.16675104E+03</pdfrwt>
<pdfrwt beam="2">  1       21 0.17056798E-01 0.16675104E+03</pdfrwt>
<totfact> 0.41386403E+05</totfact>
</mgrwt>
</event>
<event>
 6    1  0.4261782E-002  0.1282989E+03  0.7546771E-02  0.1230002E+00
         21   -1    0    0  504  502  0.00000000000E+00  0.00000000000E+00  0.21961993212E+03  0.21961993212E+03  0.00000000000E+00 0.  1.
         21   -1    0    0  502  503 -0.00000000000E+00 -0.00000000000E+00 -0.32378658623E+02  0.32378658623E+02  0.00000000000E+00 0.  1.
         25    2    1    2    0    0 -0.15281425168E+02 -0.24563678832E+02  0.10821097294E+03  0.16783990326E+03  0.12499488865E+03 0.  0.
          5    1    3    3  501    0 -0.69364303026E+02 -0.12259974257E+02  0.44274978588E+02  0.83198541045E+02  0.10000000000E+00 0.  1.
         -5    1    3    3    0  501  0.54082877858E+02 -0.12303704575E+02  0.63935994356E+02  0.84641362217E+02  0.10000000000E+00 0.  1.
         21    1    1    2  504  503  0.15281425168E+02  0.24563678832E+02  0.79030300554E+02  0.84158687481E+02  0.00000000000E+00 0.  1.
<mgrwt>
<rscale>  1 0.12829894E+03</rscale>
<asrwt>0</asrwt>
<pdfrwt beam="1">  1       21 0.33787681E-01 0.12829894E+03</pdfrwt>
<pdfrwt beam="2">  1       21 0.49813322E-02 0.12829894E+03</pdfrwt>
<totfact> 0.22692029E+06</totfact>
</mgrwt>
</event>
<event>
 6    1  0.4261782E-002  0.1259364E+03  0.7546771E-02  0.1233613E+00
         21   -1    0    0  504  502  0.00000000000E+00  0.00000000000E+00  0.48313470363E+02  0.48313470363E+02  0.00000000000E+00 0. -1.
         21   -1    0    0  502  503 -0.00000000000E+00 -0.00000000000E+00 -0.10820723586E+03  0.10820723586E+03  0.00000000000E+00 0. -1.
         25    2    1    2    0    0  0.10688184459E+02 -0.11080113660E+02 -0.63000060625E+02  0.14081544356E+03  0.12499190095E+03 0.  0.
          5    1    3    3  501    0  0.33284852780E+02 -0.36981232937E+02  0.17931476296E+02  0.52887057549E+02  0.10000000000E+00 0.  1.
         -5    1    3    3    0  501 -0.22596668321E+02  0.25901119277E+02 -0.80931536920E+02  0.87928386015E+02  0.10000000000E+00 0.  1.
         21    1    1    2  504  503 -0.10688184459E+02  0.11080113660E+02  0.31062951276E+01  0.15705262658E+02  0.00000000000E+00 0.  1.
<mgrwt>
<rscale>  1 0.12593642E+03</rscale>
<asrwt>0</asrwt>
<pdfrwt beam="1">  1       21 0.74328417E-02 0.12593642E+03</pdfrwt>
<pdfrwt beam="2">  1       21 0.16647267E-01 0.12593642E+03</pdfrwt>
<totfact> 0.43557715E+06</totfact>
</mgrwt>
</event>
<event>
 6    1  0.4261782E-002  0.1365922E+03  0.7546771E-02  0.1217989E+00
         21   -1    0    0  503  502  0.00000000000E+00  0.00000000000E+00  0.76439439154E+03  0.76439439154E+03  0.00000000000E+00 0.  1.
         21   -1    0    0  504  503 -0.00000000000E+00 -0.00000000000E+00 -0.12691150451E+02  0.12691150451E+02  0.00000000000E+00 0.  1.
         25    2    1    2    0    0 -0.19206276181E+01 -0.55034552824E+02  0.44548862574E+03  0.46595874875E+03  0.12499979626E+03 0.  0.
          5    1    3    3  501    0  0.19621351120E+02 -0.26527098854E+02  0.42179894571E+03  0.42308751458E+03  0.10000000000E+00 0.  1.
         -5    1    3    3    0  501 -0.21541978738E+02 -0.28507453970E+02  0.23689680033E+02  0.42871234177E+02  0.10000000000E+00 0.  1.
         21    1    1    2  504  502  0.19206276181E+01  0.55034552824E+02  0.30621461536E+03  0.31112679324E+03  0.00000000000E+00 0.  1.
<mgrwt>
<rscale>  1 0.13659224E+03</rscale>
<asrwt>0</asrwt>
<pdfrwt beam="1">  1       21 0.11759910E+00 0.13659224E+03</pdfrwt>
<pdfrwt beam="2">  1       21 0.19524853E-02 0.13659224E+03</pdfrwt>
<totfact> 0.71719897E+05</totfact>
</mgrwt>
</event>
<event>
 6    1  0.4261782E-002  0.1265731E+03  0.7546771E-02  0.1232631E+00
         21   -1    0    0  503  502  0.00000000000E+00  0.00000000000E+00  0.13575729978E+04  0.13575729978E+04  0.00000000000E+00 0. -1.
         21   -1    0    0  504  503 -0.00000000000E+00 -0.00000000000E+00 -0.46366574297E+01  0.46366574297E+01  0.00000000000E+00 0. -1.
         25    2    1    2    0    0 -0.15399064286E+02  0.12579134847E+02  0.90225651740E+03  0.91109141281E+03  0.12500149393E+03 0.  0.
          5    1    3    3  501    0  0.50928967459E+02  0.77046873014E+01  0.23778763015E+03  0.24330246399E+03  0.10000000000E+00 0.  1.
         -5    1    3    3    0  501 -0.66328031745E+02  0.48744475451E+01  0.66446888725E+03  0.66778894881E+03  0.10000000000E+00 0.  1.
         21    1    1    2  504  502  0.15399064286E+02 -0.12579134847E+02  0.45067982299E+03  0.45111824244E+03  0.00000000000E+00 0. -1.
<mgrwt>
<rscale>  1 0.12657306E+03</rscale>
<asrwt>0</asrwt>
<pdfrwt beam="1">  1       21 0.20885707E+00 0.12657306E+03</pdfrwt>
<pdfrwt beam="2">  1       21 0.71333300E-03 0.12657306E+03</pdfrwt>
<totfact> 0.77340082E+05</totfact>
</mgrwt>
</event>
<event>
 6    1  0.4261782E-002  0.1347914E+03  0.7546771E-02  0.1220515E+00
         21   -1    0    0  504  502  0.00000000000E+00  0.00000000000E+00  0.47075027057E+03  0.47075027057E+03  0.00000000000E+00 0.  1.
         21   -1    0    0  502  503 -0.00000000000E+00 -0.00000000000E+00 -0.20157178069E+02  0.20157178069E+02  0.00000000000E+00 0.  1.
         25    2    1    2    0    0  0.48784886501E+02 -0.12794153164E+02  0.24945724425E+03  0.28354475923E+03  0.12500023310E+03 0.  0.
          5    1    3    3  501    0  0.13172642649E+02 -0.19810276866E+01  0.24578554341E+03  0.24614627020E+03  0.10000000000E+00 0.  1.
         -5    1    3    3    0  501  0.35612243852E+02 -0.10813125477E+02  0.36717008391E+01  0.37398489031E+02  0.10000000000E+00 0.  1.
         21    1    1    2  504  503 -0.48784886501E+02  0.12794153164E+02  0.20113584825E+03  0.20736268941E+03  0.00000000000E+00 0.  1.
<mgrwt>
<rscale>  1 0.13479137E+03</rscale>
<asrwt>0</asrwt>
<pdfrwt beam="1">  1       21 0.72423110E-01 0.13479137E+03</pdfrwt>
<pdfrwt beam="2">  1       21 0.31011047E-02 0.13479137E+03</pdfrwt>
<totfact> 0.10327332E+06</totfact>
</mgrwt>
</event>
<event>
 6    1  0.4261782E-002  0.1279625E+03  0.7546771E-02  0.1230511E+00
         21   -1    0    0  503  502  0.00000000000E+00  0.00000000000E+00  0.18038740741E+02  0.18038740741E+02  0.00000000000E+00 0.  1.
         21   -1    0    0  504  503 -0.00000000000E+00 -0.00000000000E+00 -0.83267266934E+03  0.83267266934E+03  0.00000000000E+00 0. -1.
         25    2    1    2    0    0  0.26932557247E+02 -0.51767775765E+01 -0.81324491660E+03  0.82325069231E+03  0.12498898496E+03 0.  0.
          5    1    3    3  501    0  0.52386257547E+02  0.43430603810E+02 -0.33301075702E+03  0.33989220588E+03  0.10000000000E+00 0. -1.
         -5    1    3    3    0  501 -0.25453700300E+02 -0.48607381387E+02 -0.48023415958E+03  0.48335848644E+03  0.10000000000E+00 0. -1.
         21    1    1    2  504  502 -0.26932557247E+02  0.51767775765E+01 -0.13890120032E+01  0.27460717767E+02  0.00000000000E+00 0.  1.
<mgrwt>
<rscale>  1 0.12796253E+03</rscale>
<asrwt>0</asrwt>
<pdfrwt beam="1">  1       21 0.27751907E-02 0.12796253E+03</pdfrwt>
<pdfrwt beam="2">  1       21 0.12810350E+00 0.12796253E+03</pdfrwt>
<totfact> 0.32887818E+05</totfact>
</mgrwt>
</event>
<event>
 6    1  0.4261782E-002  0.1277733E+03  0.7546771E-02  0.1230798E+00
         21   -1    0    0  503  502  0.00000000000E+00  0.00000000000E+00  0.16937192188E+02  0.16937192188E+02  0.00000000000E+00 0.  1.
         21   -1    0    0  504  503 -0.00000000000E+00 -0.00000000000E+00 -0.81128533237E+03  0.81128533237E+03  0.00000000000E+00 0.  1.
         25    2    1    2    0    0 -0.26313638445E+02  0.30315779580E+01 -0.79131198165E+03  0.80156138633E+03  0.12499762286E+03 0.  0.
          5    1    3    3  501    0  0.31360874980E+02  0.77180012011E+01 -0.61802831976E+03  0.61887162323E+03  0.10000000000E+00 0. -1.
         -5    1    3    3    0  501 -0.57674513425E+02 -0.46864232431E+01 -0.17328366189E+03  0.18268976310E+03  0.10000000000E+00 0. -1.
         21    1    1    2  504  502  0.26313638445E+02 -0.30315779580E+01 -0.30361585370E+01  0.26661138231E+02  0.00000000000E+00 0.  1.
<mgrwt>
<rscale>  1 0.12777325E+03</rscale>
<asrwt>0</asrwt>
<pdfrwt beam="1">  1       21 0.26057217E-02 0.12777325E+03</pdfrwt>
<pdfrwt beam="2">  1       21 0.12481314E+00 0.12777325E+03</pdfrwt>
<totfact> 0.38873042E+05</totfact>
</mgrwt>
</event>
<event>
 6    1  0.4261782E-002  0.2293824E+03  0.7546771E-02  0.1127075E+00
         21   -1    0    0  504  502  0.00000000000E+00  0.00000000000E+00  0.30647454348E+03  0.30647454348E+03  0.00000000000E+00 0. -1.
         21   -1    0    0  502  503 -0.00000000000E+00 -0.00000000000E+00 -0.15609660308E+03  0.15609660308E+03  0.00000000000E+00 0. -1.
         25    2    1    2    0    0 -0.92383363709E+01 -0.19211028293E+03  0.20082766049E+02  0.23025984652E+03  0.12499828704E+03 0.  0.
          5    1    3    3  501    0 -0.18590235426E+02 -0.20734693746E+03  0.73449910000E+01  0.20830820488E+03  0.10000000000E+00 0.  1.
         -5    1    3    3    0  501  0.93518990554E+01  0.15236654538E+02  0.12737775049E+02  0.21951641639E+02  0.10000000000E+00 0.  1.
         21    1    1    2  504  503  0.92383363709E+01  0.19211028293E+03  0.13029517435E+03  0.23231130003E+03  0.00000000000E+00 0. -1.
<mgrwt>
<rscale>  1 0.22938239E+03</rscale>
<asrwt>0</asrwt>
<pdfrwt beam="1">  1       21 0.47149930E-01 0.22938239E+03</pdfrwt>
<pdfrwt beam="2">  1       21 0.24014862E-01 0.22938239E+03</pdfrwt>
<totfact> 0.69287580E+04</totfact>
</mgrwt>
</event>
<event>
 6    1  0.4261782E-002  0.1261493E+03  0.7546771E-02  0.1233284E+00
         21   -1    0    0  503  502  0.00000000000E+00  0.00000000000E+00  0.68011048301E+03  0.68011048301E+03  0.00000000000E+00 0.  1.
         21   -1    0    0  504  503 -0.00000000000E+00 -0.00000000000E+00 -0.13269661370E+02  0.13269661370E+02  0.00000000000E+00 0.  1.
         25    2    1    2    0    0  0.15756540256E+02  0.57992871905E+01  0.29102572010E+03  0.31719017796E+03  0.12502695285E+03 0.  0.
          5    1    3    3  501    0  0.57695237738E+02 -0.14650674495E+02  0.72831272668E+02  0.94062675910E+02  0.10000000000E+00 0. -1.
         -5    1    3    3    0  501 -0.41938697483E+02  0.20449961686E+02  0.21819444744E+03  0.22312750205E+03  0.10000000000E+00 0. -1.
         21    1    1    2  504  502 -0.15756540256E+02 -0.57992871905E+01  0.37581510153E+03  0.37618996642E+03  0.00000000000E+00 0.  1.
<mgrwt>
<rscale>  1 0.12614927E+03</rscale>
<asrwt>0</asrwt>
<pdfrwt beam="1">  1       21 0.10463235E+00 0.12614927E+03</pdfrwt>
<pdfrwt beam="2">  1       21 0.20414869E-02 0.12614927E+03</pdfrwt>
<totfact> 0.88350203E+05</totfact>
</mgrwt>
</event>
<event>
 6    1  0.4261782E-002  0.1260771E+03  0.7546771E-02  0.1233396E+00
         21   -1    0    0  504  502  0.00000000000E+00  0.00000000000E+00  0.86483852209E+03  0.86483852209E+03  0.00000000000E+00 0.  1.
         21   -1    0    0  502  503 -0.00000000000E+00 -0.00000000000E+00 -0.59225328085E+01  0.59225328085E+01  0.00000000000E+00 0.  1.
         25    2    1    2    0    0 -0.12706192150E+02 -0.10387100779E+02  0.78359758799E+03  0.79367538338E+03  0.12500438027E+03 0.  0.
          5    1    3    3  501    0 -0.36009816647E+02 -0.59766994261E+02  0.50275102516E+03  0.50757009742E+03  0.10000000000E+00 0. -1.
         -5    1    3    3    0  501  0.23303624497E+02  0.49379893482E+02  0.28084656284E+03  0.28610528596E+03  0.10000000000E+00 0. -1.
         21    1    1    2  504  503  0.12706192150E+02  0.10387100779E+02  0.75318401292E+02  0.77085671527E+02  0.00000000000E+00 0.  1.
<mgrwt>
<rscale>  1 0.12607710E+03</rscale>
<asrwt>0</asrwt>
<pdfrwt beam="1">  1       21 0.13305198E+00 0.12607710E+03</pdfrwt>
<pdfrwt beam="2">  1       21 0.91115958E-03 0.12607710E+03</pdfrwt>
<totfact> 0.17797961E+06</totfact>
</mgrwt>
</event>
<event>
 6    1  0.4261782E-002  0.1261147E+03  0.7546771E-02  0.1233337E+00
         21   -1    0    0  504  502  0.00000000000E+00  0.00000000000E+00  0.19152321592E+02  0.19152321592E+02  0.00000000000E+00 0.  1.
         21   -1    0    0  502  503 -0.00000000000E+00 -0.00000000000E+00 -0.34584267551E+03  0.34584267551E+03  0.00000000000E+00 0.  1.
         25    2    1    2    0    0  0.16681853770E+02 -0.23008685424E+01 -0.32433470641E+03  0.34799125291E+03  0.12498532746E+03 0.  0.
          5    1    3    3  501    0  0.60282720059E+02  0.29779655674E+02 -0.13135774593E+03  0.14756592305E+03  0.10000000000E+00 0. -1.
         -5    1    3    3    0  501 -0.43600866289E+02 -0.32080524217E+02 -0.19297696047E+03  0.20042532986E+03  0.10000000000E+00 0. -1.
         21    1    1    2  504  503 -0.16681853770E+02  0.23008685424E+01 -0.23556475088E+01  0.17003744189E+02  0.00000000000E+00 0.  1.
<mgrwt>
<rscale>  1 0.12611467E+03</rscale>
<asrwt>0</asrwt>
<pdfrwt beam="1">  1       21 0.29465110E-02 0.12611467E+03</pdfrwt>
<pdfrwt beam="2">  1       21 0.53206565E-01 0.12611467E+03</pdfrwt>
<totfact> 0.21688020E+06</totfact>
</mgrwt>
</event>
<event>
 6    1  0.4261782E-002  0.1307274E+03  0.7546771E-02  0.1226380E+00
         21   -1    0    0  503  502  0.00000000000E+00  0.00000000000E+00  0.90143864204E+02  0.90143864204E+02  0.00000000000E+00 0. -1.
         21   -1    0    0  504  503 -0.00000000000E+00 -0.00000000000E+00 -0.99291513507E+02  0.99291513507E+02  0.00000000000E+00 0. -1.
         25    2    1    2    0    0  0.34316815105E+02 -0.16904686851E+02 -0.43749065555E+02  0.13785369256E+03  0.12500499022E+03 0.  0.
          5    1    3    3  501    0 -0.20177182561E+02  0.44257080034E+02 -0.12906141844E+02  0.50322821130E+02  0.10000000000E+00 0. -1.
         -5    1    3    3    0  501  0.54493997666E+02 -0.61161766885E+02 -0.30842923711E+02  0.87530871429E+02  0.10000000000E+00 0. -1.
         21    1    1    2  504  502 -0.34316815105E+02  0.16904686851E+02  0.34601416252E+02  0.51581685152E+02  0.00000000000E+00 0. -1.
<mgrwt>
<rscale>  1 0.13072743E+03</rscale>
<asrwt>0</asrwt>
<pdfrwt beam="1">  1       21 0.13868287E-01 0.13072743E+03</pdfrwt>
<pdfrwt beam="2">  1       21 0.15275617E-01 0.13072743E+03</pdfrwt>
<totfact> 0.17093322E+06</totfact>
</mgrwt>
</event>
<event>
 6    1  0.4261782E-002  0.1835436E+03  0.7546771E-02  0.1164417E+00
         21   -1    0    0  503  502  0.00000000000E+00  0.00000000000E+00  0.90440082394E+02  0.90440082394E+02  0.00000000000E+00 0. -1.
         21   -1    0    0  504  503 -0.00000000000E+00 -0.00000000000E+00 -0.33429636295E+03  0.33429636295E+03  0.00000000000E+00 0. -1.
         25    2    1    2    0    0  0.12926473833E+03  0.36797070725E+02 -0.22284989688E+03  0.28870459192E+03  0.12499947146E+03 0.  0.
          5    1    3    3  501    0  0.85010922026E+02  0.77233591532E+02 -0.18517408463E+03  0.21790212514E+03  0.10000000000E+00 0. -1.
         -5    1    3    3    0  501  0.44253816306E+02 -0.40436520807E+02 -0.37675812254E+02  0.70802466776E+02  0.10000000000E+00 0. -1.
         21    1    1    2  504  502 -0.12926473833E+03 -0.36797070725E+02 -0.21006383669E+02  0.13603185342E+03  0.00000000000E+00 0. -1.
<mgrwt>
<rscale>  1 0.18354363E+03</rscale>
<asrwt>0</asrwt>
<pdfrwt beam="1">  1       21 0.13913859E-01 0.18354363E+03</pdfrwt>
<pdfrwt beam="2">  1       21 0.51430210E-01 0.18354363E+03</pdfrwt>
<totfact> 0.16199053E+05</totfact>
</mgrwt>
</event>
<event>
 6    1  0.4261782E-002  0.1258971E+03  0.7546771E-02  0.1233674E+00
         21   -1    0    0  503  502  0.00000000000E+00  0.00000000000E+00  0.35699936755E+03  0.35699936755E+03  0.00000000000E+00 0. -1.
         21   -1    0    0  504  503 -0.00000000000E+00 -0.00000000000E+00 -0.18562792504E+03  0.18562792504E+03  0.00000000000E+00 0.  1.
         25    2    1    2    0    0 -0.14915109646E+02  0.21110008738E+01 -0.16409288460E+03  0.20682492275E+03  0.12499262808E+03 0.  0.
          5    1    3    3  501    0  0.31784625169E+02  0.68818400335E+01  0.35679190641E+01  0.32716389865E+02  0.10000000000E+00 0. -1.
         -5    1    3    3    0  501 -0.46699734814E+02 -0.47708391597E+01 -0.16766080367E+03  0.17410853289E+03  0.10000000000E+00 0. -1.
         21    1    1    2  504  502  0.14915109646E+02 -0.21110008738E+01  0.33546432712E+03  0.33580236984E+03  0.00000000000E+00 0. -1.
<mgrwt>
<rscale>  1 0.12589708E+03</rscale>
<asrwt>0</asrwt>
<pdfrwt beam="1">  1       21 0.54922979E-01 0.12589708E+03</pdfrwt>
<pdfrwt beam="2">  1       21 0.28558142E-01 0.12589708E+03</pdfrwt>
<totfact> 0.38058413E+04</totfact>
</mgrwt>
</event>
<event>
 6    1  0.4261782E-002  0.1279430E+03  0.7546771E-02  0.1230540E+00
         21   -1    0    0  503  502  0.00000000000E+00  0.00000000000E+00  0.82546551509E+02  0.82546551509E+02  0.00000000000E+00 0. -1.
         21   -1    0    0  504  503 -0.00000000000E+00 -0.00000000000E+00 -0.86245250258E+02  0.86245250258E+02  0.00000000000E+00 0. -1.
         25    2    1    2    0    0  0.27284470557E+02 -0.13494634249E+00 -0.29433844816E+02  0.13128502522E+03  0.12499978433E+03 0.  0.
          5    1    3    3  501    0  0.51316570850E+02  0.28955931906E+02 -0.58972777418E+02  0.83364470326E+02  0.10000000000E+00 0.  1.
         -5    1    3    3    0  501 -0.24032100293E+02 -0.29090878249E+02  0.29538932602E+02  0.47920554891E+02  0.10000000000E+00 0.  1.
         21    1    1    2  504  502 -0.27284470557E+02  0.13494634249E+00  0.25735146068E+02  0.37506776550E+02  0.00000000000E+00 0. -1.
<mgrwt>
<rscale>  1 0.12794298E+03</rscale>
<asrwt>0</asrwt>
<pdfrwt beam="1">  1       21 0.12699469E-01 0.12794298E+03</pdfrwt>
<pdfrwt beam="2">  1       21 0.13268500E-01 0.12794298E+03</pdfrwt>
<totfact> 0.25743301E+06</totfact>
</mgrwt>
</event>
<event>
 6    1  0.4261782E-002  0.1262538E+03  0.7546771E-02  0.1233123E+00
         21   -1    0    0  503  502  0.00000000000E+00  0.00000000000E+00  0.28272268904E+03  0.28272268904E+03  0.00000000000E+00 0.  1.
         21   -1    0    0  504  503 -0.00000000000E+00 -0.00000000000E+00 -0.34861318762E+02  0.34861318762E+02  0.00000000000E+00 0.  1.
         25    2    1    2    0    0  0.83989357421E+01 -0.15662862265E+02  0.81495558954E+02  0.15027157385E+03  0.12499660957E+03 0.  0.
          5    1    3    3  501    0  0.39732230054E+02 -0.44994925440E+02  0.88344697026E+02  0.10680818748E+03  0.10000000000E+00 0. -1.
         -5    1    3    3    0  501 -0.31333294312E+02  0.29332063175E+02 -0.68491380729E+01  0.43463386372E+02  0.10000000000E+00 0. -1.
         21    1    1    2  504  502 -0.83989357421E+01  0.15662862265E+02  0.16636581133E+03  0.16731243395E+03  0.00000000000E+00 0.  1.
<mgrwt>
<rscale>  1 0.12625379E+03</rscale>
<asrwt>0</asrwt>
<pdfrwt beam="1">  1       21 0.43495797E-01 0.12625379E+03</pdfrwt>
<pdfrwt beam="2">  1       21 0.53632800E-02 0.12625379E+03</pdfrwt>
<totfact> 0.12127745E+06</totfact>
</mgrwt>
</event>
<event>
 6    1  0.4261782E-002  0.1324917E+03  0.7546771E-02  0.1223805E+00
         21   -1    0    0  504  502  0.00000000000E+00  0.00000000000E+00  0.52505612835E+03  0.52505612835E+03  0.00000000000E+00 0.  1.
         21   -1    0    0  502  503 -0.00000000000E+00 -0.00000000000E+00 -0.19651476792E+02  0.19651476792E+02  0.00000000000E+00 0.  1.
         25    2    1    2    0    0  0.78336672289E+01 -0.43215837525E+02  0.22681184486E+03  0.26267404880E+03  0.12500027197E+03 0.  0.
          5    1    3    3  501    0  0.23785503362E+02  0.40620498295E+02  0.76327203830E+02  0.89675119718E+02  0.10000000000E+00 0. -1.
         -5    1    3    3    0  501 -0.15951836133E+02 -0.83836335820E+02  0.15048464103E+03  0.17299892909E+03  0.10000000000E+00 0. -1.
         21    1    1    2  504  503 -0.78336672289E+01  0.43215837525E+02  0.27859280670E+03  0.28203355634E+03  0.00000000000E+00 0.  1.
<mgrwt>
<rscale>  1 0.13249167E+03</rscale>
<asrwt>0</asrwt>
<pdfrwt beam="1">  1       21 0.80777855E-01 0.13249167E+03</pdfrwt>
<pdfrwt beam="2">  1       21 0.30233045E-02 0.13249167E+03</pdfrwt>
<totfact> 0.84521746E+05</totfact>
</mgrwt>
</event>
<event>
 6    1  0.4261782E-002  0.1312361E+03  0.7546771E-02  0.1225633E+00
         21   -1    0    0  503  502  0.00000000000E+00  0.00000000000E+00  0.88280293384E+02  0.88280293384E+02  0.00000000000E+00 0. -1.
         21   -1    0    0  504  503 -0.00000000000E+00 -0.00000000000E+00 -0.22254169688E+03  0.22254169688E+03  0.00000000000E+00 0. -1.
         25    2    1    2    0    0  0.27692725614E+02  0.28807876131E+02 -0.19683753029E+03  0.23657542521E+03  0.12500455073E+03 0.  0.
          5    1    3    3  501    0  0.11144191068E+02  0.28782864831E+02 -0.21193731115E+03  0.21417301455E+03  0.10000000000E+00 0. -1.
         -5    1    3    3    0  501  0.16548534546E+02  0.25011300212E-01  0.15099780865E+02  0.22402410659E+02  0.10000000000E+00 0. -1.
         21    1    1    2  504  502 -0.27692725614E+02 -0.28807876131E+02  0.62576126789E+02  0.74246565059E+02  0.00000000000E+00 0. -1.
<mgrwt>
<rscale>  1 0.13123612E+03</rscale>
<asrwt>0</asrwt>
<pdfrwt beam="1">  1       21 0.13581584E-01 0.13123612E+03</pdfrwt>
<pdfrwt beam="2">  1       21 0.34237184E-01 0.13123612E+03</pdfrwt>
<totfact> 0.39018955E+05</totfact>
</mgrwt>
</event>
<event>
 6    1  0.4261782E-002  0.1505402E+03  0.7546771E-02  0.1199811E+00
         21   -1    0    0  503  502  0.00000000000E+00  0.00000000000E+00  0.77503138924E+03  0.77503138924E+03  0.00000000000E+00 0. -1.
         21   -1    0    0  504  503 -0.00000000000E+00 -0.00000000000E+00 -0.25114472802E+02  0.25114472802E+02  0.00000000000E+00 0. -1.
         25    2    1    2    0    0  0.79805412532E+02 -0.25863349543E+02  0.23951408168E+03  0.28289459772E+03  0.12499816548E+03 0.  0.
          5    1    3    3  501    0 -0.30117793142E+02  0.78884709649E+01  0.83257810458E+02  0.88888595670E+02  0.10000000000E+00 0. -1.
         -5    1    3    3    0  501  0.10992320567E+03 -0.33751820508E+02  0.15625627122E+03  0.19400600205E+03  0.10000000000E+00 0. -1.
         21    1    1    2  504  502 -0.79805412532E+02  0.25863349543E+02  0.51040283476E+03  0.51725126433E+03  0.00000000000E+00 0. -1.
<mgrwt>
<rscale>  1 0.15054022E+03</rscale>
<asrwt>0</asrwt>
<pdfrwt beam="1">  1       21 0.11923558E+00 0.15054022E+03</pdfrwt>
<pdfrwt beam="2">  1       21 0.38637656E-02 0.15054022E+03</pdfrwt>
<totfact> 0.22596331E+05</totfact>
</mgrwt>
</event>
<event>
 6    1  0.4261782E-002  0.1273040E+03  0.7546771E-02  0.1231512E+00
         21   -1    0    0  504  502  0.00000000000E+00  0.00000000000E+00  0.36352852851E+02  0.36352852851E+02  0.00000000000E+00 0.  1.
         21   -1    0    0  502  503 -0.00000000000E+00 -0.00000000000E+00 -0.12678754659E+04  0.12678754659E+04  0.00000000000E+00 0.  1.
         25    2    1    2    0    0  0.21165814805E+02 -0.11584167593E+02 -0.12602777566E+04  0.12666910981E+04  0.12499651759E+03 0.  0.
          5    1    3    3  501    0 -0.28555279120E+02 -0.31600871918E+02 -0.10022796644E+04  0.10031842078E+04  0.10000000000E+00 0.  1.
         -5    1    3    3    0  501  0.49721093925E+02  0.20016704325E+02 -0.25799809217E+03  0.26350689023E+03  0.10000000000E+00 0.  1.
         21    1    1    2  504  503 -0.21165814805E+02  0.11584167593E+02  0.28755143574E+02  0.37537220691E+02  0.00000000000E+00 0.  1.
<mgrwt>
<rscale>  1 0.12730402E+03</rscale>
<asrwt>0</asrwt>
<pdfrwt beam="1">  1       21 0.55927466E-02 0.12730402E+03</pdfrwt>
<pdfrwt beam="2">  1       21 0.19505776E+00 0.12730402E+03</pdfrwt>
<totfact> 0.33784408E+04</totfact>
</mgrwt>
</event>
<event>
 6    1  0.4261782E-002  0.1323558E+03  0.7546771E-02  0.1224001E+00
         21   -1    0    0  504  502  0.00000000000E+00  0.00000000000E+00  0.13562886691E+03  0.13562886691E+03  0.00000000000E+00 0.  1.
         21   -1    0    0  502  503 -0.00000000000E+00 -0.00000000000E+00 -0.96668276894E+02  0.96668276894E+02  0.00000000000E+00 0.  1.
         25    2    1    2    0    0  0.35261030637E+02 -0.25557363863E+02 -0.43267886701E+02  0.13924854622E+03  0.12498611313E+03 0.  0.
          5    1    3    3  501    0 -0.28902235566E+02 -0.25863168600E+02  0.24538795539E+02  0.45895590172E+02  0.10000000000E+00 0.  1.
         -5    1    3    3    0  501  0.64163266203E+02  0.30580473665E+00 -0.67806682241E+02  0.93352956048E+02  0.10000000000E+00 0.  1.
         21    1    1    2  504  503 -0.35261030637E+02  0.25557363863E+02  0.82228476720E+02  0.93048597587E+02  0.00000000000E+00 0.  1.
<mgrwt>
<rscale>  1 0.13235576E+03</rscale>
<asrwt>0</asrwt>
<pdfrwt beam="1">  1       21 0.20865980E-01 0.13235576E+03</pdfrwt>
<pdfrwt beam="2">  1       21 0.14872042E-01 0.13235576E+03</pdfrwt>
<totfact> 0.85190657E+05</totfact>
</mgrwt>
</event>
<event>
 6    1  0.4261782E-002  0.1989446E+03  0.7546771E-02  0.1150632E+00
         21   -1    0    0  504  502  0.00000000000E+00  0.00000000000E+00  0.40354441492E+03  0.40354441492E+03  0.00000000000E+00 0. -1.
         21   -1    0    0  502  503 -0.00000000000E+00 -0.00000000000E+00 -0.90324876053E+02  0.90324876053E+02  0.00000000000E+00 0.  1.
         25    2    1    2    0    0  0.15369508233E+03 -0.18194866942E+02  0.81002706617E+02  0.21480319003E+03  0.12500296178E+03 0.  0.
          5    1    3    3  501    0  0.10635869966E+03  0.17935036861E+01  0.11226459079E+03  0.15465683946E+03  0.10000000000E+00 0.  1.
         -5    1    3    3    0  501  0.47336382672E+02 -0.19988370628E+02 -0.31261884170E+02  0.60146350568E+02  0.10000000000E+00 0.  1.
         21    1    1    2  504  503 -0.15369508233E+03  0.18194866942E+02  0.23221683225E+03  0.27906610094E+03  0.00000000000E+00 0. -1.
<mgrwt>
<rscale>  1 0.19894465E+03</rscale>
<asrwt>0</asrwt>
<pdfrwt beam="1">  1       21 0.62083755E-01 0.19894465E+03</pdfrwt>
<pdfrwt beam="2">  1       21 0.13896135E-01 0.19894465E+03</pdfrwt>
<totfact> 0.10823018E+05</totfact>
</mgrwt>
</event>
<event>
 6    1  0.4261782E-002  0.1286646E+03  0.7546771E-02  0.1229451E+00
         21   -1    0    0  504  502  0.00000000000E+00  0.00000000000E+00  0.59471816476E+02  0.59471816476E+02  0.00000000000E+00 0.  1.
         21   -1    0    0  502  503 -0.00000000000E+00 -0.00000000000E+00 -0.10809733124E+03  0.10809733124E+03  0.00000000000E+00 0.  1.
         25    2    1    2    0    0  0.26687828471E+02  0.14743913499E+02 -0.47190474282E+02  0.13704567289E+03  0.12499980969E+03 0.  0.
          5    1    3    3  501    0  0.50624401246E+02  0.55971957820E+02 -0.90845264522E+01  0.76014660984E+02  0.10000000000E+00 0.  1.
         -5    1    3    3    0  501 -0.23936572775E+02 -0.41228044321E+02 -0.38105947830E+02  0.61031011910E+02  0.10000000000E+00 0.  1.
         21    1    1    2  504  503 -0.26687828471E+02 -0.14743913499E+02 -0.14350404783E+01  0.30523474818E+02  0.00000000000E+00 0.  1.
<mgrwt>
<rscale>  1 0.12866459E+03</rscale>
<asrwt>0</asrwt>
<pdfrwt beam="1">  1       21 0.91495102E-02 0.12866459E+03</pdfrwt>
<pdfrwt beam="2">  1       21 0.16630359E-01 0.12866459E+03</pdfrwt>
<totfact> 0.30510122E+06</totfact>
</mgrwt>
</event>
<event>
 6    1  0.4261782E-002  0.1364208E+03  0.7546771E-02  0.1218228E+00
         21   -1    0    0  503  502  0.00000000000E+00  0.00000000000E+00  0.25086069936E+03  0.25086069936E+03  0.00000000000E+00 0.  1.
         21   -1    0    0  504  503 -0.00000000000E+00 -0.00000000000E+00 -0.77442415379E+02  0.77442415379E+02  0.00000000000E+00 0. -1.
         25    2    1    2    0    0  0.54376089859E+02 -0.49524670795E+01 -0.10139016558E+02  0.13679706089E+03  0.12501739932E+03 0.  0.
          5    1    3    3  501    0  0.25037842249E+02  0.53842936778E+02  0.22410736178E+02  0.63468153285E+02  0.10000000000E+00 0.  1.
         -5    1    3    3    0  501  0.29338247610E+02 -0.58795403858E+02 -0.32549752737E+02  0.73328907607E+02  0.10000000000E+00 0.  1.
         21    1    1    2  504  502 -0.54376089859E+02  0.49524670795E+01  0.18355730054E+03  0.19150605384E+03  0.00000000000E+00 0.  1.
<mgrwt>
<rscale>  1 0.13642081E+03</rscale>
<asrwt>0</asrwt>
<pdfrwt beam="1">  1       21 0.38593953E-01 0.13642081E+03</pdfrwt>
<pdfrwt beam="2">  1       21 0.11914218E-01 0.13642081E+03</pdfrwt>
<totfact> 0.38860933E+05</totfact>
</mgrwt>
</event>
<event>
 6    1  0.4261782E-002  0.1287016E+03  0.7546771E-02  0.1229395E+00
         21   -1    0    0  504  502  0.00000000000E+00  0.00000000000E+00  0.62564341912E+02  0.62564341912E+02  0.00000000000E+00 0. -1.
         21   -1    0    0  502  503 -0.00000000000E+00 -0.00000000000E+00 -0.32623605273E+03  0.32623605273E+03  0.00000000000E+00 0.  1.
         25    2    1    2    0    0 -0.22290830688E+02  0.21046804367E+02 -0.30862690479E+03  0.33438699031E+03  0.12499697526E+03 0.  0.
          5    1    3    3  501    0  0.10615919873E+02 -0.31355573568E+02 -0.23881871762E+03  0.24110217675E+03  0.10000000000E+00 0. -1.
         -5    1    3    3    0  501 -0.32906750560E+02  0.52402377935E+02 -0.69808187167E+02  0.93284813562E+02  0.10000000000E+00 0. -1.
         21    1    1    2  504  503  0.22290830688E+02 -0.21046804367E+02  0.44955193964E+02  0.54413404333E+02  0.00000000000E+00 0. -1.
<mgrwt>
<rscale>  1 0.12870157E+03</rscale>
<asrwt>0</asrwt>
<pdfrwt beam="1">  1       21 0.96252832E-02 0.12870157E+03</pdfrwt>
<pdfrwt beam="2">  1       21 0.50190163E-01 0.12870157E+03</pdfrwt>
<totfact> 0.33237631E+05</totfact>
</mgrwt>
</event>
<event>
 6    1  0.4261782E-002  0.1264221E+03  0.7546771E-02  0.1232863E+00
         21   -1    0    0  503  502  0.00000000000E+00  0.00000000000E+00  0.10766666969E+02  0.10766666969E+02  0.00000000000E+00 0.  1.
         21   -1    0    0  504  503 -0.00000000000E+00 -0.00000000000E+00 -0.11704578667E+04  0.11704578667E+04  0.00000000000E+00 0.  1.
         25    2    1    2    0    0 -0.18215781125E+02 -0.51577543622E+01 -0.11547617117E+04  0.11616613805E+04  0.12499653993E+03 0.  0.
          5    1    3    3  501    0  0.27927793142E+02 -0.52980621748E+02 -0.52727821167E+03  0.53066866349E+03  0.10000000000E+00 0.  1.
         -5    1    3    3    0  501 -0.46143574267E+02  0.47822867386E+02 -0.62748350001E+03  0.63099271698E+03  0.10000000000E+00 0.  1.
         21    1    1    2  504  502  0.18215781125E+02  0.51577543622E+01 -0.49294880949E+01  0.19563153246E+02  0.00000000000E+00 0.  1.
<mgrwt>
<rscale>  1 0.12642212E+03</rscale>
<asrwt>0</asrwt>
<pdfrwt beam="1">  1       21 0.16564100E-02 0.12642212E+03</pdfrwt>
<pdfrwt beam="2">  1       21 0.18007048E+00 0.12642212E+03</pdfrwt>
<totfact> 0.31205338E+05</totfact>
</mgrwt>
</event>
<event>
 6    1  0.4261782E-002  0.1425081E+03  0.7546771E-02  0.1209993E+00
         21   -1    0    0  504  502  0.00000000000E+00  0.00000000000E+00  0.20753798828E+02  0.20753798828E+02  0.00000000000E+00 0. -1.
         21   -1    0    0  502  503 -0.00000000000E+00 -0.00000000000E+00 -0.61690578166E+03  0.61690578166E+03  0.00000000000E+00 0. -1.
         25    2    1    2    0    0 -0.68437536744E+02 -0.19232156489E+01 -0.49799560380E+03  0.51798472959E+03  0.12498465300E+03 0.  0.
          5    1    3    3  501    0 -0.40983753004E+02  0.27163841325E+01 -0.48589125142E+03  0.48762420465E+03  0.10000000000E+00 0. -1.
         -5    1    3    3    0  501 -0.27453783740E+02 -0.46395997814E+01 -0.12104352377E+02  0.30360524934E+02  0.10000000000E+00 0. -1.
         21    1    1    2  504  503  0.68437536744E+02  0.19232156489E+01 -0.98156379033E+02  0.11967485090E+03  0.00000000000E+00 0. -1.
<mgrwt>
<rscale>  1 0.14250810E+03</rscale>
<asrwt>0</asrwt>
<pdfrwt beam="1">  1       21 0.31928917E-02 0.14250810E+03</pdfrwt>
<pdfrwt beam="2">  1       21 0.94908595E-01 0.14250810E+03</pdfrwt>
<totfact> 0.53463412E+05</totfact>
</mgrwt>
</event>
<event>
 6    1  0.4261782E-002  0.1301961E+03  0.7546771E-02  0.1227165E+00
         21   -1    0    0  504  502  0.00000000000E+00  0.00000000000E+00  0.77329885232E+03  0.77329885232E+03  0.00000000000E+00 0. -1.
         21   -1    0    0  502  503 -0.00000000000E+00 -0.00000000000E+00 -0.10647924416E+02  0.10647924416E+02  0.00000000000E+00 0. -1.
         25    2    1    2    0    0  0.32445276739E+02 -0.16438925300E+02  0.42905769510E+03  0.44837654680E+03  0.12501235038E+03 0.  0.
          5    1    3    3  501    0  0.44509468247E+02  0.46472298417E+02  0.25204550265E+03  0.26013018412E+03  0.10000000000E+00 0. -1.
         -5    1    3    3    0  501 -0.12064191509E+02 -0.62911223717E+02  0.17701219245E+03  0.18824636268E+03  0.10000000000E+00 0. -1.
         21    1    1    2  504  503 -0.32445276739E+02  0.16438925300E+02  0.33359323280E+03  0.33557022994E+03  0.00000000000E+00 0. -1.
<mgrwt>
<rscale>  1 0.13019609E+03</rscale>
<asrwt>0</asrwt>
<pdfrwt beam="1">  1       21 0.11896901E+00 0.13019609E+03</pdfrwt>
<pdfrwt beam="2">  1       21 0.16381428E-02 0.13019609E+03</pdfrwt>
<totfact> 0.92529648E+05</totfact>
</mgrwt>
</event>
<event>
 6    1  0.4261782E-002  0.1274773E+03  0.7546771E-02  0.1231248E+00
         21   -1    0    0  503  502  0.00000000000E+00  0.00000000000E+00  0.46891347616E+03  0.46891347616E+03  0.00000000000E+00 0.  1.
         21   -1    0    0  504  503 -0.00000000000E+00 -0.00000000000E+00 -0.32406780494E+03  0.32406780494E+03  0.00000000000E+00 0. -1.
         25    2    1    2    0    0 -0.41254049819E+01  0.24648466520E+02 -0.31117610376E+03  0.33627522122E+03  0.12500356389E+03 0.  0.
          5    1    3    3  501    0  0.14523487614E+02  0.70409632839E+02 -0.13082747316E+03  0.14927922100E+03  0.10000000000E+00 0.  1.
         -5    1    3    3    0  501 -0.18648892596E+02 -0.45761166319E+02 -0.18034863061E+03  0.18699600022E+03  0.10000000000E+00 0.  1.
         21    1    1    2  504  502  0.41254049819E+01 -0.24648466520E+02  0.45602177499E+03  0.45670605988E+03  0.00000000000E+00 0.  1.
<mgrwt>
<rscale>  1 0.12747728E+03</rscale>
<asrwt>0</asrwt>
<pdfrwt beam="1">  1       21 0.72140535E-01 0.12747728E+03</pdfrwt>
<pdfrwt beam="2">  1       21 0.49856585E-01 0.12747728E+03</pdfrwt>
<totfact> 0.70167339E+03</totfact>
</mgrwt>
</event>
<event>
 6    1  0.4261782E-002  0.1264426E+03  0.7546771E-02  0.1232832E+00
         21   -1    0    0  503  502  0.00000000000E+00  0.00000000000E+00  0.47589902323E+03  0.47589902323E+03  0.00000000000E+00 0.  1.
         21   -1    0    0  504  503 -0.00000000000E+00 -0.00000000000E+00 -0.11742439060E+03  0.11742439060E+03  0.00000000000E+00 0.  1.
         25    2    1    2    0    0 -0.50811554145E+01 -0.18356832895E+02 -0.83121110843E+02  0.15131708796E+03  0.12499980235E+03 0.  0.
          5    1    3    3  501    0 -0.23254595092E+02  0.50286039581E+02 -0.38118605731E+02  0.67249535854E+02  0.10000000000E+00 0.  1.
         -5    1    3    3    0  501  0.18173439677E+02 -0.68642872477E+02 -0.45002505112E+02  0.84067552110E+02  0.10000000000E+00 0.  1.
         21    1    1    2  504  502  0.50811554145E+01  0.18356832895E+02  0.44159574347E+03  0.44200632586E+03  0.00000000000E+00 0.  1.
<mgrwt>
<rscale>  1 0.12644264E+03</rscale>
<asrwt>0</asrwt>
<pdfrwt beam="1">  1       21 0.73215233E-01 0.12644264E+03</pdfrwt>
<pdfrwt beam="2">  1       21 0.18065291E-01 0.12644264E+03</pdfrwt>
<totfact> 0.48417391E+04</totfact>
</mgrwt>
</event>
<event>
 6    1  0.4261782E-002  0.1266169E+03  0.7546771E-02  0.1232564E+00
         21   -1    0    0  504  502  0.00000000000E+00  0.00000000000E+00  0.23081401815E+03  0.23081401815E+03  0.00000000000E+00 0.  1.
         21   -1    0    0  502  503 -0.00000000000E+00 -0.00000000000E+00 -0.24951338257E+02  0.24951338257E+02  0.00000000000E+00 0.  1.
         25    2    1    2    0    0 -0.16739687962E+02 -0.11409948314E+02  0.19573084368E+03  0.23311456882E+03  0.12498573900E+03 0.  0.
          5    1    3    3  501    0 -0.46041494507E+02  0.38489447738E+02  0.14195483752E+03  0.15411827503E+03  0.10000000000E+00 0. -1.
         -5    1    3    3    0  501  0.29301806544E+02 -0.49899396052E+02  0.53776006164E+02  0.78996293787E+02  0.10000000000E+00 0. -1.
         21    1    1    2  504  503  0.16739687962E+02  0.11409948314E+02  0.10131836216E+02  0.22650787596E+02  0.00000000000E+00 0.  1.
<mgrwt>
<rscale>  1 0.12661690E+03</rscale>
<asrwt>0</asrwt>
<pdfrwt beam="1">  1       21 0.35509848E-01 0.12661690E+03</pdfrwt>
<pdfrwt beam="2">  1       21 0.38386676E-02 0.12661690E+03</pdfrwt>
<totfact> 0.31775447E+06</totfact>
</mgrwt>
</event>
<event>
 6    1  0.4261782E-002  0.1348418E+03  0.7546771E-02  0.1220443E+00
         21   -1    0    0  503  502  0.00000000000E+00  0.00000000000E+00  0.26923738560E+02  0.26923738560E+02  0.00000000000E+00 0. -1.
         21   -1    0    0  504  503 -0.00000000000E+00 -0.00000000000E+00 -0.32145554110E+03  0.32145554110E+03  0.00000000000E+00 0. -1.
         25    2    1    2    0    0 -0.44363285175E+02  0.24404609485E+02 -0.22603996880E+03  0.26320406422E+03  0.12497450097E+03 0.  0.
          5    1    3    3  501    0  0.43194789165E+02  0.13002906523E+02 -0.95345297154E+02  0.10547796490E+03  0.10000000000E+00 0.  1.
         -5    1    3    3    0  501 -0.87558074340E+02  0.11401702962E+02 -0.13069467165E+03  0.15772609933E+03  0.10000000000E+00 0.  1.
         21    1    1    2  504  502  0.44363285175E+02 -0.24404609485E+02 -0.68491833736E+02  0.85175215433E+02  0.00000000000E+00 0.  1.
<mgrwt>
<rscale>  1 0.13484180E+03</rscale>
<asrwt>0</asrwt>
<pdfrwt beam="1">  1       21 0.41421139E-02 0.13484180E+03</pdfrwt>
<pdfrwt beam="2">  1       21 0.49454695E-01 0.13484180E+03</pdfrwt>
<totfact> 0.14397714E+06</totfact>
</mgrwt>
</event>
<event>
 6    1  0.4261782E-002  0.1435716E+03  0.7546771E-02  0.1208602E+00
         21   -1    0    0  503  502  0.00000000000E+00  0.00000000000E+00  0.42319000879E+03  0.42319000879E+03  0.00000000000E+00 0.  1.
         21   -1    0    0  504  503 -0.00000000000E+00 -0.00000000000E+00 -0.94396014931E+02  0.94396014931E+02  0.00000000000E+00 0.  1.
         25    2    1    2    0    0 -0.35607517522E+02  0.60986177153E+02 -0.34362686888E+02  0.14762658827E+03  0.12500242480E+03 0.  0.
          5    1    3    3  501    0 -0.89478383526E+01  0.94747981880E+02 -0.41843721140E+02  0.10396225700E+03  0.10000000000E+00 0.  1.
         -5    1    3    3    0  501 -0.26659679169E+02 -0.33761804727E+02  0.74810342525E+01  0.43664331271E+02  0.10000000000E+00 0.  1.
         21    1    1    2  504  502  0.35607517522E+02 -0.60986177153E+02  0.36315668074E+03  0.36995943545E+03  0.00000000000E+00 0.  1.
<mgrwt>
<rscale>  1 0.14357164E+03</rscale>
<asrwt>0</asrwt>
<pdfrwt beam="1">  1       21 0.65106154E-01 0.14357164E+03</pdfrwt>
<pdfrwt beam="2">  1       21 0.14522464E-01 0.14357164E+03</pdfrwt>
<totfact> 0.92171410E+04</totfact>
</mgrwt>
</event>
<event>
 6    1  0.4261782E-002  0.1504098E+03  0.7546771E-02  0.1199970E+00
         21   -1    0    0  503  502  0.00000000000E+00  0.00000000000E+00  0.12341855485E+03  0.12341855485E+03  0.00000000000E+00 0. -1.
         21   -1    0    0  504  503 -0.00000000000E+00 -0.00000000000E+00 -0.65545031184E+03  0.65545031184E+03  0.00000000000E+00 0. -1.
         25    2    1    2    0    0  0.55845315943E+02 -0.62280515502E+02 -0.63134836291E+03  0.64901760510E+03  0.12500213782E+03 0.  0.
          5    1    3    3  501    0  0.54376261015E+02 -0.94111709835E+02 -0.56566590859E+03  0.57601364726E+03  0.10000000000E+00 0.  1.
         -5    1    3    3    0  501  0.14690549284E+01  0.31831194333E+02 -0.65682454322E+02  0.73003957844E+02  0.10000000000E+00 0.  1.
         21    1    1    2  504  502 -0.55845315943E+02  0.62280515502E+02  0.99316605920E+02  0.12985126159E+03  0.00000000000E+00 0. -1.
<mgrwt>
<rscale>  1 0.15040976E+03</rscale>
<asrwt>0</asrwt>
<pdfrwt beam="1">  1       21 0.18987470E-01 0.15040976E+03</pdfrwt>
<pdfrwt beam="2">  1       21 0.10083851E+00 0.15040976E+03</pdfrwt>
<totfact> 0.21031796E+04</totfact>
</mgrwt>
</event>
<event>
 6    1  0.4261782E-002  0.1280625E+03  0.7546771E-02  0.1230359E+00
         21   -1    0    0  503  502  0.00000000000E+00  0.00000000000E+00  0.12894745262E+04  0.12894745262E+04  0.00000000000E+00 0. -1.
         21   -1    0    0  504  503 -0.00000000000E+00 -0.00000000000E+00 -0.58587095696E+01  0.58587095696E+01  0.00000000000E+00 0. -1.
         25    2    1    2    0    0  0.22855928578E+02  0.15931604252E+02  0.73965371951E+03  0.75065812839E+03  0.12499516575E+03 0.  0.
          5    1    3    3  501    0 -0.18025571790E+02  0.32859452180E+02  0.64591000277E+03  0.64699645016E+03  0.10000000000E+00 0. -1.
         -5    1    3    3    0  501  0.40881500369E+02 -0.16927847928E+02  0.93743716732E+02  0.10366167824E+03  0.10000000000E+00 0. -1.
         21    1    1    2  504  502 -0.22855928578E+02 -0.15931604252E+02  0.54396209716E+03  0.54467510741E+03  0.00000000000E+00 0. -1.
<mgrwt>
<rscale>  1 0.12806249E+03</rscale>
<asrwt>0</asrwt>
<pdfrwt beam="1">  1       21 0.19838047E+00 0.12806249E+03</pdfrwt>
<pdfrwt beam="2">  1       21 0.90134096E-03 0.12806249E+03</pdfrwt>
<totfact> 0.62281390E+05</totfact>
</mgrwt>
</event>
<event>
 6    1  0.4261782E-002  0.1658174E+03  0.7546771E-02  0.1182281E+00
         21   -1    0    0  504  502  0.00000000000E+00  0.00000000000E+00  0.70203307507E+02  0.70203307507E+02  0.00000000000E+00 0.  1.
         21   -1    0    0  502  503 -0.00000000000E+00 -0.00000000000E+00 -0.28887682962E+03  0.28887682962E+03  0.00000000000E+00 0.  1.
         25    2    1    2    0    0  0.10836983805E+03 -0.10645590122E+02 -0.17686352856E+03  0.24243783799E+03  0.12505217778E+03 0.  0.
          5    1    3    3  501    0  0.27008566669E+02 -0.33858729057E+02  0.32587671440E+01  0.43433924186E+02  0.10000000000E+00 0. -1.
         -5    1    3    3    0  501  0.81361271378E+02  0.23213138935E+02 -0.18012229571E+03  0.19900391380E+03  0.10000000000E+00 0. -1.
         21    1    1    2  504  503 -0.10836983805E+03  0.10645590122E+02 -0.41809993553E+02  0.11664229914E+03  0.00000000000E+00 0.  1.
<mgrwt>
<rscale>  1 0.16581736E+03</rscale>
<asrwt>0</asrwt>
<pdfrwt beam="1">  1       21 0.10800509E-01 0.16581736E+03</pdfrwt>
<pdfrwt beam="2">  1       21 0.44442589E-01 0.16581736E+03</pdfrwt>
<totfact> 0.34622663E+05</totfact>
</mgrwt>
</event>
<event>
 6    1  0.4261782E-002  0.1260037E+03  0.7546771E-02  0.1233509E+00
         21   -1    0    0  504  502  0.00000000000E+00  0.00000000000E+00  0.24400068784E+02  0.24400068784E+02  0.00000000000E+00 0. -1.
         21   -1    0    0  502  503 -0.00000000000E+00 -0.00000000000E+00 -0.24322948221E+03  0.24322948221E+03  0.00000000000E+00 0. -1.
         25    2    1    2    0    0 -0.14236151043E+02 -0.70217494626E+01 -0.21792460651E+03  0.25173012844E+03  0.12499980192E+03 0.  0.
          5    1    3    3  501    0  0.16243463531E+02  0.34654332415E+02 -0.18840857297E+03  0.19225652975E+03  0.10000000000E+00 0.  1.
         -5    1    3    3    0  501 -0.30479614574E+02 -0.41676081878E+02 -0.29516033541E+02  0.59473598691E+02  0.10000000000E+00 0.  1.
         21    1    1    2  504  503  0.14236151043E+02  0.70217494626E+01 -0.90480691817E+00  0.15899422556E+02  0.00000000000E+00 0.  1.
<mgrwt>
<rscale>  1 0.12600366E+03</rscale>
<asrwt>0</asrwt>
<pdfrwt beam="1">  1       21 0.37538566E-02 0.12600366E+03</pdfrwt>
<pdfrwt beam="2">  1       21 0.37419922E-01 0.12600366E+03</pdfrwt>
<totfact> 0.29729443E+06</totfact>
</mgrwt>
</event>
<event>
 6    1  0.4261782E-002  0.1348241E+03  0.7546771E-02  0.1220468E+00
         21   -1    0    0  504  502  0.00000000000E+00  0.00000000000E+00  0.69126826300E+02  0.69126826300E+02  0.00000000000E+00 0. -1.
         21   -1    0    0  502  503 -0.00000000000E+00 -0.00000000000E+00 -0.23770343963E+03  0.23770343963E+03  0.00000000000E+00 0.  1.
         25    2    1    2    0    0  0.43254992204E+02 -0.26226606725E+02 -0.20438886523E+03  0.24485166772E+03  0.12497480428E+03 0.  0.
          5    1    3    3  501    0 -0.21114498268E+02 -0.22546403052E+02 -0.16800160008E+03  0.17081776827E+03  0.10000000000E+00 0. -1.
         -5    1    3    3    0  501  0.64369490472E+02 -0.36802036729E+01 -0.36387265145E+02  0.74033899448E+02  0.10000000000E+00 0. -1.
         21    1    1    2  504  503 -0.43254992204E+02  0.26226606725E+02  0.35812251893E+02  0.61978598214E+02  0.00000000000E+00 0. -1.
<mgrwt>
<rscale>  1 0.13482407E+03</rscale>
<asrwt>0</asrwt>
<pdfrwt beam="1">  1       21 0.10634896E-01 0.13482407E+03</pdfrwt>
<pdfrwt beam="2">  1       21 0.36569760E-01 0.13482407E+03</pdfrwt>
<totfact> 0.52860857E+05</totfact>
</mgrwt>
</event>
<event>
 6    1  0.4261782E-002  0.2067601E+03  0.7546771E-02  0.1144158E+00
         21   -1    0    0  503  502  0.00000000000E+00  0.00000000000E+00  0.12239318625E+04  0.12239318625E+04  0.00000000000E+00 0. -1.
         21   -1    0    0  504  503 -0.00000000000E+00 -0.00000000000E+00 -0.30229043105E+02  0.30229043105E+02  0.00000000000E+00 0. -1.
         25    2    1    2    0    0 -0.12004059264E+03  0.11276381917E+03  0.82198960204E+03  0.84759462719E+03  0.12499729348E+03 0.  0.
          5    1    3    3  501    0 -0.54557752316E+01 -0.75664989773E+01  0.36405643595E+00  0.93359481168E+01  0.10000000000E+00 0.  1.
         -5    1    3    3    0  501 -0.11458481740E+03  0.12033031814E+03  0.82162554561E+03  0.83825867907E+03  0.10000000000E+00 0.  1.
         21    1    1    2  504  502  0.12004059264E+03 -0.11276381917E+03  0.37171321738E+03  0.40656627844E+03  0.00000000000E+00 0. -1.
<mgrwt>
<rscale>  1 0.20676012E+03</rscale>
<asrwt>0</asrwt>
<pdfrwt beam="1">  1       21 0.18829717E+00 0.20676012E+03</pdfrwt>
<pdfrwt beam="2">  1       21 0.46506230E-02 0.20676012E+03</pdfrwt>
<totfact> 0.48238179E+04</totfact>
</mgrwt>
</event>
<event>
 6    1  0.4261782E-002  0.1272927E+03  0.7546771E-02  0.1231529E+00
         21   -1    0    0  504  502  0.00000000000E+00  0.00000000000E+00  0.14279548146E+03  0.14279548146E+03  0.00000000000E+00 0.  1.
         21   -1    0    0  502  503 -0.00000000000E+00 -0.00000000000E+00 -0.42265455434E+02  0.42265455434E+02  0.00000000000E+00 0.  1.
         25    2    1    2    0    0  0.23297130346E+02 -0.62762676608E+01  0.67280398858E+02  0.14397948701E+03  0.12498517028E+03 0.  0.
          5    1    3    3  501    0  0.53946255282E+02 -0.91755026745E+01 -0.14488846369E+02  0.56606757347E+02  0.10000000000E+00 0. -1.
         -5    1    3    3    0  501 -0.30649124936E+02  0.28992350137E+01  0.81769245226E+02  0.87372729658E+02  0.10000000000E+00 0. -1.
         21    1    1    2  504  503 -0.23297130346E+02  0.62762676608E+01  0.33249627166E+02  0.41081449886E+02  0.00000000000E+00 0.  1.
<mgrwt>
<rscale>  1 0.12729274E+03</rscale>
<asrwt>0</asrwt>
<pdfrwt beam="1">  1       21 0.21968535E-01 0.12729274E+03</pdfrwt>
<pdfrwt beam="2">  1       21 0.65023778E-02 0.12729274E+03</pdfrwt>
<totfact> 0.32874942E+06</totfact>
</mgrwt>
</event>
<event>
 6    1  0.4261782E-002  0.1288953E+03  0.7546771E-02  0.1229104E+00
         21   -1    0    0  504  502  0.00000000000E+00  0.00000000000E+00  0.10821086368E+03  0.10821086368E+03  0.00000000000E+00 0.  1.
         21   -1    0    0  502  503 -0.00000000000E+00 -0.00000000000E+00 -0.14141954158E+04  0.14141954158E+04  0.00000000000E+00 0.  1.
         25    2    1    2    0    0  0.10205694634E+02  0.29683182299E+02 -0.14089137107E+04  0.14147974546E+04  0.12501498341E+03 0.  0.
          5    1    3    3  501    0  0.40249827897E+02  0.67971725694E+02 -0.96341996385E+03  0.96665311301E+03  0.10000000000E+00 0. -1.
         -5    1    3    3    0  501 -0.30044133262E+02 -0.38288543394E+02 -0.44549374681E+03  0.44814434164E+03  0.10000000000E+00 0. -1.
         21    1    1    2  504  503 -0.10205694634E+02 -0.29683182299E+02  0.10292915852E+03  0.10760882486E+03  0.00000000000E+00 0.  1.
<mgrwt>
<rscale>  1 0.12889528E+03</rscale>
<asrwt>0</asrwt>
<pdfrwt beam="1">  1       21 0.16647826E-01 0.12889528E+03</pdfrwt>
<pdfrwt beam="2">  1       21 0.21756852E+00 0.12889528E+03</pdfrwt>
<totfact> 0.36365754E+03</totfact>
</mgrwt>
</event>
<event>
 6    1  0.4261782E-002  0.1279801E+03  0.7546771E-02  0.1230484E+00
         21   -1    0    0  503  502  0.00000000000E+00  0.00000000000E+00  0.12213064443E+02  0.12213064443E+02  0.00000000000E+00 0.  1.
         21   -1    0    0  504  503 -0.00000000000E+00 -0.00000000000E+00 -0.49755983496E+03  0.49755983496E+03  0.00000000000E+00 0.  1.
         25    2    1    2    0    0  0.25351769036E+02  0.10547383511E+02 -0.38357877761E+03  0.40436567065E+03  0.12499982991E+03 0.  0.
          5    1    3    3  501    0  0.42490837593E+02  0.91117728629E+01 -0.38468398079E+03  0.38713081866E+03  0.10000000000E+00 0. -1.
         -5    1    3    3    0  501 -0.17139068557E+02  0.14356106477E+01  0.11052031814E+01  0.17234851987E+02  0.10000000000E+00 0. -1.
         21    1    1    2  504  502 -0.25351769036E+02 -0.10547383511E+02 -0.10176799291E+03  0.10540722876E+03  0.00000000000E+00 0. -1.
<mgrwt>
<rscale>  1 0.12798014E+03</rscale>
<asrwt>0</asrwt>
<pdfrwt beam="1">  1       21 0.18789333E-02 0.12798014E+03</pdfrwt>
<pdfrwt beam="2">  1       21 0.76547652E-01 0.12798014E+03</pdfrwt>
<totfact> 0.20633374E+06</totfact>
</mgrwt>
</event>
<event>
 6    1  0.4261782E-002  0.1335108E+03  0.7546771E-02  0.1222337E+00
         21   -1    0    0  504  502  0.00000000000E+00  0.00000000000E+00  0.89698685822E+01  0.89698685822E+01  0.00000000000E+00 0.  1.
         21   -1    0    0  502  503 -0.00000000000E+00 -0.00000000000E+00 -0.95259214315E+03  0.95259214315E+03  0.00000000000E+00 0.  1.
         25    2    1    2    0    0  0.25495044615E+02 -0.39341916271E+02 -0.78050173249E+03  0.79183842785E+03  0.12500943059E+03 0.  0.
          5    1    3    3  501    0  0.65548104670E+02 -0.58126348038E+02 -0.57435851613E+03  0.58100167075E+03  0.10000000000E+00 0. -1.
         -5    1    3    3    0  501 -0.40053060055E+02  0.18784431768E+02 -0.20614321636E+03  0.21083675710E+03  0.10000000000E+00 0. -1.
         21    1    1    2  504  503 -0.25495044615E+02  0.39341916271E+02 -0.16312054208E+03  0.16972358388E+03  0.00000000000E+00 0.  1.
<mgrwt>
<rscale>  1 0.13351083E+03</rscale>
<asrwt>0</asrwt>
<pdfrwt beam="1">  1       21 0.13799795E-02 0.13351083E+03</pdfrwt>
<pdfrwt beam="2">  1       21 0.14655267E+00 0.13351083E+03</pdfrwt>
<totfact> 0.72168991E+05</totfact>
</mgrwt>
</event>
<event>
 6    1  0.4261782E-002  0.1280667E+03  0.7546771E-02  0.1230353E+00
         21   -1    0    0  504  502  0.00000000000E+00  0.00000000000E+00  0.12949104856E+03  0.12949104856E+03  0.00000000000E+00 0.  1.
         21   -1    0    0  502  503 -0.00000000000E+00 -0.00000000000E+00 -0.48438661859E+03  0.48438661859E+03  0.00000000000E+00 0. -1.
         25    2    1    2    0    0 -0.21448545076E+02 -0.17779814443E+02 -0.47428995852E+03  0.49127594657E+03  0.12499971615E+03 0.  0.
          5    1    3    3  501    0  0.19341211692E+01 -0.70288488937E+02 -0.27677808083E+03  0.28557018144E+03  0.10000000000E+00 0.  1.
         -5    1    3    3    0  501 -0.23382666245E+02  0.52508674494E+02 -0.19751187769E+03  0.20570576512E+03  0.10000000000E+00 0.  1.
         21    1    1    2  504  503  0.21448545076E+02  0.17779814443E+02  0.11939438848E+03  0.12260172058E+03  0.00000000000E+00 0.  1.
<mgrwt>
<rscale>  1 0.12806674E+03</rscale>
<asrwt>0</asrwt>
<pdfrwt beam="1">  1       21 0.19921700E-01 0.12806674E+03</pdfrwt>
<pdfrwt beam="2">  1       21 0.74521016E-01 0.12806674E+03</pdfrwt>
<totfact> 0.38865083E+04</totfact>
</mgrwt>
</event>
<event>
 6    1  0.4261782E-002  0.1261871E+03  0.7546771E-02  0.1233226E+00
         21   -1    0    0  503  502  0.00000000000E+00  0.00000000000E+00  0.18198560681E+02  0.18198560681E+02  0.00000000000E+00 0. -1.
         21   -1    0    0  504  503 -0.00000000000E+00 -0.00000000000E+00 -0.55697087074E+03  0.55697087074E+03  0.00000000000E+00 0. -1.
         25    2    1    2    0    0 -0.17252923689E+02 -0.63422924568E-01 -0.54294757199E+03  0.55741836919E+03  0.12500201988E+03 0.  0.
          5    1    3    3  501    0 -0.52696431223E+02  0.33369241824E+01 -0.10037735090E+03  0.11341812686E+03  0.10000000000E+00 0.  1.
         -5    1    3    3    0  501  0.35443507534E+02 -0.34003471070E+01 -0.44257022109E+03  0.44400024233E+03  0.10000000000E+00 0.  1.
         21    1    1    2  504  502  0.17252923689E+02  0.63422924568E-01  0.41752619336E+01  0.17751062235E+02  0.00000000000E+00 0. -1.
<mgrwt>
<rscale>  1 0.12618705E+03</rscale>
<asrwt>0</asrwt>
<pdfrwt beam="1">  1       21 0.27997788E-02 0.12618705E+03</pdfrwt>
<pdfrwt beam="2">  1       21 0.85687819E-01 0.12618705E+03</pdfrwt>
<totfact> 0.83940923E+05</totfact>
</mgrwt>
</event>
<event>
 6    1  0.4261782E-002  0.1317795E+03  0.7546771E-02  0.1224839E+00
         21   -1    0    0  504  502  0.00000000000E+00  0.00000000000E+00  0.11074567639E+02  0.11074567639E+02  0.00000000000E+00 0.  1.
         21   -1    0    0  502  503 -0.00000000000E+00 -0.00000000000E+00 -0.75871354278E+03  0.75871354278E+03  0.00000000000E+00 0.  1.
         25    2    1    2    0    0  0.38213029480E+02  0.16754059880E+02 -0.65588697693E+03  0.66899444336E+03  0.12499961836E+03 0.  0.
          5    1    3    3  501    0 -0.17513331804E+02 -0.44984054318E+02 -0.21824791430E+03  0.22352280427E+03  0.10000000000E+00 0.  1.
         -5    1    3    3    0  501  0.55726361284E+02  0.61738114198E+02 -0.43763906263E+03  0.44547163909E+03  0.10000000000E+00 0.  1.
         21    1    1    2  504  503 -0.38213029480E+02 -0.16754059880E+02 -0.91751998208E+02  0.10079366706E+03  0.00000000000E+00 0.  1.
<mgrwt>
<rscale>  1 0.13177951E+03</rscale>
<asrwt>0</asrwt>
<pdfrwt beam="1">  1       21 0.17037789E-02 0.13177951E+03</pdfrwt>
<pdfrwt beam="2">  1       21 0.11672521E+00 0.13177951E+03</pdfrwt>
<totfact> 0.90972471E+05</totfact>
</mgrwt>
</event>
<event>
 6    1  0.4261782E-002  0.1305418E+03  0.7546771E-02  0.1226654E+00
         21   -1    0    0  503  502  0.00000000000E+00  0.00000000000E+00  0.50014555077E+03  0.50014555077E+03  0.00000000000E+00 0.  1.
         21   -1    0    0  504  503 -0.00000000000E+00 -0.00000000000E+00 -0.15346595855E+02  0.15346595855E+02  0.00000000000E+00 0.  1.
         25    2    1    2    0    0 -0.34505423743E+02  0.14989371812E+02  0.42716328470E+03  0.44666500070E+03  0.12500338204E+03 0.  0.
          5    1    3    3  501    0  0.24733073361E+02 -0.18150436973E+02  0.30800808076E+03  0.30953214872E+03  0.10000000000E+00 0. -1.
         -5    1    3    3    0  501 -0.59238497104E+02  0.33139808784E+02  0.11915520394E+03  0.13713285198E+03  0.10000000000E+00 0. -1.
         21    1    1    2  504  502  0.34505423743E+02 -0.14989371812E+02  0.57635670213E+02  0.68827145923E+02  0.00000000000E+00 0.  1.
<mgrwt>
<rscale>  1 0.13054176E+03</rscale>
<asrwt>0</asrwt>
<pdfrwt beam="1">  1       21 0.76945457E-01 0.13054176E+03</pdfrwt>
<pdfrwt beam="2">  1       21 0.23610151E-02 0.13054176E+03</pdfrwt>
<totfact> 0.14103724E+06</totfact>
</mgrwt>
</event>
<event>
 6    1  0.4261782E-002  0.1270545E+03  0.7546771E-02  0.1231893E+00
         21   -1    0    0  503  502  0.00000000000E+00  0.00000000000E+00  0.24744130670E+01  0.24744130670E+01  0.00000000000E+00 0.  1.
         21   -1    0    0  504  503 -0.00000000000E+00 -0.00000000000E+00 -0.24163594458E+04  0.24163594458E+04  0.00000000000E+00 0.  1.
         25    2    1    2    0    0  0.13072378094E+02  0.18634148440E+02 -0.22169380779E+04  0.22205758916E+04  0.12499892265E+03 0.  0.
          5    1    3    3  501    0  0.22204041312E+02  0.33690608730E+02 -0.21710512161E+04  0.21714261373E+04  0.10000000000E+00 0. -1.
         -5    1    3    3    0  501 -0.91316632179E+01 -0.15056460290E+02 -0.45886861728E+02  0.49149754311E+02  0.10000000000E+00 0. -1.
         21    1    1    2  504  502 -0.13072378094E+02 -0.18634148440E+02 -0.19694695487E+03  0.19825796728E+03  0.00000000000E+00 0.  1.
<mgrwt>
<rscale>  1 0.12705451E+03</rscale>
<asrwt>0</asrwt>
<pdfrwt beam="1">  1       21 0.38067932E-03 0.12705451E+03</pdfrwt>
<pdfrwt beam="2">  1       21 0.37174723E+00 0.12705451E+03</pdfrwt>
<totfact> 0.23681967E+05</totfact>
</mgrwt>
</event>
<event>
 6    1  0.4261782E-002  0.1298750E+03  0.7546771E-02  0.1227641E+00
         21   -1    0    0  503  502  0.00000000000E+00  0.00000000000E+00  0.38598700811E+02  0.38598700811E+02  0.00000000000E+00 0.  1.
         21   -1    0    0  504  503 -0.00000000000E+00 -0.00000000000E+00 -0.56265704720E+03  0.56265704720E+03  0.00000000000E+00 0.  1.
         25    2    1    2    0    0  0.64854086855E+01 -0.34605157853E+02 -0.54501997688E+03  0.56028054296E+03  0.12501173604E+03 0.  0.
          5    1    3    3  501    0 -0.39120082688E+02 -0.37687773107E+02 -0.10814767115E+03  0.12102346007E+03  0.10000000000E+00 0.  1.
         -5    1    3    3    0  501  0.45605491374E+02  0.30826152543E+01 -0.43687230572E+03  0.43925708289E+03  0.10000000000E+00 0.  1.
         21    1    1    2  504  502 -0.64854086855E+01  0.34605157853E+02  0.20961630492E+02  0.40975205048E+02  0.00000000000E+00 0.  1.
<mgrwt>
<rscale>  1 0.12987498E+03</rscale>
<asrwt>0</asrwt>
<pdfrwt beam="1">  1       21 0.59382615E-02 0.12987498E+03</pdfrwt>
<pdfrwt beam="2">  1       21 0.86562625E-01 0.12987498E+03</pdfrwt>
<totfact> 0.23477652E+05</totfact>
</mgrwt>
</event>
<event>
 6    1  0.4261782E-002  0.1415804E+03  0.7546771E-02  0.1211218E+00
         21   -1    0    0  504  502  0.00000000000E+00  0.00000000000E+00  0.21701844898E+04  0.21701844898E+04  0.00000000000E+00 0.  1.
         21   -1    0    0  502  503 -0.00000000000E+00 -0.00000000000E+00 -0.69838117234E+01  0.69838117234E+01  0.00000000000E+00 0.  1.
         25    2    1    2    0    0  0.30480628598E+01 -0.66469178304E+02  0.80620886716E+03  0.81854612548E+03  0.12497031525E+03 0.  0.
          5    1    3    3  501    0  0.12444739509E+02 -0.43294493877E+02  0.79258942593E+02  0.91166192871E+02  0.10000000000E+00 0.  1.
         -5    1    3    3    0  501 -0.93966766489E+01 -0.23174684427E+02  0.72694992457E+03  0.72737993261E+03  0.10000000000E+00 0.  1.
         21    1    1    2  504  503 -0.30480628598E+01  0.66469178304E+02  0.13569918109E+04  0.13586221760E+04  0.00000000000E+00 0.  1.
<mgrwt>
<rscale>  1 0.14158044E+03</rscale>
<asrwt>0</asrwt>
<pdfrwt beam="1">  1       21 0.33387400E+00 0.14158044E+03</pdfrwt>
<pdfrwt beam="2">  1       21 0.10744343E-02 0.14158044E+03</pdfrwt>
<totfact> 0.76746102E+04</totfact>
</mgrwt>
</event>
<event>
 6    1  0.4261782E-002  0.1281950E+03  0.7546771E-02  0.1230159E+00
         21   -1    0    0  503  502  0.00000000000E+00  0.00000000000E+00  0.23369415804E+02  0.23369415804E+02  0.00000000000E+00 0. -1.
         21   -1    0    0  504  503 -0.00000000000E+00 -0.00000000000E+00 -0.28644806519E+03  0.28644806519E+03  0.00000000000E+00 0. -1.
         25    2    1    2    0    0  0.22530379015E+02  0.17357456197E+02 -0.24382674941E+03  0.27547312314E+03  0.12500023431E+03 0.  0.
          5    1    3    3  501    0 -0.38757627537E+02 -0.16520403653E+02 -0.16380612639E+03  0.16913761992E+03  0.10000000000E+00 0. -1.
         -5    1    3    3    0  501  0.61288006553E+02  0.33877859850E+02 -0.80020623020E+02  0.10633550321E+03  0.10000000000E+00 0. -1.
         21    1    1    2  504  502 -0.22530379015E+02 -0.17357456197E+02 -0.19251899974E+02  0.34344357859E+02  0.00000000000E+00 0. -1.
<mgrwt>
<rscale>  1 0.12819500E+03</rscale>
<asrwt>0</asrwt>
<pdfrwt beam="1">  1       21 0.35952947E-02 0.12819500E+03</pdfrwt>
<pdfrwt beam="2">  1       21 0.44068933E-01 0.12819500E+03</pdfrwt>
<totfact> 0.23024734E+06</totfact>
</mgrwt>
</event>
<event>
 6    1  0.4261782E-002  0.1448839E+03  0.7546771E-02  0.1206904E+00
         21   -1    0    0  503  502  0.00000000000E+00  0.00000000000E+00  0.25258151658E+03  0.25258151658E+03  0.00000000000E+00 0. -1.
         21   -1    0    0  504  503 -0.00000000000E+00 -0.00000000000E+00 -0.90622024153E+02  0.90622024153E+02  0.00000000000E+00 0.  1.
         25    2    1    2    0    0  0.47428519264E+02  0.55828349126E+02 -0.20744010966E+02  0.14636137259E+03  0.12500027356E+03 0.  0.
          5    1    3    3  501    0 -0.32212014632E+02  0.54423143294E+02  0.27940888144E+01  0.63303312275E+02  0.10000000000E+00 0.  1.
         -5    1    3    3    0  501  0.79640533897E+02  0.14052058318E+01 -0.23538099780E+02  0.83058060320E+02  0.10000000000E+00 0.  1.
         21    1    1    2  504  502 -0.47428519264E+02 -0.55828349126E+02  0.18270350339E+03  0.19684216814E+03  0.00000000000E+00 0. -1.
<mgrwt>
<rscale>  1 0.14488388E+03</rscale>
<asrwt>0</asrwt>
<pdfrwt beam="1">  1       21 0.38858695E-01 0.14488388E+03</pdfrwt>
<pdfrwt beam="2">  1       21 0.13941850E-01 0.14488388E+03</pdfrwt>
<totfact> 0.28916042E+05</totfact>
</mgrwt>
</event>
<event>
 6    1  0.4261782E-002  0.1265249E+03  0.7546771E-02  0.1232705E+00
         21   -1    0    0  503  502  0.00000000000E+00  0.00000000000E+00  0.15696111190E+03  0.15696111190E+03  0.00000000000E+00 0.  1.
         21   -1    0    0  504  503 -0.00000000000E+00 -0.00000000000E+00 -0.53311490019E+02  0.53311490019E+02  0.00000000000E+00 0.  1.
         25    2    1    2    0    0  0.18761667658E+02  0.54566338332E+01  0.24664332690E+02  0.12890644842E+03  0.12500707225E+03 0.  0.
          5    1    3    3  501    0  0.11758443641E+01 -0.59080429902E+02  0.56249487182E+01  0.59359328293E+02  0.10000000000E+00 0. -1.
         -5    1    3    3    0  501  0.17585823294E+02  0.64537063735E+02  0.19039383972E+02  0.69547120131E+02  0.10000000000E+00 0. -1.
         21    1    1    2  504  502 -0.18761667658E+02 -0.54566338332E+01  0.78985289195E+02  0.81366153500E+02  0.00000000000E+00 0.  1.
<mgrwt>
<rscale>  1 0.12652487E+03</rscale>
<asrwt>0</asrwt>
<pdfrwt beam="1">  1       21 0.24147863E-01 0.12652487E+03</pdfrwt>
<pdfrwt beam="2">  1       21 0.82017678E-02 0.12652487E+03</pdfrwt>
<totfact> 0.18491412E+06</totfact>
</mgrwt>
</event>
<event>
 6    1  0.4261782E-002  0.1295335E+03  0.7546771E-02  0.1228150E+00
         21   -1    0    0  503  502  0.00000000000E+00  0.00000000000E+00  0.15962470717E+03  0.15962470717E+03  0.00000000000E+00 0. -1.
         21   -1    0    0  504  503 -0.00000000000E+00 -0.00000000000E+00 -0.11341557400E+03  0.11341557400E+03  0.00000000000E+00 0. -1.
         25    2    1    2    0    0  0.31382510221E+02  0.12931861385E+02 -0.73279120873E+02  0.14882459038E+03  0.12500733642E+03 0.  0.
          5    1    3    3  501    0  0.62017691804E+02 -0.32201383367E+02 -0.61345466170E+02  0.92986017266E+02  0.10000000000E+00 0.  1.
         -5    1    3    3    0  501 -0.30635181583E+02  0.45133244752E+02 -0.11933654703E+02  0.55838573111E+02  0.10000000000E+00 0.  1.
         21    1    1    2  504  502 -0.31382510221E+02 -0.12931861385E+02  0.11948825404E+03  0.12421569080E+03  0.00000000000E+00 0. -1.
<mgrwt>
<rscale>  1 0.12953351E+03</rscale>
<asrwt>0</asrwt>
<pdfrwt beam="1">  1       21 0.24557647E-01 0.12953351E+03</pdfrwt>
<pdfrwt beam="2">  1       21 0.17448550E-01 0.12953351E+03</pdfrwt>
<totfact> 0.47001112E+05</totfact>
</mgrwt>
</event>
<event>
 6    1  0.4261782E-002  0.1260601E+03  0.7546771E-02  0.1233422E+00
         21   -1    0    0  503  502  0.00000000000E+00  0.00000000000E+00  0.63409862307E+03  0.63409862307E+03  0.00000000000E+00 0. -1.
         21   -1    0    0  504  503 -0.00000000000E+00 -0.00000000000E+00 -0.90865108234E+01  0.90865108234E+01  0.00000000000E+00 0. -1.
         25    2    1    2    0    0  0.69414592988E+01 -0.14879299624E+02  0.44753671951E+03  0.46495188099E+03  0.12498623488E+03 0.  0.
          5    1    3    3  501    0 -0.37393209287E+02 -0.27798641088E+02  0.66915788461E+02  0.81539863211E+02  0.10000000000E+00 0.  1.
         -5    1    3    3    0  501  0.44334668586E+02  0.12919341463E+02  0.38062093105E+03  0.38341201778E+03  0.10000000000E+00 0.  1.
         21    1    1    2  504  502 -0.69414592988E+01  0.14879299624E+02  0.17747539273E+03  0.17823325290E+03  0.00000000000E+00 0. -1.
<mgrwt>
<rscale>  1 0.12606005E+03</rscale>
<asrwt>0</asrwt>
<pdfrwt beam="1">  1       21 0.97553600E-01 0.12606005E+03</pdfrwt>
<pdfrwt beam="2">  1       21 0.13979252E-02 0.12606005E+03</pdfrwt>
<totfact> 0.19108666E+06</totfact>
</mgrwt>
</event>
<event>
 6    1  0.4261782E-002  0.1476212E+03  0.7546771E-02  0.1203427E+00
         21   -1    0    0  503  502  0.00000000000E+00  0.00000000000E+00  0.12659915476E+02  0.12659915476E+02  0.00000000000E+00 0. -1.
         21   -1    0    0  504  503 -0.00000000000E+00 -0.00000000000E+00 -0.10407667774E+04  0.10407667774E+04  0.00000000000E+00 0. -1.
         25    2    1    2    0    0 -0.14601313791E+02  0.77160994134E+02 -0.58004824811E+03  0.59853820237E+03  0.12499996873E+03 0.  0.
          5    1    3    3  501    0 -0.18974169669E+02 -0.32524638780E+02 -0.13515425986E+03  0.14030165787E+03  0.10000000000E+00 0. -1.
         -5    1    3    3    0  501  0.43728558782E+01  0.10968563291E+03 -0.44489398825E+03  0.45823654450E+03  0.10000000000E+00 0. -1.
         21    1    1    2  504  502  0.14601313791E+02 -0.77160994134E+02 -0.44805861378E+03  0.45488849048E+03  0.00000000000E+00 0. -1.
<mgrwt>
<rscale>  1 0.14762117E+03</rscale>
<asrwt>0</asrwt>
<pdfrwt beam="1">  1       21 0.19476793E-02 0.14762117E+03</pdfrwt>
<pdfrwt beam="2">  1       21 0.16011797E+00 0.14762117E+03</pdfrwt>
<totfact> 0.32802152E+05</totfact>
</mgrwt>
</event>
<event>
 6    1  0.4261782E-002  0.1462298E+03  0.7546771E-02  0.1205184E+00
         21   -1    0    0  503  502  0.00000000000E+00  0.00000000000E+00  0.91577380244E+01  0.91577380244E+01  0.00000000000E+00 0. -1.
         21   -1    0    0  504  503 -0.00000000000E+00 -0.00000000000E+00 -0.14478540844E+04  0.14478540844E+04  0.00000000000E+00 0. -1.
         25    2    1    2    0    0  0.28210847726E+02 -0.70447884881E+02 -0.11145054927E+04  0.11240576724E+04  0.12499760478E+03 0.  0.
          5    1    3    3  501    0 -0.22969355810E+02  0.20073143649E+02 -0.10895885050E+03  0.11314841362E+03  0.10000000000E+00 0. -1.
         -5    1    3    3    0  501  0.51180203536E+02 -0.90521028530E+02 -0.10055466422E+04  0.10109092588E+04  0.10000000000E+00 0. -1.
         21    1    1    2  504  502 -0.28210847726E+02  0.70447884881E+02 -0.32419085363E+03  0.33295414998E+03  0.00000000000E+00 0. -1.
<mgrwt>
<rscale>  1 0.14622981E+03</rscale>
<asrwt>0</asrwt>
<pdfrwt beam="1">  1       21 0.14088837E-02 0.14622981E+03</pdfrwt>
<pdfrwt beam="2">  1       21 0.22274664E+00 0.14622981E+03</pdfrwt>
<totfact> 0.21551808E+05</totfact>
</mgrwt>
</event>
<event>
 6    1  0.4261782E-002  0.1262113E+03  0.7546771E-02  0.1233188E+00
         21   -1    0    0  504  502  0.00000000000E+00  0.00000000000E+00  0.15888426255E+02  0.15888426255E+02  0.00000000000E+00 0.  1.
         21   -1    0    0  502  503 -0.00000000000E+00 -0.00000000000E+00 -0.37548990087E+03  0.37548990087E+03  0.00000000000E+00 0.  1.
         25    2    1    2    0    0 -0.15577494715E+02  0.78253089779E+01 -0.34865006657E+03  0.37079126467E+03  0.12500159694E+03 0.  0.
          5    1    3    3  501    0 -0.56040173212E+02 -0.35694496812E+02 -0.17031943218E+03  0.18282045043E+03  0.10000000000E+00 0.  1.
         -5    1    3    3    0  501  0.40462678497E+02  0.43519805789E+02 -0.17833063439E+03  0.18797081425E+03  0.10000000000E+00 0.  1.
         21    1    1    2  504  503  0.15577494715E+02 -0.78253089779E+01 -0.10951408046E+02  0.20587062452E+02  0.00000000000E+00 0.  1.
<mgrwt>
<rscale>  1 0.12621130E+03</rscale>
<asrwt>0</asrwt>
<pdfrwt beam="1">  1       21 0.24443735E-02 0.12621130E+03</pdfrwt>
<pdfrwt beam="2">  1       21 0.57767672E-01 0.12621130E+03</pdfrwt>
<totfact> 0.24761851E+06</totfact>
</mgrwt>
</event>
<event>
 6    1  0.4261782E-002  0.1364204E+03  0.7546771E-02  0.1218228E+00
         21   -1    0    0  503  502  0.00000000000E+00  0.00000000000E+00  0.10380044254E+04  0.10380044254E+04  0.00000000000E+00 0. -1.
         21   -1    0    0  504  503 -0.00000000000E+00 -0.00000000000E+00 -0.17034858489E+02  0.17034858489E+02  0.00000000000E+00 0. -1.
         25    2    1    2    0    0  0.23124631165E+02  0.49512005156E+02  0.27408824158E+03  0.30616152260E+03  0.12499730609E+03 0.  0.
          5    1    3    3  501    0  0.38534165976E+02 -0.22819454477E+02  0.37910140267E+02  0.58675362676E+02  0.10000000000E+00 0.  1.
         -5    1    3    3    0  501 -0.15409534811E+02  0.72331459633E+02  0.23617810131E+03  0.24748615993E+03  0.10000000000E+00 0.  1.
         21    1    1    2  504  502 -0.23124631165E+02 -0.49512005156E+02  0.74688132533E+03  0.74887776129E+03  0.00000000000E+00 0. -1.
<mgrwt>
<rscale>  1 0.13642036E+03</rscale>
<asrwt>0</asrwt>
<pdfrwt beam="1">  1       21 0.15969294E+00 0.13642036E+03</pdfrwt>
<pdfrwt beam="2">  1       21 0.26207483E-02 0.13642036E+03</pdfrwt>
<totfact> 0.20480466E+05</totfact>
</mgrwt>
</event>
<event>
 6    1  0.4261782E-002  0.1362436E+03  0.7546771E-02  0.1218475E+00
         21   -1    0    0  504  502  0.00000000000E+00  0.00000000000E+00  0.10547158814E+03  0.10547158814E+03  0.00000000000E+00 0.  1.
         21   -1    0    0  502  503 -0.00000000000E+00 -0.00000000000E+00 -0.86715091194E+02  0.86715091194E+02  0.00000000000E+00 0.  1.
         25    2    1    2    0    0 -0.98225622672E+01 -0.53306774229E+02  0.53470843325E+01  0.13634845538E+03  0.12499686022E+03 0.  0.
          5    1    3    3  501    0 -0.32949175408E+02  0.20958390442E+02  0.35645824325E+02  0.52872838791E+02  0.10000000000E+00 0. -1.
         -5    1    3    3    0  501  0.23126613141E+02 -0.74265164671E+02 -0.30298739992E+02  0.83475616585E+02  0.10000000000E+00 0. -1.
         21    1    1    2  504  503  0.98225622672E+01  0.53306774229E+02  0.13409412614E+02  0.55838223959E+02  0.00000000000E+00 0.  1.
<mgrwt>
<rscale>  1 0.13624357E+03</rscale>
<asrwt>0</asrwt>
<pdfrwt beam="1">  1       21 0.16226398E-01 0.13624357E+03</pdfrwt>
<pdfrwt beam="2">  1       21 0.13340783E-01 0.13624357E+03</pdfrwt>
<totfact> 0.16438032E+06</totfact>
</mgrwt>
</event>
<event>
 6    1  0.4261782E-002  0.1261392E+03  0.7546771E-02  0.1233300E+00
         21   -1    0    0  504  502  0.00000000000E+00  0.00000000000E+00  0.84833940601E+02  0.84833940601E+02  0.00000000000E+00 0.  1.
         21   -1    0    0  502  503 -0.00000000000E+00 -0.00000000000E+00 -0.70364762315E+02  0.70364762315E+02  0.00000000000E+00 0.  1.
         25    2    1    2    0    0  0.95077606037E+01  0.14009956613E+02 -0.87722149660E+01  0.12644389886E+03  0.12499772561E+03 0.  0.
          5    1    3    3  501    0 -0.28778704691E+02 -0.41873255345E+02 -0.25235818696E+02  0.56731295615E+02  0.10000000000E+00 0. -1.
         -5    1    3    3    0  501  0.38286465295E+02  0.55883211958E+02  0.16463603730E+02  0.69712603246E+02  0.10000000000E+00 0. -1.
         21    1    1    2  504  503 -0.95077606037E+01 -0.14009956613E+02  0.23241393252E+02  0.28754804056E+02  0.00000000000E+00 0.  1.
<mgrwt>
<rscale>  1 0.12613924E+03</rscale>
<asrwt>0</asrwt>
<pdfrwt beam="1">  1       21 0.13051375E-01 0.12613924E+03</pdfrwt>
<pdfrwt beam="2">  1       21 0.10825348E-01 0.12613924E+03</pdfrwt>
<totfact> 0.35139558E+06</totfact>
</mgrwt>
</event>
<event>
 6    1  0.4261782E-002  0.1262147E+03  0.7546771E-02  0.1233183E+00
         21   -1    0    0  504  502  0.00000000000E+00  0.00000000000E+00  0.31096294964E+02  0.31096294964E+02  0.00000000000E+00 0.  1.
         21   -1    0    0  502  503 -0.00000000000E+00 -0.00000000000E+00 -0.17772599678E+03  0.17772599678E+03  0.00000000000E+00 0.  1.
         25    2    1    2    0    0  0.13958811816E+02  0.10490428031E+02 -0.14345524173E+03  0.19107476503E+03  0.12500104778E+03 0.  0.
          5    1    3    3  501    0  0.56338027823E+02  0.16688806544E+02 -0.22771473457E+02  0.63016185590E+02  0.10000000000E+00 0.  1.
         -5    1    3    3    0  501 -0.42379216007E+02 -0.61983785132E+01 -0.12068376827E+03  0.12805857944E+03  0.10000000000E+00 0.  1.
         21    1    1    2  504  503 -0.13958811816E+02 -0.10490428031E+02 -0.31744600936E+01  0.17747526714E+02  0.00000000000E+00 0.  1.
<mgrwt>
<rscale>  1 0.12621474E+03</rscale>
<asrwt>0</asrwt>
<pdfrwt beam="1">  1       21 0.47840454E-02 0.12621474E+03</pdfrwt>
<pdfrwt beam="2">  1       21 0.27342461E-01 0.12621474E+03</pdfrwt>
<totfact> 0.36523781E+06</totfact>
</mgrwt>
</event>
<event>
 6    1  0.4261782E-002  0.1395492E+03  0.7546771E-02  0.1213937E+00
         21   -1    0    0  504  502  0.00000000000E+00  0.00000000000E+00  0.66491937013E+02  0.66491937013E+02  0.00000000000E+00 0. -1.
         21   -1    0    0  502  503 -0.00000000000E+00 -0.00000000000E+00 -0.25885087477E+03  0.25885087477E+03  0.00000000000E+00 0. -1.
         25    2    1    2    0    0  0.60161225238E+02  0.15157079934E+02 -0.21748560338E+03  0.25840657779E+03  0.12499944669E+03 0.  0.
          5    1    3    3  501    0  0.21189600945E+02  0.43611316540E+02 -0.20198651968E+03  0.20772460194E+03  0.10000000000E+00 0. -1.
         -5    1    3    3    0  501  0.38971624294E+02 -0.28454236606E+02 -0.15499083705E+02  0.50681975856E+02  0.10000000000E+00 0. -1.
         21    1    1    2  504  503 -0.60161225238E+02 -0.15157079934E+02  0.25126665631E+02  0.66936233984E+02  0.00000000000E+00 0. -1.
<mgrwt>
<rscale>  1 0.13954917E+03</rscale>
<asrwt>0</asrwt>
<pdfrwt beam="1">  1       21 0.10229529E-01 0.13954917E+03</pdfrwt>
<pdfrwt beam="2">  1       21 0.39823211E-01 0.13954917E+03</pdfrwt>
<totfact> 0.47748922E+05</totfact>
</mgrwt>
</event>
<event>
 6    1  0.4261782E-002  0.1358419E+03  0.7546771E-02  0.1219036E+00
         21   -1    0    0  503  502  0.00000000000E+00  0.00000000000E+00  0.74624237067E+03  0.74624237067E+03  0.00000000000E+00 0. -1.
         21   -1    0    0  504  503 -0.00000000000E+00 -0.00000000000E+00 -0.29587937520E+02  0.29587937520E+02  0.00000000000E+00 0. -1.
         25    2    1    2    0    0  0.46866908596E+02 -0.25147517249E+02  0.13419839720E+03  0.19095088595E+03  0.12499650511E+03 0.  0.
          5    1    3    3  501    0  0.29568818567E+02  0.47007491444E+02  0.30254228952E+02  0.63240395735E+02  0.10000000000E+00 0.  1.
         -5    1    3    3    0  501  0.17298090029E+02 -0.72155008693E+02  0.10394416825E+03  0.12771049021E+03  0.10000000000E+00 0.  1.
         21    1    1    2  504  502 -0.46866908596E+02  0.25147517249E+02  0.58245603596E+03  0.58487942225E+03  0.00000000000E+00 0. -1.
<mgrwt>
<rscale>  1 0.13584193E+03</rscale>
<asrwt>0</asrwt>
<pdfrwt beam="1">  1       21 0.11480650E+00 0.13584193E+03</pdfrwt>
<pdfrwt beam="2">  1       21 0.45519910E-02 0.13584193E+03</pdfrwt>
<totfact> 0.18929734E+05</totfact>
</mgrwt>
</event>
<event>
 6    1  0.4261782E-002  0.1261578E+03  0.7546771E-02  0.1233271E+00
         21   -1    0    0  503  502  0.00000000000E+00  0.00000000000E+00  0.44668170134E+03  0.44668170134E+03  0.00000000000E+00 0.  1.
         21   -1    0    0  504  503 -0.00000000000E+00 -0.00000000000E+00 -0.11516402372E+02  0.11516402372E+02  0.00000000000E+00 0.  1.
         25    2    1    2    0    0  0.11267972638E+02  0.12864467379E+02  0.39037101233E+03  0.41025032124E+03  0.12499334816E+03 0.  0.
          5    1    3    3  501    0 -0.18179114529E+02 -0.44742903795E+02  0.26291647130E+03  0.26731533537E+03  0.10000000000E+00 0.  1.
         -5    1    3    3    0  501  0.29447087167E+02  0.57607371174E+02  0.12745454104E+03  0.14293498587E+03  0.10000000000E+00 0.  1.
         21    1    1    2  504  502 -0.11267972638E+02 -0.12864467379E+02  0.44794286634E+02  0.47947782465E+02  0.00000000000E+00 0.  1.
<mgrwt>
<rscale>  1 0.12615783E+03</rscale>
<asrwt>0</asrwt>
<pdfrwt beam="1">  1       21 0.68720248E-01 0.12615783E+03</pdfrwt>
<pdfrwt beam="2">  1       21 0.17717546E-02 0.12615783E+03</pdfrwt>
<totfact> 0.28718911E+06</totfact>
</mgrwt>
</event>
<event>
 6    1  0.4261782E-002  0.1327449E+03  0.7546771E-02  0.1223439E+00
         21   -1    0    0  504  502  0.00000000000E+00  0.00000000000E+00  0.66411514248E+03  0.66411514248E+03  0.00000000000E+00 0. -1.
         21   -1    0    0  502  503 -0.00000000000E+00 -0.00000000000E+00 -0.17137872439E+02  0.17137872439E+02  0.00000000000E+00 0.  1.
         25    2    1    2    0    0  0.43862699009E+02 -0.87124059556E+01  0.26222036740E+03  0.29390599155E+03  0.12498547279E+03 0.  0.
          5    1    3    3  501    0 -0.11212426409E+02  0.50836149741E+01  0.22648481755E+03  0.22681918841E+03  0.10000000000E+00 0.  1.
         -5    1    3    3    0  501  0.55075125418E+02 -0.13796020930E+02  0.35735549845E+02  0.67086803143E+02  0.10000000000E+00 0.  1.
         21    1    1    2  504  503 -0.43862699009E+02  0.87124059556E+01  0.38475690264E+03  0.38734702337E+03  0.00000000000E+00 0. -1.
<mgrwt>
<rscale>  1 0.13274491E+03</rscale>
<asrwt>0</asrwt>
<pdfrwt beam="1">  1       21 0.10217154E+00 0.13274491E+03</pdfrwt>
<pdfrwt beam="2">  1       21 0.26365963E-02 0.13274491E+03</pdfrwt>
<totfact> 0.61672528E+05</totfact>
</mgrwt>
</event>
<event>
 6    1  0.4261782E-002  0.1365716E+03  0.7546771E-02  0.1218018E+00
         21   -1    0    0  503  502  0.00000000000E+00  0.00000000000E+00  0.20301097232E+03  0.20301097232E+03  0.00000000000E+00 0.  1.
         21   -1    0    0  504  503 -0.00000000000E+00 -0.00000000000E+00 -0.54373000379E+02  0.54373000379E+02  0.00000000000E+00 0.  1.
         25    2    1    2    0    0 -0.10642607327E+02 -0.53936102898E+02  0.51870583917E+02  0.14609023670E+03  0.12501772473E+03 0.  0.
          5    1    3    3  501    0 -0.30501704818E+01  0.32780942422E+02  0.48951049446E+02  0.58992448397E+02  0.10000000000E+00 0. -1.
         -5    1    3    3    0  501 -0.75924368451E+01 -0.86717045321E+02  0.29195344712E+01  0.87097788307E+02  0.10000000000E+00 0. -1.
         21    1    1    2  504  502  0.10642607327E+02  0.53936102898E+02  0.96767388028E+02  0.11129373600E+03  0.00000000000E+00 0.  1.
<mgrwt>
<rscale>  1 0.13657159E+03</rscale>
<asrwt>0</asrwt>
<pdfrwt beam="1">  1       21 0.31232457E-01 0.13657159E+03</pdfrwt>
<pdfrwt beam="2">  1       21 0.83650771E-02 0.13657159E+03</pdfrwt>
<totfact> 0.10945987E+06</totfact>
</mgrwt>
</event>
<event>
 6    1  0.4261782E-002  0.1284516E+03  0.7546771E-02  0.1229772E+00
         21   -1    0    0  503  502  0.00000000000E+00  0.00000000000E+00  0.38824998734E+03  0.38824998734E+03  0.00000000000E+00 0.  1.
         21   -1    0    0  504  503 -0.00000000000E+00 -0.00000000000E+00 -0.20539547621E+03  0.20539547621E+03  0.00000000000E+00 0.  1.
         25    2    1    2    0    0 -0.29400845917E+02 -0.32841136248E+01 -0.18465982087E+03  0.22494235893E+03  0.12499848101E+03 0.  0.
          5    1    3    3  501    0 -0.71240710544E+02  0.12053136032E+02 -0.64754724654E+02  0.97024230438E+02  0.10000000000E+00 0.  1.
         -5    1    3    3    0  501  0.41839864627E+02 -0.15337249657E+02 -0.11990509621E+03  0.12791812849E+03  0.10000000000E+00 0.  1.
         21    1    1    2  504  502  0.29400845917E+02  0.32841136248E+01  0.36751433200E+03  0.36870310463E+03  0.00000000000E+00 0.  1.
<mgrwt>
<rscale>  1 0.12845161E+03</rscale>
<asrwt>0</asrwt>
<pdfrwt beam="1">  1       21 0.59730767E-01 0.12845161E+03</pdfrwt>
<pdfrwt beam="2">  1       21 0.31599304E-01 0.12845161E+03</pdfrwt>
<totfact> 0.26193804E+04</totfact>
</mgrwt>
</event>
<event>
 6    1  0.4261782E-002  0.1259119E+03  0.7546771E-02  0.1233651E+00
         21   -1    0    0  504  502  0.00000000000E+00  0.00000000000E+00  0.48157969783E+03  0.48157969783E+03  0.00000000000E+00 0.  1.
         21   -1    0    0  502  503 -0.00000000000E+00 -0.00000000000E+00 -0.89460732790E+02  0.89460732790E+02  0.00000000000E+00 0.  1.
         25    2    1    2    0    0 -0.14964968372E+02 -0.25079059658E+01 -0.44959985743E+02  0.13369817439E+03  0.12499424645E+03 0.  0.
          5    1    3    3  501    0 -0.69399713149E+01  0.21959335143E+01  0.43825843097E+02  0.44426341837E+02  0.10000000000E+00 0.  1.
         -5    1    3    3    0  501 -0.80249970567E+01 -0.47038394801E+01 -0.88785828840E+02  0.89271832548E+02  0.10000000000E+00 0.  1.
         21    1    1    2  504  503  0.14964968372E+02  0.25079059658E+01  0.43707895079E+03  0.43734225624E+03  0.00000000000E+00 0.  1.
<mgrwt>
<rscale>  1 0.12591188E+03</rscale>
<asrwt>0</asrwt>
<pdfrwt beam="1">  1       21 0.74089183E-01 0.12591188E+03</pdfrwt>
<pdfrwt beam="2">  1       21 0.13763190E-01 0.12591188E+03</pdfrwt>
<totfact> 0.77180830E+04</totfact>
</mgrwt>
</event>
<event>
 6    1  0.4261782E-002  0.1270790E+03  0.7546771E-02  0.1231855E+00
         21   -1    0    0  503  502  0.00000000000E+00  0.00000000000E+00  0.18202388419E+02  0.18202388419E+02  0.00000000000E+00 0.  1.
         21   -1    0    0  504  503 -0.00000000000E+00 -0.00000000000E+00 -0.30945977644E+03  0.30945977644E+03  0.00000000000E+00 0.  1.
         25    2    1    2    0    0  0.16147906991E+02 -0.16281951598E+02 -0.25079924604E+03  0.28115713179E+03  0.12499285618E+03 0.  0.
          5    1    3    3  501    0  0.14677781925E+02  0.53652887302E+02 -0.90002381600E+02  0.10580410338E+03  0.10000000000E+00 0.  1.
         -5    1    3    3    0  501  0.14701250663E+01 -0.69934838900E+02 -0.16079686444E+03  0.17535302842E+03  0.10000000000E+00 0.  1.
         21    1    1    2  504  502 -0.16147906991E+02  0.16281951598E+02 -0.40458141977E+02  0.46505033064E+02  0.00000000000E+00 0.  1.
<mgrwt>
<rscale>  1 0.12707899E+03</rscale>
<asrwt>0</asrwt>
<pdfrwt beam="1">  1       21 0.28003676E-02 0.12707899E+03</pdfrwt>
<pdfrwt beam="2">  1       21 0.47609193E-01 0.12707899E+03</pdfrwt>
<totfact> 0.29655376E+06</totfact>
</mgrwt>
</event>
<event>
 6    1  0.4261782E-002  0.1265380E+03  0.7546771E-02  0.1232685E+00
         21   -1    0    0  504  502  0.00000000000E+00  0.00000000000E+00  0.24243708118E+03  0.24243708118E+03  0.00000000000E+00 0. -1.
         21   -1    0    0  502  503 -0.00000000000E+00 -0.00000000000E+00 -0.22051009856E+02  0.22051009856E+02  0.00000000000E+00 0. -1.
         25    2    1    2    0    0  0.54121447214E+01 -0.18897196200E+02  0.18866957085E+03  0.22717412934E+03  0.12500193096E+03 0.  0.
          5    1    3    3  501    0  0.17717180587E+02  0.38636025580E+02  0.15203827253E+03  0.15786794252E+03  0.10000000000E+00 0. -1.
         -5    1    3    3    0  501 -0.12305035866E+02 -0.57533221780E+02  0.36631298318E+02  0.69306186827E+02  0.10000000000E+00 0. -1.
         21    1    1    2  504  503 -0.54121447214E+01  0.18897196200E+02  0.31716500474E+02  0.37313961690E+02  0.00000000000E+00 0. -1.
<mgrwt>
<rscale>  1 0.12653805E+03</rscale>
<asrwt>0</asrwt>
<pdfrwt beam="1">  1       21 0.37298011E-01 0.12653805E+03</pdfrwt>
<pdfrwt beam="2">  1       21 0.33924632E-02 0.12653805E+03</pdfrwt>
<totfact> 0.35373048E+06</totfact>
</mgrwt>
</event>
<event>
 6    1  0.4261782E-002  0.1339442E+03  0.7546771E-02  0.1221718E+00
         21   -1    0    0  503  502  0.00000000000E+00  0.00000000000E+00  0.64348805804E+02  0.64348805804E+02  0.00000000000E+00 0. -1.
         21   -1    0    0  504  503 -0.00000000000E+00 -0.00000000000E+00 -0.13383341516E+03  0.13383341516E+03  0.00000000000E+00 0. -1.
         25    2    1    2    0    0  0.14796508739E+01  0.48112470241E+02 -0.33462730298E+02  0.13806088590E+03  0.12499621889E+03 0.  0.
          5    1    3    3  501    0  0.43686206177E+02 -0.23883938360E+02 -0.57289331039E+01  0.50117440041E+02  0.10000000000E+00 0. -1.
         -5    1    3    3    0  501 -0.42206555303E+02  0.71996408601E+02 -0.27733797194E+02  0.87943445855E+02  0.10000000000E+00 0. -1.
         21    1    1    2  504  502 -0.14796508739E+01 -0.48112470241E+02 -0.36021879055E+02  0.60121335066E+02  0.00000000000E+00 0. -1.
<mgrwt>
<rscale>  1 0.13394422E+03</rscale>
<asrwt>0</asrwt>
<pdfrwt beam="1">  1       21 0.98998162E-02 0.13394422E+03</pdfrwt>
<pdfrwt beam="2">  1       21 0.20589756E-01 0.13394422E+03</pdfrwt>
<totfact> 0.17986681E+06</totfact>
</mgrwt>
</event>
<event>
 6    1  0.4261782E-002  0.1270342E+03  0.7546771E-02  0.1231924E+00
         21   -1    0    0  503  502  0.00000000000E+00  0.00000000000E+00  0.83494982137E+03  0.83494982137E+03  0.00000000000E+00 0. -1.
         21   -1    0    0  504  503 -0.00000000000E+00 -0.00000000000E+00 -0.75467868932E+01  0.75467868932E+01  0.00000000000E+00 0. -1.
         25    2    1    2    0    0 -0.20289693892E+02  0.10089723665E+02  0.56442435538E+03  0.57854346875E+03  0.12499687228E+03 0.  0.
          5    1    3    3  501    0  0.19314467867E+02 -0.13169462006E+02  0.49345625333E+03  0.49400968346E+03  0.10000000000E+00 0.  1.
         -5    1    3    3    0  501 -0.39604161759E+02  0.23259185671E+02  0.70968102051E+02  0.84533785290E+02  0.10000000000E+00 0.  1.
         21    1    1    2  504  502  0.20289693892E+02 -0.10089723665E+02  0.26297867910E+03  0.26395313952E+03  0.00000000000E+00 0. -1.
<mgrwt>
<rscale>  1 0.12703422E+03</rscale>
<asrwt>0</asrwt>
<pdfrwt beam="1">  1       21 0.12845375E+00 0.12703422E+03</pdfrwt>
<pdfrwt beam="2">  1       21 0.11610448E-02 0.12703422E+03</pdfrwt>
<totfact> 0.13256241E+06</totfact>
</mgrwt>
</event>
<event>
 6    1  0.4261782E-002  0.1263375E+03  0.7546771E-02  0.1232994E+00
         21   -1    0    0  504  502  0.00000000000E+00  0.00000000000E+00  0.16990347549E+02  0.16990347549E+02  0.00000000000E+00 0. -1.
         21   -1    0    0  502  503 -0.00000000000E+00 -0.00000000000E+00 -0.68429971053E+03  0.68429971053E+03  0.00000000000E+00 0. -1.
         25    2    1    2    0    0  0.11702489562E+02 -0.14105179522E+02 -0.67083372220E+03  0.68262657879E+03  0.12500103552E+03 0.  0.
          5    1    3    3  501    0  0.66651511458E+02 -0.11031716975E+02 -0.44975149383E+03  0.45479725039E+03  0.10000000000E+00 0. -1.
         -5    1    3    3    0  501 -0.54949021895E+02 -0.30734625474E+01 -0.22108222837E+03  0.22782932840E+03  0.10000000000E+00 0. -1.
         21    1    1    2  504  503 -0.11702489562E+02  0.14105179522E+02  0.35243592168E+01  0.18663479290E+02  0.00000000000E+00 0. -1.
<mgrwt>
<rscale>  1 0.12633750E+03</rscale>
<asrwt>0</asrwt>
<pdfrwt beam="1">  1       21 0.26138995E-02 0.12633750E+03</pdfrwt>
<pdfrwt beam="2">  1       21 0.10527688E+00 0.12633750E+03</pdfrwt>
<totfact> 0.58316976E+05</totfact>
</mgrwt>
</event>
<event>
 6    1  0.4261782E-002  0.1360639E+03  0.7546771E-02  0.1218726E+00
         21   -1    0    0  504  502  0.00000000000E+00  0.00000000000E+00  0.16470019192E+03  0.16470019192E+03  0.00000000000E+00 0. -1.
         21   -1    0    0  502  503 -0.00000000000E+00 -0.00000000000E+00 -0.80290789041E+02  0.80290789041E+02  0.00000000000E+00 0. -1.
         25    2    1    2    0    0 -0.40143816585E+02 -0.35743707886E+02 -0.99170571553E+01  0.13642478122E+03  0.12499693694E+03 0.  0.
          5    1    3    3  501    0 -0.68619062794E+02  0.14243294433E+02  0.18179916004E+02  0.72401426512E+02  0.10000000000E+00 0. -1.
         -5    1    3    3    0  501  0.28475246209E+02 -0.49987002319E+02 -0.28096973160E+02  0.64023354710E+02  0.10000000000E+00 0. -1.
         21    1    1    2  504  503  0.40143816585E+02  0.35743707886E+02  0.94326460029E+02  0.10856619974E+03  0.00000000000E+00 0. -1.
<mgrwt>
<rscale>  1 0.13606386E+03</rscale>
<asrwt>0</asrwt>
<pdfrwt beam="1">  1       21 0.25338491E-01 0.13606386E+03</pdfrwt>
<pdfrwt beam="2">  1       21 0.12352429E-01 0.13606386E+03</pdfrwt>
<totfact> 0.82509932E+05</totfact>
</mgrwt>
</event>
<event>
 6    1  0.4261782E-002  0.1295772E+03  0.7546771E-02  0.1228084E+00
         21   -1    0    0  503  502  0.00000000000E+00  0.00000000000E+00  0.21531643194E+04  0.21531643194E+04  0.00000000000E+00 0.  1.
         21   -1    0    0  504  503 -0.00000000000E+00 -0.00000000000E+00 -0.68976933380E+01  0.68976933380E+01  0.00000000000E+00 0.  1.
         25    2    1    2    0    0  0.34042392660E+02  0.39223106127E+01  0.61928613120E+03  0.63269705939E+03  0.12496394540E+03 0.  0.
          5    1    3    3  501    0  0.79698370723E+02  0.16370888062E+02  0.35467171524E+03  0.36388442102E+03  0.10000000000E+00 0.  1.
         -5    1    3    3    0  501 -0.45655978063E+02 -0.12448577449E+02  0.26461441596E+03  0.26881263837E+03  0.10000000000E+00 0.  1.
         21    1    1    2  504  502 -0.34042392660E+02 -0.39223106127E+01  0.15269804949E+04  0.15273649534E+04  0.00000000000E+00 0.  1.
<mgrwt>
<rscale>  1 0.12957722E+03</rscale>
<asrwt>0</asrwt>
<pdfrwt beam="1">  1       21 0.33125551E+00 0.12957722E+03</pdfrwt>
<pdfrwt beam="2">  1       21 0.10611853E-02 0.12957722E+03</pdfrwt>
<totfact> 0.82178412E+04</totfact>
</mgrwt>
</event>
<event>
 6    1  0.4261782E-002  0.1425257E+03  0.7546771E-02  0.1209970E+00
         21   -1    0    0  504  502  0.00000000000E+00  0.00000000000E+00  0.21669426204E+03  0.21669426204E+03  0.00000000000E+00 0.  1.
         21   -1    0    0  502  503 -0.00000000000E+00 -0.00000000000E+00 -0.61855394647E+02  0.61855394647E+02  0.00000000000E+00 0.  1.
         25    2    1    2    0    0 -0.25959567018E+02 -0.63353070752E+02  0.45625996112E+02  0.14965061888E+03  0.12500426200E+03 0.  0.
          5    1    3    3  501    0  0.33703261724E+02  0.19589892730E+02  0.22073630995E+02  0.44798760399E+02  0.10000000000E+00 0.  1.
         -5    1    3    3    0  501 -0.59662828742E+02 -0.82942963482E+02  0.23552365117E+02  0.10485185848E+03  0.10000000000E+00 0.  1.
         21    1    1    2  504  503  0.25959567018E+02  0.63353070752E+02  0.10921287128E+03  0.12889903780E+03  0.00000000000E+00 0.  1.
<mgrwt>
<rscale>  1 0.14252570E+03</rscale>
<asrwt>0</asrwt>
<pdfrwt beam="1">  1       21 0.33337578E-01 0.14252570E+03</pdfrwt>
<pdfrwt beam="2">  1       21 0.95162147E-02 0.14252570E+03</pdfrwt>
<totfact> 0.77032888E+05</totfact>
</mgrwt>
</event>
<event>
 6    1  0.4261782E-002  0.1451194E+03  0.7546771E-02  0.1206602E+00
         21   -1    0    0  503  502  0.00000000000E+00  0.00000000000E+00  0.76081904058E+03  0.76081904058E+03  0.00000000000E+00 0. -1.
         21   -1    0    0  504  503 -0.00000000000E+00 -0.00000000000E+00 -0.50144846567E+03  0.50144846567E+03  0.00000000000E+00 0. -1.
         25    2    1    2    0    0 -0.52407846898E+02  0.51848720036E+02 -0.48910005664E+03  0.51017498636E+03  0.12499911644E+03 0.  0.
          5    1    3    3  501    0 -0.78182287023E+02  0.87163046038E+01 -0.17222312096E+03  0.18933900116E+03  0.10000000000E+00 0.  1.
         -5    1    3    3    0  501  0.25774440124E+02  0.43132415432E+02 -0.31687693569E+03  0.32083598519E+03  0.10000000000E+00 0.  1.
         21    1    1    2  504  502  0.52407846898E+02 -0.51848720036E+02  0.74847063156E+03  0.75209251990E+03  0.00000000000E+00 0. -1.
<mgrwt>
<rscale>  1 0.14511944E+03</rscale>
<asrwt>0</asrwt>
<pdfrwt beam="1">  1       21 0.11704908E+00 0.14511944E+03</pdfrwt>
<pdfrwt beam="2">  1       21 0.77145917E-01 0.14511944E+03</pdfrwt>
<totfact> 0.88552845E+02</totfact>
</mgrwt>
</event>
<event>
 6    1  0.4261782E-002  0.1325765E+03  0.7546771E-02  0.1223682E+00
         21   -1    0    0  503  502  0.00000000000E+00  0.00000000000E+00  0.53643887077E+02  0.53643887077E+02  0.00000000000E+00 0.  1.
         21   -1    0    0  504  503 -0.00000000000E+00 -0.00000000000E+00 -0.33521945134E+03  0.33521945134E+03  0.00000000000E+00 0.  1.
         25    2    1    2    0    0 -0.41537844182E+02 -0.15062488007E+02 -0.30942741714E+03  0.33663311007E+03  0.12499701306E+03 0.  0.
          5    1    3    3  501    0  0.71415541256E+01  0.30083678773E+02 -0.14185922732E+02  0.34018817257E+02  0.10000000000E+00 0. -1.
         -5    1    3    3    0  501 -0.48679398308E+02 -0.45146166779E+02 -0.29524149441E+03  0.30261429282E+03  0.10000000000E+00 0. -1.
         21    1    1    2  504  502  0.41537844182E+02  0.15062488007E+02  0.27851852878E+02  0.52230228346E+02  0.00000000000E+00 0.  1.
<mgrwt>
<rscale>  1 0.13257648E+03</rscale>
<asrwt>0</asrwt>
<pdfrwt beam="1">  1       21 0.82529060E-02 0.13257648E+03</pdfrwt>
<pdfrwt beam="2">  1       21 0.51572222E-01 0.13257648E+03</pdfrwt>
<totfact> 0.41020454E+05</totfact>
</mgrwt>
</event>
<event>
 6    1  0.4261782E-002  0.1332006E+03  0.7546771E-02  0.1222782E+00
         21   -1    0    0  503  502  0.00000000000E+00  0.00000000000E+00  0.40523881933E+03  0.40523881933E+03  0.00000000000E+00 0.  1.
         21   -1    0    0  504  503 -0.00000000000E+00 -0.00000000000E+00 -0.63054480703E+02  0.63054480703E+02  0.00000000000E+00 0.  1.
         25    2    1    2    0    0  0.58187935652E+01 -0.45646596692E+02  0.10699369703E+02  0.13362965580E+03  0.12499975300E+03 0.  0.
          5    1    3    3  501    0 -0.58462062858E+02 -0.31811408261E+02 -0.23333871424E+01  0.66597546387E+02  0.10000000000E+00 0.  1.
         -5    1    3    3    0  501  0.64280856424E+02 -0.13835188431E+02  0.13032756845E+02  0.67032109414E+02  0.10000000000E+00 0.  1.
         21    1    1    2  504  502 -0.58187935652E+01  0.45646596692E+02  0.33148496892E+03  0.33466364423E+03  0.00000000000E+00 0.  1.
<mgrwt>
<rscale>  1 0.13320063E+03</rscale>
<asrwt>0</asrwt>
<pdfrwt beam="1">  1       21 0.62344432E-01 0.13320063E+03</pdfrwt>
<pdfrwt beam="2">  1       21 0.97006896E-02 0.13320063E+03</pdfrwt>
<totfact> 0.20771456E+05</totfact>
</mgrwt>
</event>
<event>
 6    1  0.4261782E-002  0.1282224E+03  0.7546771E-02  0.1230117E+00
         21   -1    0    0  503  502  0.00000000000E+00  0.00000000000E+00  0.15571347328E+03  0.15571347328E+03  0.00000000000E+00 0.  1.
         21   -1    0    0  504  503 -0.00000000000E+00 -0.00000000000E+00 -0.28813623904E+03  0.28813623904E+03  0.00000000000E+00 0. -1.
         25    2    1    2    0    0 -0.11828707415E+02  0.25996396029E+02 -0.27235704952E+03  0.30103047449E+03  0.12500101288E+03 0.  0.
          5    1    3    3  501    0 -0.25564425904E+01  0.33497142472E+00  0.13565628209E+02  0.13808833161E+02  0.10000000000E+00 0.  1.
         -5    1    3    3    0  501 -0.92722648249E+01  0.25661424605E+02 -0.28592267772E+03  0.28722164132E+03  0.10000000000E+00 0.  1.
         21    1    1    2  504  502  0.11828707415E+02 -0.25996396029E+02  0.13993428375E+03  0.14281923783E+03  0.00000000000E+00 0.  1.
<mgrwt>
<rscale>  1 0.12822240E+03</rscale>
<asrwt>0</asrwt>
<pdfrwt beam="1">  1       21 0.23955919E-01 0.12822240E+03</pdfrwt>
<pdfrwt beam="2">  1       21 0.44328652E-01 0.12822240E+03</pdfrwt>
<totfact> 0.82485318E+04</totfact>
</mgrwt>
</event>
<event>
 6    1  0.4261782E-002  0.1264412E+03  0.7546771E-02  0.1232834E+00
         21   -1    0    0  504  502  0.00000000000E+00  0.00000000000E+00  0.15248825413E+04  0.15248825413E+04  0.00000000000E+00 0.  1.
         21   -1    0    0  502  503 -0.00000000000E+00 -0.00000000000E+00 -0.37211043182E+01  0.37211043182E+01  0.00000000000E+00 0.  1.
         25    2    1    2    0    0  0.13434600956E+02 -0.13507147244E+02  0.14232912439E+04  0.14288965435E+04  0.12499774151E+03 0.  0.
          5    1    3    3  501    0 -0.54353636955E+01  0.53120503412E+02  0.45276000283E+03  0.45589797238E+03  0.10000000000E+00 0. -1.
         -5    1    3    3    0  501  0.18869964652E+02 -0.66627650656E+02  0.97053124111E+03  0.97299857110E+03  0.10000000000E+00 0. -1.
         21    1    1    2  504  503 -0.13434600956E+02  0.13507147244E+02  0.97870193081E+02  0.99707102171E+02  0.00000000000E+00 0. -1.
<mgrwt>
<rscale>  1 0.12644116E+03</rscale>
<asrwt>0</asrwt>
<pdfrwt beam="1">  1       21 0.23459682E+00 0.12644116E+03</pdfrwt>
<pdfrwt beam="2">  1       21 0.57247880E-03 0.12644116E+03</pdfrwt>
<totfact> 0.76381355E+05</totfact>
</mgrwt>
</event>
<event>
 6    1  0.4261782E-002  0.1264852E+03  0.7546771E-02  0.1232766E+00
         21   -1    0    0  503  502  0.00000000000E+00  0.00000000000E+00  0.10173841205E+03  0.10173841205E+03  0.00000000000E+00 0.  1.
         21   -1    0    0  504  503 -0.00000000000E+00 -0.00000000000E+00 -0.66234215660E+02  0.66234215660E+02  0.00000000000E+00 0.  1.
         25    2    1    2    0    0 -0.54891245358E+01  0.18511298877E+02 -0.12099303771E+01  0.12649099589E+03  0.12500283771E+03 0.  0.
          5    1    3    3  501    0  0.14343031989E+01  0.10243654439E+01  0.61242517195E+02  0.61267956246E+02  0.10000000000E+00 0. -1.
         -5    1    3    3    0  501 -0.69234277347E+01  0.17486933433E+02 -0.62452447572E+02  0.65223039643E+02  0.10000000000E+00 0. -1.
         21    1    1    2  504  502  0.54891245358E+01 -0.18511298877E+02  0.36714126771E+02  0.41481631824E+02  0.00000000000E+00 0. -1.
<mgrwt>
<rscale>  1 0.12648521E+03</rscale>
<asrwt>0</asrwt>
<pdfrwt beam="1">  1       21 0.15652063E-01 0.12648521E+03</pdfrwt>
<pdfrwt beam="2">  1       21 0.10189879E-01 0.12648521E+03</pdfrwt>
<totfact> 0.28202101E+06</totfact>
</mgrwt>
</event>
<event>
 6    1  0.4261782E-002  0.1258873E+03  0.7546771E-02  0.1233689E+00
         21   -1    0    0  503  502  0.00000000000E+00  0.00000000000E+00  0.14721558009E+04  0.14721558009E+04  0.00000000000E+00 0. -1.
         21   -1    0    0  504  503 -0.00000000000E+00 -0.00000000000E+00 -0.46391759500E+01  0.46391759500E+01  0.00000000000E+00 0. -1.
         25    2    1    2    0    0  0.13563581895E+02  0.64736945024E+01  0.86713503305E+03  0.87622530116E+03  0.12498693277E+03 0.  0.
          5    1    3    3  501    0 -0.35741365477E+02  0.48995484064E+02  0.39814300385E+03  0.40273547669E+03  0.10000000000E+00 0. -1.
         -5    1    3    3    0  501  0.49304947373E+02 -0.42521789562E+02  0.46899202920E+03  0.47348982447E+03  0.10000000000E+00 0. -1.
         21    1    1    2  504  502 -0.13563581895E+02 -0.64736945024E+01  0.60038159194E+03  0.60056967574E+03  0.00000000000E+00 0. -1.
<mgrwt>
<rscale>  1 0.12588730E+03</rscale>
<asrwt>0</asrwt>
<pdfrwt beam="1">  1       21 0.22648514E+00 0.12588730E+03</pdfrwt>
<pdfrwt beam="2">  1       21 0.71372055E-03 0.12588730E+03</pdfrwt>
<totfact> 0.60529788E+05</totfact>
</mgrwt>
</event>
<event>
 6    1  0.4261782E-002  0.1287678E+03  0.7546771E-02  0.1229296E+00
         21   -1    0    0  504  502  0.00000000000E+00  0.00000000000E+00  0.48593093408E+02  0.48593093408E+02  0.00000000000E+00 0. -1.
         21   -1    0    0  502  503 -0.00000000000E+00 -0.00000000000E+00 -0.17176648412E+03  0.17176648412E+03  0.00000000000E+00 0. -1.
         25    2    1    2    0    0  0.30910915009E+02 -0.10511555033E+00 -0.13564142435E+03  0.18702869727E+03  0.12500256753E+03 0.  0.
          5    1    3    3  501    0 -0.24968767396E+00  0.45689302173E+02 -0.60411532714E+01  0.46087744682E+02  0.10000000000E+00 0.  1.
         -5    1    3    3    0  501  0.31160602683E+02 -0.45794417724E+02 -0.12960027108E+03  0.14094095259E+03  0.10000000000E+00 0.  1.
         21    1    1    2  504  503 -0.30910915009E+02  0.10511555033E+00  0.12468033635E+02  0.33330880256E+02  0.00000000000E+00 0. -1.
<mgrwt>
<rscale>  1 0.12876777E+03</rscale>
<asrwt>0</asrwt>
<pdfrwt beam="1">  1       21 0.74758604E-02 0.12876777E+03</pdfrwt>
<pdfrwt beam="2">  1       21 0.26425613E-01 0.12876777E+03</pdfrwt>
<totfact> 0.18298328E+06</totfact>
</mgrwt>
</event>
<event>
 6    1  0.4261782E-002  0.1314899E+03  0.7546771E-02  0.1225262E+00
         21   -1    0    0  504  502  0.00000000000E+00  0.00000000000E+00  0.15578559711E+02  0.15578559711E+02  0.00000000000E+00 0. -1.
         21   -1    0    0  502  503 -0.00000000000E+00 -0.00000000000E+00 -0.68035546395E+03  0.68035546395E+03  0.00000000000E+00 0. -1.
         25    2    1    2    0    0 -0.38651206398E+02 -0.13074019871E+02 -0.62594513828E+03  0.63960683840E+03  0.12499898338E+03 0.  0.
          5    1    3    3  501    0  0.68799403066E+00 -0.62016054285E+02 -0.41184198271E+03  0.41648564567E+03  0.10000000000E+00 0.  1.
         -5    1    3    3    0  501 -0.39339200429E+02  0.48942034413E+02 -0.21410315557E+03  0.22312119273E+03  0.10000000000E+00 0.  1.
         21    1    1    2  504  503  0.38651206398E+02  0.13074019871E+02 -0.38831765965E+02  0.56327185263E+02  0.00000000000E+00 0. -1.
<mgrwt>
<rscale>  1 0.13148989E+03</rscale>
<asrwt>0</asrwt>
<pdfrwt beam="1">  1       21 0.23967012E-02 0.13148989E+03</pdfrwt>
<pdfrwt beam="2">  1       21 0.10467009E+00 0.13148989E+03</pdfrwt>
<totfact> 0.68047556E+05</totfact>
</mgrwt>
</event>
<event>
 6    1  0.4261782E-002  0.1377582E+03  0.7546771E-02  0.1216378E+00
         21   -1    0    0  503  502  0.00000000000E+00  0.00000000000E+00  0.57092113590E+03  0.57092113590E+03  0.00000000000E+00 0.  1.
         21   -1    0    0  504  503 -0.00000000000E+00 -0.00000000000E+00 -0.23012888697E+02  0.23012888697E+02  0.00000000000E+00 0.  1.
         25    2    1    2    0    0  0.49082049329E+00 -0.57880296932E+02  0.21032079320E+03  0.25142028943E+03  0.12500782458E+03 0.  0.
          5    1    3    3  501    0 -0.38502149481E+02 -0.14445263236E+02  0.93877281652E+01  0.42180808252E+02  0.10000000000E+00 0. -1.
         -5    1    3    3    0  501  0.38992969975E+02 -0.43435033696E+02  0.20093306503E+03  0.20923948118E+03  0.10000000000E+00 0. -1.
         21    1    1    2  504  502 -0.49082049329E+00  0.57880296932E+02  0.33758745401E+03  0.34251373517E+03  0.00000000000E+00 0.  1.
<mgrwt>
<rscale>  1 0.13775822E+03</rscale>
<asrwt>0</asrwt>
<pdfrwt beam="1">  1       21 0.87834010E-01 0.13775822E+03</pdfrwt>
<pdfrwt beam="2">  1       21 0.35404449E-02 0.13775822E+03</pdfrwt>
<totfact> 0.53897928E+05</totfact>
</mgrwt>
</event>
<event>
 6    1  0.4261782E-002  0.1341205E+03  0.7546771E-02  0.1221467E+00
         21   -1    0    0  503  502  0.00000000000E+00  0.00000000000E+00  0.46452306804E+02  0.46452306804E+02  0.00000000000E+00 0.  1.
         21   -1    0    0  504  503 -0.00000000000E+00 -0.00000000000E+00 -0.18262678211E+03  0.18262678211E+03  0.00000000000E+00 0.  1.
         25    2    1    2    0    0  0.47693725575E+02 -0.97123473065E+01 -0.11199317142E+03  0.17473061509E+03  0.12497718294E+03 0.  0.
          5    1    3    3  501    0  0.65716132895E+01 -0.28280580817E+01  0.27875790330E+02  0.28779397149E+02  0.10000000000E+00 0. -1.
         -5    1    3    3    0  501  0.41122112286E+02 -0.68842892247E+01 -0.13986896175E+03  0.14595121794E+03  0.10000000000E+00 0. -1.
         21    1    1    2  504  502 -0.47693725575E+02  0.97123473065E+01 -0.24181303888E+02  0.54348473825E+02  0.00000000000E+00 0.  1.
<mgrwt>
<rscale>  1 0.13412053E+03</rscale>
<asrwt>0</asrwt>
<pdfrwt beam="1">  1       21 0.71465088E-02 0.13412053E+03</pdfrwt>
<pdfrwt beam="2">  1       21 0.28096428E-01 0.13412053E+03</pdfrwt>
<totfact> 0.17602537E+06</totfact>
</mgrwt>
</event>
<event>
 6    1  0.4261782E-002  0.1259865E+03  0.7546771E-02  0.1233536E+00
         21   -1    0    0  503  502  0.00000000000E+00  0.00000000000E+00  0.54925842831E+02  0.54925842831E+02  0.00000000000E+00 0. -1.
         21   -1    0    0  504  503 -0.00000000000E+00 -0.00000000000E+00 -0.92070321357E+02  0.92070321357E+02  0.00000000000E+00 0. -1.
         25    2    1    2    0    0 -0.47817686870E+01 -0.15001661062E+02 -0.36784568686E+02  0.13124672987E+03  0.12499873784E+03 0.  0.
          5    1    3    3  501    0  0.48901294816E+02  0.28008053023E+02 -0.24139208072E+02  0.61306598627E+02  0.10000000000E+00 0. -1.
         -5    1    3    3    0  501 -0.53683063503E+02 -0.43009714085E+02 -0.12645360614E+02  0.69940131239E+02  0.10000000000E+00 0. -1.
         21    1    1    2  504  502  0.47817686870E+01  0.15001661062E+02 -0.35990983990E+00  0.15749434323E+02  0.00000000000E+00 0. -1.
<mgrwt>
<rscale>  1 0.12598651E+03</rscale>
<asrwt>0</asrwt>
<pdfrwt beam="1">  1       21 0.84501297E-02 0.12598651E+03</pdfrwt>
<pdfrwt beam="2">  1       21 0.14164665E-01 0.12598651E+03</pdfrwt>
<totfact> 0.46745773E+06</totfact>
</mgrwt>
</event>
<event>
 6    1  0.4261782E-002  0.1319971E+03  0.7546771E-02  0.1224522E+00
         21   -1    0    0  504  502  0.00000000000E+00  0.00000000000E+00  0.23090582834E+03  0.23090582834E+03  0.00000000000E+00 0. -1.
         21   -1    0    0  502  503 -0.00000000000E+00 -0.00000000000E+00 -0.39874342192E+02  0.39874342192E+02  0.00000000000E+00 0. -1.
         25    2    1    2    0    0 -0.25813730777E+02 -0.33615710039E+02  0.86056887732E+02  0.15757226016E+03  0.12500745813E+03 0.  0.
          5    1    3    3  501    0 -0.64032805595E+02 -0.36558525529E+02  0.92930120158E+02  0.11862859358E+03  0.10000000000E+00 0. -1.
         -5    1    3    3    0  501  0.38219074819E+02  0.29428154896E+01 -0.68732324261E+01  0.38943666584E+02  0.10000000000E+00 0. -1.
         21    1    1    2  504  503  0.25813730777E+02  0.33615710039E+02  0.10497459842E+03  0.11320791037E+03  0.00000000000E+00 0. -1.
<mgrwt>
<rscale>  1 0.13199708E+03</rscale>
<asrwt>0</asrwt>
<pdfrwt beam="1">  1       21 0.35523973E-01 0.13199708E+03</pdfrwt>
<pdfrwt beam="2">  1       21 0.61345143E-02 0.13199708E+03</pdfrwt>
<totfact> 0.14479574E+06</totfact>
</mgrwt>
</event>
<event>
 6    1  0.4261782E-002  0.1259591E+03  0.7546771E-02  0.1233578E+00
         21   -1    0    0  503  502  0.00000000000E+00  0.00000000000E+00  0.23489496416E+03  0.23489496416E+03  0.00000000000E+00 0.  1.
         21   -1    0    0  504  503 -0.00000000000E+00 -0.00000000000E+00 -0.31220694852E+02  0.31220694852E+02  0.00000000000E+00 0.  1.
         25    2    1    2    0    0  0.11273721916E+02  0.10650870376E+02  0.98756942424E+02  0.16005820606E+03  0.12500063122E+03 0.  0.
          5    1    3    3  501    0  0.57388836991E+01 -0.51110538791E+02  0.10985086235E+02  0.52591863261E+02  0.10000000000E+00 0.  1.
         -5    1    3    3    0  501  0.55348382164E+01  0.61761409168E+02  0.87771856189E+02  0.10746634280E+03  0.10000000000E+00 0.  1.
         21    1    1    2  504  502 -0.11273721916E+02 -0.10650870376E+02  0.10491732688E+03  0.10605745295E+03  0.00000000000E+00 0.  1.
<mgrwt>
<rscale>  1 0.12595910E+03</rscale>
<asrwt>0</asrwt>
<pdfrwt beam="1">  1       21 0.36137686E-01 0.12595910E+03</pdfrwt>
<pdfrwt beam="2">  1       21 0.48031840E-02 0.12595910E+03</pdfrwt>
<totfact> 0.21127131E+06</totfact>
</mgrwt>
</event>
<event>
 6    1  0.4261782E-002  0.1435162E+03  0.7546771E-02  0.1208674E+00
         21   -1    0    0  503  502  0.00000000000E+00  0.00000000000E+00  0.53666746532E+03  0.53666746532E+03  0.00000000000E+00 0. -1.
         21   -1    0    0  504  503 -0.00000000000E+00 -0.00000000000E+00 -0.22373643585E+02  0.22373643585E+02  0.00000000000E+00 0. -1.
         25    2    1    2    0    0  0.60781643491E+02  0.35769584242E+02  0.28419400073E+03  0.31837578326E+03  0.12499215164E+03 0.  0.
          5    1    3    3  501    0  0.20769599893E+02  0.70173794693E+02  0.23536745088E+03  0.24648242265E+03  0.10000000000E+00 0.  1.
         -5    1    3    3    0  501  0.40012043597E+02 -0.34404210451E+02  0.48826549855E+02  0.71893360614E+02  0.10000000000E+00 0.  1.
         21    1    1    2  504  502 -0.60781643491E+02 -0.35769584242E+02  0.23009982101E+03  0.24066532565E+03  0.00000000000E+00 0. -1.
<mgrwt>
<rscale>  1 0.14351623E+03</rscale>
<asrwt>0</asrwt>
<pdfrwt beam="1">  1       21 0.82564216E-01 0.14351623E+03</pdfrwt>
<pdfrwt beam="2">  1       21 0.34420994E-02 0.14351623E+03</pdfrwt>
<totfact> 0.64934361E+05</totfact>
</mgrwt>
</event>
<event>
 6    1  0.4261782E-002  0.1276667E+03  0.7546771E-02  0.1230960E+00
         21   -1    0    0  504  502  0.00000000000E+00  0.00000000000E+00  0.42944542570E+03  0.42944542570E+03  0.00000000000E+00 0.  1.
         21   -1    0    0  502  503 -0.00000000000E+00 -0.00000000000E+00 -0.36996123377E+02  0.36996123377E+02  0.00000000000E+00 0. -1.
         25    2    1    2    0    0  0.23139774906E+02 -0.11707254241E+02  0.75269821522E+02  0.14820369459E+03  0.12500512019E+03 0.  0.
          5    1    3    3  501    0  0.12483665632E+02 -0.52985044407E+02 -0.76461225312E+01  0.54970264946E+02  0.10000000000E+00 0.  1.
         -5    1    3    3    0  501  0.10656109274E+02  0.41277790166E+02  0.82915944053E+02  0.93233429649E+02  0.10000000000E+00 0.  1.
         21    1    1    2  504  503 -0.23139774906E+02  0.11707254241E+02  0.31717948080E+03  0.31823785448E+03  0.00000000000E+00 0.  1.
<mgrwt>
<rscale>  1 0.12766671E+03</rscale>
<asrwt>0</asrwt>
<pdfrwt beam="1">  1       21 0.66068523E-01 0.12766671E+03</pdfrwt>
<pdfrwt beam="2">  1       21 0.56917116E-02 0.12766671E+03</pdfrwt>
<totfact> 0.45868250E+05</totfact>
</mgrwt>
</event>
<event>
 6    1  0.4261782E-002  0.1294178E+03  0.7546771E-02  0.1228322E+00
         21   -1    0    0  504  502  0.00000000000E+00  0.00000000000E+00  0.20069362831E+02  0.20069362831E+02  0.00000000000E+00 0. -1.
         21   -1    0    0  502  503 -0.00000000000E+00 -0.00000000000E+00 -0.14456265316E+04  0.14456265316E+04  0.00000000000E+00 0.  1.
         25    2    1    2    0    0  0.11755891226E+02  0.31394236958E+02 -0.14263050220E+04  0.14321644409E+04  0.12500068298E+03 0.  0.
          5    1    3    3  501    0 -0.22543112235E+02  0.70428809919E+02 -0.66787461988E+03  0.67195604548E+03  0.10000000000E+00 0.  1.
         -5    1    3    3    0  501  0.34299003461E+02 -0.39034572960E+02 -0.75843040214E+03  0.76020839538E+03  0.10000000000E+00 0.  1.
         21    1    1    2  504  503 -0.11755891226E+02 -0.31394236958E+02  0.74785326680E+00  0.33531453551E+02  0.00000000000E+00 0. -1.
<mgrwt>
<rscale>  1 0.12941781E+03</rscale>
<asrwt>0</asrwt>
<pdfrwt beam="1">  1       21 0.30875929E-02 0.12941781E+03</pdfrwt>
<pdfrwt beam="2">  1       21 0.22240418E+00 0.12941781E+03</pdfrwt>
<totfact> 0.61520002E+04</totfact>
</mgrwt>
</event>
<event>
 6    1  0.4261782E-002  0.1265564E+03  0.7546771E-02  0.1232657E+00
         21   -1    0    0  504  502  0.00000000000E+00  0.00000000000E+00  0.41634326828E+02  0.41634326828E+02  0.00000000000E+00 0. -1.
         21   -1    0    0  502  503 -0.00000000000E+00 -0.00000000000E+00 -0.46341602760E+03  0.46341602760E+03  0.00000000000E+00 0.  1.
         25    2    1    2    0    0 -0.19435621390E+02 -0.39039178921E+01 -0.45173682340E+03  0.46912970124E+03  0.12499413993E+03 0.  0.
          5    1    3    3  501    0  0.82992655095E+01  0.46404779872E+02 -0.79032974996E+02  0.92024467071E+02  0.10000000000E+00 0.  1.
         -5    1    3    3    0  501 -0.27734886900E+02 -0.50308697764E+02 -0.37270384840E+03  0.37710523417E+03  0.10000000000E+00 0.  1.
         21    1    1    2  504  503  0.19435621390E+02  0.39039178921E+01  0.29955122629E+02  0.35920653188E+02  0.00000000000E+00 0. -1.
<mgrwt>
<rscale>  1 0.12655639E+03</rscale>
<asrwt>0</asrwt>
<pdfrwt beam="1">  1       21 0.64052812E-02 0.12655639E+03</pdfrwt>
<pdfrwt beam="2">  1       21 0.71294772E-01 0.12655639E+03</pdfrwt>
<totfact> 0.31827172E+05</totfact>
</mgrwt>
</event>
<event>
 6    1  0.4261782E-002  0.1259366E+03  0.7546771E-02  0.1233613E+00
         21   -1    0    0  503  502  0.00000000000E+00  0.00000000000E+00  0.65279866437E+03  0.65279866437E+03  0.00000000000E+00 0. -1.
         21   -1    0    0  504  503 -0.00000000000E+00 -0.00000000000E+00 -0.28552563500E+02  0.28552563500E+02  0.00000000000E+00 0. -1.
         25    2    1    2    0    0  0.44043008723E+01 -0.14528373950E+02  0.11097451066E+03  0.16785517449E+03  0.12501818296E+03 0.  0.
          5    1    3    3  501    0  0.87851390453E+01  0.31890283063E+02  0.11631333602E+03  0.12092547687E+03  0.10000000000E+00 0.  1.
         -5    1    3    3    0  501 -0.43808381730E+01 -0.46418657013E+02 -0.53388253612E+01  0.46929697615E+02  0.10000000000E+00 0.  1.
         21    1    1    2  504  502 -0.44043008723E+01  0.14528373950E+02  0.51327159022E+03  0.51349605338E+03  0.00000000000E+00 0. -1.
<mgrwt>
<rscale>  1 0.12593656E+03</rscale>
<asrwt>0</asrwt>
<pdfrwt beam="1">  1       21 0.10043055E+00 0.12593656E+03</pdfrwt>
<pdfrwt beam="2">  1       21 0.43927026E-02 0.12593656E+03</pdfrwt>
<totfact> 0.27705435E+05</totfact>
</mgrwt>
</event>
<event>
 6    1  0.4261782E-002  0.1358443E+03  0.7546771E-02  0.1219033E+00
         21   -1    0    0  503  502  0.00000000000E+00  0.00000000000E+00  0.11318024754E+03  0.11318024754E+03  0.00000000000E+00 0.  1.
         21   -1    0    0  504  503 -0.00000000000E+00 -0.00000000000E+00 -0.79681846613E+02  0.79681846613E+02  0.00000000000E+00 0.  1.
         25    2    1    2    0    0  0.46052538990E+02 -0.26601238315E+02  0.15547781134E+02  0.13673111360E+03  0.12500080680E+03 0.  0.
          5    1    3    3  501    0  0.48309683906E+02  0.11675660335E+02  0.60075496419E+02  0.77969364967E+02  0.10000000000E+00 0.  1.
         -5    1    3    3    0  501 -0.22571449165E+01 -0.38276898651E+02 -0.44527715286E+02  0.58761748630E+02  0.10000000000E+00 0.  1.
         21    1    1    2  504  502 -0.46052538990E+02  0.26601238315E+02  0.17950619795E+02  0.56130980557E+02  0.00000000000E+00 0.  1.
<mgrwt>
<rscale>  1 0.13584426E+03</rscale>
<asrwt>0</asrwt>
<pdfrwt beam="1">  1       21 0.17412346E-01 0.13584426E+03</pdfrwt>
<pdfrwt beam="2">  1       21 0.12258746E-01 0.13584426E+03</pdfrwt>
<totfact> 0.16806814E+06</totfact>
</mgrwt>
</event>
<event>
 6    1  0.4261782E-002  0.1500803E+03  0.7546771E-02  0.1200374E+00
         21   -1    0    0  503  502  0.00000000000E+00  0.00000000000E+00  0.23027816020E+03  0.23027816020E+03  0.00000000000E+00 0.  1.
         21   -1    0    0  504  503 -0.00000000000E+00 -0.00000000000E+00 -0.19041908048E+03  0.19041908048E+03  0.00000000000E+00 0.  1.
         25    2    1    2    0    0  0.66570600548E+02 -0.49638068377E+02 -0.15079035074E+03  0.21274823726E+03  0.12501399879E+03 0.  0.
          5    1    3    3  501    0 -0.16721442058E+02 -0.12027857367E+02  0.13585591786E+02  0.24674972776E+02  0.10000000000E+00 0. -1.
         -5    1    3    3    0  501  0.83292042606E+02 -0.37610211010E+02 -0.16437594252E+03  0.18807326448E+03  0.10000000000E+00 0. -1.
         21    1    1    2  504  502 -0.66570600548E+02  0.49638068377E+02  0.19064943046E+03  0.20794900342E+03  0.00000000000E+00 0.  1.
<mgrwt>
<rscale>  1 0.15008025E+03</rscale>
<asrwt>0</asrwt>
<pdfrwt beam="1">  1       21 0.35427409E-01 0.15008025E+03</pdfrwt>
<pdfrwt beam="2">  1       21 0.29295243E-01 0.15008025E+03</pdfrwt>
<totfact> 0.87226735E+04</totfact>
</mgrwt>
</event>
<event>
 6    1  0.4261782E-002  0.1317158E+03  0.7546771E-02  0.1224932E+00
         21   -1    0    0  503  502  0.00000000000E+00  0.00000000000E+00  0.23103460532E+02  0.23103460532E+02  0.00000000000E+00 0.  1.
         21   -1    0    0  504  503 -0.00000000000E+00 -0.00000000000E+00 -0.33331876748E+03  0.33331876748E+03  0.00000000000E+00 0.  1.
         25    2    1    2    0    0  0.40637515255E+02 -0.85343631982E+01 -0.25828737056E+03  0.28993348025E+03  0.12499925671E+03 0.  0.
          5    1    3    3  501    0  0.23544196006E+01  0.54174844673E+02 -0.14600285689E+03  0.15574755634E+03  0.10000000000E+00 0. -1.
         -5    1    3    3    0  501  0.38283095655E+02 -0.62709207871E+02 -0.11228451367E+03  0.13418592391E+03  0.10000000000E+00 0. -1.
         21    1    1    2  504  502 -0.40637515255E+02  0.85343631982E+01 -0.51927936390E+02  0.66488747763E+02  0.00000000000E+00 0.  1.
<mgrwt>
<rscale>  1 0.13171582E+03</rscale>
<asrwt>0</asrwt>
<pdfrwt beam="1">  1       21 0.35543786E-02 0.13171582E+03</pdfrwt>
<pdfrwt beam="2">  1       21 0.51279809E-01 0.13171582E+03</pdfrwt>
<totfact> 0.17213748E+06</totfact>
</mgrwt>
</event>
<event>
 6    1  0.4261782E-002  0.1272691E+03  0.7546771E-02  0.1231565E+00
         21   -1    0    0  504  502  0.00000000000E+00  0.00000000000E+00  0.25536179856E+03  0.25536179856E+03  0.00000000000E+00 0. -1.
         21   -1    0    0  502  503 -0.00000000000E+00 -0.00000000000E+00 -0.29566484013E+02  0.29566484013E+02  0.00000000000E+00 0. -1.
         25    2    1    2    0    0 -0.23337364841E+02  0.50084852978E+01  0.11480015755E+03  0.17139572160E+03  0.12501079829E+03 0.  0.
          5    1    3    3  501    0  0.37741677141E+02  0.41338085772E+02  0.55680189724E+02  0.78952929372E+02  0.10000000000E+00 0. -1.
         -5    1    3    3    0  501 -0.61079041983E+02 -0.36329600474E+02  0.59119967821E+02  0.92442792230E+02  0.10000000000E+00 0. -1.
         21    1    1    2  504  503  0.23337364841E+02 -0.50084852978E+01  0.11099515700E+03  0.11353256097E+03  0.00000000000E+00 0. -1.
<mgrwt>
<rscale>  1 0.12726907E+03</rscale>
<asrwt>0</asrwt>
<pdfrwt beam="1">  1       21 0.39286429E-01 0.12726907E+03</pdfrwt>
<pdfrwt beam="2">  1       21 0.45486900E-02 0.12726907E+03</pdfrwt>
<totfact> 0.19616541E+06</totfact>
</mgrwt>
</event>
<event>
 6    1  0.4261782E-002  0.1405839E+03  0.7546771E-02  0.1212545E+00
         21   -1    0    0  503  502  0.00000000000E+00  0.00000000000E+00  0.57873557646E+03  0.57873557646E+03  0.00000000000E+00 0.  1.
         21   -1    0    0  504  503 -0.00000000000E+00 -0.00000000000E+00 -0.22564494312E+02  0.22564494312E+02  0.00000000000E+00 0.  1.
         25    2    1    2    0    0 -0.50501738337E+02 -0.39659256569E+02  0.23555802345E+03  0.27431992518E+03  0.12506221144E+03 0.  0.
          5    1    3    3  501    0  0.39265583688E+02 -0.30180060001E+02  0.97765152913E+02  0.10959314398E+03  0.10000000000E+00 0.  1.
         -5    1    3    3    0  501 -0.89767322025E+02 -0.94791965677E+01  0.13779287054E+03  0.16472678119E+03  0.10000000000E+00 0.  1.
         21    1    1    2  504  502  0.50501738337E+02  0.39659256569E+02  0.32061305870E+03  0.32698014560E+03  0.00000000000E+00 0.  1.
<mgrwt>
<rscale>  1 0.14058392E+03</rscale>
<asrwt>0</asrwt>
<pdfrwt beam="1">  1       21 0.89036231E-01 0.14058392E+03</pdfrwt>
<pdfrwt beam="2">  1       21 0.34714611E-02 0.14058392E+03</pdfrwt>
<totfact> 0.53959899E+05</totfact>
</mgrwt>
</event>
<event>
 6    1  0.4261782E-002  0.1291150E+03  0.7546771E-02  0.1228775E+00
         21   -1    0    0  504  502  0.00000000000E+00  0.00000000000E+00  0.58462246477E+03  0.58462246477E+03  0.00000000000E+00 0. -1.
         21   -1    0    0  502  503 -0.00000000000E+00 -0.00000000000E+00 -0.11993896326E+02  0.11993896326E+02  0.00000000000E+00 0. -1.
         25    2    1    2    0    0  0.32266301734E+02 -0.19353400693E+01  0.38106253889E+03  0.40234231896E+03  0.12500329320E+03 0.  0.
          5    1    3    3  501    0 -0.28385031930E+02  0.41476379493E+02  0.20620190042E+03  0.21223862474E+03  0.10000000000E+00 0. -1.
         -5    1    3    3    0  501  0.60651333664E+02 -0.43411719562E+02  0.17486063847E+03  0.19010369422E+03  0.10000000000E+00 0. -1.
         21    1    1    2  504  503 -0.32266301734E+02  0.19353400693E+01  0.19156602956E+03  0.19427404214E+03  0.00000000000E+00 0. -1.
<mgrwt>
<rscale>  1 0.12911500E+03</rscale>
<asrwt>0</asrwt>
<pdfrwt beam="1">  1       21 0.89941896E-01 0.12911500E+03</pdfrwt>
<pdfrwt beam="2">  1       21 0.18452153E-02 0.12911500E+03</pdfrwt>
<totfact> 0.14781168E+06</totfact>
</mgrwt>
</event>
<event>
 6    1  0.4261782E-002  0.1261544E+03  0.7546771E-02  0.1233276E+00
         21   -1    0    0  504  502  0.00000000000E+00  0.00000000000E+00  0.52247489993E+02  0.52247489993E+02  0.00000000000E+00 0. -1.
         21   -1    0    0  502  503 -0.00000000000E+00 -0.00000000000E+00 -0.24614478689E+03  0.24614478689E+03  0.00000000000E+00 0. -1.
         25    2    1    2    0    0  0.11894725674E+02 -0.12192075757E+02 -0.22782937518E+03  0.26042496007E+03  0.12499921770E+03 0.  0.
          5    1    3    3  501    0 -0.46391316854E+02 -0.63752916573E+01 -0.33813396097E+02  0.57759452722E+02  0.10000000000E+00 0. -1.
         -5    1    3    3    0  501  0.58286042528E+02 -0.58167840999E+01 -0.19401597908E+03  0.20266550735E+03  0.10000000000E+00 0. -1.
         21    1    1    2  504  503 -0.11894725674E+02  0.12192075757E+02  0.33932078276E+02  0.37967316817E+02  0.00000000000E+00 0. -1.
<mgrwt>
<rscale>  1 0.12615441E+03</rscale>
<asrwt>0</asrwt>
<pdfrwt beam="1">  1       21 0.80380753E-02 0.12615441E+03</pdfrwt>
<pdfrwt beam="2">  1       21 0.37868429E-01 0.12615441E+03</pdfrwt>
<totfact> 0.80328188E+05</totfact>
</mgrwt>
</event>
<event>
 6    1  0.4261782E-002  0.1348046E+03  0.7546771E-02  0.1220496E+00
         21   -1    0    0  504  502  0.00000000000E+00  0.00000000000E+00  0.10937842964E+04  0.10937842964E+04  0.00000000000E+00 0. -1.
         21   -1    0    0  502  503 -0.00000000000E+00 -0.00000000000E+00 -0.47269394258E+02  0.47269394258E+02  0.00000000000E+00 0. -1.
         25    2    1    2    0    0 -0.35997805823E+02  0.35423203235E+02  0.50799882340E+02  0.14405868264E+03  0.12498652186E+03 0.  0.
          5    1    3    3  501    0 -0.59098830364E+00  0.74235249027E+02  0.53415964618E+02  0.91457622653E+02  0.10000000000E+00 0. -1.
         -5    1    3    3    0  501 -0.35406817520E+02 -0.38812045792E+02 -0.26160822783E+01  0.52601059989E+02  0.10000000000E+00 0. -1.
         21    1    1    2  504  503  0.35997805823E+02 -0.35423203235E+02  0.99571501977E+03  0.99699500799E+03  0.00000000000E+00 0. -1.
<mgrwt>
<rscale>  1 0.13480458E+03</rscale>
<asrwt>0</asrwt>
<pdfrwt beam="1">  1       21 0.16827449E+00 0.13480458E+03</pdfrwt>
<pdfrwt beam="2">  1       21 0.72722153E-02 0.13480458E+03</pdfrwt>
<totfact> 0.32355508E+04</totfact>
</mgrwt>
</event>
<event>
 6    1  0.4261782E-002  0.1405654E+03  0.7546771E-02  0.1212570E+00
         21   -1    0    0  504  502  0.00000000000E+00  0.00000000000E+00  0.74105790716E+02  0.74105790716E+02  0.00000000000E+00 0.  1.
         21   -1    0    0  502  503 -0.00000000000E+00 -0.00000000000E+00 -0.10147195787E+04  0.10147195787E+04  0.00000000000E+00 0. -1.
         25    2    1    2    0    0 -0.15788510565E+02  0.62321691550E+02 -0.99483894897E+03  0.10047204446E+04  0.12500146833E+03 0.  0.
          5    1    3    3  501    0  0.23915736185E+02  0.62973582889E+02 -0.89107763952E+03  0.89362016776E+03  0.10000000000E+00 0. -1.
         -5    1    3    3    0  501 -0.39704246750E+02 -0.65189133864E+00 -0.10376130946E+03  0.11110027683E+03  0.10000000000E+00 0. -1.
         21    1    1    2  504  503  0.15788510565E+02 -0.62321691550E+02  0.54225160959E+02  0.84104924854E+02  0.00000000000E+00 0.  1.
<mgrwt>
<rscale>  1 0.14056542E+03</rscale>
<asrwt>0</asrwt>
<pdfrwt beam="1">  1       21 0.11400891E-01 0.14056542E+03</pdfrwt>
<pdfrwt beam="2">  1       21 0.15611070E+00 0.14056542E+03</pdfrwt>
<totfact> 0.17981907E+04</totfact>
</mgrwt>
</event>
<event>
 6    1  0.4261782E-002  0.1334187E+03  0.7546771E-02  0.1222469E+00
         21   -1    0    0  504  502  0.00000000000E+00  0.00000000000E+00  0.77539412776E+02  0.77539412776E+02  0.00000000000E+00 0.  1.
         21   -1    0    0  502  503 -0.00000000000E+00 -0.00000000000E+00 -0.11298862476E+03  0.11298862476E+03  0.00000000000E+00 0.  1.
         25    2    1    2    0    0  0.45640507567E+02 -0.98757719159E+01 -0.48632779748E+02  0.14200594710E+03  0.12497981814E+03 0.  0.
          5    1    3    3  501    0  0.51703936812E+02  0.47242355159E+02 -0.56487752951E+01  0.70264186221E+02  0.10000000000E+00 0.  1.
         -5    1    3    3    0  501 -0.60634292450E+01 -0.57118127075E+02 -0.42984004453E+02  0.71741760876E+02  0.10000000000E+00 0.  1.
         21    1    1    2  504  503 -0.45640507567E+02  0.98757719159E+01  0.13183567762E+02  0.48522090442E+02  0.00000000000E+00 0.  1.
<mgrwt>
<rscale>  1 0.13341867E+03</rscale>
<asrwt>0</asrwt>
<pdfrwt beam="1">  1       21 0.11929140E-01 0.13341867E+03</pdfrwt>
<pdfrwt beam="2">  1       21 0.17382865E-01 0.13341867E+03</pdfrwt>
<totfact> 0.17688124E+06</totfact>
</mgrwt>
</event>
<event>
 6    1  0.4261782E-002  0.1308603E+03  0.7546771E-02  0.1226185E+00
         21   -1    0    0  504  502  0.00000000000E+00  0.00000000000E+00  0.11452905766E+03  0.11452905766E+03  0.00000000000E+00 0. -1.
         21   -1    0    0  502  503 -0.00000000000E+00 -0.00000000000E+00 -0.18523501647E+03  0.18523501647E+03  0.00000000000E+00 0. -1.
         25    2    1    2    0    0 -0.24318157115E+02 -0.30136178498E+02 -0.15747231236E+03  0.20474848526E+03  0.12499940414E+03 0.  0.
          5    1    3    3  501    0 -0.67991590025E+02 -0.48318964093E+02 -0.10499808661E+03  0.13409767633E+03  0.10000000000E+00 0.  1.
         -5    1    3    3    0  501  0.43673432910E+02  0.18182785595E+02 -0.52474225755E+02  0.70650808932E+02  0.10000000000E+00 0.  1.
         21    1    1    2  504  503  0.24318157115E+02  0.30136178498E+02  0.86766353554E+02  0.95015588873E+02  0.00000000000E+00 0. -1.
<mgrwt>
<rscale>  1 0.13086028E+03</rscale>
<asrwt>0</asrwt>
<pdfrwt beam="1">  1       21 0.17619855E-01 0.13086028E+03</pdfrwt>
<pdfrwt beam="2">  1       21 0.28497695E-01 0.13086028E+03</pdfrwt>
<totfact> 0.34784469E+05</totfact>
</mgrwt>
</event>
<event>
 6    1  0.4261782E-002  0.1260955E+03  0.7546771E-02  0.1233367E+00
         21   -1    0    0  504  502  0.00000000000E+00  0.00000000000E+00  0.16857688298E+02  0.16857688298E+02  0.00000000000E+00 0.  1.
         21   -1    0    0  502  503 -0.00000000000E+00 -0.00000000000E+00 -0.47549049928E+03  0.47549049928E+03  0.00000000000E+00 0.  1.
         25    2    1    2    0    0  0.51376589445E+01 -0.15789930471E+02 -0.45872811392E+03  0.47574317248E+03  0.12499746483E+03 0.  0.
          5    1    3    3  501    0 -0.21832760015E+02 -0.44807295187E+02 -0.75475279951E+02  0.90448278013E+02  0.10000000000E+00 0. -1.
         -5    1    3    3    0  501  0.26970418959E+02  0.29017364716E+02 -0.38325283397E+03  0.38529489447E+03  0.10000000000E+00 0. -1.
         21    1    1    2  504  503 -0.51376589445E+01  0.15789930471E+02  0.95302942807E-01  0.16605015097E+02  0.00000000000E+00 0.  1.
<mgrwt>
<rscale>  1 0.12609553E+03</rscale>
<asrwt>0</asrwt>
<pdfrwt beam="1">  1       21 0.25934912E-02 0.12609553E+03</pdfrwt>
<pdfrwt beam="2">  1       21 0.73152366E-01 0.12609553E+03</pdfrwt>
<totfact> 0.13529706E+06</totfact>
</mgrwt>
</event>
<event>
 6    1  0.4261782E-002  0.1279536E+03  0.7546771E-02  0.1230524E+00
         21   -1    0    0  503  502  0.00000000000E+00  0.00000000000E+00  0.64754880302E+03  0.64754880302E+03  0.00000000000E+00 0. -1.
         21   -1    0    0  504  503 -0.00000000000E+00 -0.00000000000E+00 -0.36606454425E+02  0.36606454425E+02  0.00000000000E+00 0. -1.
         25    2    1    2    0    0  0.27076587841E+02  0.36474498022E+01  0.76630667518E+02  0.14914552105E+03  0.12500272696E+03 0.  0.
          5    1    3    3  501    0 -0.26536311615E+02 -0.66351057636E+01 -0.22869223369E+02  0.35654057835E+02  0.10000000000E+00 0.  1.
         -5    1    3    3    0  501  0.53612899456E+02  0.10282555566E+02  0.99499890887E+02  0.11349146322E+03  0.10000000000E+00 0.  1.
         21    1    1    2  504  502 -0.27076587841E+02 -0.36474498022E+01  0.53431168107E+03  0.53500973639E+03  0.00000000000E+00 0. -1.
<mgrwt>
<rscale>  1 0.12795361E+03</rscale>
<asrwt>0</asrwt>
<pdfrwt beam="1">  1       21 0.99622884E-01 0.12795361E+03</pdfrwt>
<pdfrwt beam="2">  1       21 0.56317627E-02 0.12795361E+03</pdfrwt>
<totfact> 0.18594448E+05</totfact>
</mgrwt>
</event>
<event>
 6    1  0.4261782E-002  0.1261120E+03  0.7546771E-02  0.1233342E+00
         21   -1    0    0  504  502  0.00000000000E+00  0.00000000000E+00  0.55227630654E+03  0.55227630654E+03  0.00000000000E+00 0. -1.
         21   -1    0    0  502  503 -0.00000000000E+00 -0.00000000000E+00 -0.10106980366E+02  0.10106980366E+02  0.00000000000E+00 0. -1.
         25    2    1    2    0    0  0.14360186904E+02  0.85610644839E+01  0.40452028089E+03  0.42372267079E+03  0.12499894919E+03 0.  0.
          5    1    3    3  501    0 -0.31169798746E+02  0.33939622448E+02  0.61949231535E+02  0.77208623958E+02  0.10000000000E+00 0.  1.
         -5    1    3    3    0  501  0.45529985649E+02 -0.25378557964E+02  0.34257104935E+03  0.34651404683E+03  0.10000000000E+00 0.  1.
         21    1    1    2  504  503 -0.14360186904E+02 -0.85610644839E+01  0.13764904529E+03  0.13866061612E+03  0.00000000000E+00 0. -1.
<mgrwt>
<rscale>  1 0.12611203E+03</rscale>
<asrwt>0</asrwt>
<pdfrwt beam="1">  1       21 0.84965562E-01 0.12611203E+03</pdfrwt>
<pdfrwt beam="2">  1       21 0.15549205E-02 0.12611203E+03</pdfrwt>
<totfact> 0.22127263E+06</totfact>
</mgrwt>
</event>
<event>
 6    1  0.4261782E-002  0.1338957E+03  0.7546771E-02  0.1221787E+00
         21   -1    0    0  504  502  0.00000000000E+00  0.00000000000E+00  0.21948149179E+03  0.21948149179E+03  0.00000000000E+00 0. -1.
         21   -1    0    0  502  503 -0.00000000000E+00 -0.00000000000E+00 -0.12250165159E+03  0.12250165159E+03  0.00000000000E+00 0. -1.
         25    2    1    2    0    0 -0.20723876375E+02  0.43097095191E+02 -0.81808567613E+02  0.15690982431E+03  0.12506483344E+03 0.  0.
          5    1    3    3  501    0 -0.61222432163E+02  0.26334016046E+02 -0.29768498480E+01  0.66712354449E+02  0.10000000000E+00 0.  1.
         -5    1    3    3    0  501  0.40498555788E+02  0.16763079145E+02 -0.78831717765E+02  0.90197469860E+02  0.10000000000E+00 0.  1.
         21    1    1    2  504  503  0.20723876375E+02 -0.43097095191E+02  0.17878840781E+03  0.18507331908E+03  0.00000000000E+00 0. -1.
<mgrwt>
<rscale>  1 0.13389567E+03</rscale>
<asrwt>0</asrwt>
<pdfrwt beam="1">  1       21 0.33766383E-01 0.13389567E+03</pdfrwt>
<pdfrwt beam="2">  1       21 0.18846408E-01 0.13389567E+03</pdfrwt>
<totfact> 0.22119083E+05</totfact>
</mgrwt>
</event>
<event>
 6    1  0.4261782E-002  0.1263797E+03  0.7546771E-02  0.1232929E+00
         21   -1    0    0  503  502  0.00000000000E+00  0.00000000000E+00  0.80422359103E+03  0.80422359103E+03  0.00000000000E+00 0.  1.
         21   -1    0    0  504  503 -0.00000000000E+00 -0.00000000000E+00 -0.81057260905E+01  0.81057260905E+01  0.00000000000E+00 0.  1.
         25    2    1    2    0    0  0.14265581119E+02 -0.11932288679E+02  0.50341235217E+03  0.51903355594E+03  0.12500379819E+03 0.  0.
          5    1    3    3  501    0 -0.22247599901E+01 -0.23222753831E+02  0.49770185957E+03  0.49824832852E+03  0.10000000000E+00 0. -1.
         -5    1    3    3    0  501  0.16490341110E+02  0.11290465152E+02  0.57104925948E+01  0.20785227421E+02  0.10000000000E+00 0. -1.
         21    1    1    2  504  502 -0.14265581119E+02  0.11932288679E+02  0.29270551277E+03  0.29329576118E+03  0.00000000000E+00 0.  1.
<mgrwt>
<rscale>  1 0.12637973E+03</rscale>
<asrwt>0</asrwt>
<pdfrwt beam="1">  1       21 0.12372664E+00 0.12637973E+03</pdfrwt>
<pdfrwt beam="2">  1       21 0.12470354E-02 0.12637973E+03</pdfrwt>
<totfact> 0.12985997E+06</totfact>
</mgrwt>
</event>
<event>
 6    1  0.4261782E-002  0.1262671E+03  0.7546771E-02  0.1233102E+00
         21   -1    0    0  503  502  0.00000000000E+00  0.00000000000E+00  0.77484794089E+03  0.77484794089E+03  0.00000000000E+00 0.  1.
         21   -1    0    0  504  503 -0.00000000000E+00 -0.00000000000E+00 -0.10400154213E+02  0.10400154213E+02  0.00000000000E+00 0.  1.
         25    2    1    2    0    0 -0.10224866684E+02  0.14710694540E+02  0.38092095515E+03  0.40130306917E+03  0.12498970688E+03 0.  0.
          5    1    3    3  501    0  0.52996285964E+02  0.22539358647E+02  0.23729215242E+03  0.24418068026E+03  0.10000000000E+00 0.  1.
         -5    1    3    3    0  501 -0.63221152648E+02 -0.78286641074E+01  0.14362880273E+03  0.15712238891E+03  0.10000000000E+00 0.  1.
         21    1    1    2  504  502  0.10224866684E+02 -0.14710694540E+02  0.38352683153E+03  0.38394502593E+03  0.00000000000E+00 0.  1.
<mgrwt>
<rscale>  1 0.12626709E+03</rscale>
<asrwt>0</asrwt>
<pdfrwt beam="1">  1       21 0.11920733E+00 0.12626709E+03</pdfrwt>
<pdfrwt beam="2">  1       21 0.16000243E-02 0.12626709E+03</pdfrwt>
<totfact> 0.95641439E+05</totfact>
</mgrwt>
</event>
<event>
 6    1  0.4261782E-002  0.1272820E+03  0.7546771E-02  0.1231545E+00
         21   -1    0    0  503  502  0.00000000000E+00  0.00000000000E+00  0.36716810129E+02  0.36716810129E+02  0.00000000000E+00 0. -1.
         21   -1    0    0  504  503 -0.00000000000E+00 -0.00000000000E+00 -0.62168175131E+03  0.62168175131E+03  0.00000000000E+00 0. -1.
         25    2    1    2    0    0  0.38708767236E+01  0.23323302209E+02 -0.61048358495E+03  0.62361118885E+03  0.12506697109E+03 0.  0.
          5    1    3    3  501    0 -0.15387252179E+02  0.30799850010E+01 -0.36202269837E+01  0.16104964472E+02  0.10000000000E+00 0.  1.
         -5    1    3    3    0  501  0.19258128902E+02  0.20243317208E+02 -0.60686335796E+03  0.60750622438E+03  0.10000000000E+00 0.  1.
         21    1    1    2  504  502 -0.38708767236E+01 -0.23323302209E+02  0.25518643761E+02  0.34787372594E+02  0.00000000000E+00 0. -1.
<mgrwt>
<rscale>  1 0.12728200E+03</rscale>
<asrwt>0</asrwt>
<pdfrwt beam="1">  1       21 0.56487400E-02 0.12728200E+03</pdfrwt>
<pdfrwt beam="2">  1       21 0.95643347E-01 0.12728200E+03</pdfrwt>
<totfact> 0.20343723E+05</totfact>
</mgrwt>
</event>
<event>
 6    1  0.4261782E-002  0.1356254E+03  0.7546771E-02  0.1219340E+00
         21   -1    0    0  504  502  0.00000000000E+00  0.00000000000E+00  0.48933122439E+02  0.48933122439E+02  0.00000000000E+00 0. -1.
         21   -1    0    0  502  503 -0.00000000000E+00 -0.00000000000E+00 -0.27979353252E+03  0.27979353252E+03  0.00000000000E+00 0. -1.
         25    2    1    2    0    0 -0.52620593887E+02  0.76830581097E+00 -0.23965543206E+03  0.27537059058E+03  0.12499887536E+03 0.  0.
          5    1    3    3  501    0 -0.14985237198E+01  0.45034180972E+01 -0.22065173576E+03  0.22070279754E+03  0.10000000000E+00 0. -1.
         -5    1    3    3    0  501 -0.51122070167E+02 -0.37351122862E+01 -0.19003696299E+02  0.54667793032E+02  0.10000000000E+00 0. -1.
         21    1    1    2  504  503  0.52620593887E+02 -0.76830581097E+00  0.87950219828E+01  0.53356064384E+02  0.00000000000E+00 0. -1.
<mgrwt>
<rscale>  1 0.13562535E+03</rscale>
<asrwt>0</asrwt>
<pdfrwt beam="1">  1       21 0.75281728E-02 0.13562535E+03</pdfrwt>
<pdfrwt beam="2">  1       21 0.43045158E-01 0.13562535E+03</pdfrwt>
<totfact> 0.69572172E+05</totfact>
</mgrwt>
</event>
<event>
 6    1  0.4261782E-002  0.1264820E+03  0.7546771E-02  0.1232771E+00
         21   -1    0    0  504  502  0.00000000000E+00  0.00000000000E+00  0.21643716185E+02  0.21643716185E+02  0.00000000000E+00 0.  1.
         21   -1    0    0  502  503 -0.00000000000E+00 -0.00000000000E+00 -0.28597192180E+03  0.28597192180E+03  0.00000000000E+00 0.  1.
         25    2    1    2    0    0  0.19241583839E+02 -0.16482201205E+01 -0.25792767802E+03  0.28727056655E+03  0.12499894455E+03 0.  0.
          5    1    3    3  501    0  0.71661970312E+02 -0.61097664531E+01 -0.17318093781E+03  0.18752177062E+03  0.10000000000E+00 0. -1.
         -5    1    3    3    0  501 -0.52420386473E+02  0.44615463326E+01 -0.84746740213E+02  0.99748795935E+02  0.10000000000E+00 0. -1.
         21    1    1    2  504  503 -0.19241583839E+02  0.16482201205E+01 -0.64005275958E+01  0.20345071435E+02  0.00000000000E+00 0.  1.
<mgrwt>
<rscale>  1 0.12648198E+03</rscale>
<asrwt>0</asrwt>
<pdfrwt beam="1">  1       21 0.33298026E-02 0.12648198E+03</pdfrwt>
<pdfrwt beam="2">  1       21 0.43995679E-01 0.12648198E+03</pdfrwt>
<totfact> 0.26208731E+06</totfact>
</mgrwt>
</event>
<event>
 6    1  0.4261782E-002  0.1264876E+03  0.7546771E-02  0.1232763E+00
         21   -1    0    0  504  502  0.00000000000E+00  0.00000000000E+00  0.23533890423E+02  0.23533890423E+02  0.00000000000E+00 0.  1.
         21   -1    0    0  502  503 -0.00000000000E+00 -0.00000000000E+00 -0.33356719743E+03  0.33356719743E+03  0.00000000000E+00 0.  1.
         25    2    1    2    0    0  0.15351159937E+02  0.11740892349E+02 -0.31295988076E+03  0.33755443856E+03  0.12500242142E+03 0.  0.
          5    1    3    3  501    0 -0.40182562319E+02  0.23974536572E+02 -0.49851372722E+02  0.68370944711E+02  0.10000000000E+00 0. -1.
         -5    1    3    3    0  501  0.55533722256E+02 -0.12233644223E+02 -0.26310850804E+03  0.26918349385E+03  0.10000000000E+00 0. -1.
         21    1    1    2  504  503 -0.15351159937E+02 -0.11740892349E+02  0.29265737551E+01  0.19546649291E+02  0.00000000000E+00 0.  1.
<mgrwt>
<rscale>  1 0.12648760E+03</rscale>
<asrwt>0</asrwt>
<pdfrwt beam="1">  1       21 0.36205985E-02 0.12648760E+03</pdfrwt>
<pdfrwt beam="2">  1       21 0.51318031E-01 0.12648760E+03</pdfrwt>
<totfact> 0.16657510E+06</totfact>
</mgrwt>
</event>
<event>
 6    1  0.4261782E-002  0.1498943E+03  0.7546771E-02  0.1200603E+00
         21   -1    0    0  503  502  0.00000000000E+00  0.00000000000E+00  0.11917910971E+03  0.11917910971E+03  0.00000000000E+00 0.  1.
         21   -1    0    0  504  503 -0.00000000000E+00 -0.00000000000E+00 -0.17359584980E+03  0.17359584980E+03  0.00000000000E+00 0.  1.
         25    2    1    2    0    0  0.79065827071E+02 -0.24372088560E+02 -0.11608075363E+03  0.18958651890E+03  0.12499161202E+03 0.  0.
          5    1    3    3  501    0  0.31488140473E+02 -0.78700157539E+01  0.24235749822E+02  0.40507057507E+02  0.10000000000E+00 0.  1.
         -5    1    3    3    0  501  0.47577686598E+02 -0.16502072806E+02 -0.14031650345E+03  0.14907946139E+03  0.10000000000E+00 0.  1.
         21    1    1    2  504  502 -0.79065827071E+02  0.24372088560E+02  0.61664013532E+02  0.10318844061E+03  0.00000000000E+00 0.  1.
<mgrwt>
<rscale>  1 0.14989432E+03</rscale>
<asrwt>0</asrwt>
<pdfrwt beam="1">  1       21 0.18335248E-01 0.14989432E+03</pdfrwt>
<pdfrwt beam="2">  1       21 0.26707054E-01 0.14989432E+03</pdfrwt>
<totfact> 0.36511675E+05</totfact>
</mgrwt>
</event>
<event>
 6    1  0.4261782E-002  0.1305829E+03  0.7546771E-02  0.1226593E+00
         21   -1    0    0  503  502  0.00000000000E+00  0.00000000000E+00  0.85986751207E+02  0.85986751207E+02  0.00000000000E+00 0. -1.
         21   -1    0    0  504  503 -0.00000000000E+00 -0.00000000000E+00 -0.82418776941E+02  0.82418776941E+02  0.00000000000E+00 0. -1.
         25    2    1    2    0    0 -0.34033831652E+02 -0.16404773224E+02  0.23054488734E+01  0.13060324975E+03  0.12499790186E+03 0.  0.
          5    1    3    3  501    0 -0.65394229275E+02 -0.42879294584E+01 -0.39837330420E+02  0.76692988314E+02  0.10000000000E+00 0.  1.
         -5    1    3    3    0  501  0.31360397623E+02 -0.12116843766E+02  0.42142779294E+02  0.53910261440E+02  0.10000000000E+00 0.  1.
         21    1    1    2  504  502  0.34033831652E+02  0.16404773224E+02  0.12625253925E+01  0.37802278395E+02  0.00000000000E+00 0. -1.
<mgrwt>
<rscale>  1 0.13058290E+03</rscale>
<asrwt>0</asrwt>
<pdfrwt beam="1">  1       21 0.13228731E-01 0.13058290E+03</pdfrwt>
<pdfrwt beam="2">  1       21 0.12679812E-01 0.13058290E+03</pdfrwt>
<totfact> 0.25971931E+06</totfact>
</mgrwt>
</event>
<event>
 6    1  0.4261782E-002  0.1359494E+03  0.7546771E-02  0.1218886E+00
         21   -1    0    0  504  502  0.00000000000E+00  0.00000000000E+00  0.34440971379E+02  0.34440971379E+02  0.00000000000E+00 0.  1.
         21   -1    0    0  502  503 -0.00000000000E+00 -0.00000000000E+00 -0.30492003893E+03  0.30492003893E+03  0.00000000000E+00 0.  1.
         25    2    1    2    0    0 -0.52436420165E+02  0.10327230535E+02 -0.24491667380E+03  0.28011857768E+03  0.12500404234E+03 0.  0.
          5    1    3    3  501    0 -0.40403934553E+02  0.35222093384E+02 -0.26201284361E+02  0.59662308805E+02  0.10000000000E+00 0.  1.
         -5    1    3    3    0  501 -0.12032485612E+02 -0.24894862849E+02 -0.21871538944E+03  0.22045626887E+03  0.10000000000E+00 0.  1.
         21    1    1    2  504  503  0.52436420165E+02 -0.10327230535E+02 -0.25562393750E+02  0.59242432635E+02  0.00000000000E+00 0.  1.
<mgrwt>
<rscale>  1 0.13594940E+03</rscale>
<asrwt>0</asrwt>
<pdfrwt beam="1">  1       21 0.52986109E-02 0.13594940E+03</pdfrwt>
<pdfrwt beam="2">  1       21 0.46910776E-01 0.13594940E+03</pdfrwt>
<totfact> 0.10621731E+06</totfact>
</mgrwt>
</event>
<event>
 6    1  0.4261782E-002  0.1296945E+03  0.7546771E-02  0.1227910E+00
         21   -1    0    0  504  502  0.00000000000E+00  0.00000000000E+00  0.73201546336E+02  0.73201546336E+02  0.00000000000E+00 0.  1.
         21   -1    0    0  502  503 -0.00000000000E+00 -0.00000000000E+00 -0.12466982481E+03  0.12466982481E+03  0.00000000000E+00 0.  1.
         25    2    1    2    0    0 -0.33363072201E+02 -0.90793865680E+01 -0.80565460342E+02  0.15268093145E+03  0.12500057432E+03 0.  0.
          5    1    3    3  501    0 -0.29408419437E+02 -0.29230333526E+02  0.22783589760E+02  0.47311409768E+02  0.10000000000E+00 0. -1.
         -5    1    3    3    0  501 -0.39546527642E+01  0.20150946958E+02 -0.10334905010E+03  0.10536952168E+03  0.10000000000E+00 0. -1.
         21    1    1    2  504  503  0.33363072201E+02  0.90793865680E+01  0.29097181871E+02  0.45190439697E+02  0.00000000000E+00 0.  1.
<mgrwt>
<rscale>  1 0.12969454E+03</rscale>
<asrwt>0</asrwt>
<pdfrwt beam="1">  1       21 0.11261776E-01 0.12969454E+03</pdfrwt>
<pdfrwt beam="2">  1       21 0.19179973E-01 0.12969454E+03</pdfrwt>
<totfact> 0.16339666E+06</totfact>
</mgrwt>
</event>
<event>
 6    1  0.4261782E-002  0.1394614E+03  0.7546771E-02  0.1214056E+00
         21   -1    0    0  504  502  0.00000000000E+00  0.00000000000E+00  0.67010905331E+03  0.67010905331E+03  0.00000000000E+00 0. -1.
         21   -1    0    0  502  503 -0.00000000000E+00 -0.00000000000E+00 -0.48321690710E+02  0.48321690710E+02  0.00000000000E+00 0.  1.
         25    2    1    2    0    0 -0.43642142173E+02  0.43821698296E+02  0.57639956784E+02  0.15090341137E+03  0.12499798851E+03 0.  0.
          5    1    3    3  501    0 -0.80419138985E+02  0.19005070964E+01  0.49745545290E+02  0.94580543023E+02  0.10000000000E+00 0. -1.
         -5    1    3    3    0  501  0.36776996812E+02  0.41921191200E+02  0.78944114938E+01  0.56322868348E+02  0.10000000000E+00 0. -1.
         21    1    1    2  504  503  0.43642142173E+02 -0.43821698296E+02  0.56414740582E+03  0.56752733265E+03  0.00000000000E+00 0. -1.
<mgrwt>
<rscale>  1 0.13946137E+03</rscale>
<asrwt>0</asrwt>
<pdfrwt beam="1">  1       21 0.10309369E+00 0.13946137E+03</pdfrwt>
<pdfrwt beam="2">  1       21 0.74341067E-02 0.13946137E+03</pdfrwt>
<totfact> 0.10638940E+05</totfact>
</mgrwt>
</event>
<event>
 6    1  0.4261782E-002  0.1280303E+03  0.7546771E-02  0.1230408E+00
         21   -1    0    0  503  502  0.00000000000E+00  0.00000000000E+00  0.79872581724E+03  0.79872581724E+03  0.00000000000E+00 0.  1.
         21   -1    0    0  504  503 -0.00000000000E+00 -0.00000000000E+00 -0.17088222693E+03  0.17088222693E+03  0.00000000000E+00 0. -1.
         25    2    1    2    0    0 -0.27461847817E+02  0.44836835425E+01 -0.14661619017E+03  0.19464855614E+03  0.12496998313E+03 0.  0.
          5    1    3    3  501    0  0.47541657674E+02  0.19761194284E+02 -0.59406285695E+02  0.78611899825E+02  0.10000000000E+00 0.  1.
         -5    1    3    3    0  501 -0.75003505491E+02 -0.15277510742E+02 -0.87209904479E+02  0.11603665632E+03  0.10000000000E+00 0.  1.
         21    1    1    2  504  502  0.27461847817E+02 -0.44836835425E+01  0.77445978048E+03  0.77495948802E+03  0.00000000000E+00 0.  1.
<mgrwt>
<rscale>  1 0.12803028E+03</rscale>
<asrwt>0</asrwt>
<pdfrwt beam="1">  1       21 0.12288089E+00 0.12803028E+03</pdfrwt>
<pdfrwt beam="2">  1       21 0.26289574E-01 0.12803028E+03</pdfrwt>
<totfact> 0.72435515E+03</totfact>
</mgrwt>
</event>
<event>
 6    1  0.4261782E-002  0.1271307E+03  0.7546771E-02  0.1231776E+00
         21   -1    0    0  504  502  0.00000000000E+00  0.00000000000E+00  0.74003107292E+02  0.74003107292E+02  0.00000000000E+00 0.  1.
         21   -1    0    0  502  503 -0.00000000000E+00 -0.00000000000E+00 -0.14616136563E+03  0.14616136563E+03  0.00000000000E+00 0.  1.
         25    2    1    2    0    0 -0.32359711542E+01  0.22714401319E+02 -0.11508941513E+03  0.17148696518E+03  0.12504315341E+03 0.  0.
          5    1    3    3  501    0 -0.15738732978E+02  0.26012515683E+02 -0.14008412733E+03  0.14334549668E+03  0.10000000000E+00 0. -1.
         -5    1    3    3    0  501  0.12502761824E+02 -0.32981143642E+01  0.24994712198E+02  0.28141468502E+02  0.10000000000E+00 0. -1.
         21    1    1    2  504  503  0.32359711542E+01 -0.22714401319E+02  0.42931156793E+02  0.48677507744E+02  0.00000000000E+00 0.  1.
<mgrwt>
<rscale>  1 0.12713066E+03</rscale>
<asrwt>0</asrwt>
<pdfrwt beam="1">  1       21 0.11385093E-01 0.12713066E+03</pdfrwt>
<pdfrwt beam="2">  1       21 0.22486364E-01 0.12713066E+03</pdfrwt>
<totfact> 0.11928322E+06</totfact>
</mgrwt>
</event>
<event>
 6    1  0.4261782E-002  0.1317621E+03  0.7546771E-02  0.1224864E+00
         21   -1    0    0  504  502  0.00000000000E+00  0.00000000000E+00  0.11041348898E+03  0.11041348898E+03  0.00000000000E+00 0.  1.
         21   -1    0    0  502  503 -0.00000000000E+00 -0.00000000000E+00 -0.76327165116E+02  0.76327165116E+02  0.00000000000E+00 0.  1.
         25    2    1    2    0    0  0.41033843913E+02  0.71276778716E+01 -0.17847451185E+01  0.13177417587E+03  0.12500667172E+03 0.  0.
          5    1    3    3  501    0  0.11133392585E+02 -0.58488401818E+02  0.19408915776E+01  0.59570316751E+02  0.10000000000E+00 0. -1.
         -5    1    3    3    0  501  0.29900451328E+02  0.65616079690E+02 -0.37256366962E+01  0.72203859123E+02  0.10000000000E+00 0. -1.
         21    1    1    2  504  503 -0.41033843913E+02 -0.71276778716E+01  0.35871068978E+02  0.54966478218E+02  0.00000000000E+00 0.  1.
<mgrwt>
<rscale>  1 0.13176209E+03</rscale>
<asrwt>0</asrwt>
<pdfrwt beam="1">  1       21 0.16986691E-01 0.13176209E+03</pdfrwt>
<pdfrwt beam="2">  1       21 0.11742641E-01 0.13176209E+03</pdfrwt>
<totfact> 0.18964438E+06</totfact>
</mgrwt>
</event>
<event>
 6    1  0.4261782E-002  0.1291176E+03  0.7546771E-02  0.1228771E+00
         21   -1    0    0  504  502  0.00000000000E+00  0.00000000000E+00  0.37674977577E+03  0.37674977577E+03  0.00000000000E+00 0. -1.
         21   -1    0    0  502  503 -0.00000000000E+00 -0.00000000000E+00 -0.17311062127E+02  0.17311062127E+02  0.00000000000E+00 0. -1.
         25    2    1    2    0    0 -0.28816197940E+02  0.14694325546E+02  0.29139908487E+03  0.31872367873E+03  0.12500024103E+03 0.  0.
          5    1    3    3  501    0 -0.23739601447E+00  0.28276756904E+02  0.28235687767E+01  0.28418548142E+02  0.10000000000E+00 0.  1.
         -5    1    3    3    0  501 -0.28578801926E+02 -0.13582431357E+02  0.28857551609E+03  0.29030513059E+03  0.10000000000E+00 0.  1.
         21    1    1    2  504  503  0.28816197940E+02 -0.14694325546E+02  0.68039628780E+02  0.75337159168E+02  0.00000000000E+00 0. -1.
<mgrwt>
<rscale>  1 0.12911761E+03</rscale>
<asrwt>0</asrwt>
<pdfrwt beam="1">  1       21 0.57961498E-01 0.12911761E+03</pdfrwt>
<pdfrwt beam="2">  1       21 0.26632406E-02 0.12911761E+03</pdfrwt>
<totfact> 0.21395316E+06</totfact>
</mgrwt>
</event>
<event>
 6    1  0.4261782E-002  0.1268934E+03  0.7546771E-02  0.1232140E+00
         21   -1    0    0  503  502  0.00000000000E+00  0.00000000000E+00  0.13290903750E+04  0.13290903750E+04  0.00000000000E+00 0. -1.
         21   -1    0    0  504  503 -0.00000000000E+00 -0.00000000000E+00 -0.11394437117E+02  0.11394437117E+02  0.00000000000E+00 0.  1.
         25    2    1    2    0    0 -0.17707599643E+01  0.21683383077E+02  0.34582742024E+03  0.36837282254E+03  0.12501450757E+03 0.  0.
          5    1    3    3  501    0  0.22047038482E+01  0.64768042695E+02  0.10278725930E+03  0.12151127827E+03  0.10000000000E+00 0. -1.
         -5    1    3    3    0  501 -0.39754638124E+01 -0.43084659619E+02  0.24304016095E+03  0.24686154427E+03  0.10000000000E+00 0. -1.
         21    1    1    2  504  502  0.17707599643E+01 -0.21683383077E+02  0.97186851768E+03  0.97211198961E+03  0.00000000000E+00 0. -1.
<mgrwt>
<rscale>  1 0.12689339E+03</rscale>
<asrwt>0</asrwt>
<pdfrwt beam="1">  1       21 0.20447532E+00 0.12689339E+03</pdfrwt>
<pdfrwt beam="2">  1       21 0.17529914E-02 0.12689339E+03</pdfrwt>
<totfact> 0.19857277E+05</totfact>
</mgrwt>
</event>
<event>
 6    1  0.4261782E-002  0.1264083E+03  0.7546771E-02  0.1232885E+00
         21   -1    0    0  503  502  0.00000000000E+00  0.00000000000E+00  0.85011401134E+03  0.85011401134E+03  0.00000000000E+00 0. -1.
         21   -1    0    0  504  503 -0.00000000000E+00 -0.00000000000E+00 -0.82917228578E+01  0.82917228578E+01  0.00000000000E+00 0. -1.
         25    2    1    2    0    0 -0.18515832944E+02  0.32720379228E+01  0.48872172702E+03  0.50480490161E+03  0.12500207969E+03 0.  0.
          5    1    3    3  501    0  0.21626415120E+02 -0.41022754412E+02  0.86330199734E+02  0.97997355049E+02  0.10000000000E+00 0. -1.
         -5    1    3    3    0  501 -0.40142248063E+02  0.44294792335E+02  0.40239152728E+03  0.40680754656E+03  0.10000000000E+00 0. -1.
         21    1    1    2  504  502  0.18515832944E+02 -0.32720379228E+01  0.35310056147E+03  0.35360083259E+03  0.00000000000E+00 0. -1.
<mgrwt>
<rscale>  1 0.12640832E+03</rscale>
<asrwt>0</asrwt>
<pdfrwt beam="1">  1       21 0.13078670E+00 0.12640832E+03</pdfrwt>
<pdfrwt beam="2">  1       21 0.12756503E-02 0.12640832E+03</pdfrwt>
<totfact> 0.10920007E+06</totfact>
</mgrwt>
</event>
<event>
 6    1  0.4261782E-002  0.1291404E+03  0.7546771E-02  0.1228737E+00
         21   -1    0    0  503  502  0.00000000000E+00  0.00000000000E+00  0.73439699753E+01  0.73439699753E+01  0.00000000000E+00 0.  1.
         21   -1    0    0  504  503 -0.00000000000E+00 -0.00000000000E+00 -0.93076937240E+03  0.93076937240E+03  0.00000000000E+00 0.  1.
         25    2    1    2    0    0 -0.31787171589E+02  0.61343859644E+01 -0.80713388596E+03  0.81739974840E+03  0.12501673428E+03 0.  0.
          5    1    3    3  501    0 -0.18915028885E+02  0.51586782586E+02 -0.17316056963E+03  0.18166883973E+03  0.10000000000E+00 0.  1.
         -5    1    3    3    0  501 -0.12872142704E+02 -0.45452396621E+02 -0.63397331633E+03  0.63573090866E+03  0.10000000000E+00 0.  1.
         21    1    1    2  504  502  0.31787171589E+02 -0.61343859644E+01 -0.11629151647E+03  0.12071359398E+03  0.00000000000E+00 0.  1.
<mgrwt>
<rscale>  1 0.12914038E+03</rscale>
<asrwt>0</asrwt>
<pdfrwt beam="1">  1       21 0.11298408E-02 0.12914038E+03</pdfrwt>
<pdfrwt beam="2">  1       21 0.14319538E+00 0.12914038E+03</pdfrwt>
<totfact> 0.10528542E+06</totfact>
</mgrwt>
</event>
<event>
 6    1  0.4261782E-002  0.1454947E+03  0.7546771E-02  0.1206121E+00
         21   -1    0    0  503  502  0.00000000000E+00  0.00000000000E+00  0.57898164870E+02  0.57898164870E+02  0.00000000000E+00 0. -1.
         21   -1    0    0  504  503 -0.00000000000E+00 -0.00000000000E+00 -0.11380385331E+04  0.11380385331E+04  0.00000000000E+00 0. -1.
         25    2    1    2    0    0 -0.52534743648E+02 -0.52763712844E+02 -0.11071969963E+04  0.11167156792E+04  0.12499924348E+03 0.  0.
          5    1    3    3  501    0 -0.72531263185E+02 -0.54852667880E+01 -0.33459129256E+03  0.34240650599E+03  0.10000000000E+00 0.  1.
         -5    1    3    3    0  501  0.19996519537E+02 -0.47278446056E+02 -0.77260570376E+03  0.77430917322E+03  0.10000000000E+00 0.  1.
         21    1    1    2  504  502  0.52534743648E+02  0.52763712844E+02  0.27056628114E+02  0.79221018727E+02  0.00000000000E+00 0. -1.
<mgrwt>
<rscale>  1 0.14549474E+03</rscale>
<asrwt>0</asrwt>
<pdfrwt beam="1">  1       21 0.89074103E-02 0.14549474E+03</pdfrwt>
<pdfrwt beam="2">  1       21 0.17508285E+00 0.14549474E+03</pdfrwt>
<totfact> 0.20281548E+04</totfact>
</mgrwt>
</event>
<event>
 6    1  0.4261782E-002  0.1316721E+03  0.7546771E-02  0.1224996E+00
         21   -1    0    0  503  502  0.00000000000E+00  0.00000000000E+00  0.42992978214E+02  0.42992978214E+02  0.00000000000E+00 0.  1.
         21   -1    0    0  504  503 -0.00000000000E+00 -0.00000000000E+00 -0.31330725635E+03  0.31330725635E+03  0.00000000000E+00 0.  1.
         25    2    1    2    0    0 -0.19760746048E+01  0.41342327637E+02 -0.28372711130E+03  0.31279164898E+03  0.12499779623E+03 0.  0.
          5    1    3    3  501    0 -0.45774968698E+02  0.71001206175E+00 -0.22282031361E+03  0.22747473274E+03  0.10000000000E+00 0.  1.
         -5    1    3    3    0  501  0.43798894093E+02  0.40632315576E+02 -0.60906797688E+02  0.85316916244E+02  0.10000000000E+00 0.  1.
         21    1    1    2  504  502  0.19760746048E+01 -0.41342327637E+02  0.13412833168E+02  0.43508585577E+02  0.00000000000E+00 0.  1.
<mgrwt>
<rscale>  1 0.13167210E+03</rscale>
<asrwt>0</asrwt>
<pdfrwt beam="1">  1       21 0.66143042E-02 0.13167210E+03</pdfrwt>
<pdfrwt beam="2">  1       21 0.48201118E-01 0.13167210E+03</pdfrwt>
<totfact> 0.68970735E+05</totfact>
</mgrwt>
</event>
<event>
 6    1  0.4261782E-002  0.1262187E+03  0.7546771E-02  0.1233177E+00
         21   -1    0    0  504  502  0.00000000000E+00  0.00000000000E+00  0.27736837760E+03  0.27736837760E+03  0.00000000000E+00 0. -1.
         21   -1    0    0  502  503 -0.00000000000E+00 -0.00000000000E+00 -0.27461377022E+02  0.27461377022E+02  0.00000000000E+00 0. -1.
         25    2    1    2    0    0 -0.17212350878E+02 -0.29917442541E+01  0.12135073307E+03  0.17509182851E+03  0.12500372970E+03 0.  0.
          5    1    3    3  501    0  0.15695486102E+02 -0.58423643424E+02  0.46457390401E+02  0.76275615486E+02  0.10000000000E+00 0. -1.
         -5    1    3    3    0  501 -0.32907836979E+02  0.55431899169E+02  0.74893342672E+02  0.98816213026E+02  0.10000000000E+00 0. -1.
         21    1    1    2  504  503  0.17212350878E+02  0.29917442541E+01  0.12855626751E+03  0.12973792611E+03  0.00000000000E+00 0. -1.
<mgrwt>
<rscale>  1 0.12621865E+03</rscale>
<asrwt>0</asrwt>
<pdfrwt beam="1">  1       21 0.42672056E-01 0.12621865E+03</pdfrwt>
<pdfrwt beam="2">  1       21 0.42248274E-02 0.12621865E+03</pdfrwt>
<totfact> 0.18796119E+06</totfact>
</mgrwt>
</event>
<event>
 6    1  0.4261782E-002  0.1400698E+03  0.7546771E-02  0.1213235E+00
         21   -1    0    0  504  502  0.00000000000E+00  0.00000000000E+00  0.94729813695E+02  0.94729813695E+02  0.00000000000E+00 0.  1.
         21   -1    0    0  502  503 -0.00000000000E+00 -0.00000000000E+00 -0.10908605295E+03  0.10908605295E+03  0.00000000000E+00 0.  1.
         25    2    1    2    0    0  0.12942734920E+02 -0.61866020428E+02 -0.81539866824E+01  0.14030691603E+03  0.12499849726E+03 0.  0.
          5    1    3    3  501    0  0.30303264676E+02 -0.17406817695E+02 -0.60250653330E+02  0.69652253222E+02  0.10000000000E+00 0.  1.
         -5    1    3    3    0  501 -0.17360529756E+02 -0.44459202733E+02  0.52096666647E+02  0.70654662810E+02  0.10000000000E+00 0.  1.
         21    1    1    2  504  503 -0.12942734920E+02  0.61866020428E+02 -0.62022525718E+01  0.63508950612E+02  0.00000000000E+00 0.  1.
<mgrwt>
<rscale>  1 0.14006978E+03</rscale>
<asrwt>0</asrwt>
<pdfrwt beam="1">  1       21 0.14573817E-01 0.14006978E+03</pdfrwt>
<pdfrwt beam="2">  1       21 0.16782470E-01 0.14006978E+03</pdfrwt>
<totfact> 0.13196656E+06</totfact>
</mgrwt>
</event>
<event>
 6    1  0.4261782E-002  0.1275061E+03  0.7546771E-02  0.1231204E+00
         21   -1    0    0  503  502  0.00000000000E+00  0.00000000000E+00  0.18625223580E+03  0.18625223580E+03  0.00000000000E+00 0. -1.
         21   -1    0    0  504  503 -0.00000000000E+00 -0.00000000000E+00 -0.99331792139E+02  0.99331792139E+02  0.00000000000E+00 0. -1.
         25    2    1    2    0    0 -0.24831401661E+02  0.35755180918E+01 -0.56875540537E+02  0.13961599065E+03  0.12501365884E+03 0.  0.
          5    1    3    3  501    0  0.25600603675E+02 -0.23151941809E+02  0.22974808688E+02  0.41463901798E+02  0.10000000000E+00 0. -1.
         -5    1    3    3    0  501 -0.50432005336E+02  0.26727459901E+02 -0.79850349225E+02  0.98152088853E+02  0.10000000000E+00 0. -1.
         21    1    1    2  504  502  0.24831401661E+02 -0.35755180918E+01  0.14379598419E+03  0.14596803728E+03  0.00000000000E+00 0. -1.
<mgrwt>
<rscale>  1 0.12750607E+03</rscale>
<asrwt>0</asrwt>
<pdfrwt beam="1">  1       21 0.28654190E-01 0.12750607E+03</pdfrwt>
<pdfrwt beam="2">  1       21 0.15281814E-01 0.12750607E+03</pdfrwt>
<totfact> 0.44593696E+05</totfact>
</mgrwt>
</event>
<event>
 6    1  0.4261782E-002  0.1380106E+03  0.7546771E-02  0.1216031E+00
         21   -1    0    0  504  502  0.00000000000E+00  0.00000000000E+00  0.13710040622E+03  0.13710040622E+03  0.00000000000E+00 0. -1.
         21   -1    0    0  502  503 -0.00000000000E+00 -0.00000000000E+00 -0.71510998297E+02  0.71510998297E+02  0.00000000000E+00 0. -1.
         25    2    1    2    0    0 -0.29368714524E+02 -0.50562482930E+02  0.57786150079E+02  0.14962007545E+03  0.12501136653E+03 0.  0.
          5    1    3    3  501    0 -0.19418355468E+02 -0.10393558826E+02 -0.38758753921E+02  0.44579699412E+02  0.10000000000E+00 0. -1.
         -5    1    3    3    0  501 -0.99503590568E+01 -0.40168924105E+02  0.96544904000E+02  0.10504037603E+03  0.10000000000E+00 0. -1.
         21    1    1    2  504  503  0.29368714524E+02  0.50562482930E+02  0.78032578462E+01  0.58991329074E+02  0.00000000000E+00 0. -1.
<mgrwt>
<rscale>  1 0.13801061E+03</rscale>
<asrwt>0</asrwt>
<pdfrwt beam="1">  1       21 0.21092370E-01 0.13801061E+03</pdfrwt>
<pdfrwt beam="2">  1       21 0.11001692E-01 0.13801061E+03</pdfrwt>
<totfact> 0.14295246E+06</totfact>
</mgrwt>
</event>
<event>
 6    1  0.4261782E-002  0.1594168E+03  0.7546771E-02  0.1189357E+00
         21   -1    0    0  503  502  0.00000000000E+00  0.00000000000E+00  0.18471060416E+02  0.18471060416E+02  0.00000000000E+00 0.  1.
         21   -1    0    0  504  503 -0.00000000000E+00 -0.00000000000E+00 -0.92452114126E+03  0.92452114126E+03  0.00000000000E+00 0.  1.
         25    2    1    2    0    0  0.10438830305E+02 -0.98385809643E+02 -0.62597847986E+03  0.64595880559E+03  0.12499993817E+03 0.  0.
          5    1    3    3  501    0 -0.39312940745E+02 -0.96428446061E+02 -0.33699688309E+03  0.35271923924E+03  0.10000000000E+00 0. -1.
         -5    1    3    3    0  501  0.49751771050E+02 -0.19573635820E+01 -0.28898159677E+03  0.29323956634E+03  0.10000000000E+00 0. -1.
         21    1    1    2  504  502 -0.10438830305E+02  0.98385809643E+02 -0.28007160098E+03  0.29703339609E+03  0.00000000000E+00 0.  1.
<mgrwt>
<rscale>  1 0.15941682E+03</rscale>
<asrwt>0</asrwt>
<pdfrwt beam="1">  1       21 0.28417022E-02 0.15941682E+03</pdfrwt>
<pdfrwt beam="2">  1       21 0.14223399E+00 0.15941682E+03</pdfrwt>
<totfact> 0.24064277E+05</totfact>
</mgrwt>
</event>
<event>
 6    1  0.4261782E-002  0.1304106E+03  0.7546771E-02  0.1226848E+00
         21   -1    0    0  503  502  0.00000000000E+00  0.00000000000E+00  0.17238241100E+04  0.17238241100E+04  0.00000000000E+00 0. -1.
         21   -1    0    0  504  503 -0.00000000000E+00 -0.00000000000E+00 -0.41435464141E+01  0.41435464141E+01  0.00000000000E+00 0. -1.
         25    2    1    2    0    0 -0.30007795133E+02  0.21907749230E+02  0.12354520164E+04  0.12423158231E+04  0.12500600934E+03 0.  0.
          5    1    3    3  501    0 -0.28071204481E+02  0.68848476167E+02  0.51571401478E+03  0.52104612103E+03  0.10000000000E+00 0.  1.
         -5    1    3    3    0  501 -0.19365906520E+01 -0.46940726937E+02  0.71973800158E+03  0.72126970208E+03  0.10000000000E+00 0.  1.
         21    1    1    2  504  502  0.30007795133E+02 -0.21907749230E+02  0.48422854721E+03  0.48565183329E+03  0.00000000000E+00 0. -1.
<mgrwt>
<rscale>  1 0.13041058E+03</rscale>
<asrwt>0</asrwt>
<pdfrwt beam="1">  1       21 0.26520314E+00 0.13041058E+03</pdfrwt>
<pdfrwt beam="2">  1       21 0.63747006E-03 0.13041058E+03</pdfrwt>
<totfact> 0.43015524E+05</totfact>
</mgrwt>
</event>
<event>
 6    1  0.4261782E-002  0.1274590E+03  0.7546771E-02  0.1231275E+00
         21   -1    0    0  503  502  0.00000000000E+00  0.00000000000E+00  0.51699288860E+03  0.51699288860E+03  0.00000000000E+00 0.  1.
         21   -1    0    0  504  503 -0.00000000000E+00 -0.00000000000E+00 -0.65562836983E+02  0.65562836983E+02  0.00000000000E+00 0. -1.
         25    2    1    2    0    0 -0.34658067607E+01 -0.24691150835E+02 -0.29489490702E+01  0.12749315734E+03  0.12499657645E+03 0.  0.
          5    1    3    3  501    0  0.31541859588E+02  0.24238452340E+02  0.37763080057E+02  0.54849354541E+02  0.10000000000E+00 0.  1.
         -5    1    3    3    0  501 -0.35007666348E+02 -0.48929603176E+02 -0.40712029128E+02  0.72643802804E+02  0.10000000000E+00 0.  1.
         21    1    1    2  504  502  0.34658067607E+01  0.24691150835E+02  0.45437900069E+03  0.45506256824E+03  0.00000000000E+00 0.  1.
<mgrwt>
<rscale>  1 0.12745905E+03</rscale>
<asrwt>0</asrwt>
<pdfrwt beam="1">  1       21 0.79537365E-01 0.12745905E+03</pdfrwt>
<pdfrwt beam="2">  1       21 0.10086591E-01 0.12745905E+03</pdfrwt>
<totfact> 0.11420152E+05</totfact>
</mgrwt>
</event>
<event>
 6    1  0.4261782E-002  0.1289104E+03  0.7546771E-02  0.1229082E+00
         21   -1    0    0  504  502  0.00000000000E+00  0.00000000000E+00  0.37563753337E+02  0.37563753337E+02  0.00000000000E+00 0. -1.
         21   -1    0    0  502  503 -0.00000000000E+00 -0.00000000000E+00 -0.21285268533E+03  0.21285268533E+03  0.00000000000E+00 0.  1.
         25    2    1    2    0    0  0.14606601434E+01  0.31406058484E+02 -0.17695607978E+03  0.21893226139E+03  0.12501762622E+03 0.  0.
          5    1    3    3  501    0 -0.10019145388E+02 -0.23701825180E+02 -0.15717388317E+03  0.15926644136E+03  0.10000000000E+00 0. -1.
         -5    1    3    3    0  501  0.11479805531E+02  0.55107883664E+02 -0.19782196614E+02  0.59665820030E+02  0.10000000000E+00 0. -1.
         21    1    1    2  504  503 -0.14606601434E+01 -0.31406058484E+02  0.16671477883E+01  0.31484177285E+02  0.00000000000E+00 0. -1.
<mgrwt>
<rscale>  1 0.12891036E+03</rscale>
<asrwt>0</asrwt>
<pdfrwt beam="1">  1       21 0.57790389E-02 0.12891036E+03</pdfrwt>
<pdfrwt beam="2">  1       21 0.32746567E-01 0.12891036E+03</pdfrwt>
<totfact> 0.18781760E+06</totfact>
</mgrwt>
</event>
<event>
 6    1  0.4261782E-002  0.1285800E+03  0.7546771E-02  0.1229578E+00
         21   -1    0    0  503  502  0.00000000000E+00  0.00000000000E+00  0.13041344970E+03  0.13041344970E+03  0.00000000000E+00 0.  1.
         21   -1    0    0  504  503 -0.00000000000E+00 -0.00000000000E+00 -0.48313885556E+02  0.48313885556E+02  0.00000000000E+00 0.  1.
         25    2    1    2    0    0 -0.25429949651E+02 -0.16093066018E+02  0.68735151202E+02  0.14579897899E+03  0.12500860830E+03 0.  0.
          5    1    3    3  501    0 -0.20303643900E+02  0.44326594948E+02 -0.64815487260E+01  0.49184402500E+02  0.10000000000E+00 0.  1.
         -5    1    3    3    0  501 -0.51263057506E+01 -0.60419660966E+02  0.75216699928E+02  0.96614576488E+02  0.10000000000E+00 0.  1.
         21    1    1    2  504  502  0.25429949651E+02  0.16093066018E+02  0.13364412939E+02  0.32928356265E+02  0.00000000000E+00 0.  1.
<mgrwt>
<rscale>  1 0.12858002E+03</rscale>
<asrwt>0</asrwt>
<pdfrwt beam="1">  1       21 0.20063608E-01 0.12858002E+03</pdfrwt>
<pdfrwt beam="2">  1       21 0.74329055E-02 0.12858002E+03</pdfrwt>
<totfact> 0.30966024E+06</totfact>
</mgrwt>
</event>
<event>
 6    1  0.4261782E-002  0.1260698E+03  0.7546771E-02  0.1233407E+00
         21   -1    0    0  503  502  0.00000000000E+00  0.00000000000E+00  0.31900751505E+03  0.31900751505E+03  0.00000000000E+00 0. -1.
         21   -1    0    0  504  503 -0.00000000000E+00 -0.00000000000E+00 -0.16232545423E+02  0.16232545423E+02  0.00000000000E+00 0. -1.
         25    2    1    2    0    0 -0.16376807316E+02 -0.74842060350E+00  0.25018001503E+03  0.28014932441E+03  0.12499937637E+03 0.  0.
          5    1    3    3  501    0 -0.77356188912E+01  0.44914620074E+02  0.28730632078E+02  0.53875988303E+02  0.10000000000E+00 0.  1.
         -5    1    3    3    0  501 -0.86411884244E+01 -0.45663040678E+02  0.22144938295E+03  0.22627333610E+03  0.10000000000E+00 0.  1.
         21    1    1    2  504  502  0.16376807316E+02  0.74842060350E+00  0.52594954597E+02  0.55090736066E+02  0.00000000000E+00 0.  1.
<mgrwt>
<rscale>  1 0.12606984E+03</rscale>
<asrwt>0</asrwt>
<pdfrwt beam="1">  1       21 0.49078075E-01 0.12606984E+03</pdfrwt>
<pdfrwt beam="2">  1       21 0.24973149E-02 0.12606984E+03</pdfrwt>
<totfact> 0.33574404E+06</totfact>
</mgrwt>
</event>
<event>
 6    1  0.4261782E-002  0.1422028E+03  0.7546771E-02  0.1210395E+00
         21   -1    0    0  503  502  0.00000000000E+00  0.00000000000E+00  0.16065041372E+04  0.16065041372E+04  0.00000000000E+00 0. -1.
         21   -1    0    0  504  503 -0.00000000000E+00 -0.00000000000E+00 -0.36334346459E+02  0.36334346459E+02  0.00000000000E+00 0. -1.
         25    2    1    2    0    0  0.63778868719E+02 -0.22980236542E+02  0.10665714710E+03  0.17775654279E+03  0.12500322440E+03 0.  0.
          5    1    3    3  501    0  0.84737942491E+02 -0.55809212410E+02  0.89099195465E+02  0.13503282460E+03  0.10000000000E+00 0.  1.
         -5    1    3    3    0  501 -0.20959073772E+02  0.32828975868E+02  0.17557951632E+02  0.42723718184E+02  0.10000000000E+00 0.  1.
         21    1    1    2  504  502 -0.63778868719E+02  0.22980236542E+02  0.14635126437E+04  0.14650819409E+04  0.00000000000E+00 0. -1.
<mgrwt>
<rscale>  1 0.14220282E+03</rscale>
<asrwt>0</asrwt>
<pdfrwt beam="1">  1       21 0.24715443E+00 0.14220282E+03</pdfrwt>
<pdfrwt beam="2">  1       21 0.55899007E-02 0.14220282E+03</pdfrwt>
<totfact> 0.16165233E+04</totfact>
</mgrwt>
</event>
<event>
 6    1  0.4261782E-002  0.1264032E+03  0.7546771E-02  0.1232892E+00
         21   -1    0    0  504  502  0.00000000000E+00  0.00000000000E+00  0.50929561191E+03  0.50929561191E+03  0.00000000000E+00 0. -1.
         21   -1    0    0  502  503 -0.00000000000E+00 -0.00000000000E+00 -0.15417318203E+02  0.15417318203E+02  0.00000000000E+00 0. -1.
         25    2    1    2    0    0 -0.65074425307E+01 -0.17637803307E+02  0.25026553054E+03  0.28037583246E+03  0.12499733091E+03 0.  0.
          5    1    3    3  501    0  0.24478703661E+01  0.38148052958E+02  0.19730669248E+02  0.43018313807E+02  0.10000000000E+00 0.  1.
         -5    1    3    3    0  501 -0.89553128968E+01 -0.55785856265E+02  0.23053486129E+03  0.23735751865E+03  0.10000000000E+00 0.  1.
         21    1    1    2  504  503  0.65074425307E+01  0.17637803307E+02  0.24361276317E+03  0.24433709766E+03  0.00000000000E+00 0. -1.
<mgrwt>
<rscale>  1 0.12640321E+03</rscale>
<asrwt>0</asrwt>
<pdfrwt beam="1">  1       21 0.78353158E-01 0.12640321E+03</pdfrwt>
<pdfrwt beam="2">  1       21 0.23718955E-02 0.12640321E+03</pdfrwt>
<totfact> 0.13441957E+06</totfact>
</mgrwt>
</event>
<event>
 6    1  0.4261782E-002  0.1291819E+03  0.7546771E-02  0.1228675E+00
         21   -1    0    0  503  502  0.00000000000E+00  0.00000000000E+00  0.17127267800E+02  0.17127267800E+02  0.00000000000E+00 0. -1.
         21   -1    0    0  504  503 -0.00000000000E+00 -0.00000000000E+00 -0.98685540323E+03  0.98685540323E+03  0.00000000000E+00 0. -1.
         25    2    1    2    0    0  0.29808773956E+02 -0.13010816420E+02 -0.96189161058E+03  0.97052739535E+03  0.12502043943E+03 0.  0.
          5    1    3    3  501    0  0.30251788224E+02 -0.51031067869E+02 -0.22607475637E+03  0.23372878737E+03  0.10000000000E+00 0. -1.
         -5    1    3    3    0  501 -0.44301426789E+00  0.38020251449E+02 -0.73581685421E+03  0.73679860798E+03  0.10000000000E+00 0. -1.
         21    1    1    2  504  502 -0.29808773956E+02  0.13010816420E+02 -0.78365248437E+01  0.33455275672E+02  0.00000000000E+00 0. -1.
<mgrwt>
<rscale>  1 0.12918187E+03</rscale>
<asrwt>0</asrwt>
<pdfrwt beam="1">  1       21 0.26349633E-02 0.12918187E+03</pdfrwt>
<pdfrwt beam="2">  1       21 0.15182396E+00 0.12918187E+03</pdfrwt>
<totfact> 0.23251449E+05</totfact>
</mgrwt>
</event>
<event>
 6    1  0.4261782E-002  0.1263950E+03  0.7546771E-02  0.1232905E+00
         21   -1    0    0  504  502  0.00000000000E+00  0.00000000000E+00  0.64482497416E+02  0.64482497416E+02  0.00000000000E+00 0. -1.
         21   -1    0    0  502  503 -0.00000000000E+00 -0.00000000000E+00 -0.14452125094E+03  0.14452125094E+03  0.00000000000E+00 0. -1.
         25    2    1    2    0    0  0.59292859548E+01 -0.17732432891E+02 -0.11401614357E+03  0.17022155343E+03  0.12500440252E+03 0.  0.
          5    1    3    3  501    0  0.51966453308E+02 -0.47804133168E+02 -0.73476585344E+02  0.10190469082E+03  0.10000000000E+00 0. -1.
         -5    1    3    3    0  501 -0.46037167353E+02  0.30071700277E+02 -0.40539558231E+02  0.68316862611E+02  0.10000000000E+00 0. -1.
         21    1    1    2  504  503 -0.59292859548E+01  0.17732432891E+02  0.33977390054E+02  0.38782194923E+02  0.00000000000E+00 0. -1.
<mgrwt>
<rscale>  1 0.12639500E+03</rscale>
<asrwt>0</asrwt>
<pdfrwt beam="1">  1       21 0.99203845E-02 0.12639500E+03</pdfrwt>
<pdfrwt beam="2">  1       21 0.22234038E-01 0.12639500E+03</pdfrwt>
<totfact> 0.15513062E+06</totfact>
</mgrwt>
</event>
<event>
 6    1  0.4261782E-002  0.1261270E+03  0.7546771E-02  0.1233318E+00
         21   -1    0    0  503  502  0.00000000000E+00  0.00000000000E+00  0.81284609915E+02  0.81284609915E+02  0.00000000000E+00 0.  1.
         21   -1    0    0  504  503 -0.00000000000E+00 -0.00000000000E+00 -0.32254178701E+03  0.32254178701E+03  0.00000000000E+00 0. -1.
         25    2    1    2    0    0 -0.10445275310E+02 -0.13226952470E+02 -0.30914160038E+03  0.33388105417E+03  0.12499589272E+03 0.  0.
          5    1    3    3  501    0  0.17208712809E+01  0.39594261317E+02 -0.30481319307E+02  0.49997877494E+02  0.10000000000E+00 0.  1.
         -5    1    3    3    0  501 -0.12166146591E+02 -0.52821213787E+02 -0.27866028108E+03  0.28388317667E+03  0.10000000000E+00 0.  1.
         21    1    1    2  504  502  0.10445275310E+02  0.13226952470E+02  0.67884423290E+02  0.69945342756E+02  0.00000000000E+00 0.  1.
<mgrwt>
<rscale>  1 0.12612704E+03</rscale>
<asrwt>0</asrwt>
<pdfrwt beam="1">  1       21 0.12505324E-01 0.12612704E+03</pdfrwt>
<pdfrwt beam="2">  1       21 0.49621815E-01 0.12612704E+03</pdfrwt>
<totfact> 0.21477462E+05</totfact>
</mgrwt>
</event>
<event>
 6    1  0.4261782E-002  0.1275156E+03  0.7546771E-02  0.1231189E+00
         21   -1    0    0  504  502  0.00000000000E+00  0.00000000000E+00  0.42131039116E+02  0.42131039116E+02  0.00000000000E+00 0. -1.
         21   -1    0    0  502  503 -0.00000000000E+00 -0.00000000000E+00 -0.50306015443E+03  0.50306015443E+03  0.00000000000E+00 0. -1.
         25    2    1    2    0    0 -0.34077636879E+01  0.24950409943E+02 -0.49023761607E+03  0.50655023049E+03  0.12500431987E+03 0.  0.
          5    1    3    3  501    0  0.48616273533E+02 -0.25254349051E+02 -0.23222219650E+03  0.23859690431E+03  0.10000000000E+00 0.  1.
         -5    1    3    3    0  501 -0.52024037221E+02  0.50204758993E+02 -0.25801541957E+03  0.26795332618E+03  0.10000000000E+00 0.  1.
         21    1    1    2  504  503  0.34077636879E+01 -0.24950409943E+02  0.29308500755E+02  0.38640963060E+02  0.00000000000E+00 0. -1.
<mgrwt>
<rscale>  1 0.12751555E+03</rscale>
<asrwt>0</asrwt>
<pdfrwt beam="1">  1       21 0.64816982E-02 0.12751555E+03</pdfrwt>
<pdfrwt beam="2">  1       21 0.77393871E-01 0.12751555E+03</pdfrwt>
<totfact> 0.26026667E+05</totfact>
</mgrwt>
</event>
<event>
 6    1  0.4261782E-002  0.1504791E+03  0.7546771E-02  0.1199886E+00
         21   -1    0    0  503  502  0.00000000000E+00  0.00000000000E+00  0.94873520223E+02  0.94873520223E+02  0.00000000000E+00 0.  1.
         21   -1    0    0  504  503 -0.00000000000E+00 -0.00000000000E+00 -0.45567098592E+03  0.45567098592E+03  0.00000000000E+00 0. -1.
         25    2    1    2    0    0 -0.66776286848E+02  0.50617806250E+02 -0.42118492175E+03  0.44725907811E+03  0.12499083906E+03 0.  0.
          5    1    3    3  501    0 -0.20152692980E+01 -0.18633638300E+02 -0.36506098459E+01  0.19094783028E+02  0.10000000000E+00 0. -1.
         -5    1    3    3    0  501 -0.64761017550E+02  0.69251444550E+02 -0.41753431191E+03  0.42816429508E+03  0.10000000000E+00 0. -1.
         21    1    1    2  504  502  0.66776286848E+02 -0.50617806250E+02  0.60387456055E+02  0.10328542803E+03  0.00000000000E+00 0.  1.
<mgrwt>
<rscale>  1 0.15047905E+03</rscale>
<asrwt>0</asrwt>
<pdfrwt beam="1">  1       21 0.14595926E-01 0.15047905E+03</pdfrwt>
<pdfrwt beam="2">  1       21 0.70103227E-01 0.15047905E+03</pdfrwt>
<totfact> 0.77546977E+04</totfact>
</mgrwt>
</event>
<event>
 6    1  0.4261782E-002  0.1293995E+03  0.7546771E-02  0.1228349E+00
         21   -1    0    0  503  502  0.00000000000E+00  0.00000000000E+00  0.20427626076E+03  0.20427626076E+03  0.00000000000E+00 0.  1.
         21   -1    0    0  504  503 -0.00000000000E+00 -0.00000000000E+00 -0.13567558054E+03  0.13567558054E+03  0.00000000000E+00 0.  1.
         25    2    1    2    0    0  0.36336854069E+01  0.33239432390E+02 -0.10283516433E+03  0.16528555282E+03  0.12500471756E+03 0.  0.
          5    1    3    3  501    0 -0.40941858010E+02  0.62902905587E+02 -0.50849507830E+02  0.90657011396E+02  0.10000000000E+00 0. -1.
         -5    1    3    3    0  501  0.44575543417E+02 -0.29663473197E+02 -0.51985656498E+02  0.74628541421E+02  0.10000000000E+00 0. -1.
         21    1    1    2  504  502 -0.36336854069E+01 -0.33239432390E+02  0.17143584455E+03  0.17466628848E+03  0.00000000000E+00 0.  1.
<mgrwt>
<rscale>  1 0.12939955E+03</rscale>
<asrwt>0</asrwt>
<pdfrwt beam="1">  1       21 0.31427117E-01 0.12939955E+03</pdfrwt>
<pdfrwt beam="2">  1       21 0.20873166E-01 0.12939955E+03</pdfrwt>
<totfact> 0.21085785E+05</totfact>
</mgrwt>
</event>
<event>
 6    1  0.4261782E-002  0.1371442E+03  0.7546771E-02  0.1217224E+00
         21   -1    0    0  504  502  0.00000000000E+00  0.00000000000E+00  0.61860565320E+02  0.61860565320E+02  0.00000000000E+00 0.  1.
         21   -1    0    0  502  503 -0.00000000000E+00 -0.00000000000E+00 -0.16221486294E+03  0.16221486294E+03  0.00000000000E+00 0.  1.
         25    2    1    2    0    0 -0.44631145718E+02  0.34450564467E+02 -0.96243590586E+02  0.16754509593E+03  0.12501899809E+03 0.  0.
          5    1    3    3  501    0 -0.13773605575E+02  0.72253011184E+02 -0.93094640415E+02  0.11864582550E+03  0.10000000000E+00 0. -1.
         -5    1    3    3    0  501 -0.30857540143E+02 -0.37802446716E+02 -0.31489501715E+01  0.48899270430E+02  0.10000000000E+00 0. -1.
         21    1    1    2  504  503  0.44631145718E+02 -0.34450564467E+02 -0.41107070316E+01  0.56530332323E+02  0.00000000000E+00 0.  1.
<mgrwt>
<rscale>  1 0.13714420E+03</rscale>
<asrwt>0</asrwt>
<pdfrwt beam="1">  1       21 0.95170102E-02 0.13714420E+03</pdfrwt>
<pdfrwt beam="2">  1       21 0.24956132E-01 0.13714420E+03</pdfrwt>
<totfact> 0.13444545E+06</totfact>
</mgrwt>
</event>
<event>
 6    1  0.4261782E-002  0.1264919E+03  0.7546771E-02  0.1232756E+00
         21   -1    0    0  504  502  0.00000000000E+00  0.00000000000E+00  0.41212099787E+03  0.41212099787E+03  0.00000000000E+00 0. -1.
         21   -1    0    0  502  503 -0.00000000000E+00 -0.00000000000E+00 -0.16898432436E+02  0.16898432436E+02  0.00000000000E+00 0. -1.
         25    2    1    2    0    0  0.19060824459E+02  0.37231170505E+01  0.22854748441E+03  0.26121669117E+03  0.12499212168E+03 0.  0.
          5    1    3    3  501    0  0.17363326206E+02  0.47798506384E+01  0.24448826784E+03  0.24515067852E+03  0.10000000000E+00 0.  1.
         -5    1    3    3    0  501  0.16974982531E+01 -0.10567335879E+01 -0.15940783423E+02  0.16066012646E+02  0.10000000000E+00 0.  1.
         21    1    1    2  504  503 -0.19060824459E+02 -0.37231170505E+01  0.16667508102E+03  0.16780273914E+03  0.00000000000E+00 0. -1.
<mgrwt>
<rscale>  1 0.12649193E+03</rscale>
<asrwt>0</asrwt>
<pdfrwt beam="1">  1       21 0.63403223E-01 0.12649193E+03</pdfrwt>
<pdfrwt beam="2">  1       21 0.25997591E-02 0.12649193E+03</pdfrwt>
<totfact> 0.18378677E+06</totfact>
</mgrwt>
</event>
<event>
 6    1  0.4261782E-002  0.1262215E+03  0.7546771E-02  0.1233173E+00
         21   -1    0    0  504  502  0.00000000000E+00  0.00000000000E+00  0.17977829099E+02  0.17977829099E+02  0.00000000000E+00 0.  1.
         21   -1    0    0  502  503 -0.00000000000E+00 -0.00000000000E+00 -0.41147612760E+03  0.41147612760E+03  0.00000000000E+00 0.  1.
         25    2    1    2    0    0  0.11619137040E+02 -0.13166560459E+02 -0.39201120080E+03  0.41183084348E+03  0.12499399758E+03 0.  0.
          5    1    3    3  501    0  0.51788664263E+02  0.12884444926E+02 -0.79995542450E+02  0.96163254308E+02  0.10000000000E+00 0.  1.
         -5    1    3    3    0  501 -0.40169527223E+02 -0.26051005385E+02 -0.31201565835E+03  0.31566758917E+03  0.10000000000E+00 0.  1.
         21    1    1    2  504  503 -0.11619137040E+02  0.13166560459E+02 -0.14870976994E+01  0.17623113217E+02  0.00000000000E+00 0.  1.
<mgrwt>
<rscale>  1 0.12622148E+03</rscale>
<asrwt>0</asrwt>
<pdfrwt beam="1">  1       21 0.27658198E-02 0.12622148E+03</pdfrwt>
<pdfrwt beam="2">  1       21 0.63304021E-01 0.12622148E+03</pdfrwt>
<totfact> 0.16668114E+06</totfact>
</mgrwt>
</event>
<event>
 6    1  0.4261782E-002  0.1267301E+03  0.7546771E-02  0.1232390E+00
         21   -1    0    0  503  502  0.00000000000E+00  0.00000000000E+00  0.15118853290E+02  0.15118853290E+02  0.00000000000E+00 0.  1.
         21   -1    0    0  504  503 -0.00000000000E+00 -0.00000000000E+00 -0.69706491158E+03  0.69706491158E+03  0.00000000000E+00 0.  1.
         25    2    1    2    0    0 -0.81007369828E+01 -0.19219036443E+02 -0.67946240886E+03  0.69117991246E+03  0.12500205212E+03 0.  0.
          5    1    3    3  501    0  0.14993033081E+01  0.52795769774E+02 -0.33511913687E+03  0.33925578420E+03  0.10000000000E+00 0.  1.
         -5    1    3    3    0  501 -0.96000402909E+01 -0.72014806217E+02 -0.34434327199E+03  0.35192412826E+03  0.10000000000E+00 0.  1.
         21    1    1    2  504  502  0.81007369828E+01  0.19219036443E+02 -0.24836494298E+01  0.21003852407E+02  0.00000000000E+00 0.  1.
<mgrwt>
<rscale>  1 0.12673005E+03</rscale>
<asrwt>0</asrwt>
<pdfrwt beam="1">  1       21 0.23259776E-02 0.12673005E+03</pdfrwt>
<pdfrwt beam="2">  1       21 0.10724075E+00 0.12673005E+03</pdfrwt>
<totfact> 0.67473710E+05</totfact>
</mgrwt>
</event>
<event>
 6    1  0.4261782E-002  0.1272769E+03  0.7546771E-02  0.1231553E+00
         21   -1    0    0  503  502  0.00000000000E+00  0.00000000000E+00  0.62235067112E+03  0.62235067112E+03  0.00000000000E+00 0. -1.
         21   -1    0    0  504  503 -0.00000000000E+00 -0.00000000000E+00 -0.29166884033E+02  0.29166884033E+02  0.00000000000E+00 0. -1.
         25    2    1    2    0    0 -0.19831750781E+02  0.13434332058E+02  0.11141292822E+03  0.16915157369E+03  0.12500253874E+03 0.  0.
          5    1    3    3  501    0  0.52298829867E+02  0.76575081195E+01  0.62279087890E+02  0.81685370933E+02  0.10000000000E+00 0.  1.
         -5    1    3    3    0  501 -0.72130580647E+02  0.57768239390E+01  0.49133840325E+02  0.87466202756E+02  0.10000000000E+00 0.  1.
         21    1    1    2  504  502  0.19831750781E+02 -0.13434332058E+02  0.48177085887E+03  0.48236598146E+03  0.00000000000E+00 0. -1.
<mgrwt>
<rscale>  1 0.12727692E+03</rscale>
<asrwt>0</asrwt>
<pdfrwt beam="1">  1       21 0.95746247E-01 0.12727692E+03</pdfrwt>
<pdfrwt beam="2">  1       21 0.44872134E-02 0.12727692E+03</pdfrwt>
<totfact> 0.29872556E+05</totfact>
</mgrwt>
</event>
<event>
 6    1  0.4261782E-002  0.1338396E+03  0.7546771E-02  0.1221867E+00
         21   -1    0    0  503  502  0.00000000000E+00  0.00000000000E+00  0.33228197343E+03  0.33228197343E+03  0.00000000000E+00 0. -1.
         21   -1    0    0  504  503 -0.00000000000E+00 -0.00000000000E+00 -0.25066929522E+02  0.25066929522E+02  0.00000000000E+00 0. -1.
         25    2    1    2    0    0  0.46209215212E+02  0.12364217633E+02  0.21040468187E+03  0.24936551698E+03  0.12499946183E+03 0.  0.
          5    1    3    3  501    0 -0.23230980104E+02 -0.37227803582E+02  0.10465226391E+03  0.11347992835E+03  0.10000000000E+00 0.  1.
         -5    1    3    3    0  501  0.69440195317E+02  0.49592021215E+02  0.10575241796E+03  0.13588558863E+03  0.10000000000E+00 0.  1.
         21    1    1    2  504  502 -0.46209215212E+02 -0.12364217633E+02  0.96810362041E+02  0.10798338598E+03  0.00000000000E+00 0. -1.
<mgrwt>
<rscale>  1 0.13383957E+03</rscale>
<asrwt>0</asrwt>
<pdfrwt beam="1">  1       21 0.51120301E-01 0.13383957E+03</pdfrwt>
<pdfrwt beam="2">  1       21 0.38564509E-02 0.13383957E+03</pdfrwt>
<totfact> 0.15139596E+06</totfact>
</mgrwt>
</event>
<event>
 6    1  0.4261782E-002  0.1265274E+03  0.7546771E-02  0.1232701E+00
         21   -1    0    0  504  502  0.00000000000E+00  0.00000000000E+00  0.11634327152E+03  0.11634327152E+03  0.00000000000E+00 0.  1.
         21   -1    0    0  502  503 -0.00000000000E+00 -0.00000000000E+00 -0.78090408631E+02  0.78090408631E+02  0.00000000000E+00 0.  1.
         25    2    1    2    0    0 -0.15243730027E+02  0.12310191309E+02 -0.24338619349E+02  0.12884705221E+03  0.12500112942E+03 0.  0.
          5    1    3    3  501    0 -0.38445466377E+02  0.61277573140E+02 -0.14257190106E+02  0.73731081130E+02  0.10000000000E+00 0. -1.
         -5    1    3    3    0  501  0.23201736350E+02 -0.48967381831E+02 -0.10081429243E+02  0.55115971085E+02  0.10000000000E+00 0. -1.
         21    1    1    2  504  503  0.15243730027E+02 -0.12310191309E+02  0.62591482239E+02  0.65586627937E+02  0.00000000000E+00 0. -1.
<mgrwt>
<rscale>  1 0.12652745E+03</rscale>
<asrwt>0</asrwt>
<pdfrwt beam="1">  1       21 0.17898965E-01 0.12652745E+03</pdfrwt>
<pdfrwt beam="2">  1       21 0.12013909E-01 0.12652745E+03</pdfrwt>
<totfact> 0.16537157E+06</totfact>
</mgrwt>
</event>
<event>
 6    1  0.4261782E-002  0.1429440E+03  0.7546771E-02  0.1209422E+00
         21   -1    0    0  503  502  0.00000000000E+00  0.00000000000E+00  0.12092772179E+03  0.12092772179E+03  0.00000000000E+00 0. -1.
         21   -1    0    0  504  503 -0.00000000000E+00 -0.00000000000E+00 -0.41127563694E+03  0.41127563694E+03  0.00000000000E+00 0. -1.
         25    2    1    2    0    0 -0.47700863545E+02 -0.50312312427E+02 -0.38740039571E+03  0.41293104364E+03  0.12500511607E+03 0.  0.
          5    1    3    3  501    0 -0.40540660393E+02  0.41887699920E+01 -0.33337506508E+03  0.33585716452E+03  0.10000000000E+00 0. -1.
         -5    1    3    3    0  501 -0.71602031520E+01 -0.54501082419E+02 -0.54025330625E+02  0.77073879124E+02  0.10000000000E+00 0. -1.
         21    1    1    2  504  502  0.47700863545E+02  0.50312312427E+02  0.97052480560E+02  0.11927231509E+03  0.00000000000E+00 0. -1.
<mgrwt>
<rscale>  1 0.14294398E+03</rscale>
<asrwt>0</asrwt>
<pdfrwt beam="1">  1       21 0.18604265E-01 0.14294398E+03</pdfrwt>
<pdfrwt beam="2">  1       21 0.63273174E-01 0.14294398E+03</pdfrwt>
<totfact> 0.62445799E+04</totfact>
</mgrwt>
</event>
<event>
 6    1  0.4261782E-002  0.1277795E+03  0.7546771E-02  0.1230788E+00
         21   -1    0    0  503  502  0.00000000000E+00  0.00000000000E+00  0.30885049481E+03  0.30885049481E+03  0.00000000000E+00 0. -1.
         21   -1    0    0  504  503 -0.00000000000E+00 -0.00000000000E+00 -0.32063826288E+02  0.32063826288E+02  0.00000000000E+00 0. -1.
         25    2    1    2    0    0  0.20603457485E+02  0.16707034680E+02  0.10029331868E+03  0.16243874852E+03  0.12499587906E+03 0.  0.
          5    1    3    3  501    0 -0.47418468744E+02 -0.62274558008E+01  0.13277166279E+02  0.49634519522E+02  0.10000000000E+00 0.  1.
         -5    1    3    3    0  501  0.68021926229E+02  0.22934490481E+02  0.87016152401E+02  0.11280422900E+03  0.10000000000E+00 0.  1.
         21    1    1    2  504  502 -0.20603457485E+02 -0.16707034680E+02  0.17649334984E+03  0.17847557257E+03  0.00000000000E+00 0. -1.
<mgrwt>
<rscale>  1 0.12777949E+03</rscale>
<asrwt>0</asrwt>
<pdfrwt beam="1">  1       21 0.47515459E-01 0.12777949E+03</pdfrwt>
<pdfrwt beam="2">  1       21 0.49328966E-02 0.12777949E+03</pdfrwt>
<totfact> 0.11663763E+06</totfact>
</mgrwt>
</event>
<event>
 6    1  0.4261782E-002  0.1345224E+03  0.7546771E-02  0.1220896E+00
         21   -1    0    0  503  502  0.00000000000E+00  0.00000000000E+00  0.66360582819E+02  0.66360582819E+02  0.00000000000E+00 0.  1.
         21   -1    0    0  504  503 -0.00000000000E+00 -0.00000000000E+00 -0.12797832840E+03  0.12797832840E+03  0.00000000000E+00 0.  1.
         25    2    1    2    0    0  0.49997581917E+01 -0.49473121508E+02 -0.42697860114E+02  0.14113600340E+03  0.12499470735E+03 0.  0.
          5    1    3    3  501    0  0.35422871582E+02 -0.42757571114E+02  0.29231319760E+02  0.62749261140E+02  0.10000000000E+00 0.  1.
         -5    1    3    3    0  501 -0.30423113391E+02 -0.67155503944E+01 -0.71929179874E+02  0.78386742264E+02  0.10000000000E+00 0.  1.
         21    1    1    2  504  502 -0.49997581917E+01  0.49473121508E+02 -0.18919885465E+02  0.53202907813E+02  0.00000000000E+00 0.  1.
<mgrwt>
<rscale>  1 0.13452236E+03</rscale>
<asrwt>0</asrwt>
<pdfrwt beam="1">  1       21 0.10209320E-01 0.13452236E+03</pdfrwt>
<pdfrwt beam="2">  1       21 0.19688974E-01 0.13452236E+03</pdfrwt>
<totfact> 0.18516212E+06</totfact>
</mgrwt>
</event>
<event>
 6    1  0.4261782E-002  0.1295166E+03  0.7546771E-02  0.1228175E+00
         21   -1    0    0  504  502  0.00000000000E+00  0.00000000000E+00  0.38212447291E+03  0.38212447291E+03  0.00000000000E+00 0. -1.
         21   -1    0    0  502  503 -0.00000000000E+00 -0.00000000000E+00 -0.10972961285E+03  0.10972961285E+03  0.00000000000E+00 0.  1.
         25    2    1    2    0    0 -0.33573854137E+02  0.47844075104E+01 -0.70381268953E+02  0.14740442490E+03  0.12499778888E+03 0.  0.
          5    1    3    3  501    0 -0.54505979403E+02  0.53387178380E+02 -0.36582753991E+02  0.84613240664E+02  0.10000000000E+00 0.  1.
         -5    1    3    3    0  501  0.20932125266E+02 -0.48602770870E+02 -0.33798514963E+02  0.62791184238E+02  0.10000000000E+00 0.  1.
         21    1    1    2  504  503  0.33573854137E+02 -0.47844075104E+01  0.34277612902E+03  0.34444966085E+03  0.00000000000E+00 0. -1.
<mgrwt>
<rscale>  1 0.12951657E+03</rscale>
<asrwt>0</asrwt>
<pdfrwt beam="1">  1       21 0.58788380E-01 0.12951657E+03</pdfrwt>
<pdfrwt beam="2">  1       21 0.16881479E-01 0.12951657E+03</pdfrwt>
<totfact> 0.87806219E+04</totfact>
</mgrwt>
</event>
<event>
 6    1  0.4261782E-002  0.1291420E+03  0.7546771E-02  0.1228734E+00
         21   -1    0    0  503  502  0.00000000000E+00  0.00000000000E+00  0.13610860827E+03  0.13610860827E+03  0.00000000000E+00 0. -1.
         21   -1    0    0  504  503 -0.00000000000E+00 -0.00000000000E+00 -0.56588591542E+03  0.56588591542E+03  0.00000000000E+00 0. -1.
         25    2    1    2    0    0 -0.32351566421E+02  0.37439080896E+01 -0.55643097726E+03  0.57122070044E+03  0.12496805772E+03 0.  0.
          5    1    3    3  501    0 -0.35177872007E+01 -0.54965214448E+02 -0.35993167532E+03  0.36412136785E+03  0.10000000000E+00 0. -1.
         -5    1    3    3    0  501 -0.28833779220E+02  0.58709122538E+02 -0.19649930194E+03  0.20709933259E+03  0.10000000000E+00 0. -1.
         21    1    1    2  504  502  0.32351566421E+02 -0.37439080896E+01  0.12665367011E+03  0.13077382326E+03  0.00000000000E+00 0. -1.
<mgrwt>
<rscale>  1 0.12914200E+03</rscale>
<asrwt>0</asrwt>
<pdfrwt beam="1">  1       21 0.20939785E-01 0.12914200E+03</pdfrwt>
<pdfrwt beam="2">  1       21 0.87059373E-01 0.12914200E+03</pdfrwt>
<totfact> 0.25006601E+04</totfact>
</mgrwt>
</event>
<event>
 6    1  0.4261782E-002  0.1283670E+03  0.7546771E-02  0.1229899E+00
         21   -1    0    0  503  502  0.00000000000E+00  0.00000000000E+00  0.12581880203E+03  0.12581880203E+03  0.00000000000E+00 0. -1.
         21   -1    0    0  504  503 -0.00000000000E+00 -0.00000000000E+00 -0.57118694680E+02  0.57118694680E+02  0.00000000000E+00 0. -1.
         25    2    1    2    0    0  0.28717317222E+02  0.53483746911E+01  0.25637542026E+02  0.13090218224E+03  0.12499923333E+03 0.  0.
          5    1    3    3  501    0  0.12739288587E+02 -0.53084076417E+02 -0.16592805530E+02  0.57057338162E+02  0.10000000000E+00 0. -1.
         -5    1    3    3    0  501  0.15978028635E+02  0.58432451108E+02  0.42230347557E+02  0.73844844074E+02  0.10000000000E+00 0. -1.
         21    1    1    2  504  502 -0.28717317222E+02 -0.53483746911E+01  0.43062565328E+02  0.52035314479E+02  0.00000000000E+00 0. -1.
<mgrwt>
<rscale>  1 0.12836704E+03</rscale>
<asrwt>0</asrwt>
<pdfrwt beam="1">  1       21 0.19356739E-01 0.12836704E+03</pdfrwt>
<pdfrwt beam="2">  1       21 0.87874915E-02 0.12836704E+03</pdfrwt>
<totfact> 0.24785654E+06</totfact>
</mgrwt>
</event>
<event>
 6    1  0.4261782E-002  0.1270313E+03  0.7546771E-02  0.1231928E+00
         21   -1    0    0  504  502  0.00000000000E+00  0.00000000000E+00  0.17174336722E+03  0.17174336722E+03  0.00000000000E+00 0.  1.
         21   -1    0    0  502  503 -0.00000000000E+00 -0.00000000000E+00 -0.61996760420E+02  0.61996760420E+02  0.00000000000E+00 0.  1.
         25    2    1    2    0    0  0.57489210291E+01 -0.21888741670E+02  0.55910927570E+01  0.12715430208E+03  0.12499915645E+03 0.  0.
          5    1    3    3  501    0 -0.11965133407E+02 -0.52301496117E+02  0.48036643243E+02  0.72014859630E+02  0.10000000000E+00 0.  1.
         -5    1    3    3    0  501  0.17714054436E+02  0.30412754446E+02 -0.42445550486E+02  0.55139442449E+02  0.10000000000E+00 0.  1.
         21    1    1    2  504  503 -0.57489210291E+01  0.21888741670E+02  0.10415551404E+03  0.10658582556E+03  0.00000000000E+00 0.  1.
<mgrwt>
<rscale>  1 0.12703132E+03</rscale>
<asrwt>0</asrwt>
<pdfrwt beam="1">  1       21 0.26422056E-01 0.12703132E+03</pdfrwt>
<pdfrwt beam="2">  1       21 0.95379632E-02 0.12703132E+03</pdfrwt>
<totfact> 0.12006325E+06</totfact>
</mgrwt>
</event>
<event>
 6    1  0.4261782E-002  0.1348988E+03  0.7546771E-02  0.1220363E+00
         21   -1    0    0  504  502  0.00000000000E+00  0.00000000000E+00  0.70358052117E+02  0.70358052117E+02  0.00000000000E+00 0.  1.
         21   -1    0    0  502  503 -0.00000000000E+00 -0.00000000000E+00 -0.13239987167E+03  0.13239987167E+03  0.00000000000E+00 0.  1.
         25    2    1    2    0    0 -0.29966530343E+02 -0.40923312059E+02 -0.69067130153E+02  0.15155181673E+03  0.12499989710E+03 0.  0.
          5    1    3    3  501    0 -0.37618832688E+01  0.23818897517E+02  0.24773360156E+02  0.34571968675E+02  0.10000000000E+00 0.  1.
         -5    1    3    3    0  501 -0.26204647074E+02 -0.64742209576E+02 -0.93840490309E+02  0.11697984805E+03  0.10000000000E+00 0.  1.
         21    1    1    2  504  503  0.29966530343E+02  0.40923312059E+02  0.70253106027E+01  0.51206107055E+02  0.00000000000E+00 0.  1.
<mgrwt>
<rscale>  1 0.13489879E+03</rscale>
<asrwt>0</asrwt>
<pdfrwt beam="1">  1       21 0.10824316E-01 0.13489879E+03</pdfrwt>
<pdfrwt beam="2">  1       21 0.20369211E-01 0.13489879E+03</pdfrwt>
<totfact> 0.15690126E+06</totfact>
</mgrwt>
</event>
<event>
 6    1  0.4261782E-002  0.1260984E+03  0.7546771E-02  0.1233363E+00
         21   -1    0    0  503  502  0.00000000000E+00  0.00000000000E+00  0.30715374266E+02  0.30715374266E+02  0.00000000000E+00 0.  1.
         21   -1    0    0  504  503 -0.00000000000E+00 -0.00000000000E+00 -0.22677239150E+03  0.22677239150E+03  0.00000000000E+00 0.  1.
         25    2    1    2    0    0 -0.11107068449E+02 -0.12332264616E+02 -0.20341808859E+03  0.23933185511E+03  0.12500146554E+03 0.  0.
          5    1    3    3  501    0  0.40285966966E+02  0.81376213586E+01 -0.16310775442E+02  0.44217998725E+02  0.10000000000E+00 0.  1.
         -5    1    3    3    0  501 -0.51393035415E+02 -0.20469885974E+02 -0.18710731315E+03  0.19511385639E+03  0.10000000000E+00 0.  1.
         21    1    1    2  504  502  0.11107068449E+02  0.12332264616E+02  0.73610713567E+01  0.18155910652E+02  0.00000000000E+00 0.  1.
<mgrwt>
<rscale>  1 0.12609845E+03</rscale>
<asrwt>0</asrwt>
<pdfrwt beam="1">  1       21 0.47254423E-02 0.12609845E+03</pdfrwt>
<pdfrwt beam="2">  1       21 0.34888060E-01 0.12609845E+03</pdfrwt>
<totfact> 0.23269024E+06</totfact>
</mgrwt>
</event>
<event>
 6    1  0.4261782E-002  0.1415071E+03  0.7546771E-02  0.1211315E+00
         21   -1    0    0  503  502  0.00000000000E+00  0.00000000000E+00  0.23025508208E+04  0.23025508208E+04  0.00000000000E+00 0. -1.
         21   -1    0    0  504  503 -0.00000000000E+00 -0.00000000000E+00 -0.30166542030E+02  0.30166542030E+02  0.00000000000E+00 0.  1.
         25    2    1    2    0    0 -0.62529406100E+02 -0.22125190245E+02  0.13918146436E+03  0.19848361320E+03  0.12499925606E+03 0.  0.
          5    1    3    3  501    0 -0.75828763365E+02  0.29395247931E+02  0.11288789790E+03  0.13913220133E+03  0.10000000000E+00 0.  1.
         -5    1    3    3    0  501  0.13299357265E+02 -0.51520438176E+02  0.26293566460E+02  0.59351411868E+02  0.10000000000E+00 0.  1.
         21    1    1    2  504  502  0.62529406100E+02  0.22125190245E+02  0.21332028144E+04  0.21342337496E+04  0.00000000000E+00 0. -1.
<mgrwt>
<rscale>  1 0.14150712E+03</rscale>
<asrwt>0</asrwt>
<pdfrwt beam="1">  1       21 0.35423845E+00 0.14150712E+03</pdfrwt>
<pdfrwt beam="2">  1       21 0.46410083E-02 0.14150712E+03</pdfrwt>
<totfact> 0.54255164E+03</totfact>
</mgrwt>
</event>
<event>
 6    1  0.4261782E-002  0.1285110E+03  0.7546771E-02  0.1229682E+00
         21   -1    0    0  504  502  0.00000000000E+00  0.00000000000E+00  0.83700543342E+03  0.83700543342E+03  0.00000000000E+00 0.  1.
         21   -1    0    0  502  503 -0.00000000000E+00 -0.00000000000E+00 -0.76260429396E+01  0.76260429396E+01  0.00000000000E+00 0.  1.
         25    2    1    2    0    0 -0.24175851594E+02 -0.17484453975E+02  0.71297657160E+03  0.72446578170E+03  0.12499959706E+03 0.  0.
          5    1    3    3  501    0 -0.61845559640E+02  0.19388658022E+02  0.53306980126E+03  0.53699554590E+03  0.10000000000E+00 0. -1.
         -5    1    3    3    0  501  0.37669708046E+02 -0.36873111997E+02  0.17990677035E+03  0.18747023579E+03  0.10000000000E+00 0. -1.
         21    1    1    2  504  503  0.24175851594E+02  0.17484453975E+02  0.11640281888E+03  0.12016569467E+03  0.00000000000E+00 0.  1.
<mgrwt>
<rscale>  1 0.12851100E+03</rscale>
<asrwt>0</asrwt>
<pdfrwt beam="1">  1       21 0.12876999E+00 0.12851100E+03</pdfrwt>
<pdfrwt beam="2">  1       21 0.11732380E-02 0.12851100E+03</pdfrwt>
<totfact> 0.12958907E+06</totfact>
</mgrwt>
</event>
<event>
 6    1  0.4261782E-002  0.1269436E+03  0.7546771E-02  0.1232063E+00
         21   -1    0    0  503  502  0.00000000000E+00  0.00000000000E+00  0.21671722244E+04  0.21671722244E+04  0.00000000000E+00 0. -1.
         21   -1    0    0  504  503 -0.00000000000E+00 -0.00000000000E+00 -0.34778532798E+01  0.34778532798E+01  0.00000000000E+00 0. -1.
         25    2    1    2    0    0 -0.21657379732E+02 -0.44266551039E+01  0.11987810701E+04  0.12054836071E+04  0.12500414263E+03 0.  0.
          5    1    3    3  501    0  0.52355060039E+01 -0.14972491942E+02  0.11387850555E+04  0.11388955171E+04  0.10000000000E+00 0.  1.
         -5    1    3    3    0  501 -0.26892885736E+02  0.10545836838E+02  0.59996014520E+02  0.66588090047E+02  0.10000000000E+00 0.  1.
         21    1    1    2  504  502  0.21657379732E+02  0.44266551039E+01  0.96491330107E+03  0.96516647059E+03  0.00000000000E+00 0. -1.
<mgrwt>
<rscale>  1 0.12694358E+03</rscale>
<asrwt>0</asrwt>
<pdfrwt beam="1">  1       21 0.33341003E+00 0.12694358E+03</pdfrwt>
<pdfrwt beam="2">  1       21 0.53505608E-03 0.12694358E+03</pdfrwt>
<totfact> 0.23365164E+05</totfact>
</mgrwt>
</event>
<event>
 6    1  0.4261782E-002  0.1947602E+03  0.7546771E-02  0.1154237E+00
         21   -1    0    0  504  502  0.00000000000E+00  0.00000000000E+00  0.39118373289E+02  0.39118373289E+02  0.00000000000E+00 0. -1.
         21   -1    0    0  502  503 -0.00000000000E+00 -0.00000000000E+00 -0.17088026722E+04  0.17088026722E+04  0.00000000000E+00 0. -1.
         25    2    1    2    0    0  0.14771655660E+03 -0.22012346130E+02 -0.15334587167E+04  0.15457772014E+04  0.12500718359E+03 0.  0.
          5    1    3    3  501    0  0.10027078223E+03 -0.10502293408E+02 -0.14007375774E+04  0.14043611711E+04  0.10000000000E+00 0. -1.
         -5    1    3    3    0  501  0.47445774367E+02 -0.11510052722E+02 -0.13272113926E+03  0.14141603030E+03  0.10000000000E+00 0. -1.
         21    1    1    2  504  503 -0.14771655660E+03  0.22012346130E+02 -0.13622558225E+03  0.20214384417E+03  0.00000000000E+00 0. -1.
<mgrwt>
<rscale>  1 0.19476016E+03</rscale>
<asrwt>0</asrwt>
<pdfrwt beam="1">  1       21 0.60182113E-02 0.19476016E+03</pdfrwt>
<pdfrwt beam="2">  1       21 0.26289272E+00 0.19476016E+03</pdfrwt>
<totfact> 0.10942539E+04</totfact>
</mgrwt>
</event>
<event>
 6    1  0.4261782E-002  0.1274174E+03  0.7546771E-02  0.1231339E+00
         21   -1    0    0  503  502  0.00000000000E+00  0.00000000000E+00  0.23572335494E+03  0.23572335494E+03  0.00000000000E+00 0.  1.
         21   -1    0    0  504  503 -0.00000000000E+00 -0.00000000000E+00 -0.33133724327E+02  0.33133724327E+02  0.00000000000E+00 0.  1.
         25    2    1    2    0    0  0.24635251852E+02  0.14987159919E+01  0.96233709187E+02  0.15967501203E+03  0.12500416353E+03 0.  0.
          5    1    3    3  501    0  0.41212094564E+01 -0.52098976392E+02  0.87081666100E+02  0.10156039720E+03  0.10000000000E+00 0.  1.
         -5    1    3    3    0  501  0.20514042396E+02  0.53597692384E+02  0.91520430872E+01  0.58114614831E+02  0.10000000000E+00 0.  1.
         21    1    1    2  504  502 -0.24635251852E+02 -0.14987159919E+01  0.10635592142E+03  0.10918206723E+03  0.00000000000E+00 0.  1.
<mgrwt>
<rscale>  1 0.12741736E+03</rscale>
<asrwt>0</asrwt>
<pdfrwt beam="1">  1       21 0.36265130E-01 0.12741736E+03</pdfrwt>
<pdfrwt beam="2">  1       21 0.50974962E-02 0.12741736E+03</pdfrwt>
<totfact> 0.18994172E+06</totfact>
</mgrwt>
</event>
<event>
 6    1  0.4261782E-002  0.1260610E+03  0.7546771E-02  0.1233420E+00
         21   -1    0    0  503  502  0.00000000000E+00  0.00000000000E+00  0.27038207801E+02  0.27038207801E+02  0.00000000000E+00 0.  1.
         21   -1    0    0  504  503 -0.00000000000E+00 -0.00000000000E+00 -0.19332827250E+03  0.19332827250E+03  0.00000000000E+00 0.  1.
         25    2    1    2    0    0 -0.16382861537E+02  0.58374552331E-01 -0.15762184970E+03  0.20183166142E+03  0.12499188169E+03 0.  0.
          5    1    3    3  501    0  0.72510373592E+00  0.58644516363E+02 -0.45706546584E+02  0.74355924280E+02  0.10000000000E+00 0.  1.
         -5    1    3    3    0  501 -0.17107965273E+02 -0.58586141811E+02 -0.11191530311E+03  0.12747573714E+03  0.10000000000E+00 0.  1.
         21    1    1    2  504  502  0.16382861537E+02 -0.58374552331E-01 -0.86682150052E+01  0.18534818885E+02  0.00000000000E+00 0.  1.
<mgrwt>
<rscale>  1 0.12606099E+03</rscale>
<asrwt>0</asrwt>
<pdfrwt beam="1">  1       21 0.41597242E-02 0.12606099E+03</pdfrwt>
<pdfrwt beam="2">  1       21 0.29742812E-01 0.12606099E+03</pdfrwt>
<totfact> 0.39253464E+06</totfact>
</mgrwt>
</event>
<event>
 6    1  0.4261782E-002  0.1334724E+03  0.7546771E-02  0.1222392E+00
         21   -1    0    0  504  502  0.00000000000E+00  0.00000000000E+00  0.36596512050E+02  0.36596512050E+02  0.00000000000E+00 0. -1.
         21   -1    0    0  502  503 -0.00000000000E+00 -0.00000000000E+00 -0.37519839197E+03  0.37519839197E+03  0.00000000000E+00 0. -1.
         25    2    1    2    0    0  0.46781000979E+02 -0.12654245236E+01 -0.33970328733E+03  0.36498383215E+03  0.12499924382E+03 0.  0.
          5    1    3    3  501    0  0.39560770870E+01  0.11898181225E+02 -0.31211853709E+03  0.31237030662E+03  0.10000000000E+00 0. -1.
         -5    1    3    3    0  501  0.42824923892E+02 -0.13163605749E+02 -0.27584750237E+02  0.52613525526E+02  0.10000000000E+00 0. -1.
         21    1    1    2  504  503 -0.46781000979E+02  0.12654245236E+01  0.11014074065E+01  0.46811071875E+02  0.00000000000E+00 0. -1.
<mgrwt>
<rscale>  1 0.13347237E+03</rscale>
<asrwt>0</asrwt>
<pdfrwt beam="1">  1       21 0.56302324E-02 0.13347237E+03</pdfrwt>
<pdfrwt beam="2">  1       21 0.57722832E-01 0.13347237E+03</pdfrwt>
<totfact> 0.62299643E+05</totfact>
</mgrwt>
</event>
<event>
 6    1  0.4261782E-002  0.1327731E+03  0.7546771E-02  0.1223398E+00
         21   -1    0    0  503  502  0.00000000000E+00  0.00000000000E+00  0.10332104116E+03  0.10332104116E+03  0.00000000000E+00 0. -1.
         21   -1    0    0  504  503 -0.00000000000E+00 -0.00000000000E+00 -0.15411085899E+03  0.15411085899E+03  0.00000000000E+00 0.  1.
         25    2    1    2    0    0 -0.61615957399E+00  0.44758257465E+02 -0.11736367897E+03  0.17720870992E+03  0.12500004987E+03 0.  0.
          5    1    3    3  501    0 -0.13055404306E+02  0.85389471722E+02 -0.97625113983E+02  0.13035520067E+03  0.10000000000E+00 0. -1.
         -5    1    3    3    0  501  0.12439244732E+02 -0.40631214256E+02 -0.19738564982E+02  0.46853509250E+02  0.10000000000E+00 0. -1.
         21    1    1    2  504  502  0.61615957399E+00 -0.44758257465E+02  0.66573861137E+02  0.80223190230E+02  0.00000000000E+00 0. -1.
<mgrwt>
<rscale>  1 0.13277309E+03</rscale>
<asrwt>0</asrwt>
<pdfrwt beam="1">  1       21 0.15895545E-01 0.13277309E+03</pdfrwt>
<pdfrwt beam="2">  1       21 0.23709363E-01 0.13277309E+03</pdfrwt>
<totfact> 0.59488937E+05</totfact>
</mgrwt>
</event>
<event>
 6    1  0.4261782E-002  0.1261392E+03  0.7546771E-02  0.1233300E+00
         21   -1    0    0  503  502  0.00000000000E+00  0.00000000000E+00  0.30953709147E+03  0.30953709147E+03  0.00000000000E+00 0. -1.
         21   -1    0    0  504  503 -0.00000000000E+00 -0.00000000000E+00 -0.37419198820E+02  0.37419198820E+02  0.00000000000E+00 0. -1.
         25    2    1    2    0    0 -0.24123262753E+01 -0.16698704423E+02  0.70244935241E+02  0.14437949749E+03  0.12500568916E+03 0.  0.
          5    1    3    3  501    0 -0.43475799588E+02  0.37201175911E+02  0.41946354510E+02  0.70947722273E+02  0.10000000000E+00 0. -1.
         -5    1    3    3    0  501  0.41063473312E+02 -0.53899880334E+02  0.28298580731E+02  0.73431775219E+02  0.10000000000E+00 0. -1.
         21    1    1    2  504  502  0.24123262753E+01  0.16698704423E+02  0.20187295741E+03  0.20257679280E+03  0.00000000000E+00 0. -1.
<mgrwt>
<rscale>  1 0.12613916E+03</rscale>
<asrwt>0</asrwt>
<pdfrwt beam="1">  1       21 0.47621089E-01 0.12613916E+03</pdfrwt>
<pdfrwt beam="2">  1       21 0.57568000E-02 0.12613916E+03</pdfrwt>
<totfact> 0.89502854E+05</totfact>
</mgrwt>
</event>
<event>
 6    1  0.4261782E-002  0.1262263E+03  0.7546771E-02  0.1233165E+00
         21   -1    0    0  504  502  0.00000000000E+00  0.00000000000E+00  0.97609749542E+03  0.97609749542E+03  0.00000000000E+00 0. -1.
         21   -1    0    0  502  503 -0.00000000000E+00 -0.00000000000E+00 -0.53033595915E+01  0.53033595915E+01  0.00000000000E+00 0. -1.
         25    2    1    2    0    0 -0.54192772365E+01 -0.16696913498E+02  0.83873910728E+03  0.84818416667E+03  0.12499974013E+03 0.  0.
          5    1    3    3  501    0 -0.51333624503E+02 -0.15238694742E+02  0.69984323697E+03  0.70188882678E+03  0.10000000000E+00 0. -1.
         -5    1    3    3    0  501  0.45914347267E+02 -0.14582187558E+01  0.13889587030E+03  0.14629533989E+03  0.10000000000E+00 0. -1.
         21    1    1    2  504  503  0.54192772365E+01  0.16696913498E+02  0.13205502856E+03  0.13321668834E+03  0.00000000000E+00 0.  1.
<mgrwt>
<rscale>  1 0.12622635E+03</rscale>
<asrwt>0</asrwt>
<pdfrwt beam="1">  1       21 0.15016870E+00 0.12622635E+03</pdfrwt>
<pdfrwt beam="2">  1       21 0.81590225E-03 0.12622635E+03</pdfrwt>
<totfact> 0.15552456E+06</totfact>
</mgrwt>
</event>
<event>
 6    1  0.4261782E-002  0.1290326E+03  0.7546771E-02  0.1228898E+00
         21   -1    0    0  503  502  0.00000000000E+00  0.00000000000E+00  0.24612099954E+02  0.24612099954E+02  0.00000000000E+00 0. -1.
         21   -1    0    0  504  503 -0.00000000000E+00 -0.00000000000E+00 -0.71039867722E+03  0.71039867722E+03  0.00000000000E+00 0. -1.
         25    2    1    2    0    0 -0.32012290657E+02 -0.11919796901E+01 -0.69065809679E+03  0.70260801076E+03  0.12499280999E+03 0.  0.
          5    1    3    3  501    0  0.17919559678E+02  0.45788912517E+02 -0.15583223903E+03  0.16340572771E+03  0.10000000000E+00 0.  1.
         -5    1    3    3    0  501 -0.49931850335E+02 -0.46980892207E+02 -0.53482585776E+03  0.53920228305E+03  0.10000000000E+00 0.  1.
         21    1    1    2  504  502  0.32012290657E+02  0.11919796901E+01  0.48715195281E+01  0.32402766413E+02  0.00000000000E+00 0. -1.
<mgrwt>
<rscale>  1 0.12903259E+03</rscale>
<asrwt>0</asrwt>
<pdfrwt beam="1">  1       21 0.37864776E-02 0.12903259E+03</pdfrwt>
<pdfrwt beam="2">  1       21 0.10929208E+00 0.12903259E+03</pdfrwt>
<totfact> 0.29004524E+05</totfact>
</mgrwt>
</event>
<event>
 6    1  0.4261782E-002  0.1488178E+03  0.7546771E-02  0.1201933E+00
         21   -1    0    0  503  502  0.00000000000E+00  0.00000000000E+00  0.74712385680E+02  0.74712385680E+02  0.00000000000E+00 0.  1.
         21   -1    0    0  504  503 -0.00000000000E+00 -0.00000000000E+00 -0.22589008009E+03  0.22589008009E+03  0.00000000000E+00 0.  1.
         25    2    1    2    0    0  0.57778313600E+02 -0.56420818716E+02 -0.16100827551E+03  0.21924963772E+03  0.12500038619E+03 0.  0.
          5    1    3    3  501    0  0.51937293308E+02 -0.73298564787E+02 -0.42459220959E+02  0.99362757010E+02  0.10000000000E+00 0. -1.
         -5    1    3    3    0  501  0.58410202917E+01  0.16877746071E+02 -0.11854905455E+03  0.11988688071E+03  0.10000000000E+00 0. -1.
         21    1    1    2  504  502 -0.57778313600E+02  0.56420818716E+02  0.98305811030E+01  0.81352828051E+02  0.00000000000E+00 0.  1.
<mgrwt>
<rscale>  1 0.14881780E+03</rscale>
<asrwt>0</asrwt>
<pdfrwt beam="1">  1       21 0.11494213E-01 0.14881780E+03</pdfrwt>
<pdfrwt beam="2">  1       21 0.34752320E-01 0.14881780E+03</pdfrwt>
<totfact> 0.50902395E+05</totfact>
</mgrwt>
</event>
<event>
 6    1  0.4261782E-002  0.1356903E+03  0.7546771E-02  0.1219248E+00
         21   -1    0    0  503  502  0.00000000000E+00  0.00000000000E+00  0.48321365893E+02  0.48321365893E+02  0.00000000000E+00 0.  1.
         21   -1    0    0  504  503 -0.00000000000E+00 -0.00000000000E+00 -0.28501233723E+03  0.28501233723E+03  0.00000000000E+00 0.  1.
         25    2    1    2    0    0  0.51459500760E+02  0.11697349758E+02 -0.24484985867E+03  0.27993449290E+03  0.12500783500E+03 0.  0.
          5    1    3    3  501    0  0.73800699193E+02  0.22235093925E+02 -0.24326267922E+03  0.25518166805E+03  0.10000000000E+00 0.  1.
         -5    1    3    3    0  501 -0.22341198434E+02 -0.10537744167E+02 -0.15871794500E+01  0.24752824853E+02  0.10000000000E+00 0.  1.
         21    1    1    2  504  502 -0.51459500760E+02 -0.11697349758E+02  0.81588873398E+01  0.53399210223E+02  0.00000000000E+00 0.  1.
<mgrwt>
<rscale>  1 0.13569034E+03</rscale>
<asrwt>0</asrwt>
<pdfrwt beam="1">  1       21 0.74340564E-02 0.13569034E+03</pdfrwt>
<pdfrwt beam="2">  1       21 0.43848051E-01 0.13569034E+03</pdfrwt>
<totfact> 0.68482136E+05</totfact>
</mgrwt>
</event>
<event>
 6    1  0.4261782E-002  0.1264836E+03  0.7546771E-02  0.1232769E+00
         21   -1    0    0  504  502  0.00000000000E+00  0.00000000000E+00  0.40428616426E+03  0.40428616426E+03  0.00000000000E+00 0. -1.
         21   -1    0    0  502  503 -0.00000000000E+00 -0.00000000000E+00 -0.13370622016E+02  0.13370622016E+02  0.00000000000E+00 0. -1.
         25    2    1    2    0    0  0.39030306339E+00 -0.19306275436E+02  0.31809251373E+03  0.34231703522E+03  0.12500088280E+03 0.  0.
          5    1    3    3  501    0 -0.43238683427E+02  0.24376726375E+02  0.64898990907E+02  0.81704942041E+02  0.10000000000E+00 0. -1.
         -5    1    3    3    0  501  0.43628986491E+02 -0.43683001811E+02  0.25319352282E+03  0.26061209318E+03  0.10000000000E+00 0. -1.
         21    1    1    2  504  503 -0.39030306339E+00  0.19306275436E+02  0.72823028509E+02  0.75339751055E+02  0.00000000000E+00 0. -1.
<mgrwt>
<rscale>  1 0.12648362E+03</rscale>
<asrwt>0</asrwt>
<pdfrwt beam="1">  1       21 0.62197862E-01 0.12648362E+03</pdfrwt>
<pdfrwt beam="2">  1       21 0.20570191E-02 0.12648362E+03</pdfrwt>
<totfact> 0.27995389E+06</totfact>
</mgrwt>
</event>
<event>
 6    1  0.4261782E-002  0.1268443E+03  0.7546771E-02  0.1232215E+00
         21   -1    0    0  503  502  0.00000000000E+00  0.00000000000E+00  0.88943282859E+02  0.88943282859E+02  0.00000000000E+00 0.  1.
         21   -1    0    0  504  503 -0.00000000000E+00 -0.00000000000E+00 -0.67990229083E+02  0.67990229083E+02  0.00000000000E+00 0.  1.
         25    2    1    2    0    0  0.13539057026E+02  0.16766863727E+02 -0.45162410453E-01  0.12684433004E+03  0.12500019296E+03 0.  0.
          5    1    3    3  501    0  0.17287602998E+01  0.13460257866E+02  0.62066716257E+02  0.63533097051E+02  0.10000000000E+00 0. -1.
         -5    1    3    3    0  501  0.11810296726E+02  0.33066058619E+01 -0.62111878668E+02  0.63311232990E+02  0.10000000000E+00 0. -1.
         21    1    1    2  504  502 -0.13539057026E+02 -0.16766863727E+02  0.20998216186E+02  0.30089181900E+02  0.00000000000E+00 0. -1.
<mgrwt>
<rscale>  1 0.12684432E+03</rscale>
<asrwt>0</asrwt>
<pdfrwt beam="1">  1       21 0.13683582E-01 0.12684432E+03</pdfrwt>
<pdfrwt beam="2">  1       21 0.10460035E-01 0.12684432E+03</pdfrwt>
<totfact> 0.34307913E+06</totfact>
</mgrwt>
</event>
<event>
 6    1  0.4261782E-002  0.1325527E+03  0.7546771E-02  0.1223716E+00
         21   -1    0    0  504  502  0.00000000000E+00  0.00000000000E+00  0.14429822413E+02  0.14429822413E+02  0.00000000000E+00 0. -1.
         21   -1    0    0  502  503 -0.00000000000E+00 -0.00000000000E+00 -0.54150647810E+03  0.54150647810E+03  0.00000000000E+00 0. -1.
         25    2    1    2    0    0  0.38751244104E+02  0.21221824779E+02 -0.38909054563E+03  0.41104947801E+03  0.12497278067E+03 0.  0.
          5    1    3    3  501    0  0.79074189329E+02 -0.57346935920E+01 -0.29122322071E+03  0.30182211385E+03  0.10000000000E+00 0. -1.
         -5    1    3    3    0  501 -0.40322945225E+02  0.26956518371E+02 -0.97867324920E+02  0.10922736416E+03  0.10000000000E+00 0. -1.
         21    1    1    2  504  503 -0.38751244104E+02 -0.21221824779E+02 -0.13798611006E+03  0.14488682250E+03  0.00000000000E+00 0. -1.
<mgrwt>
<rscale>  1 0.13255271E+03</rscale>
<asrwt>0</asrwt>
<pdfrwt beam="1">  1       21 0.22199732E-02 0.13255271E+03</pdfrwt>
<pdfrwt beam="2">  1       21 0.83308671E-01 0.13255271E+03</pdfrwt>
<totfact> 0.13051094E+06</totfact>
</mgrwt>
</event>
<event>
 6    1  0.4261782E-002  0.1276915E+03  0.7546771E-02  0.1230922E+00
         21   -1    0    0  504  502  0.00000000000E+00  0.00000000000E+00  0.15096723175E+04  0.15096723175E+04  0.00000000000E+00 0.  1.
         21   -1    0    0  502  503 -0.00000000000E+00 -0.00000000000E+00 -0.43008672403E+03  0.43008672403E+03  0.00000000000E+00 0. -1.
         25    2    1    2    0    0 -0.22846639895E+02 -0.12593307964E+02 -0.42049300098E+03  0.43945362266E+03  0.12499824894E+03 0.  0.
          5    1    3    3  501    0  0.23765064907E+02  0.17032570221E+02 -0.20604880250E+02  0.35769510040E+02  0.10000000000E+00 0. -1.
         -5    1    3    3    0  501 -0.46611704802E+02 -0.29625878186E+02 -0.39988812073E+03  0.40368411262E+03  0.10000000000E+00 0. -1.
         21    1    1    2  504  503  0.22846639895E+02  0.12593307964E+02  0.15000785944E+04  0.15003054189E+04  0.00000000000E+00 0.  1.
<mgrwt>
<rscale>  1 0.12769151E+03</rscale>
<asrwt>0</asrwt>
<pdfrwt beam="1">  1       21 0.23225728E+00 0.12769151E+03</pdfrwt>
<pdfrwt beam="2">  1       21 0.66167189E-01 0.12769151E+03</pdfrwt>
<totfact> 0.19838807E+02</totfact>
</mgrwt>
</event>
<event>
 6    1  0.4261782E-002  0.1274242E+03  0.7546771E-02  0.1231329E+00
         21   -1    0    0  504  502  0.00000000000E+00  0.00000000000E+00  0.16395940211E+03  0.16395940211E+03  0.00000000000E+00 0.  1.
         21   -1    0    0  502  503 -0.00000000000E+00 -0.00000000000E+00 -0.37117400114E+02  0.37117400114E+02  0.00000000000E+00 0. -1.
         25    2    1    2    0    0 -0.24644728232E+02 -0.23216487170E+01  0.87425418183E+02  0.15453198767E+03  0.12499671510E+03 0.  0.
          5    1    3    3  501    0  0.46459036916E+02 -0.22517447826E+02  0.23161576912E+02  0.56585742134E+02  0.10000000000E+00 0.  1.
         -5    1    3    3    0  501 -0.71103765148E+02  0.20195799109E+02  0.64263841271E+02  0.97946245537E+02  0.10000000000E+00 0.  1.
         21    1    1    2  504  503  0.24644728232E+02  0.23216487170E+01  0.39416583815E+02  0.46544814556E+02  0.00000000000E+00 0.  1.
<mgrwt>
<rscale>  1 0.12742422E+03</rscale>
<asrwt>0</asrwt>
<pdfrwt beam="1">  1       21 0.25224523E-01 0.12742422E+03</pdfrwt>
<pdfrwt beam="2">  1       21 0.57103693E-02 0.12742422E+03</pdfrwt>
<totfact> 0.31614506E+06</totfact>
</mgrwt>
</event>
<event>
 6    1  0.4261782E-002  0.1284215E+03  0.7546771E-02  0.1229817E+00
         21   -1    0    0  503  502  0.00000000000E+00  0.00000000000E+00  0.30606536227E+03  0.30606536227E+03  0.00000000000E+00 0. -1.
         21   -1    0    0  504  503 -0.00000000000E+00 -0.00000000000E+00 -0.24789879510E+02  0.24789879510E+02  0.00000000000E+00 0. -1.
         25    2    1    2    0    0  0.27645424010E+02 -0.10168468021E+02  0.15548658602E+03  0.20166347055E+03  0.12499763882E+03 0.  0.
          5    1    3    3  501    0 -0.32521908189E+02  0.33046519395E+02  0.27848747712E+02  0.54086132285E+02  0.10000000000E+00 0.  1.
         -5    1    3    3    0  501  0.60167332198E+02 -0.43214987417E+02  0.12763783830E+03  0.14757733826E+03  0.10000000000E+00 0.  1.
         21    1    1    2  504  502 -0.27645424010E+02  0.10168468021E+02  0.12578889674E+03  0.12919177123E+03  0.00000000000E+00 0. -1.
<mgrwt>
<rscale>  1 0.12842148E+03</rscale>
<asrwt>0</asrwt>
<pdfrwt beam="1">  1       21 0.47086976E-01 0.12842148E+03</pdfrwt>
<pdfrwt beam="2">  1       21 0.38138278E-02 0.12842148E+03</pdfrwt>
<totfact> 0.18249575E+06</totfact>
</mgrwt>
</event>
<event>
 6    1  0.4261782E-002  0.1296880E+03  0.7546771E-02  0.1227919E+00
         21   -1    0    0  504  502  0.00000000000E+00  0.00000000000E+00  0.10266495275E+03  0.10266495275E+03  0.00000000000E+00 0.  1.
         21   -1    0    0  502  503 -0.00000000000E+00 -0.00000000000E+00 -0.10699557772E+03  0.10699557772E+03  0.00000000000E+00 0.  1.
         25    2    1    2    0    0 -0.30376427078E+02 -0.16493651526E+02 -0.60971571930E+02  0.14330569089E+03  0.12499688234E+03 0.  0.
          5    1    3    3  501    0  0.23264192012E+02 -0.37396300515E+02 -0.72275179162E+02  0.84636974457E+02  0.10000000000E+00 0.  1.
         -5    1    3    3    0  501 -0.53640619090E+02  0.20902648989E+02  0.11303607232E+02  0.58668716430E+02  0.10000000000E+00 0.  1.
         21    1    1    2  504  503  0.30376427078E+02  0.16493651526E+02  0.56640946963E+02  0.66354839579E+02  0.00000000000E+00 0.  1.
<mgrwt>
<rscale>  1 0.12968804E+03</rscale>
<asrwt>0</asrwt>
<pdfrwt beam="1">  1       21 0.15794608E-01 0.12968804E+03</pdfrwt>
<pdfrwt beam="2">  1       21 0.16460858E-01 0.12968804E+03</pdfrwt>
<totfact> 0.11809298E+06</totfact>
</mgrwt>
</event>
<event>
 6    1  0.4261782E-002  0.1273906E+03  0.7546771E-02  0.1231380E+00
         21   -1    0    0  504  502  0.00000000000E+00  0.00000000000E+00  0.88735970962E+02  0.88735970962E+02  0.00000000000E+00 0. -1.
         21   -1    0    0  502  503 -0.00000000000E+00 -0.00000000000E+00 -0.68101567098E+02  0.68101567098E+02  0.00000000000E+00 0. -1.
         25    2    1    2    0    0 -0.17739769121E+02 -0.16974151275E+02  0.29450088060E+02  0.13075042423E+03  0.12500217810E+03 0.  0.
          5    1    3    3  501    0 -0.25709700189E+02 -0.65318534073E+02  0.39768566673E+02  0.80678674211E+02  0.10000000000E+00 0.  1.
         -5    1    3    3    0  501  0.79699310689E+01  0.48344382798E+02 -0.10318478614E+02  0.50071750022E+02  0.10000000000E+00 0.  1.
         21    1    1    2  504  503  0.17739769121E+02  0.16974151275E+02 -0.88156841959E+01  0.26087113826E+02  0.00000000000E+00 0. -1.
<mgrwt>
<rscale>  1 0.12739060E+03</rscale>
<asrwt>0</asrwt>
<pdfrwt beam="1">  1       21 0.13651688E-01 0.12739060E+03</pdfrwt>
<pdfrwt beam="2">  1       21 0.10477164E-01 0.12739060E+03</pdfrwt>
<totfact> 0.34359042E+06</totfact>
</mgrwt>
</event>
<event>
 6    1  0.4261782E-002  0.1269786E+03  0.7546771E-02  0.1232009E+00
         21   -1    0    0  504  502  0.00000000000E+00  0.00000000000E+00  0.33065678401E+02  0.33065678401E+02  0.00000000000E+00 0.  1.
         21   -1    0    0  502  503 -0.00000000000E+00 -0.00000000000E+00 -0.67352340115E+03  0.67352340115E+03  0.00000000000E+00 0.  1.
         25    2    1    2    0    0 -0.18547780873E+02 -0.12322276319E+02 -0.66291308912E+03  0.67496468790E+03  0.12501082958E+03 0.  0.
          5    1    3    3  501    0 -0.30064809360E+02 -0.64203138883E+02 -0.44821883365E+03  0.45379077628E+03  0.10000000000E+00 0. -1.
         -5    1    3    3    0  501  0.11517028487E+02  0.51880862564E+02 -0.21469425547E+03  0.22117391161E+03  0.10000000000E+00 0. -1.
         21    1    1    2  504  503  0.18547780873E+02  0.12322276319E+02  0.22455366367E+02  0.31624391657E+02  0.00000000000E+00 0.  1.
<mgrwt>
<rscale>  1 0.12697861E+03</rscale>
<asrwt>0</asrwt>
<pdfrwt beam="1">  1       21 0.50870278E-02 0.12697861E+03</pdfrwt>
<pdfrwt beam="2">  1       21 0.10361898E+00 0.12697861E+03</pdfrwt>
<totfact> 0.20126123E+05</totfact>
</mgrwt>
</event>
<event>
 6    1  0.4261782E-002  0.1260670E+03  0.7546771E-02  0.1233411E+00
         21   -1    0    0  504  502  0.00000000000E+00  0.00000000000E+00  0.38096574669E+03  0.38096574669E+03  0.00000000000E+00 0.  1.
         21   -1    0    0  502  503 -0.00000000000E+00 -0.00000000000E+00 -0.58108573614E+02  0.58108573614E+02  0.00000000000E+00 0. -1.
         25    2    1    2    0    0 -0.47004751455E+01 -0.15657269897E+02  0.10733806481E+02  0.12652313963E+03  0.12500258274E+03 0.  0.
          5    1    3    3  501    0  0.39664534928E+02 -0.29998556708E+02  0.46248262659E+02  0.67912447568E+02  0.10000000000E+00 0. -1.
         -5    1    3    3    0  501 -0.44365010074E+02  0.14341286811E+02 -0.35514456178E+02  0.58610692061E+02  0.10000000000E+00 0. -1.
         21    1    1    2  504  503  0.47004751455E+01  0.15657269897E+02  0.31212336659E+03  0.31255118067E+03  0.00000000000E+00 0.  1.
<mgrwt>
<rscale>  1 0.12606701E+03</rscale>
<asrwt>0</asrwt>
<pdfrwt beam="1">  1       21 0.58610113E-01 0.12606701E+03</pdfrwt>
<pdfrwt beam="2">  1       21 0.89397808E-02 0.12606701E+03</pdfrwt>
<totfact> 0.27354717E+05</totfact>
</mgrwt>
</event>
<event>
 6    1  0.4261782E-002  0.1289149E+03  0.7546771E-02  0.1229075E+00
         21   -1    0    0  504  502  0.00000000000E+00  0.00000000000E+00  0.37900210692E+02  0.37900210692E+02  0.00000000000E+00 0. -1.
         21   -1    0    0  502  503 -0.00000000000E+00 -0.00000000000E+00 -0.37048741134E+03  0.37048741134E+03  0.00000000000E+00 0. -1.
         25    2    1    2    0    0 -0.69238741450E+01  0.30784834315E+02 -0.34954919027E+03  0.37256367545E+03  0.12499363900E+03 0.  0.
          5    1    3    3  501    0 -0.79648815529E+01 -0.31150779689E+02 -0.26917688827E+03  0.27109042327E+03  0.10000000000E+00 0. -1.
         -5    1    3    3    0  501  0.10410074078E+01  0.61935614004E+02 -0.80372301999E+02  0.10147325218E+03  0.10000000000E+00 0. -1.
         21    1    1    2  504  503  0.69238741450E+01 -0.30784834315E+02  0.16961989618E+02  0.35823946583E+02  0.00000000000E+00 0. -1.
<mgrwt>
<rscale>  1 0.12891492E+03</rscale>
<asrwt>0</asrwt>
<pdfrwt beam="1">  1       21 0.58308019E-02 0.12891492E+03</pdfrwt>
<pdfrwt beam="2">  1       21 0.56998061E-01 0.12891492E+03</pdfrwt>
<totfact> 0.60317307E+05</totfact>
</mgrwt>
</event>
<event>
 6    1  0.4261782E-002  0.1264482E+03  0.7546771E-02  0.1232823E+00
         21   -1    0    0  504  502  0.00000000000E+00  0.00000000000E+00  0.10552842668E+03  0.10552842668E+03  0.00000000000E+00 0.  1.
         21   -1    0    0  502  503 -0.00000000000E+00 -0.00000000000E+00 -0.54794078780E+02  0.54794078780E+02  0.00000000000E+00 0.  1.
         25    2    1    2    0    0 -0.18722611540E+02 -0.37202920443E+01  0.26024831597E+02  0.12909852507E+03  0.12499904223E+03 0.  0.
          5    1    3    3  501    0  0.11725673143E+01  0.20825908810E+02 -0.45966849328E+02  0.50478258973E+02  0.10000000000E+00 0. -1.
         -5    1    3    3    0  501 -0.19895178854E+02 -0.24546200854E+02  0.71991680925E+02  0.78620266092E+02  0.10000000000E+00 0. -1.
         21    1    1    2  504  503  0.18722611540E+02  0.37202920443E+01  0.24709516307E+02  0.31223980398E+02  0.00000000000E+00 0.  1.
<mgrwt>
<rscale>  1 0.12644816E+03</rscale>
<asrwt>0</asrwt>
<pdfrwt beam="1">  1       21 0.16235143E-01 0.12644816E+03</pdfrwt>
<pdfrwt beam="2">  1       21 0.84298583E-02 0.12644816E+03</pdfrwt>
<totfact> 0.36709087E+06</totfact>
</mgrwt>
</event>
<event>
 6    1  0.4261782E-002  0.1286343E+03  0.7546771E-02  0.1229496E+00
         21   -1    0    0  503  502  0.00000000000E+00  0.00000000000E+00  0.42230251870E+02  0.42230251870E+02  0.00000000000E+00 0. -1.
         21   -1    0    0  504  503 -0.00000000000E+00 -0.00000000000E+00 -0.39955119440E+03  0.39955119440E+03  0.00000000000E+00 0.  1.
         25    2    1    2    0    0  0.15223583202E+02  0.26296550803E+02 -0.38172075493E+03  0.40281201062E+03  0.12499406020E+03 0.  0.
          5    1    3    3  501    0  0.92945724358E+01 -0.49510039745E+02 -0.11692366801E+03  0.12731373553E+03  0.10000000000E+00 0.  1.
         -5    1    3    3    0  501  0.59290107664E+01  0.75806590549E+02 -0.26479708692E+03  0.27549827509E+03  0.10000000000E+00 0.  1.
         21    1    1    2  504  502 -0.15223583202E+02 -0.26296550803E+02  0.24399812400E+02  0.38969435649E+02  0.00000000000E+00 0. -1.
<mgrwt>
<rscale>  1 0.12863429E+03</rscale>
<asrwt>0</asrwt>
<pdfrwt beam="1">  1       21 0.64969617E-02 0.12863429E+03</pdfrwt>
<pdfrwt beam="2">  1       21 0.61469415E-01 0.12863429E+03</pdfrwt>
<totfact> 0.42773056E+05</totfact>
</mgrwt>
</event>
<event>
 6    1  0.4261782E-002  0.1267118E+03  0.7546771E-02  0.1232418E+00
         21   -1    0    0  504  502  0.00000000000E+00  0.00000000000E+00  0.42936197532E+02  0.42936197532E+02  0.00000000000E+00 0. -1.
         21   -1    0    0  502  503 -0.00000000000E+00 -0.00000000000E+00 -0.12730823541E+03  0.12730823541E+03  0.00000000000E+00 0. -1.
         25    2    1    2    0    0 -0.20588173243E+02  0.18584627413E+01 -0.77130664280E+02  0.14834091147E+03  0.12501423872E+03 0.  0.
          5    1    3    3  501    0 -0.54438041818E+02 -0.43790943191E+02 -0.43710625358E+02  0.82412231323E+02  0.10000000000E+00 0. -1.
         -5    1    3    3    0  501  0.33849868575E+02  0.45649405932E+02 -0.33420038922E+02  0.65928680147E+02  0.10000000000E+00 0. -1.
         21    1    1    2  504  503  0.20588173243E+02 -0.18584627413E+01 -0.72413735980E+01  0.21903521471E+02  0.00000000000E+00 0.  1.
<mgrwt>
<rscale>  1 0.12671183E+03</rscale>
<asrwt>0</asrwt>
<pdfrwt beam="1">  1       21 0.66055689E-02 0.12671183E+03</pdfrwt>
<pdfrwt beam="2">  1       21 0.19585882E-01 0.12671183E+03</pdfrwt>
<totfact> 0.39590924E+06</totfact>
</mgrwt>
</event>
<event>
 6    1  0.4261782E-002  0.1361292E+03  0.7546771E-02  0.1218634E+00
         21   -1    0    0  504  502  0.00000000000E+00  0.00000000000E+00  0.63281062955E+02  0.63281062955E+02  0.00000000000E+00 0.  1.
         21   -1    0    0  502  503 -0.00000000000E+00 -0.00000000000E+00 -0.32437366704E+03  0.32437366704E+03  0.00000000000E+00 0.  1.
         25    2    1    2    0    0 -0.21099595849E+02  0.49601720509E+02 -0.29435957866E+03  0.32431268061E+03  0.12500251851E+03 0.  0.
          5    1    3    3  501    0 -0.71294513766E+02  0.28023311102E+02 -0.21257719396E+03  0.22595859587E+03  0.10000000000E+00 0. -1.
         -5    1    3    3    0  501  0.50194917916E+02  0.21578409407E+02 -0.81782384704E+02  0.98354084740E+02  0.10000000000E+00 0. -1.
         21    1    1    2  504  503  0.21099595849E+02 -0.49601720509E+02  0.33266974576E+02  0.63342049382E+02  0.00000000000E+00 0.  1.
<mgrwt>
<rscale>  1 0.13612918E+03</rscale>
<asrwt>0</asrwt>
<pdfrwt beam="1">  1       21 0.97355480E-02 0.13612918E+03</pdfrwt>
<pdfrwt beam="2">  1       21 0.49903642E-01 0.13612918E+03</pdfrwt>
<totfact> 0.32928720E+05</totfact>
</mgrwt>
</event>
<event>
 6    1  0.4261782E-002  0.1310649E+03  0.7546771E-02  0.1225884E+00
         21   -1    0    0  504  502  0.00000000000E+00  0.00000000000E+00  0.93955792033E+02  0.93955792033E+02  0.00000000000E+00 0.  1.
         21   -1    0    0  502  503 -0.00000000000E+00 -0.00000000000E+00 -0.82949562894E+02  0.82949562894E+02  0.00000000000E+00 0.  1.
         25    2    1    2    0    0  0.72793094853E+01  0.38733296661E+02 -0.11417648627E+02  0.13156126037E+03  0.12499898365E+03 0.  0.
          5    1    3    3  501    0  0.64796858730E+02  0.18878626018E+02 -0.19320738339E+02  0.70202110734E+02  0.10000000000E+00 0. -1.
         -5    1    3    3    0  501 -0.57517549244E+02  0.19854670644E+02  0.79030897124E+01  0.61359149639E+02  0.10000000000E+00 0. -1.
         21    1    1    2  504  503 -0.72793094853E+01 -0.38733296661E+02  0.22423877766E+02  0.45344094554E+02  0.00000000000E+00 0.  1.
<mgrwt>
<rscale>  1 0.13106488E+03</rscale>
<asrwt>0</asrwt>
<pdfrwt beam="1">  1       21 0.14454737E-01 0.13106488E+03</pdfrwt>
<pdfrwt beam="2">  1       21 0.12761471E-01 0.13106488E+03</pdfrwt>
<totfact> 0.21908895E+06</totfact>
</mgrwt>
</event>
<event>
 6    1  0.4261782E-002  0.1289571E+03  0.7546771E-02  0.1229011E+00
         21   -1    0    0  503  502  0.00000000000E+00  0.00000000000E+00  0.11326464512E+03  0.11326464512E+03  0.00000000000E+00 0.  1.
         21   -1    0    0  504  503 -0.00000000000E+00 -0.00000000000E+00 -0.69204697260E+02  0.69204697260E+02  0.00000000000E+00 0.  1.
         25    2    1    2    0    0  0.19758223357E+02  0.24823545862E+02  0.97204573219E+00  0.12896080914E+03  0.12499339824E+03 0.  0.
          5    1    3    3  501    0  0.47037828025E+02 -0.37512963401E+02  0.73791510576E+01  0.60615522424E+02  0.10000000000E+00 0. -1.
         -5    1    3    3    0  501 -0.27279604668E+02  0.62336509264E+02 -0.64071053254E+01  0.68345286719E+02  0.10000000000E+00 0. -1.
         21    1    1    2  504  502 -0.19758223357E+02 -0.24823545862E+02  0.43087902131E+02  0.53508533240E+02  0.00000000000E+00 0.  1.
<mgrwt>
<rscale>  1 0.12895715E+03</rscale>
<asrwt>0</asrwt>
<pdfrwt beam="1">  1       21 0.17425330E-01 0.12895715E+03</pdfrwt>
<pdfrwt beam="2">  1       21 0.10646876E-01 0.12895715E+03</pdfrwt>
<totfact> 0.21502458E+06</totfact>
</mgrwt>
</event>
<event>
 6    1  0.4261782E-002  0.1261171E+03  0.7546771E-02  0.1233334E+00
         21   -1    0    0  504  502  0.00000000000E+00  0.00000000000E+00  0.46692873094E+03  0.46692873094E+03  0.00000000000E+00 0. -1.
         21   -1    0    0  502  503 -0.00000000000E+00 -0.00000000000E+00 -0.25583931206E+03  0.25583931206E+03  0.00000000000E+00 0. -1.
         25    2    1    2    0    0 -0.99404355498E+01 -0.13483384064E+02 -0.24013195174E+03  0.27123583018E+03  0.12499962970E+03 0.  0.
          5    1    3    3  501    0 -0.43756761403E+02  0.14271438920E+02 -0.21684590525E+03  0.22167653182E+03  0.10000000000E+00 0.  1.
         -5    1    3    3    0  501  0.33816325854E+02 -0.27754822985E+02 -0.23286046488E+02  0.49559298363E+02  0.10000000000E+00 0.  1.
         21    1    1    2  504  503  0.99404355498E+01  0.13483384064E+02  0.45122137062E+03  0.45153221281E+03  0.00000000000E+00 0. -1.
<mgrwt>
<rscale>  1 0.12611709E+03</rscale>
<asrwt>0</asrwt>
<pdfrwt beam="1">  1       21 0.71835189E-01 0.12611709E+03</pdfrwt>
<pdfrwt beam="2">  1       21 0.39359894E-01 0.12611709E+03</pdfrwt>
<totfact> 0.11450551E+04</totfact>
</mgrwt>
</event>
<event>
 6    1  0.4261782E-002  0.1274969E+03  0.7546771E-02  0.1231218E+00
         21   -1    0    0  504  502  0.00000000000E+00  0.00000000000E+00  0.10752063657E+02  0.10752063657E+02  0.00000000000E+00 0.  1.
         21   -1    0    0  502  503 -0.00000000000E+00 -0.00000000000E+00 -0.65006545538E+03  0.65006545538E+03  0.00000000000E+00 0.  1.
         25    2    1    2    0    0  0.36728953252E+01  0.24849150357E+02 -0.60502419018E+03  0.61831199262E+03  0.12499791631E+03 0.  0.
          5    1    3    3  501    0  0.22514003251E+02  0.57402560157E+02 -0.15642896394E+03  0.16814269242E+03  0.10000000000E+00 0.  1.
         -5    1    3    3    0  501 -0.18841107926E+02 -0.32553409800E+02 -0.44859522625E+03  0.45016930021E+03  0.10000000000E+00 0.  1.
         21    1    1    2  504  503 -0.36728953252E+01 -0.24849150357E+02 -0.34289201542E+02  0.42505526416E+02  0.00000000000E+00 0.  1.
<mgrwt>
<rscale>  1 0.12749686E+03</rscale>
<asrwt>0</asrwt>
<pdfrwt beam="1">  1       21 0.16541635E-02 0.12749686E+03</pdfrwt>
<pdfrwt beam="2">  1       21 0.10001008E+00 0.12749686E+03</pdfrwt>
<totfact> 0.13783584E+06</totfact>
</mgrwt>
</event>
<event>
 6    1  0.4261782E-002  0.1259450E+03  0.7546771E-02  0.1233600E+00
         21   -1    0    0  504  502  0.00000000000E+00  0.00000000000E+00  0.39455493770E+02  0.39455493770E+02  0.00000000000E+00 0. -1.
         21   -1    0    0  502  503 -0.00000000000E+00 -0.00000000000E+00 -0.32544907208E+03  0.32544907208E+03  0.00000000000E+00 0. -1.
         25    2    1    2    0    0 -0.84492085605E+01  0.12748281151E+02 -0.31103248872E+03  0.33556423810E+03  0.12501296353E+03 0.  0.
          5    1    3    3  501    0 -0.65717057083E+01 -0.55835795774E+02 -0.11819687470E+03  0.13088672429E+03  0.10000000000E+00 0.  1.
         -5    1    3    3    0  501 -0.18775028521E+01  0.68584076924E+02 -0.19283561402E+03  0.20467751381E+03  0.10000000000E+00 0.  1.
         21    1    1    2  504  503  0.84492085605E+01 -0.12748281151E+02  0.25038910415E+02  0.29340327748E+02  0.00000000000E+00 0. -1.
<mgrwt>
<rscale>  1 0.12594502E+03</rscale>
<asrwt>0</asrwt>
<pdfrwt beam="1">  1       21 0.60700761E-02 0.12594502E+03</pdfrwt>
<pdfrwt beam="2">  1       21 0.50069087E-01 0.12594502E+03</pdfrwt>
<totfact> 0.73814911E+05</totfact>
</mgrwt>
</event>
<event>
 6    1  0.4261782E-002  0.1260741E+03  0.7546771E-02  0.1233400E+00
         21   -1    0    0  503  502  0.00000000000E+00  0.00000000000E+00  0.37777933313E+03  0.37777933313E+03  0.00000000000E+00 0. -1.
         21   -1    0    0  504  503 -0.00000000000E+00 -0.00000000000E+00 -0.56721898361E+02  0.56721898361E+02  0.00000000000E+00 0. -1.
         25    2    1    2    0    0  0.15456104049E+02 -0.55766486034E+01  0.13825098161E+02  0.12682981777E+03  0.12499871669E+03 0.  0.
          5    1    3    3  501    0  0.19464156508E+02  0.57289205640E+02  0.19527653323E+02  0.63578657707E+02  0.10000000000E+00 0. -1.
         -5    1    3    3    0  501 -0.40080524593E+01 -0.62865854244E+02 -0.57025551621E+01  0.63251160066E+02  0.10000000000E+00 0. -1.
         21    1    1    2  504  502 -0.15456104049E+02  0.55766486034E+01  0.30723233661E+03  0.30767141372E+03  0.00000000000E+00 0. -1.
<mgrwt>
<rscale>  1 0.12607406E+03</rscale>
<asrwt>0</asrwt>
<pdfrwt beam="1">  1       21 0.58119896E-01 0.12607406E+03</pdfrwt>
<pdfrwt beam="2">  1       21 0.87264461E-02 0.12607406E+03</pdfrwt>
<totfact> 0.29035184E+05</totfact>
</mgrwt>
</event>
<event>
 6    1  0.4261782E-002  0.1291437E+03  0.7546771E-02  0.1228732E+00
         21   -1    0    0  504  502  0.00000000000E+00  0.00000000000E+00  0.80640980256E+02  0.80640980256E+02  0.00000000000E+00 0. -1.
         21   -1    0    0  502  503 -0.00000000000E+00 -0.00000000000E+00 -0.88381276653E+02  0.88381276653E+02  0.00000000000E+00 0. -1.
         25    2    1    2    0    0 -0.18817642239E+02  0.26426928329E+02 -0.26086495753E+02  0.13175203782E+03  0.12500243201E+03 0.  0.
          5    1    3    3  501    0 -0.32526452312E+02  0.72849871745E+02 -0.84222614287E+01  0.80224799164E+02  0.10000000000E+00 0. -1.
         -5    1    3    3    0  501  0.13708810072E+02 -0.46422943416E+02 -0.17664234324E+02  0.51527238654E+02  0.10000000000E+00 0. -1.
         21    1    1    2  504  503  0.18817642239E+02 -0.26426928329E+02  0.18346199355E+02  0.37270219091E+02  0.00000000000E+00 0.  1.
<mgrwt>
<rscale>  1 0.12914370E+03</rscale>
<asrwt>0</asrwt>
<pdfrwt beam="1">  1       21 0.12406305E-01 0.12914370E+03</pdfrwt>
<pdfrwt beam="2">  1       21 0.13597119E-01 0.12914370E+03</pdfrwt>
<totfact> 0.25694819E+06</totfact>
</mgrwt>
</event>
<event>
 6    1  0.4261782E-002  0.1327280E+03  0.7546771E-02  0.1223463E+00
         21   -1    0    0  503  502  0.00000000000E+00  0.00000000000E+00  0.73760073728E+01  0.73760073728E+01  0.00000000000E+00 0. -1.
         21   -1    0    0  504  503 -0.00000000000E+00 -0.00000000000E+00 -0.11663303772E+04  0.11663303772E+04  0.00000000000E+00 0. -1.
         25    2    1    2    0    0  0.34644569585E+02  0.28139089949E+02 -0.99392596186E+03  0.10027489922E+04  0.12499867613E+03 0.  0.
          5    1    3    3  501    0  0.64135124115E+02 -0.11566979007E+02 -0.29679706670E+03  0.30386776392E+03  0.10000000000E+00 0.  1.
         -5    1    3    3    0  501 -0.29490554529E+02  0.39706068956E+02 -0.69712889515E+03  0.69888122823E+03  0.10000000000E+00 0.  1.
         21    1    1    2  504  502 -0.34644569585E+02 -0.28139089949E+02 -0.16502840802E+03  0.17095739247E+03  0.00000000000E+00 0. -1.
<mgrwt>
<rscale>  1 0.13272801E+03</rscale>
<asrwt>0</asrwt>
<pdfrwt beam="1">  1       21 0.11347711E-02 0.13272801E+03</pdfrwt>
<pdfrwt beam="2">  1       21 0.17943533E+00 0.13272801E+03</pdfrwt>
<totfact> 0.57408436E+05</totfact>
</mgrwt>
</event>
<event>
 6    1  0.4261782E-002  0.1300559E+03  0.7546771E-02  0.1227373E+00
         21   -1    0    0  504  502  0.00000000000E+00  0.00000000000E+00  0.13880839749E+03  0.13880839749E+03  0.00000000000E+00 0. -1.
         21   -1    0    0  502  503 -0.00000000000E+00 -0.00000000000E+00 -0.50000330816E+02  0.50000330816E+02  0.00000000000E+00 0. -1.
         25    2    1    2    0    0  0.30118124153E+02 -0.19519706211E+02  0.76389090960E+02  0.15083042804E+03  0.12500561776E+03 0.  0.
          5    1    3    3  501    0 -0.72272894404E+01  0.24506462112E+02  0.88265764562E+02  0.91889366042E+02  0.10000000000E+00 0.  1.
         -5    1    3    3    0  501  0.37345413594E+02 -0.44026168323E+02 -0.11876673603E+02  0.58941061999E+02  0.10000000000E+00 0.  1.
         21    1    1    2  504  503 -0.30118124153E+02  0.19519706211E+02  0.12418975712E+02  0.37978300262E+02  0.00000000000E+00 0. -1.
<mgrwt>
<rscale>  1 0.13005585E+03</rscale>
<asrwt>0</asrwt>
<pdfrwt beam="1">  1       21 0.21355138E-01 0.13005585E+03</pdfrwt>
<pdfrwt beam="2">  1       21 0.76923587E-02 0.13005585E+03</pdfrwt>
<totfact> 0.26013789E+06</totfact>
</mgrwt>
</event>
<event>
 6    1  0.4261782E-002  0.1272935E+03  0.7546771E-02  0.1231528E+00
         21   -1    0    0  504  502  0.00000000000E+00  0.00000000000E+00  0.33804474629E+03  0.33804474629E+03  0.00000000000E+00 0.  1.
         21   -1    0    0  502  503 -0.00000000000E+00 -0.00000000000E+00 -0.21768495248E+02  0.21768495248E+02  0.00000000000E+00 0.  1.
         25    2    1    2    0    0 -0.23567950565E+02 -0.48606419193E+01  0.17442031410E+03  0.21593071661E+03  0.12499821707E+03 0.  0.
          5    1    3    3  501    0 -0.41844625821E+02  0.44266246857E+02  0.14144653184E+03  0.15400520994E+03  0.10000000000E+00 0. -1.
         -5    1    3    3    0  501  0.18276675256E+02 -0.49126888777E+02  0.32973782263E+02  0.61925506667E+02  0.10000000000E+00 0. -1.
         21    1    1    2  504  503  0.23567950565E+02  0.48606419193E+01  0.14185593694E+03  0.14388252493E+03  0.00000000000E+00 0.  1.
<mgrwt>
<rscale>  1 0.12729347E+03</rscale>
<asrwt>0</asrwt>
<pdfrwt beam="1">  1       21 0.52006880E-01 0.12729347E+03</pdfrwt>
<pdfrwt beam="2">  1       21 0.33489995E-02 0.12729347E+03</pdfrwt>
<totfact> 0.18430939E+06</totfact>
</mgrwt>
</event>
<event>
 6    1  0.4261782E-002  0.1267655E+03  0.7546771E-02  0.1232336E+00
         21   -1    0    0  503  502  0.00000000000E+00  0.00000000000E+00  0.41531519238E+02  0.41531519238E+02  0.00000000000E+00 0.  1.
         21   -1    0    0  504  503 -0.00000000000E+00 -0.00000000000E+00 -0.13299080659E+03  0.13299080659E+03  0.00000000000E+00 0.  1.
         25    2    1    2    0    0  0.58353405879E+01  0.20258510189E+02 -0.84390007746E+02  0.15228647305E+03  0.12500015212E+03 0.  0.
          5    1    3    3  501    0 -0.10402291874E+02  0.69511574578E+02 -0.68255396059E+02  0.97973852469E+02  0.10000000000E+00 0. -1.
         -5    1    3    3    0  501  0.16237632461E+02 -0.49253064388E+02 -0.16134611687E+02  0.54312620576E+02  0.10000000000E+00 0. -1.
         21    1    1    2  504  502 -0.58353405879E+01 -0.20258510189E+02 -0.70692796071E+01  0.22235852784E+02  0.00000000000E+00 0.  1.
<mgrwt>
<rscale>  1 0.12676552E+03</rscale>
<asrwt>0</asrwt>
<pdfrwt beam="1">  1       21 0.63894645E-02 0.12676552E+03</pdfrwt>
<pdfrwt beam="2">  1       21 0.20460124E-01 0.12676552E+03</pdfrwt>
<totfact> 0.38649899E+06</totfact>
</mgrwt>
</event>
<event>
 6    1  0.4261782E-002  0.1264075E+03  0.7546771E-02  0.1232886E+00
         21   -1    0    0  503  502  0.00000000000E+00  0.00000000000E+00  0.11843776568E+03  0.11843776568E+03  0.00000000000E+00 0.  1.
         21   -1    0    0  504  503 -0.00000000000E+00 -0.00000000000E+00 -0.22434724751E+03  0.22434724751E+03  0.00000000000E+00 0.  1.
         25    2    1    2    0    0  0.77714555085E+01 -0.17198891738E+02 -0.20558522334E+03  0.24133822496E+03  0.12499062915E+03 0.  0.
          5    1    3    3  501    0 -0.96475399299E+01  0.52894003565E+02 -0.78157432475E+02  0.94865404078E+02  0.10000000000E+00 0. -1.
         -5    1    3    3    0  501  0.17418995438E+02 -0.70092895303E+02 -0.12742779086E+03  0.14647282088E+03  0.10000000000E+00 0. -1.
         21    1    1    2  504  502 -0.77714555085E+01  0.17198891738E+02  0.99675741506E+02  0.10144678823E+03  0.00000000000E+00 0.  1.
<mgrwt>
<rscale>  1 0.12640749E+03</rscale>
<asrwt>0</asrwt>
<pdfrwt beam="1">  1       21 0.18221195E-01 0.12640749E+03</pdfrwt>
<pdfrwt beam="2">  1       21 0.34514961E-01 0.12640749E+03</pdfrwt>
<totfact> 0.22582457E+05</totfact>
</mgrwt>
</event>
<event>
 6    1  0.4261782E-002  0.1333340E+03  0.7546771E-02  0.1222591E+00
         21   -1    0    0  503  502  0.00000000000E+00  0.00000000000E+00  0.29096820058E+03  0.29096820058E+03  0.00000000000E+00 0. -1.
         21   -1    0    0  504  503 -0.00000000000E+00 -0.00000000000E+00 -0.28719741319E+02  0.28719741319E+02  0.00000000000E+00 0. -1.
         25    2    1    2    0    0 -0.30848176129E+02  0.34658970293E+02  0.21818366673E+03  0.25569919185E+03  0.12500044037E+03 0.  0.
          5    1    3    3  501    0 -0.14616774102E+02  0.40638303650E+02  0.69313616453E+01  0.43739862631E+02  0.10000000000E+00 0.  1.
         -5    1    3    3    0  501 -0.16231402027E+02 -0.59793333574E+01  0.21125230508E+03  0.21195932921E+03  0.10000000000E+00 0.  1.
         21    1    1    2  504  502  0.30848176129E+02 -0.34658970293E+02  0.44064792531E+02  0.63988750051E+02  0.00000000000E+00 0. -1.
<mgrwt>
<rscale>  1 0.13333403E+03</rscale>
<asrwt>0</asrwt>
<pdfrwt beam="1">  1       21 0.44764336E-01 0.13333403E+03</pdfrwt>
<pdfrwt beam="2">  1       21 0.44184219E-02 0.13333403E+03</pdfrwt>
<totfact> 0.15850185E+06</totfact>
</mgrwt>
</event>
<event>
 6    1  0.4261782E-002  0.1357371E+03  0.7546771E-02  0.1219183E+00
         21   -1    0    0  504  502  0.00000000000E+00  0.00000000000E+00  0.11101006836E+03  0.11101006836E+03  0.00000000000E+00 0.  1.
         21   -1    0    0  502  503 -0.00000000000E+00 -0.00000000000E+00 -0.84723755855E+02  0.84723755855E+02  0.00000000000E+00 0.  1.
         25    2    1    2    0    0  0.50087600080E+02 -0.16986682217E+02 -0.20070175710E+01  0.13575193044E+03  0.12500897345E+03 0.  0.
          5    1    3    3  501    0 -0.12045177498E+01  0.43375032046E+02 -0.28859847037E+02  0.52112810700E+02  0.10000000000E+00 0.  1.
         -5    1    3    3    0  501  0.51292117829E+02 -0.60361714263E+02  0.26852829466E+02  0.83639119738E+02  0.10000000000E+00 0.  1.
         21    1    1    2  504  503 -0.50087600080E+02  0.16986682217E+02  0.28293330079E+02  0.59981893780E+02  0.00000000000E+00 0.  1.
<mgrwt>
<rscale>  1 0.13573709E+03</rscale>
<asrwt>0</asrwt>
<pdfrwt beam="1">  1       21 0.17078472E-01 0.13573709E+03</pdfrwt>
<pdfrwt beam="2">  1       21 0.13034424E-01 0.13573709E+03</pdfrwt>
<totfact> 0.15609363E+06</totfact>
</mgrwt>
</event>
<event>
 6    1  0.4261782E-002  0.1269817E+03  0.7546771E-02  0.1232004E+00
         21   -1    0    0  504  502  0.00000000000E+00  0.00000000000E+00  0.99016196483E+03  0.99016196483E+03  0.00000000000E+00 0.  1.
         21   -1    0    0  502  503 -0.00000000000E+00 -0.00000000000E+00 -0.16541468419E+02  0.16541468419E+02  0.00000000000E+00 0.  1.
         25    2    1    2    0    0  0.21901257958E+02  0.22289677765E+01  0.22974026409E+03  0.26249752530E+03  0.12505889990E+03 0.  0.
          5    1    3    3  501    0 -0.31225533815E+02 -0.15382846334E+02  0.19167463128E+03  0.19480975386E+03  0.10000000000E+00 0.  1.
         -5    1    3    3    0  501  0.53126791773E+02  0.17611814111E+02  0.38065632813E+02  0.67687771435E+02  0.10000000000E+00 0.  1.
         21    1    1    2  504  503 -0.21901257958E+02 -0.22289677765E+01  0.74388023232E+03  0.74420590795E+03  0.00000000000E+00 0.  1.
<mgrwt>
<rscale>  1 0.12698174E+03</rscale>
<asrwt>0</asrwt>
<pdfrwt beam="1">  1       21 0.15233256E+00 0.12698174E+03</pdfrwt>
<pdfrwt beam="2">  1       21 0.25448421E-02 0.12698174E+03</pdfrwt>
<totfact> 0.24416687E+05</totfact>
</mgrwt>
</event>
<event>
 6    1  0.4261782E-002  0.1455358E+03  0.7546771E-02  0.1206068E+00
         21   -1    0    0  503  502  0.00000000000E+00  0.00000000000E+00  0.10013082777E+03  0.10013082777E+03  0.00000000000E+00 0. -1.
         21   -1    0    0  504  503 -0.00000000000E+00 -0.00000000000E+00 -0.18411146915E+03  0.18411146915E+03  0.00000000000E+00 0. -1.
         25    2    1    2    0    0 -0.62386599940E+02 -0.40780927198E+02 -0.13125508800E+03  0.19598106432E+03  0.12500203027E+03 0.  0.
          5    1    3    3  501    0 -0.40461937908E+02 -0.78544268968E+02 -0.12315392781E+03  0.15156935885E+03  0.10000000000E+00 0.  1.
         -5    1    3    3    0  501 -0.21924662032E+02  0.37763341770E+02 -0.81011601920E+01  0.44411705476E+02  0.10000000000E+00 0.  1.
         21    1    1    2  504  502  0.62386599940E+02  0.40780927198E+02  0.47274446628E+02  0.88261232595E+02  0.00000000000E+00 0. -1.
<mgrwt>
<rscale>  1 0.14553584E+03</rscale>
<asrwt>0</asrwt>
<pdfrwt beam="1">  1       21 0.15404743E-01 0.14553584E+03</pdfrwt>
<pdfrwt beam="2">  1       21 0.28324841E-01 0.14553584E+03</pdfrwt>
<totfact> 0.44855413E+05</totfact>
</mgrwt>
</event>
<event>
 6    1  0.4261782E-002  0.1266912E+03  0.7546771E-02  0.1232450E+00
         21   -1    0    0  504  502  0.00000000000E+00  0.00000000000E+00  0.18219189451E+03  0.18219189451E+03  0.00000000000E+00 0.  1.
         21   -1    0    0  502  503 -0.00000000000E+00 -0.00000000000E+00 -0.97044504390E+02  0.97044504390E+02  0.00000000000E+00 0.  1.
         25    2    1    2    0    0 -0.17636558530E+02 -0.10454848661E+02 -0.54626834050E+02  0.13796649482E+03  0.12502124074E+03 0.  0.
          5    1    3    3  501    0 -0.43292865714E+02 -0.20613518501E+02 -0.84588466054E+02  0.97233779912E+02  0.10000000000E+00 0.  1.
         -5    1    3    3    0  501  0.25656307184E+02  0.10158669840E+02  0.29961632004E+02  0.40732714906E+02  0.10000000000E+00 0.  1.
         21    1    1    2  504  503  0.17636558530E+02  0.10454848661E+02  0.13977422417E+03  0.14126990409E+03  0.00000000000E+00 0.  1.
<mgrwt>
<rscale>  1 0.12669121E+03</rscale>
<asrwt>0</asrwt>
<pdfrwt beam="1">  1       21 0.28029522E-01 0.12669121E+03</pdfrwt>
<pdfrwt beam="2">  1       21 0.14929924E-01 0.12669121E+03</pdfrwt>
<totfact> 0.48515768E+05</totfact>
</mgrwt>
</event>
<event>
 6    1  0.4261782E-002  0.1312047E+03  0.7546771E-02  0.1225679E+00
         21   -1    0    0  504  502  0.00000000000E+00  0.00000000000E+00  0.45709292800E+03  0.45709292800E+03  0.00000000000E+00 0. -1.
         21   -1    0    0  502  503 -0.00000000000E+00 -0.00000000000E+00 -0.16890336449E+02  0.16890336449E+02  0.00000000000E+00 0. -1.
         25    2    1    2    0    0  0.36177749667E+02 -0.16733100942E+02  0.28511865218E+03  0.31385876761E+03  0.12500341573E+03 0.  0.
          5    1    3    3  501    0  0.59080449025E+02  0.64878451082E+01  0.53539806348E+02  0.79994452651E+02  0.10000000000E+00 0.  1.
         -5    1    3    3    0  501 -0.22902699357E+02 -0.23220946050E+02  0.23157884584E+03  0.23386431496E+03  0.10000000000E+00 0.  1.
         21    1    1    2  504  503 -0.36177749667E+02  0.16733100942E+02  0.15508393937E+03  0.16012449684E+03  0.00000000000E+00 0. -1.
<mgrwt>
<rscale>  1 0.13120473E+03</rscale>
<asrwt>0</asrwt>
<pdfrwt beam="1">  1       21 0.70321980E-01 0.13120473E+03</pdfrwt>
<pdfrwt beam="2">  1       21 0.25985136E-02 0.13120473E+03</pdfrwt>
<totfact> 0.14711003E+06</totfact>
</mgrwt>
</event>
<event>
 6    1  0.4261782E-002  0.1264181E+03  0.7546771E-02  0.1232869E+00
         21   -1    0    0  504  502  0.00000000000E+00  0.00000000000E+00  0.57113978861E+02  0.57113978861E+02  0.00000000000E+00 0.  1.
         21   -1    0    0  502  503 -0.00000000000E+00 -0.00000000000E+00 -0.16159283841E+03  0.16159283841E+03  0.00000000000E+00 0.  1.
         25    2    1    2    0    0  0.18386671966E+02 -0.43153358575E+01 -0.13364270055E+03  0.18396172479E+03  0.12499941180E+03 0.  0.
          5    1    3    3  501    0  0.23107662279E+02  0.15838916131E+02 -0.15304636269E+03  0.15558931342E+03  0.10000000000E+00 0.  1.
         -5    1    3    3    0  501 -0.47209903124E+01 -0.20154251989E+02  0.19403662136E+02  0.28372411372E+02  0.10000000000E+00 0.  1.
         21    1    1    2  504  503 -0.18386671966E+02  0.43153358575E+01  0.29163840998E+02  0.34745092478E+02  0.00000000000E+00 0.  1.
<mgrwt>
<rscale>  1 0.12641813E+03</rscale>
<asrwt>0</asrwt>
<pdfrwt beam="1">  1       21 0.87867660E-02 0.12641813E+03</pdfrwt>
<pdfrwt beam="2">  1       21 0.24860437E-01 0.12641813E+03</pdfrwt>
<totfact> 0.15538494E+06</totfact>
</mgrwt>
</event>
<event>
 6    1  0.4261782E-002  0.1266204E+03  0.7546771E-02  0.1232558E+00
         21   -1    0    0  503  502  0.00000000000E+00  0.00000000000E+00  0.33707143778E+03  0.33707143778E+03  0.00000000000E+00 0. -1.
         21   -1    0    0  504  503 -0.00000000000E+00 -0.00000000000E+00 -0.31877251303E+02  0.31877251303E+02  0.00000000000E+00 0. -1.
         25    2    1    2    0    0 -0.18468527756E+02 -0.82118808170E+01  0.96302395404E+02  0.15908134555E+03  0.12499680651E+03 0.  0.
          5    1    3    3  501    0  0.46276834711E+02 -0.21035896459E+02  0.73265397236E+02  0.89173330110E+02  0.10000000000E+00 0.  1.
         -5    1    3    3    0  501 -0.64745362466E+02  0.12824015642E+02  0.23036998168E+02  0.69908015439E+02  0.10000000000E+00 0.  1.
         21    1    1    2  504  502  0.18468527756E+02  0.82118808170E+01  0.20889179107E+03  0.20986734353E+03  0.00000000000E+00 0. -1.
<mgrwt>
<rscale>  1 0.12662039E+03</rscale>
<asrwt>0</asrwt>
<pdfrwt beam="1">  1       21 0.51857142E-01 0.12662039E+03</pdfrwt>
<pdfrwt beam="2">  1       21 0.49041927E-02 0.12662039E+03</pdfrwt>
<totfact> 0.98362111E+05</totfact>
</mgrwt>
</event>
<event>
 6    1  0.4261782E-002  0.1353410E+03  0.7546771E-02  0.1219739E+00
         21   -1    0    0  503  502  0.00000000000E+00  0.00000000000E+00  0.61277201984E+02  0.61277201984E+02  0.00000000000E+00 0. -1.
         21   -1    0    0  504  503 -0.00000000000E+00 -0.00000000000E+00 -0.16884262141E+03  0.16884262141E+03  0.00000000000E+00 0. -1.
         25    2    1    2    0    0  0.11847582367E+02  0.50513945165E+02 -0.11513145892E+03  0.17768635300E+03  0.12500065338E+03 0.  0.
          5    1    3    3  501    0  0.46219608425E+02  0.68073755030E+02 -0.36341309940E+02  0.89949925709E+02  0.10000000000E+00 0. -1.
         -5    1    3    3    0  501 -0.34372026057E+02 -0.17559809865E+02 -0.78790148980E+02  0.87736427292E+02  0.10000000000E+00 0. -1.
         21    1    1    2  504  502 -0.11847582367E+02 -0.50513945165E+02  0.75660394916E+01  0.52433470395E+02  0.00000000000E+00 0. -1.
<mgrwt>
<rscale>  1 0.13534100E+03</rscale>
<asrwt>0</asrwt>
<pdfrwt beam="1">  1       21 0.94272618E-02 0.13534100E+03</pdfrwt>
<pdfrwt beam="2">  1       21 0.25975788E-01 0.13534100E+03</pdfrwt>
<totfact> 0.12667356E+06</totfact>
</mgrwt>
</event>
<event>
 6    1  0.4261782E-002  0.1349926E+03  0.7546771E-02  0.1220230E+00
         21   -1    0    0  503  502  0.00000000000E+00  0.00000000000E+00  0.23107295891E+02  0.23107295891E+02  0.00000000000E+00 0.  1.
         21   -1    0    0  504  503 -0.00000000000E+00 -0.00000000000E+00 -0.44925907428E+03  0.44925907428E+03  0.00000000000E+00 0.  1.
         25    2    1    2    0    0 -0.23032071938E+02 -0.45437133061E+02 -0.38131096529E+03  0.40450100405E+03  0.12501200196E+03 0.  0.
          5    1    3    3  501    0 -0.63529261740E+02 -0.31629989618E+02 -0.11769673323E+03  0.13743709235E+03  0.10000000000E+00 0. -1.
         -5    1    3    3    0  501  0.40497189802E+02 -0.13807143444E+02 -0.26361423206E+03  0.26706391170E+03  0.10000000000E+00 0. -1.
         21    1    1    2  504  502  0.23032071938E+02  0.45437133061E+02 -0.44840813103E+02  0.67865366118E+02  0.00000000000E+00 0.  1.
<mgrwt>
<rscale>  1 0.13499263E+03</rscale>
<asrwt>0</asrwt>
<pdfrwt beam="1">  1       21 0.35549690E-02 0.13499263E+03</pdfrwt>
<pdfrwt beam="2">  1       21 0.69116772E-01 0.13499263E+03</pdfrwt>
<totfact> 0.91317477E+05</totfact>
</mgrwt>
</event>
<event>
 6    1  0.4261782E-002  0.1261141E+03  0.7546771E-02  0.1233338E+00
         21   -1    0    0  503  502  0.00000000000E+00  0.00000000000E+00  0.22827384499E+03  0.22827384499E+03  0.00000000000E+00 0.  1.
         21   -1    0    0  504  503 -0.00000000000E+00 -0.00000000000E+00 -0.29799780162E+02  0.29799780162E+02  0.00000000000E+00 0.  1.
         25    2    1    2    0    0 -0.10668676701E+01 -0.16760954902E+02  0.10795353980E+03  0.16600825018E+03  0.12499081790E+03 0.  0.
          5    1    3    3  501    0  0.63673782633E+01 -0.12451979805E+02  0.13597826064E+03  0.13669562053E+03  0.10000000000E+00 0.  1.
         -5    1    3    3    0  501 -0.74342459335E+01 -0.43089750972E+01 -0.28024720840E+02  0.29312629653E+02  0.10000000000E+00 0.  1.
         21    1    1    2  504  502  0.10668676701E+01  0.16760954902E+02  0.90520525035E+02  0.92065374970E+02  0.00000000000E+00 0.  1.
<mgrwt>
<rscale>  1 0.12611412E+03</rscale>
<asrwt>0</asrwt>
<pdfrwt beam="1">  1       21 0.35119052E-01 0.12611412E+03</pdfrwt>
<pdfrwt beam="2">  1       21 0.45845817E-02 0.12611412E+03</pdfrwt>
<totfact> 0.24162252E+06</totfact>
</mgrwt>
</event>
<event>
 6    1  0.4261782E-002  0.1789645E+03  0.7546771E-02  0.1168809E+00
         21   -1    0    0  503  502  0.00000000000E+00  0.00000000000E+00  0.58277741247E+03  0.58277741247E+03  0.00000000000E+00 0.  1.
         21   -1    0    0  504  503 -0.00000000000E+00 -0.00000000000E+00 -0.27419772798E+03  0.27419772798E+03  0.00000000000E+00 0. -1.
         25    2    1    2    0    0 -0.11930099965E+03 -0.46583057960E+02 -0.23676537973E+03  0.29679307284E+03  0.12500229295E+03 0.  0.
          5    1    3    3  501    0  0.61039214262E+01 -0.14886755782E+02 -0.12445327907E+03  0.12548905142E+03  0.10000000000E+00 0. -1.
         -5    1    3    3    0  501 -0.12540492108E+03 -0.31696302177E+02 -0.11231210066E+03  0.17130402142E+03  0.10000000000E+00 0. -1.
         21    1    1    2  504  502  0.11930099965E+03  0.46583057960E+02  0.54534506422E+03  0.56018206761E+03  0.00000000000E+00 0.  1.
<mgrwt>
<rscale>  1 0.17896447E+03</rscale>
<asrwt>0</asrwt>
<pdfrwt beam="1">  1       21 0.89658063E-01 0.17896447E+03</pdfrwt>
<pdfrwt beam="2">  1       21 0.42184266E-01 0.17896447E+03</pdfrwt>
<totfact> 0.57932716E+03</totfact>
</mgrwt>
</event>
<event>
 6    1  0.4261782E-002  0.1555516E+03  0.7546771E-02  0.1193813E+00
         21   -1    0    0  504  502  0.00000000000E+00  0.00000000000E+00  0.95020512732E+02  0.95020512732E+02  0.00000000000E+00 0. -1.
         21   -1    0    0  502  503 -0.00000000000E+00 -0.00000000000E+00 -0.21356274305E+03  0.21356274305E+03  0.00000000000E+00 0. -1.
         25    2    1    2    0    0 -0.79478132110E+02 -0.47524701532E+02 -0.14460329974E+03  0.21238268365E+03  0.12498367605E+03 0.  0.
          5    1    3    3  501    0  0.20684504151E+02  0.13228252379E+02  0.21031150525E+01  0.24642817734E+02  0.10000000000E+00 0.  1.
         -5    1    3    3    0  501 -0.10016263626E+03 -0.60752953911E+02 -0.14670641480E+03  0.18773986592E+03  0.10000000000E+00 0.  1.
         21    1    1    2  504  503  0.79478132110E+02  0.47524701532E+02  0.26061069424E+02  0.96200572134E+02  0.00000000000E+00 0. -1.
<mgrwt>
<rscale>  1 0.15555157E+03</rscale>
<asrwt>0</asrwt>
<pdfrwt beam="1">  1       21 0.14618540E-01 0.15555157E+03</pdfrwt>
<pdfrwt beam="2">  1       21 0.32855806E-01 0.15555157E+03</pdfrwt>
<totfact> 0.36933132E+05</totfact>
</mgrwt>
</event>
<event>
 6    1  0.4261782E-002  0.1437830E+03  0.7546771E-02  0.1208327E+00
         21   -1    0    0  504  502  0.00000000000E+00  0.00000000000E+00  0.25084610293E+03  0.25084610293E+03  0.00000000000E+00 0.  1.
         21   -1    0    0  502  503 -0.00000000000E+00 -0.00000000000E+00 -0.89710409443E+02  0.89710409443E+02  0.00000000000E+00 0.  1.
         25    2    1    2    0    0 -0.15126484173E+02 -0.69432934134E+02 -0.20758767330E+02  0.14527380003E+03  0.12499523066E+03 0.  0.
          5    1    3    3  501    0 -0.46044241941E+02 -0.47861851454E+02  0.37207706356E+02  0.76126555504E+02  0.10000000000E+00 0. -1.
         -5    1    3    3    0  501  0.30917757768E+02 -0.21571082680E+02 -0.57966473686E+02  0.69147244522E+02  0.10000000000E+00 0. -1.
         21    1    1    2  504  503  0.15126484173E+02  0.69432934134E+02  0.18189446081E+03  0.19528271234E+03  0.00000000000E+00 0.  1.
<mgrwt>
<rscale>  1 0.14378300E+03</rscale>
<asrwt>0</asrwt>
<pdfrwt beam="1">  1       21 0.38591708E-01 0.14378300E+03</pdfrwt>
<pdfrwt beam="2">  1       21 0.13801602E-01 0.14378300E+03</pdfrwt>
<totfact> 0.29860107E+05</totfact>
</mgrwt>
</event>
<event>
 6    1  0.4261782E-002  0.1337038E+03  0.7546771E-02  0.1222061E+00
         21   -1    0    0  503  502  0.00000000000E+00  0.00000000000E+00  0.24071906956E+02  0.24071906956E+02  0.00000000000E+00 0.  1.
         21   -1    0    0  504  503 -0.00000000000E+00 -0.00000000000E+00 -0.34101370357E+03  0.34101370357E+03  0.00000000000E+00 0.  1.
         25    2    1    2    0    0 -0.34415818322E+02 -0.32667219357E+02 -0.23767721924E+03  0.27270342070E+03  0.12500039737E+03 0.  0.
          5    1    3    3  501    0 -0.56785752464E+02 -0.31968081902E+02 -0.24137674109E+03  0.25001864147E+03  0.10000000000E+00 0. -1.
         -5    1    3    3    0  501  0.22369934142E+02 -0.69913745522E+00  0.36995218492E+01  0.22684779227E+02  0.10000000000E+00 0. -1.
         21    1    1    2  504  502  0.34415818322E+02  0.32667219357E+02 -0.79264577374E+02  0.92382189829E+02  0.00000000000E+00 0.  1.
<mgrwt>
<rscale>  1 0.13370376E+03</rscale>
<asrwt>0</asrwt>
<pdfrwt beam="1">  1       21 0.37033703E-02 0.13370376E+03</pdfrwt>
<pdfrwt beam="2">  1       21 0.52463647E-01 0.13370376E+03</pdfrwt>
<totfact> 0.15342324E+06</totfact>
</mgrwt>
</event>
<event>
 6    1  0.4261782E-002  0.1264961E+03  0.7546771E-02  0.1232749E+00
         21   -1    0    0  503  502  0.00000000000E+00  0.00000000000E+00  0.12485030355E+02  0.12485030355E+02  0.00000000000E+00 0.  1.
         21   -1    0    0  504  503 -0.00000000000E+00 -0.00000000000E+00 -0.43549080472E+03  0.43549080472E+03  0.00000000000E+00 0.  1.
         25    2    1    2    0    0  0.67024190795E+01 -0.18191669325E+02 -0.38601012839E+03  0.40620817922E+03  0.12500162556E+03 0.  0.
          5    1    3    3  501    0 -0.10735699582E+02 -0.67670255632E+02 -0.27528504548E+03  0.28368360017E+03  0.10000000000E+00 0.  1.
         -5    1    3    3    0  501  0.17438118662E+02  0.49478586307E+02 -0.11072508291E+03  0.12252457905E+03  0.10000000000E+00 0.  1.
         21    1    1    2  504  502 -0.67024190795E+01  0.18191669325E+02 -0.36995645969E+02  0.41767655848E+02  0.00000000000E+00 0.  1.
<mgrwt>
<rscale>  1 0.12649611E+03</rscale>
<asrwt>0</asrwt>
<pdfrwt beam="1">  1       21 0.19207738E-02 0.12649611E+03</pdfrwt>
<pdfrwt beam="2">  1       21 0.66998588E-01 0.12649611E+03</pdfrwt>
<totfact> 0.26649577E+06</totfact>
</mgrwt>
</event>
<event>
 6    1  0.4261782E-002  0.1355248E+03  0.7546771E-02  0.1219481E+00
         21   -1    0    0  503  502  0.00000000000E+00  0.00000000000E+00  0.93316228543E+03  0.93316228543E+03  0.00000000000E+00 0.  1.
         21   -1    0    0  504  503 -0.00000000000E+00 -0.00000000000E+00 -0.12321091669E+02  0.12321091669E+02  0.00000000000E+00 0.  1.
         25    2    1    2    0    0  0.51566727283E+02  0.90876738551E+01  0.82692321306E+03  0.83795523995E+03  0.12500108277E+03 0.  0.
          5    1    3    3  501    0  0.66841331615E+01  0.55272498475E+02  0.58373826150E+03  0.58638732478E+03  0.10000000000E+00 0.  1.
         -5    1    3    3    0  501  0.44882594121E+02 -0.46184824620E+02  0.24318495155E+03  0.25156791517E+03  0.10000000000E+00 0.  1.
         21    1    1    2  504  502 -0.51566727283E+02 -0.90876738551E+01  0.93917980700E+02  0.10752813714E+03  0.00000000000E+00 0.  1.
<mgrwt>
<rscale>  1 0.13552485E+03</rscale>
<asrwt>0</asrwt>
<pdfrwt beam="1">  1       21 0.14356337E+00 0.13552485E+03</pdfrwt>
<pdfrwt beam="2">  1       21 0.18955533E-02 0.13552485E+03</pdfrwt>
<totfact> 0.45732001E+05</totfact>
</mgrwt>
</event>
<event>
 6    1  0.4261782E-002  0.1287310E+03  0.7546771E-02  0.1229351E+00
         21   -1    0    0  504  502  0.00000000000E+00  0.00000000000E+00  0.14868208366E+02  0.14868208366E+02  0.00000000000E+00 0.  1.
         21   -1    0    0  502  503 -0.00000000000E+00 -0.00000000000E+00 -0.44223252048E+03  0.44223252048E+03  0.00000000000E+00 0.  1.
         25    2    1    2    0    0  0.14256156323E+02 -0.27164514978E+02 -0.37415257958E+03  0.39567893022E+03  0.12502205464E+03 0.  0.
          5    1    3    3  501    0  0.53582043474E+02  0.21290776482E+02 -0.10931871880E+03  0.12359176682E+03  0.10000000000E+00 0.  1.
         -5    1    3    3    0  501 -0.39325887151E+02 -0.48455291460E+02 -0.26483386078E+03  0.27208716340E+03  0.10000000000E+00 0.  1.
         21    1    1    2  504  503 -0.14256156323E+02  0.27164514978E+02 -0.53211732541E+02  0.61421798631E+02  0.00000000000E+00 0.  1.
<mgrwt>
<rscale>  1 0.12873097E+03</rscale>
<asrwt>0</asrwt>
<pdfrwt beam="1">  1       21 0.22874168E-02 0.12873097E+03</pdfrwt>
<pdfrwt beam="2">  1       21 0.68035768E-01 0.12873097E+03</pdfrwt>
<totfact> 0.19444998E+06</totfact>
</mgrwt>
</event>
<event>
 6    1  0.4261782E-002  0.1266218E+03  0.7546771E-02  0.1232556E+00
         21   -1    0    0  504  502  0.00000000000E+00  0.00000000000E+00  0.11051124010E+03  0.11051124010E+03  0.00000000000E+00 0. -1.
         21   -1    0    0  502  503 -0.00000000000E+00 -0.00000000000E+00 -0.50722418353E+02  0.50722418353E+02  0.00000000000E+00 0. -1.
         25    2    1    2    0    0 -0.11988811358E+02  0.16268133719E+02  0.39603127141E+02  0.13267063972E+03  0.12499882876E+03 0.  0.
          5    1    3    3  501    0 -0.35795568950E+01  0.38569245342E+02 -0.36316880551E+02  0.53097323160E+02  0.10000000000E+00 0.  1.
         -5    1    3    3    0  501 -0.84092544626E+01 -0.22301111623E+02  0.75920007691E+02  0.79573316558E+02  0.10000000000E+00 0.  1.
         21    1    1    2  504  503  0.11988811358E+02 -0.16268133719E+02  0.20185694607E+02  0.28563018734E+02  0.00000000000E+00 0. -1.
<mgrwt>
<rscale>  1 0.12662184E+03</rscale>
<asrwt>0</asrwt>
<pdfrwt beam="1">  1       21 0.17001729E-01 0.12662184E+03</pdfrwt>
<pdfrwt beam="2">  1       21 0.78034490E-02 0.12662184E+03</pdfrwt>
<totfact> 0.38568078E+06</totfact>
</mgrwt>
</event>
<event>
 6    1  0.4261782E-002  0.1261698E+03  0.7546771E-02  0.1233252E+00
         21   -1    0    0  504  502  0.00000000000E+00  0.00000000000E+00  0.19177838161E+03  0.19177838161E+03  0.00000000000E+00 0. -1.
         21   -1    0    0  502  503 -0.00000000000E+00 -0.00000000000E+00 -0.31986042883E+02  0.31986042883E+02  0.00000000000E+00 0. -1.
         25    2    1    2    0    0 -0.10567808965E+02  0.13330547846E+02  0.98243815895E+02  0.15990831472E+03  0.12501775739E+03 0.  0.
          5    1    3    3  501    0  0.78045391537E+01 -0.38152736883E+02 -0.86106191761E+01  0.39883516967E+02  0.10000000000E+00 0.  1.
         -5    1    3    3    0  501 -0.18372348119E+02  0.51483284729E+02  0.10685443507E+03  0.12002479776E+03  0.10000000000E+00 0.  1.
         21    1    1    2  504  503  0.10567808965E+02 -0.13330547846E+02  0.61548522836E+02  0.63856109774E+02  0.00000000000E+00 0. -1.
<mgrwt>
<rscale>  1 0.12616981E+03</rscale>
<asrwt>0</asrwt>
<pdfrwt beam="1">  1       21 0.29504366E-01 0.12616981E+03</pdfrwt>
<pdfrwt beam="2">  1       21 0.49209298E-02 0.12616981E+03</pdfrwt>
<totfact> 0.30110232E+06</totfact>
</mgrwt>
</event>
<event>
 6    1  0.4261782E-002  0.1259323E+03  0.7546771E-02  0.1233619E+00
         21   -1    0    0  504  502  0.00000000000E+00  0.00000000000E+00  0.88370353488E+02  0.88370353488E+02  0.00000000000E+00 0.  1.
         21   -1    0    0  502  503 -0.00000000000E+00 -0.00000000000E+00 -0.86072996467E+02  0.86072996467E+02  0.00000000000E+00 0.  1.
         25    2    1    2    0    0  0.14821200179E+02  0.43227260336E+01 -0.37794608563E+02  0.13148151061E+03  0.12498240381E+03 0.  0.
          5    1    3    3  501    0  0.62628672380E+02  0.28225039882E+02 -0.52322821521E+01  0.68894050954E+02  0.10000000000E+00 0. -1.
         -5    1    3    3    0  501 -0.47807472200E+02 -0.23902313848E+02 -0.32562326411E+02  0.62587459660E+02  0.10000000000E+00 0. -1.
         21    1    1    2  504  503 -0.14821200179E+02 -0.43227260336E+01  0.40091965584E+02  0.42961839340E+02  0.00000000000E+00 0.  1.
<mgrwt>
<rscale>  1 0.12593234E+03</rscale>
<asrwt>0</asrwt>
<pdfrwt beam="1">  1       21 0.13595439E-01 0.12593234E+03</pdfrwt>
<pdfrwt beam="2">  1       21 0.13241999E-01 0.12593234E+03</pdfrwt>
<totfact> 0.22865506E+06</totfact>
</mgrwt>
</event>
<event>
 6    1  0.4261782E-002  0.1286811E+03  0.7546771E-02  0.1229426E+00
         21   -1    0    0  503  502  0.00000000000E+00  0.00000000000E+00  0.13483111315E+04  0.13483111315E+04  0.00000000000E+00 0.  1.
         21   -1    0    0  504  503 -0.00000000000E+00 -0.00000000000E+00 -0.47107143336E+01  0.47107143336E+01  0.00000000000E+00 0.  1.
         25    2    1    2    0    0  0.29543911887E+02  0.77918009511E+01  0.10612837892E+04  0.10690566485E+04  0.12500112604E+03 0.  0.
          5    1    3    3  501    0 -0.22613710437E+02 -0.38307771570E+02  0.19634329170E+03  0.20131955558E+03  0.10000000000E+00 0. -1.
         -5    1    3    3    0  501  0.52157622325E+02  0.46099572521E+02  0.86494049749E+03  0.86773709288E+03  0.10000000000E+00 0. -1.
         21    1    1    2  504  502 -0.29543911887E+02 -0.77918009511E+01  0.28231662799E+03  0.28396519740E+03  0.00000000000E+00 0.  1.
<mgrwt>
<rscale>  1 0.12868114E+03</rscale>
<asrwt>0</asrwt>
<pdfrwt beam="1">  1       21 0.20743217E+00 0.12868114E+03</pdfrwt>
<pdfrwt beam="2">  1       21 0.72472636E-03 0.12868114E+03</pdfrwt>
<totfact> 0.76927211E+05</totfact>
</mgrwt>
</event>
<event>
 6    1  0.4261782E-002  0.1426597E+03  0.7546771E-02  0.1209794E+00
         21   -1    0    0  504  502  0.00000000000E+00  0.00000000000E+00  0.33334743449E+03  0.33334743449E+03  0.00000000000E+00 0. -1.
         21   -1    0    0  502  503 -0.00000000000E+00 -0.00000000000E+00 -0.34669205870E+02  0.34669205870E+02  0.00000000000E+00 0. -1.
         25    2    1    2    0    0 -0.23326355024E+02  0.64672395390E+02  0.16834706224E+03  0.22066383077E+03  0.12500062112E+03 0.  0.
          5    1    3    3  501    0  0.13870745616E+02  0.26312056338E+02  0.16441704675E+03  0.16708589753E+03  0.10000000000E+00 0.  1.
         -5    1    3    3    0  501 -0.37197100640E+02  0.38360339052E+02  0.39300154920E+01  0.53577933237E+02  0.10000000000E+00 0.  1.
         21    1    1    2  504  503  0.23326355024E+02 -0.64672395390E+02  0.13033116639E+03  0.14735280960E+03  0.00000000000E+00 0. -1.
<mgrwt>
<rscale>  1 0.14265971E+03</rscale>
<asrwt>0</asrwt>
<pdfrwt beam="1">  1       21 0.51284219E-01 0.14265971E+03</pdfrwt>
<pdfrwt beam="2">  1       21 0.53337242E-02 0.14265971E+03</pdfrwt>
<totfact> 0.87415412E+05</totfact>
</mgrwt>
</event>
<event>
 6    1  0.4261782E-002  0.1436860E+03  0.7546771E-02  0.1208454E+00
         21   -1    0    0  504  502  0.00000000000E+00  0.00000000000E+00  0.38070205792E+02  0.38070205792E+02  0.00000000000E+00 0. -1.
         21   -1    0    0  502  503 -0.00000000000E+00 -0.00000000000E+00 -0.30244426957E+03  0.30244426957E+03  0.00000000000E+00 0. -1.
         25    2    1    2    0    0  0.70190403677E+02 -0.96278507338E+01 -0.18124372520E+03  0.23128974615E+03  0.12500508179E+03 0.  0.
          5    1    3    3  501    0 -0.34598421639E+02 -0.73779109737E+01 -0.70093578617E+02  0.78514992922E+02  0.10000000000E+00 0. -1.
         -5    1    3    3    0  501  0.10478882532E+03 -0.22499397601E+01 -0.11115014658E+03  0.15277475323E+03  0.10000000000E+00 0. -1.
         21    1    1    2  504  503 -0.70190403677E+02  0.96278507338E+01 -0.83130338581E+02  0.10922472921E+03  0.00000000000E+00 0. -1.
<mgrwt>
<rscale>  1 0.14368597E+03</rscale>
<asrwt>0</asrwt>
<pdfrwt beam="1">  1       21 0.58569547E-02 0.14368597E+03</pdfrwt>
<pdfrwt beam="2">  1       21 0.46529888E-01 0.14368597E+03</pdfrwt>
<totfact> 0.91176932E+05</totfact>
</mgrwt>
</event>
<event>
 6    1  0.4261782E-002  0.1265332E+03  0.7546771E-02  0.1232692E+00
         21   -1    0    0  504  502  0.00000000000E+00  0.00000000000E+00  0.17545294279E+03  0.17545294279E+03  0.00000000000E+00 0. -1.
         21   -1    0    0  502  503 -0.00000000000E+00 -0.00000000000E+00 -0.30464946743E+02  0.30464946743E+02  0.00000000000E+00 0. -1.
         25    2    1    2    0    0 -0.14976060182E+02  0.12701022284E+02  0.12733614584E+03  0.17951360652E+03  0.12500017017E+03 0.  0.
          5    1    3    3  501    0  0.39338650589E+02  0.47631677859E+02  0.57484419915E+02  0.84384682845E+02  0.10000000000E+00 0.  1.
         -5    1    3    3    0  501 -0.54314710772E+02 -0.34930655575E+02  0.69851725920E+02  0.95128923673E+02  0.10000000000E+00 0.  1.
         21    1    1    2  504  503  0.14976060182E+02 -0.12701022284E+02  0.17651850211E+02  0.26404283015E+02  0.00000000000E+00 0. -1.
<mgrwt>
<rscale>  1 0.12653316E+03</rscale>
<asrwt>0</asrwt>
<pdfrwt beam="1">  1       21 0.26992760E-01 0.12653316E+03</pdfrwt>
<pdfrwt beam="2">  1       21 0.46869150E-02 0.12653316E+03</pdfrwt>
<totfact> 0.38742877E+06</totfact>
</mgrwt>
</event>
<event>
 6    1  0.4261782E-002  0.1258563E+03  0.7546771E-02  0.1233737E+00
         21   -1    0    0  503  502  0.00000000000E+00  0.00000000000E+00  0.27487320401E+01  0.27487320401E+01  0.00000000000E+00 0. -1.
         21   -1    0    0  504  503 -0.00000000000E+00 -0.00000000000E+00 -0.23085073428E+04  0.23085073428E+04  0.00000000000E+00 0. -1.
         25    2    1    2    0    0  0.13251643067E+01  0.15170135038E+02 -0.22481095612E+04  0.22516297218E+04  0.12493164544E+03 0.  0.
          5    1    3    3  501    0 -0.38765109134E+02  0.46721933514E+02 -0.68416854778E+03  0.68685681516E+03  0.10000000000E+00 0. -1.
         -5    1    3    3    0  501  0.40090273440E+02 -0.31551798475E+02 -0.15639410134E+04  0.15647729067E+04  0.10000000000E+00 0. -1.
         21    1    1    2  504  502 -0.13251643067E+01 -0.15170135038E+02 -0.57649049536E+02  0.59626352982E+02  0.00000000000E+00 0. -1.
<mgrwt>
<rscale>  1 0.12585629E+03</rscale>
<asrwt>0</asrwt>
<pdfrwt beam="1">  1       21 0.42288313E-03 0.12585629E+03</pdfrwt>
<pdfrwt beam="2">  1       21 0.35515391E+00 0.12585629E+03</pdfrwt>
<totfact> 0.25232404E+05</totfact>
</mgrwt>
</event>
<event>
 6    1  0.4261782E-002  0.1281841E+03  0.7546771E-02  0.1230175E+00
         21   -1    0    0  503  502  0.00000000000E+00  0.00000000000E+00  0.66047386673E+03  0.66047386673E+03  0.00000000000E+00 0.  1.
         21   -1    0    0  504  503 -0.00000000000E+00 -0.00000000000E+00 -0.10780776265E+02  0.10780776265E+02  0.00000000000E+00 0.  1.
         25    2    1    2    0    0 -0.27671637397E+02 -0.63908049448E+01  0.40208361772E+03  0.42202179424E+03  0.12499838908E+03 0.  0.
          5    1    3    3  501    0 -0.60440537251E+02 -0.41531441722E+02  0.17210880431E+03  0.18708118482E+03  0.10000000000E+00 0.  1.
         -5    1    3    3    0  501  0.32768899854E+02  0.35140636778E+02  0.22997481341E+03  0.23494060942E+03  0.10000000000E+00 0.  1.
         21    1    1    2  504  502  0.27671637397E+02  0.63908049448E+01  0.24760947274E+03  0.24923284875E+03  0.00000000000E+00 0.  1.
<mgrwt>
<rscale>  1 0.12818408E+03</rscale>
<asrwt>0</asrwt>
<pdfrwt beam="1">  1       21 0.10161133E+00 0.12818408E+03</pdfrwt>
<pdfrwt beam="2">  1       21 0.16585815E-02 0.12818408E+03</pdfrwt>
<totfact> 0.13221983E+06</totfact>
</mgrwt>
</event>
<event>
 6    1  0.4261782E-002  0.1436007E+03  0.7546771E-02  0.1208565E+00
         21   -1    0    0  504  502  0.00000000000E+00  0.00000000000E+00  0.13144323348E+03  0.13144323348E+03  0.00000000000E+00 0. -1.
         21   -1    0    0  502  503 -0.00000000000E+00 -0.00000000000E+00 -0.12680495065E+03  0.12680495065E+03  0.00000000000E+00 0. -1.
         25    2    1    2    0    0 -0.70078993947E+02  0.90965272557E+01 -0.66256430659E+02  0.15814887044E+03  0.12500935332E+03 0.  0.
          5    1    3    3  501    0 -0.33864403206E+02  0.66112917651E+02 -0.47039991117E+02  0.87923184935E+02  0.10000000000E+00 0.  1.
         -5    1    3    3    0  501 -0.36214590742E+02 -0.57016390396E+02 -0.19216439542E+02  0.70225685507E+02  0.10000000000E+00 0.  1.
         21    1    1    2  504  503  0.70078993947E+02 -0.90965272557E+01  0.70894713489E+02  0.10009931369E+03  0.00000000000E+00 0. -1.
<mgrwt>
<rscale>  1 0.14360066E+03</rscale>
<asrwt>0</asrwt>
<pdfrwt beam="1">  1       21 0.20222036E-01 0.14360066E+03</pdfrwt>
<pdfrwt beam="2">  1       21 0.19508454E-01 0.14360066E+03</pdfrwt>
<totfact> 0.55006233E+05</totfact>
</mgrwt>
</event>
<event>
 6    1  0.4261782E-002  0.1297491E+03  0.7546771E-02  0.1227829E+00
         21   -1    0    0  503  502  0.00000000000E+00  0.00000000000E+00  0.85942703184E+02  0.85942703184E+02  0.00000000000E+00 0. -1.
         21   -1    0    0  504  503 -0.00000000000E+00 -0.00000000000E+00 -0.23455112113E+03  0.23455112113E+03  0.00000000000E+00 0. -1.
         25    2    1    2    0    0  0.32916170012E+02 -0.11285452177E+02 -0.21178385467E+03  0.24836913031E+03  0.12499595238E+03 0.  0.
          5    1    3    3  501    0  0.36915375315E+02  0.26548933838E+02 -0.14910140147E+02  0.47853036495E+02  0.10000000000E+00 0. -1.
         -5    1    3    3    0  501 -0.39992053031E+01 -0.37834386015E+02 -0.19687371452E+03  0.20051609382E+03  0.10000000000E+00 0. -1.
         21    1    1    2  504  502 -0.32916170012E+02  0.11285452177E+02  0.63175436728E+02  0.72124694002E+02  0.00000000000E+00 0.  1.
<mgrwt>
<rscale>  1 0.12974908E+03</rscale>
<asrwt>0</asrwt>
<pdfrwt beam="1">  1       21 0.13221955E-01 0.12974908E+03</pdfrwt>
<pdfrwt beam="2">  1       21 0.36084787E-01 0.12974908E+03</pdfrwt>
<totfact> 0.36924176E+05</totfact>
</mgrwt>
</event>
<event>
 6    1  0.4261782E-002  0.1363740E+03  0.7546771E-02  0.1218293E+00
         21   -1    0    0  504  502  0.00000000000E+00  0.00000000000E+00  0.61920137424E+02  0.61920137424E+02  0.00000000000E+00 0.  1.
         21   -1    0    0  502  503 -0.00000000000E+00 -0.00000000000E+00 -0.14782839695E+03  0.14782839695E+03  0.00000000000E+00 0.  1.
         25    2    1    2    0    0  0.46880474596E+02  0.27856399554E+02 -0.54842272992E+02  0.14698824905E+03  0.12499645018E+03 0.  0.
          5    1    3    3  501    0 -0.11040450326E+02 -0.20108005488E+02 -0.66991814095E+02  0.70810568307E+02  0.10000000000E+00 0.  1.
         -5    1    3    3    0  501  0.57920924922E+02  0.47964405042E+02  0.12149541103E+02  0.76177680746E+02  0.10000000000E+00 0.  1.
         21    1    1    2  504  503 -0.46880474596E+02 -0.27856399554E+02 -0.31065986537E+02  0.62760285324E+02  0.00000000000E+00 0.  1.
<mgrwt>
<rscale>  1 0.13637401E+03</rscale>
<asrwt>0</asrwt>
<pdfrwt beam="1">  1       21 0.95261751E-02 0.13637401E+03</pdfrwt>
<pdfrwt beam="2">  1       21 0.22742830E-01 0.13637401E+03</pdfrwt>
<totfact> 0.15986114E+06</totfact>
</mgrwt>
</event>
<event>
 6    1  0.4261782E-002  0.1265822E+03  0.7546771E-02  0.1232617E+00
         21   -1    0    0  503  502  0.00000000000E+00  0.00000000000E+00  0.11246534745E+02  0.11246534745E+02  0.00000000000E+00 0. -1.
         21   -1    0    0  504  503 -0.00000000000E+00 -0.00000000000E+00 -0.49202856779E+03  0.49202856779E+03  0.00000000000E+00 0. -1.
         25    2    1    2    0    0 -0.12646674430E+02  0.15215400788E+02 -0.37875603578E+03  0.39934844131E+03  0.12502638178E+03 0.  0.
          5    1    3    3  501    0  0.10879500943E+02  0.78520590904E+01  0.53554043482E+01  0.14446754946E+02  0.10000000000E+00 0. -1.
         -5    1    3    3    0  501 -0.23526175374E+02  0.73633416981E+01 -0.38411144012E+03  0.38490168636E+03  0.10000000000E+00 0. -1.
         21    1    1    2  504  502  0.12646674430E+02 -0.15215400788E+02 -0.10202599727E+03  0.10392666123E+03  0.00000000000E+00 0. -1.
<mgrwt>
<rscale>  1 0.12658216E+03</rscale>
<asrwt>0</asrwt>
<pdfrwt beam="1">  1       21 0.17302364E-02 0.12658216E+03</pdfrwt>
<pdfrwt beam="2">  1       21 0.75696690E-01 0.12658216E+03</pdfrwt>
<totfact> 0.24140251E+06</totfact>
</mgrwt>
</event>
<event>
 6    1  0.4261782E-002  0.1269193E+03  0.7546771E-02  0.1232100E+00
         21   -1    0    0  503  502  0.00000000000E+00  0.00000000000E+00  0.21269149101E+02  0.21269149101E+02  0.00000000000E+00 0.  1.
         21   -1    0    0  504  503 -0.00000000000E+00 -0.00000000000E+00 -0.26853578379E+03  0.26853578379E+03  0.00000000000E+00 0.  1.
         25    2    1    2    0    0  0.74014569502E+01  0.20715570203E+02 -0.22604538550E+03  0.25923930136E+03  0.12499833058E+03 0.  0.
          5    1    3    3  501    0 -0.52927387762E+02  0.33881931975E+01 -0.52224079254E+02  0.74432201918E+02  0.10000000000E+00 0. -1.
         -5    1    3    3    0  501  0.60328844712E+02  0.17327377006E+02 -0.17382130625E+03  0.18480709944E+03  0.10000000000E+00 0. -1.
         21    1    1    2  504  502 -0.74014569502E+01 -0.20715570203E+02 -0.21221249188E+02  0.30565631532E+02  0.00000000000E+00 0.  1.
<mgrwt>
<rscale>  1 0.12691926E+03</rscale>
<asrwt>0</asrwt>
<pdfrwt beam="1">  1       21 0.32721769E-02 0.12691926E+03</pdfrwt>
<pdfrwt beam="2">  1       21 0.41313195E-01 0.12691926E+03</pdfrwt>
<totfact> 0.30623322E+06</totfact>
</mgrwt>
</event>
<event>
 6    1  0.4261782E-002  0.1262985E+03  0.7546771E-02  0.1233054E+00
         21   -1    0    0  504  502  0.00000000000E+00  0.00000000000E+00  0.14608255728E+03  0.14608255728E+03  0.00000000000E+00 0.  1.
         21   -1    0    0  502  503 -0.00000000000E+00 -0.00000000000E+00 -0.36545514557E+02  0.36545514557E+02  0.00000000000E+00 0.  1.
         25    2    1    2    0    0  0.60092746771E+01  0.17010188797E+02  0.85264581256E+02  0.15238554729E+03  0.12500339316E+03 0.  0.
          5    1    3    3  501    0  0.31755738503E+02  0.63139684830E+02  0.32744083460E+02  0.77892436924E+02  0.10000000000E+00 0.  1.
         -5    1    3    3    0  501 -0.25746463826E+02 -0.46129496033E+02  0.52520497796E+02  0.74493110370E+02  0.10000000000E+00 0.  1.
         21    1    1    2  504  503 -0.60092746771E+01 -0.17010188797E+02  0.24272461468E+02  0.30242524544E+02  0.00000000000E+00 0. -1.
<mgrwt>
<rscale>  1 0.12629848E+03</rscale>
<asrwt>0</asrwt>
<pdfrwt beam="1">  1       21 0.22474239E-01 0.12629848E+03</pdfrwt>
<pdfrwt beam="2">  1       21 0.56223869E-02 0.12629848E+03</pdfrwt>
<totfact> 0.40304508E+06</totfact>
</mgrwt>
</event>
<event>
 6    1  0.4261782E-002  0.1463765E+03  0.7546771E-02  0.1204998E+00
         21   -1    0    0  503  502  0.00000000000E+00  0.00000000000E+00  0.10696883248E+04  0.10696883248E+04  0.00000000000E+00 0.  1.
         21   -1    0    0  504  503 -0.00000000000E+00 -0.00000000000E+00 -0.16149104633E+02  0.16149104633E+02  0.00000000000E+00 0.  1.
         25    2    1    2    0    0 -0.13023659052E+02 -0.75159054138E+02  0.36762152972E+03  0.39569137447E+03  0.12493028296E+03 0.  0.
          5    1    3    3  501    0 -0.39939983453E+02  0.20805988933E+01  0.34955631383E+02  0.53117203760E+02  0.10000000000E+00 0. -1.
         -5    1    3    3    0  501  0.26916324401E+02 -0.77239653032E+02  0.33266589833E+03  0.34257417071E+03  0.10000000000E+00 0. -1.
         21    1    1    2  504  502  0.13023659052E+02  0.75159054138E+02  0.68591769045E+03  0.69014605497E+03  0.00000000000E+00 0.  1.
<mgrwt>
<rscale>  1 0.14637648E+03</rscale>
<asrwt>0</asrwt>
<pdfrwt beam="1">  1       21 0.16456738E+00 0.14637648E+03</pdfrwt>
<pdfrwt beam="2">  1       21 0.24844785E-02 0.14637648E+03</pdfrwt>
<totfact> 0.20534965E+05</totfact>
</mgrwt>
</event>
<event>
 6    1  0.4261782E-002  0.1323993E+03  0.7546771E-02  0.1223938E+00
         21   -1    0    0  504  502  0.00000000000E+00  0.00000000000E+00  0.81607567911E+02  0.81607567911E+02  0.00000000000E+00 0.  1.
         21   -1    0    0  502  503 -0.00000000000E+00 -0.00000000000E+00 -0.11098965384E+03  0.11098965384E+03  0.00000000000E+00 0.  1.
         25    2    1    2    0    0  0.16227845254E+02  0.40526186658E+02 -0.53410802229E+02  0.14276656880E+03  0.12499545834E+03 0.  0.
          5    1    3    3  501    0  0.51460239830E+02  0.14241798891E+01 -0.70619006188E+02  0.87391295943E+02  0.10000000000E+00 0.  1.
         -5    1    3    3    0  501 -0.35232394576E+02  0.39102006769E+02  0.17208203959E+02  0.55375272861E+02  0.10000000000E+00 0.  1.
         21    1    1    2  504  503 -0.16227845254E+02 -0.40526186658E+02  0.24028716296E+02  0.49830652951E+02  0.00000000000E+00 0.  1.
<mgrwt>
<rscale>  1 0.13239932E+03</rscale>
<asrwt>0</asrwt>
<pdfrwt beam="1">  1       21 0.12555010E-01 0.13239932E+03</pdfrwt>
<pdfrwt beam="2">  1       21 0.17075331E-01 0.13239932E+03</pdfrwt>
<totfact> 0.16685300E+06</totfact>
</mgrwt>
</event>
<event>
 6    1  0.4261782E-002  0.1294161E+03  0.7546771E-02  0.1228325E+00
         21   -1    0    0  503  502  0.00000000000E+00  0.00000000000E+00  0.58515280275E+03  0.58515280275E+03  0.00000000000E+00 0.  1.
         21   -1    0    0  504  503 -0.00000000000E+00 -0.00000000000E+00 -0.19865926739E+02  0.19865926739E+02  0.00000000000E+00 0. -1.
         25    2    1    2    0    0  0.10522891052E+02  0.31808494944E+02  0.20013372442E+03  0.23833175712E+03  0.12500402880E+03 0.  0.
          5    1    3    3  501    0  0.63913761295E+02  0.36083485419E+02  0.92269723996E+02  0.11790122463E+03  0.10000000000E+00 0. -1.
         -5    1    3    3    0  501 -0.53390870243E+02 -0.42749904753E+01  0.10786400043E+03  0.12043053249E+03  0.10000000000E+00 0. -1.
         21    1    1    2  504  502 -0.10522891052E+02 -0.31808494944E+02  0.36515315159E+03  0.36668697237E+03  0.00000000000E+00 0.  1.
<mgrwt>
<rscale>  1 0.12941607E+03</rscale>
<asrwt>0</asrwt>
<pdfrwt beam="1">  1       21 0.90023495E-01 0.12941607E+03</pdfrwt>
<pdfrwt beam="2">  1       21 0.30562969E-02 0.12941607E+03</pdfrwt>
<totfact> 0.64980331E+05</totfact>
</mgrwt>
</event>
<event>
 6    1  0.4261782E-002  0.1275624E+03  0.7546771E-02  0.1231118E+00
         21   -1    0    0  503  502  0.00000000000E+00  0.00000000000E+00  0.63555009765E+03  0.63555009765E+03  0.00000000000E+00 0.  1.
         21   -1    0    0  504  503 -0.00000000000E+00 -0.00000000000E+00 -0.92542994784E+01  0.92542994784E+01  0.00000000000E+00 0.  1.
         25    2    1    2    0    0  0.14420393789E+02  0.20944903392E+02  0.53830461520E+03  0.55321244871E+03  0.12500207167E+03 0.  0.
          5    1    3    3  501    0 -0.36824393737E+02 -0.22986834525E+02  0.35915511827E+03  0.36176904168E+03  0.10000000000E+00 0. -1.
         -5    1    3    3    0  501  0.51244787526E+02  0.43931737917E+02  0.17914949693E+03  0.19144340703E+03  0.10000000000E+00 0. -1.
         21    1    1    2  504  502 -0.14420393789E+02 -0.20944903392E+02  0.87991182969E+02  0.91591948420E+02  0.00000000000E+00 0.  1.
<mgrwt>
<rscale>  1 0.12756236E+03</rscale>
<asrwt>0</asrwt>
<pdfrwt beam="1">  1       21 0.97776904E-01 0.12756236E+03</pdfrwt>
<pdfrwt beam="2">  1       21 0.14237389E-02 0.12756236E+03</pdfrwt>
<totfact> 0.18464113E+06</totfact>
</mgrwt>
</event>
<event>
 6    1  0.4261782E-002  0.1267174E+03  0.7546771E-02  0.1232409E+00
         21   -1    0    0  504  502  0.00000000000E+00  0.00000000000E+00  0.92372029445E+03  0.92372029445E+03  0.00000000000E+00 0. -1.
         21   -1    0    0  502  503 -0.00000000000E+00 -0.00000000000E+00 -0.60994383127E+01  0.60994383127E+01  0.00000000000E+00 0. -1.
         25    2    1    2    0    0 -0.20705972561E+02 -0.28223431652E+01  0.71680053797E+03  0.72791504458E+03  0.12498239065E+03 0.  0.
          5    1    3    3  501    0 -0.34380199860E+00 -0.25999617021E+01  0.70369234196E+03  0.70369723613E+03  0.10000000000E+00 0. -1.
         -5    1    3    3    0  501 -0.20362170563E+02 -0.22238146316E+00  0.13108196004E+02  0.24217808448E+02  0.10000000000E+00 0. -1.
         21    1    1    2  504  503  0.20705972561E+02  0.28223431652E+01  0.20082031816E+03  0.20190468818E+03  0.00000000000E+00 0. -1.
<mgrwt>
<rscale>  1 0.12671741E+03</rscale>
<asrwt>0</asrwt>
<pdfrwt beam="1">  1       21 0.14211070E+00 0.12671741E+03</pdfrwt>
<pdfrwt beam="2">  1       21 0.93837586E-03 0.12671741E+03</pdfrwt>
<totfact> 0.14390087E+06</totfact>
</mgrwt>
</event>
<event>
 6    1  0.4261782E-002  0.1260640E+03  0.7546771E-02  0.1233416E+00
         21   -1    0    0  504  502  0.00000000000E+00  0.00000000000E+00  0.13234445761E+03  0.13234445761E+03  0.00000000000E+00 0.  1.
         21   -1    0    0  502  503 -0.00000000000E+00 -0.00000000000E+00 -0.40642968021E+02  0.40642968021E+02  0.00000000000E+00 0.  1.
         25    2    1    2    0    0 -0.14962937279E+02 -0.64445905603E+01  0.65322454638E+02  0.14198297878E+03  0.12500688359E+03 0.  0.
          5    1    3    3  501    0  0.37429145596E+02 -0.66320312878E+01  0.79142933603E+02  0.87798284256E+02  0.10000000000E+00 0. -1.
         -5    1    3    3    0  501 -0.52392082875E+02  0.18744072744E+00 -0.13820478964E+02  0.54184694526E+02  0.10000000000E+00 0. -1.
         21    1    1    2  504  503  0.14962937279E+02  0.64445905603E+01  0.26379034956E+02  0.31004446854E+02  0.00000000000E+00 0.  1.
<mgrwt>
<rscale>  1 0.12606404E+03</rscale>
<asrwt>0</asrwt>
<pdfrwt beam="1">  1       21 0.20360686E-01 0.12606404E+03</pdfrwt>
<pdfrwt beam="2">  1       21 0.62527644E-02 0.12606404E+03</pdfrwt>
<totfact> 0.40450426E+06</totfact>
</mgrwt>
</event>
<event>
 6    1  0.4261782E-002  0.1467387E+03  0.7546771E-02  0.1204539E+00
         21   -1    0    0  504  502  0.00000000000E+00  0.00000000000E+00  0.34986662826E+03  0.34986662826E+03  0.00000000000E+00 0. -1.
         21   -1    0    0  502  503 -0.00000000000E+00 -0.00000000000E+00 -0.15506198966E+03  0.15506198966E+03  0.00000000000E+00 0.  1.
         25    2    1    2    0    0 -0.40920580259E+02 -0.65061217155E+02 -0.11455831979E+03  0.18616084055E+03  0.12499917622E+03 0.  0.
          5    1    3    3  501    0  0.38325232181E+02 -0.20780512323E+02 -0.75824422656E+02  0.87464313781E+02  0.10000000000E+00 0.  1.
         -5    1    3    3    0  501 -0.79245812440E+02 -0.44280704831E+02 -0.38733897135E+02  0.98696526772E+02  0.10000000000E+00 0.  1.
         21    1    1    2  504  503  0.40920580259E+02  0.65061217155E+02  0.30936295839E+03  0.31876777737E+03  0.00000000000E+00 0. -1.
<mgrwt>
<rscale>  1 0.14673871E+03</rscale>
<asrwt>0</asrwt>
<pdfrwt beam="1">  1       21 0.53825635E-01 0.14673871E+03</pdfrwt>
<pdfrwt beam="2">  1       21 0.23855691E-01 0.14673871E+03</pdfrwt>
<totfact> 0.55259506E+04</totfact>
</mgrwt>
</event>
<event>
 6    1  0.4261782E-002  0.1268864E+03  0.7546771E-02  0.1232150E+00
         21   -1    0    0  504  502  0.00000000000E+00  0.00000000000E+00  0.18049315844E+03  0.18049315844E+03  0.00000000000E+00 0.  1.
         21   -1    0    0  502  503 -0.00000000000E+00 -0.00000000000E+00 -0.47072260230E+02  0.47072260230E+02  0.00000000000E+00 0.  1.
         25    2    1    2    0    0  0.44620228714E+01  0.21314427061E+02  0.42106533880E+02  0.13369035498E+03  0.12500374543E+03 0.  0.
          5    1    3    3  501    0  0.24080548173E+02  0.59886076755E+02 -0.10689550300E+02  0.65425465034E+02  0.10000000000E+00 0.  1.
         -5    1    3    3    0  501 -0.19618525301E+02 -0.38571649694E+02  0.52796084180E+02  0.68264889950E+02  0.10000000000E+00 0.  1.
         21    1    1    2  504  503 -0.44620228714E+01 -0.21314427061E+02  0.91314364329E+02  0.93875063685E+02  0.00000000000E+00 0.  1.
<mgrwt>
<rscale>  1 0.12688637E+03</rscale>
<asrwt>0</asrwt>
<pdfrwt beam="1">  1       21 0.27768178E-01 0.12688637E+03</pdfrwt>
<pdfrwt beam="2">  1       21 0.72418863E-02 0.12688637E+03</pdfrwt>
<totfact> 0.17575965E+06</totfact>
</mgrwt>
</event>
<event>
 6    1  0.4261782E-002  0.1407709E+03  0.7546771E-02  0.1212295E+00
         21   -1    0    0  503  502  0.00000000000E+00  0.00000000000E+00  0.14904778587E+02  0.14904778587E+02  0.00000000000E+00 0.  1.
         21   -1    0    0  504  503 -0.00000000000E+00 -0.00000000000E+00 -0.94025320337E+03  0.94025320337E+03  0.00000000000E+00 0.  1.
         25    2    1    2    0    0 -0.91001145403E+01  0.64094716492E+02 -0.81623732848E+03  0.82828727571E+03  0.12500195972E+03 0.  0.
          5    1    3    3  501    0  0.48102864464E+01 -0.29760212499E+02 -0.72436241094E+02  0.78459085692E+02  0.10000000000E+00 0.  1.
         -5    1    3    3    0  501 -0.13910400987E+02  0.93854928992E+02 -0.74380108739E+03  0.74982819002E+03  0.10000000000E+00 0.  1.
         21    1    1    2  504  502  0.91001145403E+01 -0.64094716492E+02 -0.10911109630E+03  0.12687070624E+03  0.00000000000E+00 0.  1.
<mgrwt>
<rscale>  1 0.14077086E+03</rscale>
<asrwt>0</asrwt>
<pdfrwt beam="1">  1       21 0.22930434E-02 0.14077086E+03</pdfrwt>
<pdfrwt beam="2">  1       21 0.14465431E+00 0.14077086E+03</pdfrwt>
<totfact> 0.32909087E+05</totfact>
</mgrwt>
</event>
<event>
 6    1  0.4261782E-002  0.1277294E+03  0.7546771E-02  0.1230864E+00
         21   -1    0    0  503  502  0.00000000000E+00  0.00000000000E+00  0.17357638114E+03  0.17357638114E+03  0.00000000000E+00 0.  1.
         21   -1    0    0  504  503 -0.00000000000E+00 -0.00000000000E+00 -0.34441342124E+02  0.34441342124E+02  0.00000000000E+00 0.  1.
         25    2    1    2    0    0 -0.81216395289E+01  0.25193711474E+02  0.10908082090E+03  0.16796850164E+03  0.12495642411E+03 0.  0.
          5    1    3    3  501    0  0.57651638137E+02  0.12179185172E+02  0.64971606691E+02  0.87711821366E+02  0.10000000000E+00 0.  1.
         -5    1    3    3    0  501 -0.65773277666E+02  0.13014526301E+02  0.44109214208E+02  0.80256680269E+02  0.10000000000E+00 0.  1.
         21    1    1    2  504  502  0.81216395289E+01 -0.25193711474E+02  0.30054218113E+02  0.40049221626E+02  0.00000000000E+00 0.  1.
<mgrwt>
<rscale>  1 0.12772937E+03</rscale>
<asrwt>0</asrwt>
<pdfrwt beam="1">  1       21 0.26704058E-01 0.12772937E+03</pdfrwt>
<pdfrwt beam="2">  1       21 0.52986681E-02 0.12772937E+03</pdfrwt>
<totfact> 0.32196661E+06</totfact>
</mgrwt>
</event>
<event>
 6    1  0.4261782E-002  0.1270757E+03  0.7546771E-02  0.1231861E+00
         21   -1    0    0  503  502  0.00000000000E+00  0.00000000000E+00  0.10619462856E+03  0.10619462856E+03  0.00000000000E+00 0. -1.
         21   -1    0    0  504  503 -0.00000000000E+00 -0.00000000000E+00 -0.53466801254E+02  0.53466801254E+02  0.00000000000E+00 0. -1.
         25    2    1    2    0    0  0.22672456284E+02  0.36484265196E+01  0.49907824783E+02  0.13652479859E+03  0.12498351238E+03 0.  0.
          5    1    3    3  501    0 -0.44645756250E+01 -0.32842779836E+02  0.76832006652E+02  0.83676447517E+02  0.10000000000E+00 0. -1.
         -5    1    3    3    0  501  0.27137031909E+02  0.36491206356E+02 -0.26924181869E+02  0.52848351076E+02  0.10000000000E+00 0. -1.
         21    1    1    2  504  502 -0.22672456284E+02 -0.36484265196E+01  0.28200025238E+01  0.23136631221E+02  0.00000000000E+00 0. -1.
<mgrwt>
<rscale>  1 0.12707568E+03</rscale>
<asrwt>0</asrwt>
<pdfrwt beam="1">  1       21 0.16337635E-01 0.12707568E+03</pdfrwt>
<pdfrwt beam="2">  1       21 0.82256617E-02 0.12707568E+03</pdfrwt>
<totfact> 0.37871175E+06</totfact>
</mgrwt>
</event>
<event>
 6    1  0.4261782E-002  0.1270635E+03  0.7546771E-02  0.1231879E+00
         21   -1    0    0  504  502  0.00000000000E+00  0.00000000000E+00  0.52618395339E+02  0.52618395339E+02  0.00000000000E+00 0. -1.
         21   -1    0    0  502  503 -0.00000000000E+00 -0.00000000000E+00 -0.11779415126E+03  0.11779415126E+03  0.00000000000E+00 0. -1.
         25    2    1    2    0    0  0.52398128280E+00  0.22805091762E+02 -0.72701466001E+02  0.14639207453E+03  0.12499915823E+03 0.  0.
          5    1    3    3  501    0  0.12251594326E+02 -0.65862275530E+01  0.33129516622E+02  0.35931251419E+02  0.10000000000E+00 0.  1.
         -5    1    3    3    0  501 -0.11727613043E+02  0.29391319315E+02 -0.10583098262E+03  0.11046082311E+03  0.10000000000E+00 0.  1.
         21    1    1    2  504  503 -0.52398128280E+00 -0.22805091762E+02  0.75257100748E+01  0.24020472076E+02  0.00000000000E+00 0. -1.
<mgrwt>
<rscale>  1 0.12706351E+03</rscale>
<asrwt>0</asrwt>
<pdfrwt beam="1">  1       21 0.80951378E-02 0.12706351E+03</pdfrwt>
<pdfrwt beam="2">  1       21 0.18122177E-01 0.12706351E+03</pdfrwt>
<totfact> 0.32228377E+06</totfact>
</mgrwt>
</event>
<event>
 6    1  0.4261782E-002  0.1260179E+03  0.7546771E-02  0.1233487E+00
         21   -1    0    0  503  502  0.00000000000E+00  0.00000000000E+00  0.11039650597E+03  0.11039650597E+03  0.00000000000E+00 0.  1.
         21   -1    0    0  504  503 -0.00000000000E+00 -0.00000000000E+00 -0.49948757042E+02  0.49948757042E+02  0.00000000000E+00 0.  1.
         25    2    1    2    0    0  0.41787966234E+00 -0.16028040009E+02  0.35911666302E+02  0.13103499108E+03  0.12499379353E+03 0.  0.
          5    1    3    3  501    0 -0.29222275887E+02 -0.62436043209E+02  0.31501325325E+02  0.75792772722E+02  0.10000000000E+00 0.  1.
         -5    1    3    3    0  501  0.29640155549E+02  0.46408003199E+02  0.44103409765E+01  0.55242218361E+02  0.10000000000E+00 0.  1.
         21    1    1    2  504  502 -0.41787966234E+00  0.16028040009E+02  0.24536082630E+02  0.29310271933E+02  0.00000000000E+00 0.  1.
<mgrwt>
<rscale>  1 0.12601794E+03</rscale>
<asrwt>0</asrwt>
<pdfrwt beam="1">  1       21 0.16984078E-01 0.12601794E+03</pdfrwt>
<pdfrwt beam="2">  1       21 0.76844242E-02 0.12601794E+03</pdfrwt>
<totfact> 0.39667403E+06</totfact>
</mgrwt>
</event>
<event>
 6    1  0.4261782E-002  0.1263546E+03  0.7546771E-02  0.1232967E+00
         21   -1    0    0  503  502  0.00000000000E+00  0.00000000000E+00  0.16766776004E+02  0.16766776004E+02  0.00000000000E+00 0. -1.
         21   -1    0    0  504  503 -0.00000000000E+00 -0.00000000000E+00 -0.34542326067E+03  0.34542326067E+03  0.00000000000E+00 0. -1.
         25    2    1    2    0    0  0.18276143920E+02  0.25305064851E+01 -0.31450355854E+03  0.33893651613E+03  0.12500021094E+03 0.  0.
          5    1    3    3  501    0 -0.18082655736E+01 -0.29992376079E+02 -0.29405456499E+03  0.29558570608E+03  0.10000000000E+00 0. -1.
         -5    1    3    3    0  501  0.20084409494E+02  0.32522882564E+02 -0.20448993548E+02  0.43350810051E+02  0.10000000000E+00 0. -1.
         21    1    1    2  504  502 -0.18276143920E+02 -0.25305064851E+01 -0.14152926130E+02  0.23253520544E+02  0.00000000000E+00 0. -1.
<mgrwt>
<rscale>  1 0.12635456E+03</rscale>
<asrwt>0</asrwt>
<pdfrwt beam="1">  1       21 0.25795040E-02 0.12635456E+03</pdfrwt>
<pdfrwt beam="2">  1       21 0.53142041E-01 0.12635456E+03</pdfrwt>
<totfact> 0.27020309E+06</totfact>
</mgrwt>
</event>
<event>
 6    1  0.4261782E-002  0.1276896E+03  0.7546771E-02  0.1230925E+00
         21   -1    0    0  504  502  0.00000000000E+00  0.00000000000E+00  0.38417395890E+03  0.38417395890E+03  0.00000000000E+00 0. -1.
         21   -1    0    0  502  503 -0.00000000000E+00 -0.00000000000E+00 -0.25917505122E+02  0.25917505122E+02  0.00000000000E+00 0. -1.
         25    2    1    2    0    0  0.24528026569E+02 -0.87913649217E+01  0.13689859377E+03  0.18720536223E+03  0.12500284192E+03 0.  0.
          5    1    3    3  501    0  0.16011221234E+02  0.56026088395E+02  0.41421892369E+02  0.71491712482E+02  0.10000000000E+00 0. -1.
         -5    1    3    3    0  501  0.85168053355E+01 -0.64817453316E+02  0.95476701400E+02  0.11571364975E+03  0.10000000000E+00 0. -1.
         21    1    1    2  504  503 -0.24528026569E+02  0.87913649217E+01  0.22135786001E+03  0.22288610180E+03  0.00000000000E+00 0. -1.
<mgrwt>
<rscale>  1 0.12768956E+03</rscale>
<asrwt>0</asrwt>
<pdfrwt beam="1">  1       21 0.59103682E-01 0.12768956E+03</pdfrwt>
<pdfrwt beam="2">  1       21 0.39873088E-02 0.12768956E+03</pdfrwt>
<totfact> 0.10564645E+06</totfact>
</mgrwt>
</event>
<event>
 6    1  0.4261782E-002  0.1263236E+03  0.7546771E-02  0.1233015E+00
         21   -1    0    0  503  502  0.00000000000E+00  0.00000000000E+00  0.91006503047E+01  0.91006503047E+01  0.00000000000E+00 0.  1.
         21   -1    0    0  504  503 -0.00000000000E+00 -0.00000000000E+00 -0.85755493126E+03  0.85755493126E+03  0.00000000000E+00 0.  1.
         25    2    1    2    0    0 -0.17309820847E+02  0.58168716573E+01 -0.83359644968E+03  0.84311368182E+03  0.12499669454E+03 0.  0.
          5    1    3    3  501    0 -0.26230547992E+02  0.47001735950E+02 -0.17312857781E+03  0.18130283860E+03  0.10000000000E+00 0.  1.
         -5    1    3    3    0  501  0.89207271455E+01 -0.41184864293E+02 -0.66046787188E+03  0.66181084322E+03  0.10000000000E+00 0.  1.
         21    1    1    2  504  502  0.17309820847E+02 -0.58168716573E+01 -0.14857831269E+02  0.23541899746E+02  0.00000000000E+00 0.  1.
<mgrwt>
<rscale>  1 0.12632355E+03</rscale>
<asrwt>0</asrwt>
<pdfrwt beam="1">  1       21 0.14000995E-02 0.12632355E+03</pdfrwt>
<pdfrwt beam="2">  1       21 0.13193158E+00 0.12632355E+03</pdfrwt>
<totfact> 0.92157828E+05</totfact>
</mgrwt>
</event>
<event>
 6    1  0.4261782E-002  0.1293961E+03  0.7546771E-02  0.1228355E+00
         21   -1    0    0  503  502  0.00000000000E+00  0.00000000000E+00  0.33423999315E+03  0.33423999315E+03  0.00000000000E+00 0.  1.
         21   -1    0    0  504  503 -0.00000000000E+00 -0.00000000000E+00 -0.20033041034E+02  0.20033041034E+02  0.00000000000E+00 0.  1.
         25    2    1    2    0    0 -0.18116804212E+02 -0.28124819360E+02  0.26296957371E+03  0.29308077156E+03  0.12499647156E+03 0.  0.
          5    1    3    3  501    0 -0.51268255374E+02 -0.45459869608E+02  0.75676724493E+02  0.10208824802E+03  0.10000000000E+00 0.  1.
         -5    1    3    3    0  501  0.33151451162E+02  0.17335050248E+02  0.18729284922E+03  0.19099252354E+03  0.10000000000E+00 0.  1.
         21    1    1    2  504  502  0.18116804212E+02  0.28124819360E+02  0.51237378404E+02  0.61192262621E+02  0.00000000000E+00 0.  1.
<mgrwt>
<rscale>  1 0.12939607E+03</rscale>
<asrwt>0</asrwt>
<pdfrwt beam="1">  1       21 0.51421533E-01 0.12939607E+03</pdfrwt>
<pdfrwt beam="2">  1       21 0.30820066E-02 0.12939607E+03</pdfrwt>
<totfact> 0.21639731E+06</totfact>
</mgrwt>
</event>
<event>
 6    1  0.4261782E-002  0.1266118E+03  0.7546771E-02  0.1232572E+00
         21   -1    0    0  503  502  0.00000000000E+00  0.00000000000E+00  0.43661483516E+01  0.43661483516E+01  0.00000000000E+00 0.  1.
         21   -1    0    0  504  503 -0.00000000000E+00 -0.00000000000E+00 -0.22848375899E+04  0.22848375899E+04  0.00000000000E+00 0.  1.
         25    2    1    2    0    0  0.80810271448E+01 -0.18490096664E+02 -0.22436170277E+04  0.22471866644E+04  0.12499340401E+03 0.  0.
          5    1    3    3  501    0  0.22758900536E+02  0.39532656137E+02 -0.39902182856E+03  0.40162075161E+03  0.10000000000E+00 0. -1.
         -5    1    3    3    0  501 -0.14677873392E+02 -0.58022752801E+02 -0.18445951991E+04  0.18455659128E+04  0.10000000000E+00 0. -1.
         21    1    1    2  504  502 -0.80810271448E+01  0.18490096664E+02 -0.36854413882E+02  0.42017073874E+02  0.00000000000E+00 0.  1.
<mgrwt>
<rscale>  1 0.12661176E+03</rscale>
<asrwt>0</asrwt>
<pdfrwt beam="1">  1       21 0.67171559E-03 0.12661176E+03</pdfrwt>
<pdfrwt beam="2">  1       21 0.35151324E+00 0.12661176E+03</pdfrwt>
<totfact> 0.12935234E+05</totfact>
</mgrwt>
</event>
<event>
 6    1  0.4261782E-002  0.1545901E+03  0.7546771E-02  0.1194943E+00
         21   -1    0    0  504  502  0.00000000000E+00  0.00000000000E+00  0.47284713929E+03  0.47284713929E+03  0.00000000000E+00 0. -1.
         21   -1    0    0  502  503 -0.00000000000E+00 -0.00000000000E+00 -0.40952301748E+02  0.40952301748E+02  0.00000000000E+00 0. -1.
         25    2    1    2    0    0  0.87385727183E+02  0.25095334084E+02  0.14174028680E+03  0.20973414472E+03  0.12502824262E+03 0.  0.
          5    1    3    3  501    0  0.11959761902E+03  0.17779620568E+02  0.10311185614E+03  0.15890805599E+03  0.10000000000E+00 0.  1.
         -5    1    3    3    0  501 -0.32211891839E+02  0.73157135154E+01  0.38628430665E+02  0.50826088731E+02  0.10000000000E+00 0.  1.
         21    1    1    2  504  503 -0.87385727183E+02 -0.25095334084E+02  0.29015455074E+03  0.30406529631E+03  0.00000000000E+00 0. -1.
<mgrwt>
<rscale>  1 0.15459011E+03</rscale>
<asrwt>0</asrwt>
<pdfrwt beam="1">  1       21 0.72745710E-01 0.15459011E+03</pdfrwt>
<pdfrwt beam="2">  1       21 0.63003544E-02 0.15459011E+03</pdfrwt>
<totfact> 0.31148586E+05</totfact>
</mgrwt>
</event>
<event>
 6    1  0.4261782E-002  0.1261834E+03  0.7546771E-02  0.1233231E+00
         21   -1    0    0  504  502  0.00000000000E+00  0.00000000000E+00  0.10621213926E+03  0.10621213926E+03  0.00000000000E+00 0. -1.
         21   -1    0    0  502  503 -0.00000000000E+00 -0.00000000000E+00 -0.53336185323E+02  0.53336185323E+02  0.00000000000E+00 0. -1.
         25    2    1    2    0    0  0.17242512102E+02  0.83376571016E+00  0.27972308888E+02  0.12924665919E+03  0.12499699780E+03 0.  0.
          5    1    3    3  501    0 -0.39409607506E+02 -0.28900701034E+02 -0.16213849986E+02  0.51490451691E+02  0.10000000000E+00 0.  1.
         -5    1    3    3    0  501  0.56652119608E+02  0.29734466744E+02  0.44186158874E+02  0.77756207499E+02  0.10000000000E+00 0.  1.
         21    1    1    2  504  503 -0.17242512102E+02 -0.83376571016E+00  0.24903645051E+02  0.30301665395E+02  0.00000000000E+00 0. -1.
<mgrwt>
<rscale>  1 0.12618339E+03</rscale>
<asrwt>0</asrwt>
<pdfrwt beam="1">  1       21 0.16340329E-01 0.12618339E+03</pdfrwt>
<pdfrwt beam="2">  1       21 0.82055670E-02 0.12618339E+03</pdfrwt>
<totfact> 0.38007881E+06</totfact>
</mgrwt>
</event>
<event>
 6    1  0.4261782E-002  0.1266035E+03  0.7546771E-02  0.1232584E+00
         21   -1    0    0  504  502  0.00000000000E+00  0.00000000000E+00  0.43949605085E+03  0.43949605085E+03  0.00000000000E+00 0. -1.
         21   -1    0    0  502  503 -0.00000000000E+00 -0.00000000000E+00 -0.17526885636E+02  0.17526885636E+02  0.00000000000E+00 0. -1.
         25    2    1    2    0    0 -0.12482095282E+02  0.15727898350E+02  0.21821668876E+03  0.25228348950E+03  0.12500106533E+03 0.  0.
          5    1    3    3  501    0  0.29127709591E+01  0.44011093922E+01  0.22984858760E+03  0.22990919342E+03  0.10000000000E+00 0. -1.
         -5    1    3    3    0  501 -0.15394866241E+02  0.11326788958E+02 -0.11631898838E+02  0.22374296084E+02  0.10000000000E+00 0. -1.
         21    1    1    2  504  503  0.12482095282E+02 -0.15727898350E+02  0.20375247645E+03  0.20473944698E+03  0.00000000000E+00 0. -1.
<mgrwt>
<rscale>  1 0.12660346E+03</rscale>
<asrwt>0</asrwt>
<pdfrwt beam="1">  1       21 0.67614768E-01 0.12660346E+03</pdfrwt>
<pdfrwt beam="2">  1       21 0.26964443E-02 0.12660346E+03</pdfrwt>
<totfact> 0.15076525E+06</totfact>
</mgrwt>
</event>
<event>
 6    1  0.4261782E-002  0.1275908E+03  0.7546771E-02  0.1231075E+00
         21   -1    0    0  504  502  0.00000000000E+00  0.00000000000E+00  0.51698909972E+03  0.51698909972E+03  0.00000000000E+00 0. -1.
         21   -1    0    0  502  503 -0.00000000000E+00 -0.00000000000E+00 -0.24076745297E+02  0.24076745297E+02  0.00000000000E+00 0. -1.
         25    2    1    2    0    0 -0.25012293600E+02  0.53967997550E+01  0.14883751245E+03  0.19604086453E+03  0.12499870070E+03 0.  0.
          5    1    3    3  501    0  0.38184997666E+02 -0.26444936102E+02  0.99399218256E+02  0.10971619426E+03  0.10000000000E+00 0.  1.
         -5    1    3    3    0  501 -0.63197291266E+02  0.31841735857E+02  0.49438294195E+02  0.86324670278E+02  0.10000000000E+00 0.  1.
         21    1    1    2  504  503  0.25012293600E+02 -0.53967997550E+01  0.34407484198E+03  0.34502498049E+03  0.00000000000E+00 0. -1.
<mgrwt>
<rscale>  1 0.12759081E+03</rscale>
<asrwt>0</asrwt>
<pdfrwt beam="1">  1       21 0.79536776E-01 0.12759081E+03</pdfrwt>
<pdfrwt beam="2">  1       21 0.37041150E-02 0.12759081E+03</pdfrwt>
<totfact> 0.62621017E+05</totfact>
</mgrwt>
</event>
<event>
 6    1  0.4261782E-002  0.1716456E+03  0.7546771E-02  0.1176143E+00
         21   -1    0    0  503  502  0.00000000000E+00  0.00000000000E+00  0.37934025426E+03  0.37934025426E+03  0.00000000000E+00 0.  1.
         21   -1    0    0  504  503 -0.00000000000E+00 -0.00000000000E+00 -0.20891133179E+03  0.20891133179E+03  0.00000000000E+00 0.  1.
         25    2    1    2    0    0  0.58917076991E+02  0.10181952484E+03 -0.16175483220E+03  0.23585339583E+03  0.12499504384E+03 0.  0.
          5    1    3    3  501    0  0.29209242423E+02  0.36066367020E+02 -0.15680696793E+03  0.16353103028E+03  0.10000000000E+00 0. -1.
         -5    1    3    3    0  501  0.29707834568E+02  0.65753157819E+02 -0.49478642701E+01  0.72322365550E+02  0.10000000000E+00 0. -1.
         21    1    1    2  504  502 -0.58917076991E+02 -0.10181952484E+03  0.33218375468E+03  0.35239819022E+03  0.00000000000E+00 0.  1.
<mgrwt>
<rscale>  1 0.17164556E+03</rscale>
<asrwt>0</asrwt>
<pdfrwt beam="1">  1       21 0.58360039E-01 0.17164556E+03</pdfrwt>
<pdfrwt beam="2">  1       21 0.32140205E-01 0.17164556E+03</pdfrwt>
<totfact> 0.25915343E+04</totfact>
</mgrwt>
</event>
<event>
 6    1  0.4261782E-002  0.2180522E+03  0.7546771E-02  0.1135344E+00
         21   -1    0    0  504  502  0.00000000000E+00  0.00000000000E+00  0.60069840127E+03  0.60069840127E+03  0.00000000000E+00 0.  1.
         21   -1    0    0  502  503 -0.00000000000E+00 -0.00000000000E+00 -0.69602402601E+02  0.69602402601E+02  0.00000000000E+00 0.  1.
         25    2    1    2    0    0 -0.45109335839E+02 -0.17287939551E+03  0.20938371790E+03  0.30230497622E+03  0.12499847901E+03 0.  0.
          5    1    3    3  501    0 -0.58009246645E+02 -0.17270557774E+03  0.13485423490E+03  0.22666707734E+03  0.10000000000E+00 0. -1.
         -5    1    3    3    0  501  0.12899910806E+02 -0.17381777130E+00  0.74529482998E+02  0.75637898882E+02  0.10000000000E+00 0. -1.
         21    1    1    2  504  503  0.45109335839E+02  0.17287939551E+03  0.32171228077E+03  0.36799582765E+03  0.00000000000E+00 0.  1.
<mgrwt>
<rscale>  1 0.21805219E+03</rscale>
<asrwt>0</asrwt>
<pdfrwt beam="1">  1       21 0.92415135E-01 0.21805219E+03</pdfrwt>
<pdfrwt beam="2">  1       21 0.10708062E-01 0.21805219E+03</pdfrwt>
<totfact> 0.70202696E+04</totfact>
</mgrwt>
</event>
<event>
 6    1  0.4261782E-002  0.1269394E+03  0.7546771E-02  0.1232069E+00
         21   -1    0    0  503  502  0.00000000000E+00  0.00000000000E+00  0.38504962385E+02  0.38504962385E+02  0.00000000000E+00 0. -1.
         21   -1    0    0  504  503 -0.00000000000E+00 -0.00000000000E+00 -0.19875804001E+03  0.19875804001E+03  0.00000000000E+00 0. -1.
         25    2    1    2    0    0  0.75081826646E+01 -0.20795610027E+02 -0.17076840799E+03  0.21278030696E+03  0.12499911863E+03 0.  0.
          5    1    3    3  501    0  0.54619502693E+02 -0.34658721415E+02 -0.47991688037E+02  0.80546441046E+02  0.10000000000E+00 0. -1.
         -5    1    3    3    0  501 -0.47111320029E+02  0.13863111388E+02 -0.12277671995E+03  0.13223386591E+03  0.10000000000E+00 0. -1.
         21    1    1    2  504  502 -0.75081826646E+01  0.20795610027E+02  0.10515330361E+02  0.24482695438E+02  0.00000000000E+00 0. -1.
<mgrwt>
<rscale>  1 0.12693939E+03</rscale>
<asrwt>0</asrwt>
<pdfrwt beam="1">  1       21 0.59238404E-02 0.12693939E+03</pdfrwt>
<pdfrwt beam="2">  1       21 0.30578160E-01 0.12693939E+03</pdfrwt>
<totfact> 0.20563681E+06</totfact>
</mgrwt>
</event>
