<event>
 6    1  0.4216855E-002  0.1275901E+03  0.7546771E-02  0.1231076E+00
         21   -1    0    0  504  502  0.00000000000E+00  0.00000000000E+00  0.62598427749E+03  0.62598427749E+03  0.00000000000E+00 0.  1.
         21   -1    0    0  502  503 -0.00000000000E+00 -0.00000000000E+00 -0.84588489081E+02  0.84588489081E+02  0.00000000000E+00 0. -1.
         25    2    1    2    0    0  0.16858398534E+02 -0.19230267610E+02 -0.36030887629E+02  0.13258005469E+03  0.12500094897E+03 0.  0.
          5    1    3    3  501    0 -0.43296470350E+02 -0.19130000517E+02 -0.52024059376E+02  0.70335297103E+02  0.10000000000E+00 0. -1.
         -5    1    3    3    0  501  0.60154868884E+02 -0.10026709209E+00  0.15993171748E+02  0.62244757583E+02  0.10000000000E+00 0. -1.
         21    1    1    2  504  503 -0.16858398534E+02  0.19230267610E+02  0.57742667604E+03  0.57799271189E+03  0.00000000000E+00 0.  1.
<mgrwt>
<rscale>  1 0.12759015E+03</rscale>
<asrwt>0</asrwt>
<pdfrwt beam="1">  1       21 0.96305270E-01 0.12759015E+03</pdfrwt>
<pdfrwt beam="2">  1       21 0.13013614E-01 0.12759015E+03</pdfrwt>
<totfact> 0.47144178E+04</totfact>
</mgrwt>
</event>
<event>
 6    1  0.4216855E-002  0.1263536E+03  0.7546771E-02  0.1232969E+00
         21   -1    0    0  503  502  0.00000000000E+00  0.00000000000E+00  0.13774986131E+03  0.13774986131E+03  0.00000000000E+00 0.  1.
         21   -1    0    0  504  503 -0.00000000000E+00 -0.00000000000E+00 -0.15652959660E+03  0.15652959660E+03  0.00000000000E+00 0. -1.
         25    2    1    2    0    0  0.16434379255E+02  0.83718467155E+01 -0.13014825204E+03  0.18139401526E+03  0.12500017850E+03 0.  0.
          5    1    3    3  501    0 -0.13266123295E+02 -0.31454121443E+02  0.75889373909E+01  0.34970755693E+02  0.10000000000E+00 0. -1.
         -5    1    3    3    0  501  0.29700502550E+02  0.39825968158E+02 -0.13773718943E+03  0.14642325957E+03  0.10000000000E+00 0. -1.
         21    1    1    2  504  502 -0.16434379255E+02 -0.83718467155E+01  0.11136851674E+03  0.11288544264E+03  0.00000000000E+00 0.  1.
<mgrwt>
<rscale>  1 0.12635356E+03</rscale>
<asrwt>0</asrwt>
<pdfrwt beam="1">  1       21 0.21192286E-01 0.12635356E+03</pdfrwt>
<pdfrwt beam="2">  1       21 0.24081476E-01 0.12635356E+03</pdfrwt>
<totfact> 0.34104205E+05</totfact>
</mgrwt>
</event>
<event>
 6    1  0.4216855E-002  0.1418038E+03  0.7546771E-02  0.1210922E+00
         21   -1    0    0  504  502  0.00000000000E+00  0.00000000000E+00  0.16790837919E+04  0.16790837919E+04  0.00000000000E+00 0. -1.
         21   -1    0    0  502  503 -0.00000000000E+00 -0.00000000000E+00 -0.82455595315E+01  0.82455595315E+01  0.00000000000E+00 0. -1.
         25    2    1    2    0    0  0.64131877040E+02 -0.19234926413E+02  0.70192174538E+03  0.71610227253E+03  0.12500179210E+03 0.  0.
          5    1    3    3  501    0  0.97590045111E+02 -0.61539915252E+00  0.58460748262E+03  0.59269732103E+03  0.10000000000E+00 0.  1.
         -5    1    3    3    0  501 -0.33458168071E+02 -0.18619527261E+02  0.11731426276E+03  0.12340495150E+03  0.10000000000E+00 0.  1.
         21    1    1    2  504  503 -0.64131877040E+02  0.19234926413E+02  0.96891648700E+03  0.97122707892E+03  0.00000000000E+00 0. -1.
<mgrwt>
<rscale>  1 0.14180384E+03</rscale>
<asrwt>0</asrwt>
<pdfrwt beam="1">  1       21 0.25832031E+00 0.14180384E+03</pdfrwt>
<pdfrwt beam="2">  1       21 0.12685490E-02 0.14180384E+03</pdfrwt>
<totfact> 0.15821851E+05</totfact>
</mgrwt>
</event>
<event>
 6    1  0.4216855E-002  0.1300563E+03  0.7546771E-02  0.1227372E+00
         21   -1    0    0  503  502  0.00000000000E+00  0.00000000000E+00  0.79829613531E+01  0.79829613531E+01  0.00000000000E+00 0.  1.
         21   -1    0    0  504  503 -0.00000000000E+00 -0.00000000000E+00 -0.86258814571E+03  0.86258814571E+03  0.00000000000E+00 0.  1.
         25    2    1    2    0    0 -0.35906783036E+02  0.22161763578E+00 -0.67023056957E+03  0.68273249346E+03  0.12500118023E+03 0.  0.
          5    1    3    3  501    0 -0.16508288212E+02  0.61398415223E+02 -0.39749103983E+03  0.40254369417E+03  0.10000000000E+00 0.  1.
         -5    1    3    3    0  501 -0.19398494824E+02 -0.61176797587E+02 -0.27273952973E+03  0.28018879928E+03  0.10000000000E+00 0.  1.
         21    1    1    2  504  502  0.35906783036E+02 -0.22161763578E+00 -0.18437461479E+03  0.18783861361E+03  0.00000000000E+00 0.  1.
<mgrwt>
<rscale>  1 0.13005630E+03</rscale>
<asrwt>0</asrwt>
<pdfrwt beam="1">  1       21 0.12281490E-02 0.13005630E+03</pdfrwt>
<pdfrwt beam="2">  1       21 0.13270575E+00 0.13005630E+03</pdfrwt>
<totfact> 0.11181388E+06</totfact>
</mgrwt>
</event>
<event>
 6    1  0.4216855E-002  0.1325233E+03  0.7546771E-02  0.1223759E+00
         21   -1    0    0  504  502  0.00000000000E+00  0.00000000000E+00  0.12287538212E+03  0.12287538212E+03  0.00000000000E+00 0. -1.
         21   -1    0    0  502  503 -0.00000000000E+00 -0.00000000000E+00 -0.13901791498E+03  0.13901791498E+03  0.00000000000E+00 0. -1.
         25    2    1    2    0    0 -0.43946488444E+02 -0.24645781115E+01 -0.10078298374E+03  0.16649217595E+03  0.12500026740E+03 0.  0.
          5    1    3    3  501    0 -0.23370999940E+02  0.54725285769E+02 -0.84890701457E+02  0.10367015836E+03  0.10000000000E+00 0.  1.
         -5    1    3    3    0  501 -0.20575488503E+02 -0.57189863881E+02 -0.15892282283E+02  0.62822017589E+02  0.10000000000E+00 0.  1.
         21    1    1    2  504  503  0.43946488444E+02  0.24645781115E+01  0.84640450874E+02  0.95401121147E+02  0.00000000000E+00 0. -1.
<mgrwt>
<rscale>  1 0.13252334E+03</rscale>
<asrwt>0</asrwt>
<pdfrwt beam="1">  1       21 0.18903905E-01 0.13252334E+03</pdfrwt>
<pdfrwt beam="2">  1       21 0.21387372E-01 0.13252334E+03</pdfrwt>
<totfact> 0.52573131E+05</totfact>
</mgrwt>
</event>
<event>
 6    1  0.4216855E-002  0.1611428E+03  0.7546771E-02  0.1187413E+00
         21   -1    0    0  504  502  0.00000000000E+00  0.00000000000E+00  0.82218071675E+02  0.82218071675E+02  0.00000000000E+00 0. -1.
         21   -1    0    0  502  503 -0.00000000000E+00 -0.00000000000E+00 -0.21041575641E+03  0.21041575641E+03  0.00000000000E+00 0. -1.
         25    2    1    2    0    0  0.48903951187E+02 -0.89166687548E+02 -0.84385111837E+02  0.18190065260E+03  0.12499882281E+03 0.  0.
          5    1    3    3  501    0 -0.11014603854E+02 -0.95681067514E+02 -0.72297141105E+02  0.12042871248E+03  0.10000000000E+00 0. -1.
         -5    1    3    3    0  501  0.59918555041E+02  0.65143799661E+01 -0.12087970732E+02  0.61471940111E+02  0.10000000000E+00 0. -1.
         21    1    1    2  504  503 -0.48903951187E+02  0.89166687548E+02 -0.43812572896E+02  0.11073317549E+03  0.00000000000E+00 0. -1.
<mgrwt>
<rscale>  1 0.16114279E+03</rscale>
<asrwt>0</asrwt>
<pdfrwt beam="1">  1       21 0.12648934E-01 0.16114279E+03</pdfrwt>
<pdfrwt beam="2">  1       21 0.32371655E-01 0.16114279E+03</pdfrwt>
<totfact> 0.49289049E+05</totfact>
</mgrwt>
</event>
<event>
 6    1  0.4216855E-002  0.1282145E+03  0.7546771E-02  0.1230129E+00
         21   -1    0    0  503  502  0.00000000000E+00  0.00000000000E+00  0.95536528281E+02  0.95536528281E+02  0.00000000000E+00 0.  1.
         21   -1    0    0  504  503 -0.00000000000E+00 -0.00000000000E+00 -0.81044462387E+02  0.81044462387E+02  0.00000000000E+00 0.  1.
         25    2    1    2    0    0 -0.28129251487E+02 -0.49026334384E+01 -0.22164343366E+02  0.13011613358E+03  0.12499463788E+03 0.  0.
          5    1    3    3  501    0 -0.34883144899E+01  0.59167781859E+02 -0.58498208208E+01  0.59558585878E+02  0.10000000000E+00 0. -1.
         -5    1    3    3    0  501 -0.24640936998E+02 -0.64070415298E+02 -0.16314522546E+02  0.70557547707E+02  0.10000000000E+00 0. -1.
         21    1    1    2  504  502  0.28129251487E+02  0.49026334384E+01  0.36656409260E+02  0.46464857083E+02  0.00000000000E+00 0.  1.
<mgrwt>
<rscale>  1 0.12821447E+03</rscale>
<asrwt>0</asrwt>
<pdfrwt beam="1">  1       21 0.14697927E-01 0.12821447E+03</pdfrwt>
<pdfrwt beam="2">  1       21 0.12468379E-01 0.12821447E+03</pdfrwt>
<totfact> 0.22142641E+06</totfact>
</mgrwt>
</event>
<event>
 6    1  0.4216855E-002  0.1258953E+03  0.7546771E-02  0.1233677E+00
         21   -1    0    0  503  502  0.00000000000E+00  0.00000000000E+00  0.23694814143E+03  0.23694814143E+03  0.00000000000E+00 0. -1.
         21   -1    0    0  504  503 -0.00000000000E+00 -0.00000000000E+00 -0.22778058523E+02  0.22778058523E+02  0.00000000000E+00 0. -1.
         25    2    1    2    0    0  0.13348292163E+02  0.69072531822E+01  0.16046330806E+03  0.20395609403E+03  0.12499491193E+03 0.  0.
          5    1    3    3  501    0  0.13773595567E+02 -0.20107174442E+02 -0.13530954687E+02  0.27876641362E+02  0.10000000000E+00 0.  1.
         -5    1    3    3    0  501 -0.42530340379E+00  0.27014427624E+02  0.17399426275E+03  0.17607945267E+03  0.10000000000E+00 0.  1.
         21    1    1    2  504  502 -0.13348292163E+02 -0.69072531822E+01  0.53706774842E+02  0.55770105918E+02  0.00000000000E+00 0. -1.
<mgrwt>
<rscale>  1 0.12589525E+03</rscale>
<asrwt>0</asrwt>
<pdfrwt beam="1">  1       21 0.36453559E-01 0.12589525E+03</pdfrwt>
<pdfrwt beam="2">  1       21 0.35043169E-02 0.12589525E+03</pdfrwt>
<totfact> 0.35075416E+06</totfact>
</mgrwt>
</event>
<event>
 6    1  0.4216855E-002  0.1295124E+03  0.7546771E-02  0.1228181E+00
         21   -1    0    0  503  502  0.00000000000E+00  0.00000000000E+00  0.40369992685E+02  0.40369992685E+02  0.00000000000E+00 0.  1.
         21   -1    0    0  504  503 -0.00000000000E+00 -0.00000000000E+00 -0.41215403670E+03  0.41215403670E+03  0.00000000000E+00 0.  1.
         25    2    1    2    0    0 -0.23002209565E+02  0.24942218731E+02 -0.39212835472E+03  0.41296259743E+03  0.12498897704E+03 0.  0.
          5    1    3    3  501    0 -0.50920249293E+02  0.25208181188E+02 -0.72474299282E+02  0.92091575311E+02  0.10000000000E+00 0.  1.
         -5    1    3    3    0  501  0.27918039728E+02 -0.26596245727E+00 -0.31965405544E+03  0.32087102212E+03  0.10000000000E+00 0.  1.
         21    1    1    2  504  502  0.23002209565E+02 -0.24942218731E+02  0.20344310706E+02  0.39561431953E+02  0.00000000000E+00 0.  1.
<mgrwt>
<rscale>  1 0.12951239E+03</rscale>
<asrwt>0</asrwt>
<pdfrwt beam="1">  1       21 0.62107679E-02 0.12951239E+03</pdfrwt>
<pdfrwt beam="2">  1       21 0.63408316E-01 0.12951239E+03</pdfrwt>
<totfact> 0.43209245E+05</totfact>
</mgrwt>
</event>
<event>
 6    1  0.4216855E-002  0.1276720E+03  0.7546771E-02  0.1230951E+00
         21   -1    0    0  504  502  0.00000000000E+00  0.00000000000E+00  0.38002752030E+02  0.38002752030E+02  0.00000000000E+00 0.  1.
         21   -1    0    0  502  503 -0.00000000000E+00 -0.00000000000E+00 -0.51079062198E+03  0.51079062198E+03  0.00000000000E+00 0.  1.
         25    2    1    2    0    0  0.94056395028E+01 -0.24221276249E+02 -0.49708547846E+03  0.51321936585E+03  0.12500003323E+03 0.  0.
          5    1    3    3  501    0  0.37280578812E+02  0.41343643026E+02 -0.24610669279E+03  0.25232449864E+03  0.10000000000E+00 0.  1.
         -5    1    3    3    0  501 -0.27874939310E+02 -0.65564919275E+02 -0.25097878567E+03  0.26089486721E+03  0.10000000000E+00 0.  1.
         21    1    1    2  504  503 -0.94056395028E+01  0.24221276249E+02  0.24297608510E+02  0.35574008164E+02  0.00000000000E+00 0.  1.
<mgrwt>
<rscale>  1 0.12767202E+03</rscale>
<asrwt>0</asrwt>
<pdfrwt beam="1">  1       21 0.58465774E-02 0.12767202E+03</pdfrwt>
<pdfrwt beam="2">  1       21 0.78583170E-01 0.12767202E+03</pdfrwt>
<totfact> 0.29972092E+05</totfact>
</mgrwt>
</event>
<event>
 6    1  0.4216855E-002  0.1267708E+03  0.7546771E-02  0.1232327E+00
         21   -1    0    0  504  502  0.00000000000E+00  0.00000000000E+00  0.18110264724E+02  0.18110264724E+02  0.00000000000E+00 0.  1.
         21   -1    0    0  502  503 -0.00000000000E+00 -0.00000000000E+00 -0.38623423669E+03  0.38623423669E+03  0.00000000000E+00 0.  1.
         25    2    1    2    0    0  0.92337835536E+01  0.18971203798E+02 -0.36011425310E+03  0.38177627312E+03  0.12500271235E+03 0.  0.
          5    1    3    3  501    0 -0.47433590304E+01  0.10909912565E+01 -0.35902178080E+03  0.35905478525E+03  0.10000000000E+00 0.  1.
         -5    1    3    3    0  501  0.13977142584E+02  0.17880212541E+02 -0.10924722986E+01  0.22721487871E+02  0.10000000000E+00 0.  1.
         21    1    1    2  504  503 -0.92337835536E+01 -0.18971203798E+02 -0.80097188659E+01  0.22568228299E+02  0.00000000000E+00 0.  1.
<mgrwt>
<rscale>  1 0.12677085E+03</rscale>
<asrwt>0</asrwt>
<pdfrwt beam="1">  1       21 0.27861944E-02 0.12677085E+03</pdfrwt>
<pdfrwt beam="2">  1       21 0.59420655E-01 0.12677085E+03</pdfrwt>
<totfact> 0.18849043E+06</totfact>
</mgrwt>
</event>
<event>
 6    1  0.4216855E-002  0.1298360E+03  0.7546771E-02  0.1227699E+00
         21   -1    0    0  504  502  0.00000000000E+00  0.00000000000E+00  0.39409326997E+01  0.39409326997E+01  0.00000000000E+00 0.  1.
         21   -1    0    0  502  503 -0.00000000000E+00 -0.00000000000E+00 -0.18731460797E+04  0.18731460797E+04  0.00000000000E+00 0.  1.
         25    2    1    2    0    0 -0.35072309923E+02 -0.15231437729E+01 -0.12095693603E+04  0.12165177443E+04  0.12499999151E+03 0.  0.
          5    1    3    3  501    0 -0.59381445889E+01  0.60663953412E+02 -0.60328567523E+03  0.60635714950E+03  0.10000000000E+00 0.  1.
         -5    1    3    3    0  501 -0.29134165334E+02 -0.62187097184E+02 -0.60628368508E+03  0.61016059479E+03  0.10000000000E+00 0.  1.
         21    1    1    2  504  503  0.35072309923E+02  0.15231437729E+01 -0.65963578665E+03  0.66056926807E+03  0.00000000000E+00 0.  1.
<mgrwt>
<rscale>  1 0.12983599E+03</rscale>
<asrwt>0</asrwt>
<pdfrwt beam="1">  1       21 0.60629633E-03 0.12983599E+03</pdfrwt>
<pdfrwt beam="2">  1       21 0.28817680E+00 0.12983599E+03</pdfrwt>
<totfact> 0.34522066E+05</totfact>
</mgrwt>
</event>
<event>
 6    1  0.4216855E-002  0.1332798E+03  0.7546771E-02  0.1222669E+00
         21   -1    0    0  503  502  0.00000000000E+00  0.00000000000E+00  0.10510830989E+03  0.10510830989E+03  0.00000000000E+00 0.  1.
         21   -1    0    0  504  503 -0.00000000000E+00 -0.00000000000E+00 -0.92326847299E+02  0.92326847299E+02  0.00000000000E+00 0.  1.
         25    2    1    2    0    0 -0.37114414325E+01  0.46088939609E+02  0.45454931742E+02  0.14081783884E+03  0.12500219103E+03 0.  0.
          5    1    3    3  501    0  0.39326509827E+02  0.33210732587E+02  0.72098597926E+02  0.88587498876E+02  0.10000000000E+00 0. -1.
         -5    1    3    3    0  501 -0.43037951259E+02  0.12878207022E+02 -0.26643666184E+02  0.52230339961E+02  0.10000000000E+00 0. -1.
         21    1    1    2  504  502  0.37114414325E+01 -0.46088939609E+02 -0.32673469147E+02  0.56617318357E+02  0.00000000000E+00 0.  1.
<mgrwt>
<rscale>  1 0.13327983E+03</rscale>
<asrwt>0</asrwt>
<pdfrwt beam="1">  1       21 0.16170509E-01 0.13327983E+03</pdfrwt>
<pdfrwt beam="2">  1       21 0.14204130E-01 0.13327983E+03</pdfrwt>
<totfact> 0.14777111E+06</totfact>
</mgrwt>
</event>
<event>
 6    1  0.4216855E-002  0.1294042E+03  0.7546771E-02  0.1228342E+00
         21   -1    0    0  504  502  0.00000000000E+00  0.00000000000E+00  0.16360524311E+02  0.16360524311E+02  0.00000000000E+00 0. -1.
         21   -1    0    0  502  503 -0.00000000000E+00 -0.00000000000E+00 -0.41904351852E+03  0.41904351852E+03  0.00000000000E+00 0. -1.
         25    2    1    2    0    0 -0.99657060979E+01  0.31931270192E+02 -0.34824252955E+03  0.37150814698E+03  0.12500609015E+03 0.  0.
          5    1    3    3  501    0 -0.17705500006E+02  0.56342054094E+02 -0.33927182860E+03  0.34437377292E+03  0.10000000000E+00 0. -1.
         -5    1    3    3    0  501  0.77397939077E+01 -0.24410783902E+02 -0.89707009474E+01  0.27134374066E+02  0.10000000000E+00 0. -1.
         21    1    1    2  504  503  0.99657060979E+01 -0.31931270192E+02 -0.54440464661E+02  0.63895895851E+02  0.00000000000E+00 0. -1.
<mgrwt>
<rscale>  1 0.12940419E+03</rscale>
<asrwt>0</asrwt>
<pdfrwt beam="1">  1       21 0.25170039E-02 0.12940419E+03</pdfrwt>
<pdfrwt beam="2">  1       21 0.64468229E-01 0.12940419E+03</pdfrwt>
<totfact> 0.18701025E+06</totfact>
</mgrwt>
</event>
<event>
 6    1  0.4216855E-002  0.1311471E+03  0.7546771E-02  0.1225764E+00
         21   -1    0    0  503  502  0.00000000000E+00  0.00000000000E+00  0.22300099013E+02  0.22300099013E+02  0.00000000000E+00 0.  1.
         21   -1    0    0  504  503 -0.00000000000E+00 -0.00000000000E+00 -0.41932282945E+03  0.41932282945E+03  0.00000000000E+00 0.  1.
         25    2    1    2    0    0  0.27624980189E+02  0.28485042370E+02 -0.19022195338E+03  0.23104966672E+03  0.12500007910E+03 0.  0.
          5    1    3    3  501    0  0.88273807781E+01 -0.49657392039E+02 -0.81544385433E+02  0.95881572949E+02  0.10000000000E+00 0.  1.
         -5    1    3    3    0  501  0.18797599411E+02  0.78142434409E+02 -0.10867756795E+03  0.13516809377E+03  0.10000000000E+00 0.  1.
         21    1    1    2  504  502 -0.27624980189E+02 -0.28485042370E+02 -0.20680077706E+03  0.21057326174E+03  0.00000000000E+00 0.  1.
<mgrwt>
<rscale>  1 0.13114708E+03</rscale>
<asrwt>0</asrwt>
<pdfrwt beam="1">  1       21 0.34307843E-02 0.13114708E+03</pdfrwt>
<pdfrwt beam="2">  1       21 0.64511207E-01 0.13114708E+03</pdfrwt>
<totfact> 0.11242389E+06</totfact>
</mgrwt>
</event>
<event>
 6    1  0.4216855E-002  0.1284456E+03  0.7546771E-02  0.1229781E+00
         21   -1    0    0  504  502  0.00000000000E+00  0.00000000000E+00  0.46598392000E+02  0.46598392000E+02  0.00000000000E+00 0.  1.
         21   -1    0    0  502  503 -0.00000000000E+00 -0.00000000000E+00 -0.23240713684E+03  0.23240713684E+03  0.00000000000E+00 0.  1.
         25    2    1    2    0    0  0.27443192630E+02 -0.10890404287E+02 -0.20633378148E+03  0.24304712430E+03  0.12500618194E+03 0.  0.
          5    1    3    3  501    0  0.77512254924E+02 -0.10604218483E+02 -0.13132357595E+03  0.15286101764E+03  0.10000000000E+00 0.  1.
         -5    1    3    3    0  501 -0.50069062294E+02 -0.28618580453E+00 -0.75010205530E+02  0.90186106662E+02  0.10000000000E+00 0.  1.
         21    1    1    2  504  503 -0.27443192630E+02  0.10890404287E+02  0.20525036646E+02  0.35958404534E+02  0.00000000000E+00 0.  1.
<mgrwt>
<rscale>  1 0.12844561E+03</rscale>
<asrwt>0</asrwt>
<pdfrwt beam="1">  1       21 0.71689833E-02 0.12844561E+03</pdfrwt>
<pdfrwt beam="2">  1       21 0.35754944E-01 0.12844561E+03</pdfrwt>
<totfact> 0.10954396E+06</totfact>
</mgrwt>
</event>
<event>
 6    1  0.4216855E-002  0.1333991E+03  0.7546771E-02  0.1222497E+00
         21   -1    0    0  503  502  0.00000000000E+00  0.00000000000E+00  0.25250129312E+03  0.25250129312E+03  0.00000000000E+00 0.  1.
         21   -1    0    0  504  503 -0.00000000000E+00 -0.00000000000E+00 -0.40130866468E+02  0.40130866468E+02  0.00000000000E+00 0.  1.
         25    2    1    2    0    0 -0.45700957246E+02 -0.90593872004E+01  0.87970799122E+02  0.15979422329E+03  0.12499872923E+03 0.  0.
          5    1    3    3  501    0 -0.76438951044E+02  0.92552759315E+01  0.96060347685E+02  0.12311041291E+03  0.10000000000E+00 0. -1.
         -5    1    3    3    0  501  0.30737993798E+02 -0.18314663132E+02 -0.80895485634E+01  0.36683810384E+02  0.10000000000E+00 0. -1.
         21    1    1    2  504  502  0.45700957246E+02  0.90593872004E+01  0.12439962753E+03  0.13283793630E+03  0.00000000000E+00 0.  1.
<mgrwt>
<rscale>  1 0.13339915E+03</rscale>
<asrwt>0</asrwt>
<pdfrwt beam="1">  1       21 0.38846352E-01 0.13339915E+03</pdfrwt>
<pdfrwt beam="2">  1       21 0.61739796E-02 0.13339915E+03</pdfrwt>
<totfact> 0.11999918E+06</totfact>
</mgrwt>
</event>
<event>
 6    1  0.4216855E-002  0.1263175E+03  0.7546771E-02  0.1233024E+00
         21   -1    0    0  504  502  0.00000000000E+00  0.00000000000E+00  0.45415938076E+03  0.45415938076E+03  0.00000000000E+00 0. -1.
         21   -1    0    0  502  503 -0.00000000000E+00 -0.00000000000E+00 -0.11702344288E+02  0.11702344288E+02  0.00000000000E+00 0. -1.
         25    2    1    2    0    0 -0.17175281927E+02 -0.59941179270E+01  0.40461603268E+03  0.42387528287E+03  0.12500080706E+03 0.  0.
          5    1    3    3  501    0  0.70038208114E+01 -0.50420092773E+02  0.32892023210E+03  0.33283594810E+03  0.10000000000E+00 0. -1.
         -5    1    3    3    0  501 -0.24179102738E+02  0.44425974846E+02  0.75695800583E+02  0.91039334774E+02  0.10000000000E+00 0. -1.
         21    1    1    2  504  503  0.17175281927E+02  0.59941179270E+01  0.37841003792E+02  0.41986442180E+02  0.00000000000E+00 0.  1.
<mgrwt>
<rscale>  1 0.12631754E+03</rscale>
<asrwt>0</asrwt>
<pdfrwt beam="1">  1       21 0.69870660E-01 0.12631754E+03</pdfrwt>
<pdfrwt beam="2">  1       21 0.18003610E-02 0.12631754E+03</pdfrwt>
<totfact> 0.26997921E+06</totfact>
</mgrwt>
</event>
<event>
 6    1  0.4216855E-002  0.1267403E+03  0.7546771E-02  0.1232374E+00
         21   -1    0    0  503  502  0.00000000000E+00  0.00000000000E+00  0.92362113966E+02  0.92362113966E+02  0.00000000000E+00 0.  1.
         21   -1    0    0  504  503 -0.00000000000E+00 -0.00000000000E+00 -0.59001365975E+02  0.59001365975E+02  0.00000000000E+00 0.  1.
         25    2    1    2    0    0  0.15868260625E+02  0.13448617992E+02  0.30584325669E+02  0.13037835325E+03  0.12502178610E+03 0.  0.
          5    1    3    3  501    0  0.42274280793E+02 -0.23062351458E+02  0.59722330331E+02  0.76718665340E+02  0.10000000000E+00 0. -1.
         -5    1    3    3    0  501 -0.26406020168E+02  0.36510969451E+02 -0.29138004661E+02  0.53659687914E+02  0.10000000000E+00 0. -1.
         21    1    1    2  504  502 -0.15868260625E+02 -0.13448617992E+02  0.27764223220E+01  0.20985126687E+02  0.00000000000E+00 0. -1.
<mgrwt>
<rscale>  1 0.12674034E+03</rscale>
<asrwt>0</asrwt>
<pdfrwt beam="1">  1       21 0.14209556E-01 0.12674034E+03</pdfrwt>
<pdfrwt beam="2">  1       21 0.90771332E-02 0.12674034E+03</pdfrwt>
<totfact> 0.41070996E+06</totfact>
</mgrwt>
</event>
<event>
 6    1  0.4216855E-002  0.1267220E+03  0.7546771E-02  0.1232402E+00
         21   -1    0    0  503  502  0.00000000000E+00  0.00000000000E+00  0.28045382795E+03  0.28045382795E+03  0.00000000000E+00 0. -1.
         21   -1    0    0  504  503 -0.00000000000E+00 -0.00000000000E+00 -0.28678774819E+02  0.28678774819E+02  0.00000000000E+00 0. -1.
         25    2    1    2    0    0 -0.18189436065E+02 -0.10319458129E+02  0.11613203131E+03  0.17188692463E+03  0.12498447648E+03 0.  0.
          5    1    3    3  501    0  0.34256028507E+02  0.36033925779E+02  0.21465221732E+02  0.54154270747E+02  0.10000000000E+00 0. -1.
         -5    1    3    3    0  501 -0.52445464572E+02 -0.46353383908E+02  0.94666809582E+02  0.11773265388E+03  0.10000000000E+00 0. -1.
         21    1    1    2  504  502  0.18189436065E+02  0.10319458129E+02  0.13564302182E+03  0.13724567814E+03  0.00000000000E+00 0. -1.
<mgrwt>
<rscale>  1 0.12672200E+03</rscale>
<asrwt>0</asrwt>
<pdfrwt beam="1">  1       21 0.43146741E-01 0.12672200E+03</pdfrwt>
<pdfrwt beam="2">  1       21 0.44121194E-02 0.12672200E+03</pdfrwt>
<totfact> 0.17100770E+06</totfact>
</mgrwt>
</event>
<event>
 6    1  0.4216855E-002  0.1266814E+03  0.7546771E-02  0.1232465E+00
         21   -1    0    0  503  502  0.00000000000E+00  0.00000000000E+00  0.79999840013E+03  0.79999840013E+03  0.00000000000E+00 0. -1.
         21   -1    0    0  504  503 -0.00000000000E+00 -0.00000000000E+00 -0.72487349904E+01  0.72487349904E+01  0.00000000000E+00 0. -1.
         25    2    1    2    0    0  0.10021609989E+02  0.17978779796E+02  0.58950970616E+03  0.60296754702E+03  0.12499799962E+03 0.  0.
          5    1    3    3  501    0 -0.11318768768E+02 -0.36426025136E+02  0.45131345289E+03  0.45292252383E+03  0.10000000000E+00 0. -1.
         -5    1    3    3    0  501  0.21340378757E+02  0.54404804931E+02  0.13819625327E+03  0.15004502319E+03  0.10000000000E+00 0. -1.
         21    1    1    2  504  502 -0.10021609989E+02 -0.17978779796E+02  0.20323995898E+03  0.20427958810E+03  0.00000000000E+00 0.  1.
<mgrwt>
<rscale>  1 0.12668137E+03</rscale>
<asrwt>0</asrwt>
<pdfrwt beam="1">  1       21 0.12307661E+00 0.12668137E+03</pdfrwt>
<pdfrwt beam="2">  1       21 0.11151906E-02 0.12668137E+03</pdfrwt>
<totfact> 0.15701469E+06</totfact>
</mgrwt>
</event>
<event>
 6    1  0.4216855E-002  0.1294744E+03  0.7546771E-02  0.1228238E+00
         21   -1    0    0  503  502  0.00000000000E+00  0.00000000000E+00  0.26262992474E+03  0.26262992474E+03  0.00000000000E+00 0.  1.
         21   -1    0    0  504  503 -0.00000000000E+00 -0.00000000000E+00 -0.26543941885E+02  0.26543941885E+02  0.00000000000E+00 0.  1.
         25    2    1    2    0    0  0.33093210809E+02  0.48251271905E+01  0.15831542485E+03  0.20451748975E+03  0.12508072358E+03 0.  0.
          5    1    3    3  501    0  0.92015487872E+01 -0.54291419587E+02  0.33761645822E+02  0.64591682665E+02  0.10000000000E+00 0. -1.
         -5    1    3    3    0  501  0.23891662021E+02  0.59116546777E+02  0.12455377903E+03  0.13992580708E+03  0.10000000000E+00 0. -1.
         21    1    1    2  504  502 -0.33093210809E+02 -0.48251271905E+01  0.77770558000E+02  0.84656376876E+02  0.00000000000E+00 0.  1.
<mgrwt>
<rscale>  1 0.12947444E+03</rscale>
<asrwt>0</asrwt>
<pdfrwt beam="1">  1       21 0.40404602E-01 0.12947444E+03</pdfrwt>
<pdfrwt beam="2">  1       21 0.40836835E-02 0.12947444E+03</pdfrwt>
<totfact> 0.22209791E+06</totfact>
</mgrwt>
</event>
<event>
 6    1  0.4216855E-002  0.1286974E+03  0.7546771E-02  0.1229401E+00
         21   -1    0    0  504  502  0.00000000000E+00  0.00000000000E+00  0.32185115661E+03  0.32185115661E+03  0.00000000000E+00 0.  1.
         21   -1    0    0  502  503 -0.00000000000E+00 -0.00000000000E+00 -0.19754826193E+02  0.19754826193E+02  0.00000000000E+00 0.  1.
         25    2    1    2    0    0  0.13283936867E+02  0.27570384188E+02  0.23756068253E+03  0.27018162484E+03  0.12500577367E+03 0.  0.
          5    1    3    3  501    0 -0.41000513362E+02 -0.77643298255E+01  0.26564017072E+02  0.49466998257E+02  0.10000000000E+00 0. -1.
         -5    1    3    3    0  501  0.54284450228E+02  0.35334714013E+02  0.21099666546E+03  0.22071462658E+03  0.10000000000E+00 0. -1.
         21    1    1    2  504  503 -0.13283936867E+02 -0.27570384188E+02  0.64535647881E+02  0.71424357962E+02  0.00000000000E+00 0.  1.
<mgrwt>
<rscale>  1 0.12869745E+03</rscale>
<asrwt>0</asrwt>
<pdfrwt beam="1">  1       21 0.49515559E-01 0.12869745E+03</pdfrwt>
<pdfrwt beam="2">  1       21 0.30392043E-02 0.12869745E+03</pdfrwt>
<totfact> 0.23935693E+06</totfact>
</mgrwt>
</event>
<event>
 6    1  0.4216855E-002  0.1273019E+03  0.7546771E-02  0.1231515E+00
         21   -1    0    0  503  502  0.00000000000E+00  0.00000000000E+00  0.56858000977E+02  0.56858000977E+02  0.00000000000E+00 0.  1.
         21   -1    0    0  504  503 -0.00000000000E+00 -0.00000000000E+00 -0.11461449876E+04  0.11461449876E+04  0.00000000000E+00 0.  1.
         25    2    1    2    0    0 -0.49430159022E+01 -0.23565923948E+02 -0.11398830452E+04  0.11469695404E+04  0.12500393410E+03 0.  0.
          5    1    3    3  501    0  0.24278125810E+02  0.11913012803E+02 -0.98594916586E+03  0.98631998607E+03  0.10000000000E+00 0. -1.
         -5    1    3    3    0  501 -0.29221141712E+02 -0.35478936751E+02 -0.15393387938E+03  0.16064955430E+03  0.10000000000E+00 0. -1.
         21    1    1    2  504  502  0.49430159022E+01  0.23565923948E+02  0.50596058580E+02  0.56033448239E+02  0.00000000000E+00 0.  1.
<mgrwt>
<rscale>  1 0.12730188E+03</rscale>
<asrwt>0</asrwt>
<pdfrwt beam="1">  1       21 0.87473853E-02 0.12730188E+03</pdfrwt>
<pdfrwt beam="2">  1       21 0.17632999E+00 0.12730188E+03</pdfrwt>
<totfact> 0.20853989E+04</totfact>
</mgrwt>
</event>
<event>
 6    1  0.4216855E-002  0.1292697E+03  0.7546771E-02  0.1228543E+00
         21   -1    0    0  504  502  0.00000000000E+00  0.00000000000E+00  0.19643895582E+03  0.19643895582E+03  0.00000000000E+00 0. -1.
         21   -1    0    0  502  503 -0.00000000000E+00 -0.00000000000E+00 -0.48435817757E+02  0.48435817757E+02  0.00000000000E+00 0. -1.
         25    2    1    2    0    0  0.21217094234E+02  0.25201585817E+02  0.45235272274E+02  0.13695573330E+03  0.12500143203E+03 0.  0.
          5    1    3    3  501    0 -0.24569338861E+02 -0.33175880957E+02  0.47240687912E+02  0.62737421717E+02  0.10000000000E+00 0.  1.
         -5    1    3    3    0  501  0.45786433095E+02  0.58377466773E+02 -0.20054156375E+01  0.74218311583E+02  0.10000000000E+00 0.  1.
         21    1    1    2  504  503 -0.21217094234E+02 -0.25201585817E+02  0.10276786579E+03  0.10791904028E+03  0.00000000000E+00 0. -1.
<mgrwt>
<rscale>  1 0.12926965E+03</rscale>
<asrwt>0</asrwt>
<pdfrwt beam="1">  1       21 0.30221377E-01 0.12926965E+03</pdfrwt>
<pdfrwt beam="2">  1       21 0.74516644E-02 0.12926965E+03</pdfrwt>
<totfact> 0.14229659E+06</totfact>
</mgrwt>
</event>
<event>
 6    1  0.4216855E-002  0.1262406E+03  0.7546771E-02  0.1233143E+00
         21   -1    0    0  504  502  0.00000000000E+00  0.00000000000E+00  0.33514631569E+02  0.33514631569E+02  0.00000000000E+00 0.  1.
         21   -1    0    0  502  503 -0.00000000000E+00 -0.00000000000E+00 -0.28879831091E+03  0.28879831091E+03  0.00000000000E+00 0.  1.
         25    2    1    2    0    0 -0.99128957501E+01 -0.14598962828E+02 -0.27082253128E+03  0.29880015579E+03  0.12500117772E+03 0.  0.
          5    1    3    3  501    0 -0.40477318015E+02 -0.27346525527E+02 -0.33628351260E+02  0.59305326410E+02  0.10000000000E+00 0. -1.
         -5    1    3    3    0  501  0.30564422265E+02  0.12747562699E+02 -0.23719418002E+03  0.23949482938E+03  0.10000000000E+00 0. -1.
         21    1    1    2  504  503  0.99128957501E+01  0.14598962828E+02  0.15538851947E+02  0.23512786684E+02  0.00000000000E+00 0.  1.
<mgrwt>
<rscale>  1 0.12624060E+03</rscale>
<asrwt>0</asrwt>
<pdfrwt beam="1">  1       21 0.51560970E-02 0.12624060E+03</pdfrwt>
<pdfrwt beam="2">  1       21 0.44430511E-01 0.12624060E+03</pdfrwt>
<totfact> 0.12413157E+06</totfact>
</mgrwt>
</event>
<event>
 6    1  0.4216855E-002  0.1498872E+03  0.7546771E-02  0.1200612E+00
         21   -1    0    0  504  502  0.00000000000E+00  0.00000000000E+00  0.17150260347E+03  0.17150260347E+03  0.00000000000E+00 0.  1.
         21   -1    0    0  502  503 -0.00000000000E+00 -0.00000000000E+00 -0.22686054555E+03  0.22686054555E+03  0.00000000000E+00 0.  1.
         25    2    1    2    0    0  0.81462983556E+02  0.14314703330E+02 -0.18898555849E+03  0.24120886721E+03  0.12500019153E+03 0.  0.
          5    1    3    3  501    0  0.19145676161E+02  0.12073209583E+01 -0.17495112653E+03  0.17599977617E+03  0.10000000000E+00 0.  1.
         -5    1    3    3    0  501  0.62317307395E+02  0.13107382372E+02 -0.14034431964E+02  0.65209091039E+02  0.10000000000E+00 0.  1.
         21    1    1    2  504  503 -0.81462983556E+02 -0.14314703330E+02  0.13362761641E+03  0.15715428180E+03  0.00000000000E+00 0.  1.
<mgrwt>
<rscale>  1 0.14988721E+03</rscale>
<asrwt>0</asrwt>
<pdfrwt beam="1">  1       21 0.26385016E-01 0.14988721E+03</pdfrwt>
<pdfrwt beam="2">  1       21 0.34901622E-01 0.14988721E+03</pdfrwt>
<totfact> 0.10983235E+05</totfact>
</mgrwt>
</event>
<event>
 6    1  0.4216855E-002  0.1269696E+03  0.7546771E-02  0.1232023E+00
         21   -1    0    0  503  502  0.00000000000E+00  0.00000000000E+00  0.41727841627E+03  0.41727841627E+03  0.00000000000E+00 0. -1.
         21   -1    0    0  504  503 -0.00000000000E+00 -0.00000000000E+00 -0.15639502754E+02  0.15639502754E+02  0.00000000000E+00 0. -1.
         25    2    1    2    0    0 -0.39476663663E+01  0.21843753085E+02  0.25774268738E+03  0.28731964460E+03  0.12501420582E+03 0.  0.
          5    1    3    3  501    0 -0.49017488220E+02 -0.13417683204E+02  0.19869974129E+03  0.20509594234E+03  0.10000000000E+00 0. -1.
         -5    1    3    3    0  501  0.45069821854E+02  0.35261436289E+02  0.59042946086E+02  0.82223702262E+02  0.10000000000E+00 0. -1.
         21    1    1    2  504  502  0.39476663663E+01 -0.21843753085E+02  0.14389622614E+03  0.14559827442E+03  0.00000000000E+00 0. -1.
<mgrwt>
<rscale>  1 0.12696962E+03</rscale>
<asrwt>0</asrwt>
<pdfrwt beam="1">  1       21 0.64196671E-01 0.12696962E+03</pdfrwt>
<pdfrwt beam="2">  1       21 0.24060777E-02 0.12696962E+03</pdfrwt>
<totfact> 0.20298672E+06</totfact>
</mgrwt>
</event>
<event>
 6    1  0.4216855E-002  0.1318815E+03  0.7546771E-02  0.1224690E+00
         21   -1    0    0  503  502  0.00000000000E+00  0.00000000000E+00  0.37765793146E+03  0.37765793146E+03  0.00000000000E+00 0. -1.
         21   -1    0    0  504  503 -0.00000000000E+00 -0.00000000000E+00 -0.48668118732E+02  0.48668118732E+02  0.00000000000E+00 0. -1.
         25    2    1    2    0    0 -0.26609756430E+02 -0.32550636011E+02  0.45159947887E+02  0.13939920373E+03  0.12500037627E+03 0.  0.
          5    1    3    3  501    0 -0.37531852272E+02  0.28449170880E+02  0.59409305709E+02  0.75812075975E+02  0.10000000000E+00 0. -1.
         -5    1    3    3    0  501  0.10922095842E+02 -0.60999806891E+02 -0.14249357823E+02  0.63587127760E+02  0.10000000000E+00 0. -1.
         21    1    1    2  504  502  0.26609756430E+02  0.32550636011E+02  0.28382986484E+03  0.28692684645E+03  0.00000000000E+00 0. -1.
<mgrwt>
<rscale>  1 0.13188145E+03</rscale>
<asrwt>0</asrwt>
<pdfrwt beam="1">  1       21 0.58101218E-01 0.13188145E+03</pdfrwt>
<pdfrwt beam="2">  1       21 0.74874031E-02 0.13188145E+03</pdfrwt>
<totfact> 0.37803092E+05</totfact>
</mgrwt>
</event>
<event>
 6    1  0.4216855E-002  0.1576593E+03  0.7546771E-02  0.1191365E+00
         21   -1    0    0  503  502  0.00000000000E+00  0.00000000000E+00  0.65711549798E+03  0.65711549798E+03  0.00000000000E+00 0.  1.
         21   -1    0    0  504  503 -0.00000000000E+00 -0.00000000000E+00 -0.38089142867E+02  0.38089142867E+02  0.00000000000E+00 0.  1.
         25    2    1    2    0    0 -0.91236339319E+02  0.30127615540E+02  0.15412705976E+03  0.22048040758E+03  0.12499886698E+03 0.  0.
          5    1    3    3  501    0 -0.10489777410E+03  0.51629572094E+02  0.78875500674E+02  0.14103372055E+03  0.10000000000E+00 0. -1.
         -5    1    3    3    0  501  0.13661434776E+02 -0.21501956554E+02  0.75251559088E+02  0.79446687036E+02  0.10000000000E+00 0. -1.
         21    1    1    2  504  502  0.91236339319E+02 -0.30127615540E+02  0.46489929535E+03  0.47472423327E+03  0.00000000000E+00 0.  1.
<mgrwt>
<rscale>  1 0.15765931E+03</rscale>
<asrwt>0</asrwt>
<pdfrwt beam="1">  1       21 0.10109468E+00 0.15765931E+03</pdfrwt>
<pdfrwt beam="2">  1       21 0.58598686E-02 0.15765931E+03</pdfrwt>
<totfact> 0.16632661E+05</totfact>
</mgrwt>
</event>
<event>
 6    1  0.4216855E-002  0.1354107E+03  0.7546771E-02  0.1219641E+00
         21   -1    0    0  504  502  0.00000000000E+00  0.00000000000E+00  0.75372126560E+03  0.75372126560E+03  0.00000000000E+00 0.  1.
         21   -1    0    0  502  503 -0.00000000000E+00 -0.00000000000E+00 -0.24024125507E+02  0.24024125507E+02  0.00000000000E+00 0.  1.
         25    2    1    2    0    0 -0.33088833082E+02  0.40191789269E+02  0.17827178856E+03  0.22386799573E+03  0.12500319242E+03 0.  0.
          5    1    3    3  501    0 -0.39339287452E+02  0.83156260849E+02  0.12162938020E+03  0.15250003077E+03  0.10000000000E+00 0. -1.
         -5    1    3    3    0  501  0.62504543694E+01 -0.42964471579E+02  0.56642408357E+02  0.71367964959E+02  0.10000000000E+00 0. -1.
         21    1    1    2  504  503  0.33088833082E+02 -0.40191789269E+02  0.55142535154E+03  0.55387739538E+03  0.00000000000E+00 0.  1.
<mgrwt>
<rscale>  1 0.13541067E+03</rscale>
<asrwt>0</asrwt>
<pdfrwt beam="1">  1       21 0.11595710E+00 0.13541067E+03</pdfrwt>
<pdfrwt beam="2">  1       21 0.36960199E-02 0.13541067E+03</pdfrwt>
<totfact> 0.26146262E+05</totfact>
</mgrwt>
</event>
<event>
 6    1  0.4216855E-002  0.1269973E+03  0.7546771E-02  0.1231980E+00
         21   -1    0    0  504  502  0.00000000000E+00  0.00000000000E+00  0.49749339700E+01  0.49749339700E+01  0.00000000000E+00 0.  1.
         21   -1    0    0  502  503 -0.00000000000E+00 -0.00000000000E+00 -0.11267356103E+04  0.11267356103E+04  0.00000000000E+00 0.  1.
         25    2    1    2    0    0  0.21978981348E+02  0.45799175155E+01 -0.97694336704E+03  0.98516326747E+03  0.12499707963E+03 0.  0.
          5    1    3    3  501    0 -0.60095399489E+01 -0.18887993447E+02 -0.89757316531E+03  0.89779199593E+03  0.10000000000E+00 0.  1.
         -5    1    3    3    0  501  0.27988521297E+02  0.23467910963E+02 -0.79370201726E+02  0.87371271545E+02  0.10000000000E+00 0.  1.
         21    1    1    2  504  503 -0.21978981348E+02 -0.45799175155E+01 -0.14481730926E+03  0.14654727676E+03  0.00000000000E+00 0.  1.
<mgrwt>
<rscale>  1 0.12699733E+03</rscale>
<asrwt>0</asrwt>
<pdfrwt beam="1">  1       21 0.76537345E-03 0.12699733E+03</pdfrwt>
<pdfrwt beam="2">  1       21 0.17334417E+00 0.12699733E+03</pdfrwt>
<totfact> 0.11743422E+06</totfact>
</mgrwt>
</event>
<event>
 6    1  0.4216855E-002  0.1293837E+03  0.7546771E-02  0.1228373E+00
         21   -1    0    0  504  502  0.00000000000E+00  0.00000000000E+00  0.23623389996E+03  0.23623389996E+03  0.00000000000E+00 0. -1.
         21   -1    0    0  502  503 -0.00000000000E+00 -0.00000000000E+00 -0.30624609710E+02  0.30624609710E+02  0.00000000000E+00 0. -1.
         25    2    1    2    0    0 -0.28868522336E+01 -0.33282643987E+02  0.12633865231E+03  0.18083582461E+03  0.12499628829E+03 0.  0.
          5    1    3    3  501    0  0.12586584131E+02 -0.76591772031E+02  0.52022776637E+02  0.93440360294E+02  0.10000000000E+00 0.  1.
         -5    1    3    3    0  501 -0.15473436365E+02  0.43309128044E+02  0.74315875677E+02  0.87395464313E+02  0.10000000000E+00 0.  1.
         21    1    1    2  504  503  0.28868522336E+01  0.33282643987E+02  0.79270637938E+02  0.86022685065E+02  0.00000000000E+00 0. -1.
<mgrwt>
<rscale>  1 0.12938369E+03</rscale>
<asrwt>0</asrwt>
<pdfrwt beam="1">  1       21 0.36343676E-01 0.12938369E+03</pdfrwt>
<pdfrwt beam="2">  1       21 0.47114786E-02 0.12938369E+03</pdfrwt>
<totfact> 0.21593317E+06</totfact>
</mgrwt>
</event>
<event>
 6    1  0.4216855E-002  0.1260257E+03  0.7546771E-02  0.1233475E+00
         21   -1    0    0  503  502  0.00000000000E+00  0.00000000000E+00  0.16613369764E+03  0.16613369764E+03  0.00000000000E+00 0.  1.
         21   -1    0    0  504  503 -0.00000000000E+00 -0.00000000000E+00 -0.31185773390E+02  0.31185773390E+02  0.00000000000E+00 0.  1.
         25    2    1    2    0    0  0.68787951960E+01  0.14103843779E+02  0.10724519076E+03  0.16548116587E+03  0.12504498824E+03 0.  0.
          5    1    3    3  501    0  0.47618749407E+02  0.46671373648E+02  0.32080543930E+02  0.73992795001E+02  0.10000000000E+00 0.  1.
         -5    1    3    3    0  501 -0.40739954211E+02 -0.32567529869E+02  0.75164646830E+02  0.91488370867E+02  0.10000000000E+00 0.  1.
         21    1    1    2  504  502 -0.68787951960E+01 -0.14103843779E+02  0.27702733487E+02  0.31838305158E+02  0.00000000000E+00 0.  1.
<mgrwt>
<rscale>  1 0.12602573E+03</rscale>
<asrwt>0</asrwt>
<pdfrwt beam="1">  1       21 0.25559030E-01 0.12602573E+03</pdfrwt>
<pdfrwt beam="2">  1       21 0.47978114E-02 0.12602573E+03</pdfrwt>
<totfact> 0.41314936E+06</totfact>
</mgrwt>
</event>
<event>
 6    1  0.4216855E-002  0.1279966E+03  0.7546771E-02  0.1230459E+00
         21   -1    0    0  503  502  0.00000000000E+00  0.00000000000E+00  0.10247692991E+03  0.10247692991E+03  0.00000000000E+00 0. -1.
         21   -1    0    0  504  503 -0.00000000000E+00 -0.00000000000E+00 -0.68423448273E+02  0.68423448273E+02  0.00000000000E+00 0. -1.
         25    2    1    2    0    0  0.16451449313E+02 -0.22132224728E+02  0.11935660642E+01  0.12800213105E+03  0.12499054123E+03 0.  0.
          5    1    3    3  501    0  0.14991593553E+02  0.45526988513E+02  0.27654987240E+02  0.55337716609E+02  0.10000000000E+00 0.  1.
         -5    1    3    3    0  501  0.14598557592E+01 -0.67659213240E+02 -0.26461421176E+02  0.72664414439E+02  0.10000000000E+00 0.  1.
         21    1    1    2  504  502 -0.16451449313E+02  0.22132224728E+02  0.32859915573E+02  0.42898247136E+02  0.00000000000E+00 0. -1.
<mgrwt>
<rscale>  1 0.12799657E+03</rscale>
<asrwt>0</asrwt>
<pdfrwt beam="1">  1       21 0.15765681E-01 0.12799657E+03</pdfrwt>
<pdfrwt beam="2">  1       21 0.10526684E-01 0.12799657E+03</pdfrwt>
<totfact> 0.26304792E+06</totfact>
</mgrwt>
</event>
<event>
 6    1  0.4216855E-002  0.1379531E+03  0.7546771E-02  0.1216110E+00
         21   -1    0    0  503  502  0.00000000000E+00  0.00000000000E+00  0.15968996746E+03  0.15968996746E+03  0.00000000000E+00 0. -1.
         21   -1    0    0  504  503 -0.00000000000E+00 -0.00000000000E+00 -0.17582688654E+03  0.17582688654E+03  0.00000000000E+00 0.  1.
         25    2    1    2    0    0 -0.58021842186E+02  0.62655066161E+01 -0.14126361231E+03  0.19744991335E+03  0.12500107749E+03 0.  0.
          5    1    3    3  501    0  0.22866888714E+01  0.47403126906E+01  0.22405965748E+02  0.23016012067E+02  0.10000000000E+00 0. -1.
         -5    1    3    3    0  501 -0.60308531057E+02  0.15251939255E+01 -0.16366957806E+03  0.17443390128E+03  0.10000000000E+00 0. -1.
         21    1    1    2  504  502  0.58021842186E+02 -0.62655066161E+01  0.12512669323E+03  0.13806694065E+03  0.00000000000E+00 0. -1.
<mgrwt>
<rscale>  1 0.13795311E+03</rscale>
<asrwt>0</asrwt>
<pdfrwt beam="1">  1       21 0.24567687E-01 0.13795311E+03</pdfrwt>
<pdfrwt beam="2">  1       21 0.27050290E-01 0.13795311E+03</pdfrwt>
<totfact> 0.20694452E+05</totfact>
</mgrwt>
</event>
<event>
 6    1  0.4216855E-002  0.1571979E+03  0.7546771E-02  0.1191897E+00
         21   -1    0    0  504  502  0.00000000000E+00  0.00000000000E+00  0.85727078547E+02  0.85727078547E+02  0.00000000000E+00 0. -1.
         21   -1    0    0  502  503 -0.00000000000E+00 -0.00000000000E+00 -0.50334595791E+03  0.50334595791E+03  0.00000000000E+00 0. -1.
         25    2    1    2    0    0 -0.80982424104E+01 -0.94977915210E+02 -0.45898775119E+03  0.48516072022E+03  0.12499913117E+03 0.  0.
          5    1    3    3  501    0 -0.47325118016E+02 -0.11574087512E+02 -0.27605137270E+03  0.28031767099E+03  0.10000000000E+00 0. -1.
         -5    1    3    3    0  501  0.39226875605E+02 -0.83403827698E+02 -0.18293637849E+03  0.20484304923E+03  0.10000000000E+00 0. -1.
         21    1    1    2  504  503  0.80982424104E+01  0.94977915210E+02  0.41368871833E+02  0.10391231623E+03  0.00000000000E+00 0. -1.
<mgrwt>
<rscale>  1 0.15719786E+03</rscale>
<asrwt>0</asrwt>
<pdfrwt beam="1">  1       21 0.13188781E-01 0.15719786E+03</pdfrwt>
<pdfrwt beam="2">  1       21 0.77437841E-01 0.15719786E+03</pdfrwt>
<totfact> 0.74476650E+04</totfact>
</mgrwt>
</event>
<event>
 6    1  0.4216855E-002  0.1411136E+03  0.7546771E-02  0.1211838E+00
         21   -1    0    0  504  502  0.00000000000E+00  0.00000000000E+00  0.10564048138E+03  0.10564048138E+03  0.00000000000E+00 0. -1.
         21   -1    0    0  502  503 -0.00000000000E+00 -0.00000000000E+00 -0.29863161467E+03  0.29863161467E+03  0.00000000000E+00 0.  1.
         25    2    1    2    0    0 -0.34590881594E+02 -0.55624562537E+02 -0.26910124039E+03  0.30385611402E+03  0.12498975718E+03 0.  0.
          5    1    3    3  501    0 -0.64213256477E+02 -0.79015272666E+02 -0.21499384521E+03  0.23788467606E+03  0.10000000000E+00 0.  1.
         -5    1    3    3    0  501  0.29622374883E+02  0.23390710129E+02 -0.54107395174E+02  0.65971437960E+02  0.10000000000E+00 0.  1.
         21    1    1    2  504  503  0.34590881594E+02  0.55624562537E+02  0.76110107094E+02  0.10041598204E+03  0.00000000000E+00 0. -1.
<mgrwt>
<rscale>  1 0.14111364E+03</rscale>
<asrwt>0</asrwt>
<pdfrwt beam="1">  1       21 0.16252382E-01 0.14111364E+03</pdfrwt>
<pdfrwt beam="2">  1       21 0.45943326E-01 0.14111364E+03</pdfrwt>
<totfact> 0.15638728E+05</totfact>
</mgrwt>
</event>
<event>
 6    1  0.4216855E-002  0.1326762E+03  0.7546771E-02  0.1223538E+00
         21   -1    0    0  503  502  0.00000000000E+00  0.00000000000E+00  0.14291169427E+03  0.14291169427E+03  0.00000000000E+00 0. -1.
         21   -1    0    0  504  503 -0.00000000000E+00 -0.00000000000E+00 -0.59424478295E+02  0.59424478295E+02  0.00000000000E+00 0. -1.
         25    2    1    2    0    0  0.29363608447E+02  0.33405527621E+02  0.36430770043E+02  0.13758696500E+03  0.12499928462E+03 0.  0.
          5    1    3    3  501    0  0.15524323007E+02 -0.22984656000E+02 -0.35560563678E+02  0.45098366992E+02  0.10000000000E+00 0.  1.
         -5    1    3    3    0  501  0.13839285439E+02  0.56390183620E+02  0.71991333722E+02  0.92488598007E+02  0.10000000000E+00 0.  1.
         21    1    1    2  504  502 -0.29363608447E+02 -0.33405527621E+02  0.47056445932E+02  0.64749207565E+02  0.00000000000E+00 0. -1.
<mgrwt>
<rscale>  1 0.13267619E+03</rscale>
<asrwt>0</asrwt>
<pdfrwt beam="1">  1       21 0.21986414E-01 0.13267619E+03</pdfrwt>
<pdfrwt beam="2">  1       21 0.91422275E-02 0.13267619E+03</pdfrwt>
<totfact> 0.18287211E+06</totfact>
</mgrwt>
</event>
<event>
 6    1  0.4216855E-002  0.1490431E+03  0.7546771E-02  0.1201654E+00
         21   -1    0    0  503  502  0.00000000000E+00  0.00000000000E+00  0.29254749956E+03  0.29254749956E+03  0.00000000000E+00 0.  1.
         21   -1    0    0  504  503 -0.00000000000E+00 -0.00000000000E+00 -0.10316123919E+03  0.10316123919E+03  0.00000000000E+00 0.  1.
         25    2    1    2    0    0 -0.79056365515E+02  0.18408580686E+02 -0.38384486540E+02  0.15390655118E+03  0.12500029167E+03 0.  0.
          5    1    3    3  501    0 -0.10995401916E+03  0.75045556926E+01 -0.47328256489E+02  0.11994239679E+03  0.10000000000E+00 0.  1.
         -5    1    3    3    0  501  0.30897653648E+02  0.10904024994E+02  0.89437699488E+01  0.33964154382E+02  0.10000000000E+00 0.  1.
         21    1    1    2  504  502  0.79056365515E+02 -0.18408580686E+02  0.22777074690E+03  0.24180218758E+03  0.00000000000E+00 0.  1.
<mgrwt>
<rscale>  1 0.14904314E+03</rscale>
<asrwt>0</asrwt>
<pdfrwt beam="1">  1       21 0.45007307E-01 0.14904314E+03</pdfrwt>
<pdfrwt beam="2">  1       21 0.15870960E-01 0.14904314E+03</pdfrwt>
<totfact> 0.16990656E+05</totfact>
</mgrwt>
</event>
<event>
 6    1  0.4216855E-002  0.1289302E+03  0.7546771E-02  0.1229052E+00
         21   -1    0    0  503  502  0.00000000000E+00  0.00000000000E+00  0.11937861036E+03  0.11937861036E+03  0.00000000000E+00 0. -1.
         21   -1    0    0  504  503 -0.00000000000E+00 -0.00000000000E+00 -0.60217582433E+02  0.60217582433E+02  0.00000000000E+00 0. -1.
         25    2    1    2    0    0  0.17566974080E+02 -0.26260910132E+02  0.69351148740E+02  0.14639871485E+03  0.12499907159E+03 0.  0.
          5    1    3    3  501    0  0.70354688919E+02 -0.27719788969E+02  0.47148067212E+02  0.89112957505E+02  0.10000000000E+00 0.  1.
         -5    1    3    3    0  501 -0.52787714839E+02  0.14588788372E+01  0.22203081527E+02  0.57285757346E+02  0.10000000000E+00 0.  1.
         21    1    1    2  504  502 -0.17566974080E+02  0.26260910132E+02 -0.10190120815E+02  0.33197477939E+02  0.00000000000E+00 0. -1.
<mgrwt>
<rscale>  1 0.12893022E+03</rscale>
<asrwt>0</asrwt>
<pdfrwt beam="1">  1       21 0.18365940E-01 0.12893022E+03</pdfrwt>
<pdfrwt beam="2">  1       21 0.92642435E-02 0.12893022E+03</pdfrwt>
<totfact> 0.24908846E+06</totfact>
</mgrwt>
</event>
<event>
 6    1  0.4216855E-002  0.1429305E+03  0.7546771E-02  0.1209439E+00
         21   -1    0    0  503  502  0.00000000000E+00  0.00000000000E+00  0.56655537513E+02  0.56655537513E+02  0.00000000000E+00 0.  1.
         21   -1    0    0  504  503 -0.00000000000E+00 -0.00000000000E+00 -0.21644332567E+03  0.21644332567E+03  0.00000000000E+00 0.  1.
         25    2    1    2    0    0  0.60871793402E+02 -0.33163710132E+02 -0.14212264692E+03  0.20156380803E+03  0.12499566008E+03 0.  0.
          5    1    3    3  501    0  0.21780205529E+02 -0.55863121730E+02 -0.85700246588E+01  0.60568317171E+02  0.10000000000E+00 0. -1.
         -5    1    3    3    0  501  0.39091587873E+02  0.22699411598E+02 -0.13355262226E+03  0.14099549086E+03  0.10000000000E+00 0. -1.
         21    1    1    2  504  502 -0.60871793402E+02  0.33163710132E+02 -0.17665141242E+02  0.71535055160E+02  0.00000000000E+00 0.  1.
<mgrwt>
<rscale>  1 0.14293048E+03</rscale>
<asrwt>0</asrwt>
<pdfrwt beam="1">  1       21 0.87162366E-02 0.14293048E+03</pdfrwt>
<pdfrwt beam="2">  1       21 0.33298973E-01 0.14293048E+03</pdfrwt>
<totfact> 0.89976694E+05</totfact>
</mgrwt>
</event>
<event>
 6    1  0.4216855E-002  0.2277446E+03  0.7546771E-02  0.1128237E+00
         21   -1    0    0  503  502  0.00000000000E+00  0.00000000000E+00  0.38835667799E+03  0.38835667799E+03  0.00000000000E+00 0.  1.
         21   -1    0    0  504  503 -0.00000000000E+00 -0.00000000000E+00 -0.12260489779E+03  0.12260489779E+03  0.00000000000E+00 0.  1.
         25    2    1    2    0    0  0.54774660099E+02  0.18232123507E+03  0.70843297712E+02  0.23850862077E+03  0.12500517271E+03 0.  0.
          5    1    3    3  501    0  0.62937940599E+02  0.56865730283E+02  0.74267490594E+02  0.11274114514E+03  0.10000000000E+00 0. -1.
         -5    1    3    3    0  501 -0.81632804997E+01  0.12545550479E+03 -0.34241928819E+01  0.12576747563E+03  0.10000000000E+00 0. -1.
         21    1    1    2  504  502 -0.54774660099E+02 -0.18232123507E+03  0.19490848249E+03  0.27245295501E+03  0.00000000000E+00 0.  1.
<mgrwt>
<rscale>  1 0.22774457E+03</rscale>
<asrwt>0</asrwt>
<pdfrwt beam="1">  1       21 0.59747180E-01 0.22774457E+03</pdfrwt>
<pdfrwt beam="2">  1       21 0.18862292E-01 0.22774457E+03</pdfrwt>
<totfact> 0.66289899E+04</totfact>
</mgrwt>
</event>
<event>
 6    1  0.4216855E-002  0.1264888E+03  0.7546771E-02  0.1232761E+00
         21   -1    0    0  504  502  0.00000000000E+00  0.00000000000E+00  0.30611498652E+02  0.30611498652E+02  0.00000000000E+00 0. -1.
         21   -1    0    0  502  503 -0.00000000000E+00 -0.00000000000E+00 -0.23816440390E+03  0.23816440390E+03  0.00000000000E+00 0. -1.
         25    2    1    2    0    0  0.19269281047E+02  0.16969916365E+01 -0.21382878740E+03  0.24843944097E+03  0.12500088215E+03 0.  0.
          5    1    3    3  501    0  0.38406950972E+02 -0.53512759318E+02 -0.13605162285E+03  0.15115807412E+03  0.10000000000E+00 0.  1.
         -5    1    3    3    0  501 -0.19137669925E+02  0.55209750955E+02 -0.77777164553E+02  0.97281366852E+02  0.10000000000E+00 0.  1.
         21    1    1    2  504  503 -0.19269281047E+02 -0.16969916365E+01  0.62758821538E+01  0.20336461578E+02  0.00000000000E+00 0. -1.
<mgrwt>
<rscale>  1 0.12648876E+03</rscale>
<asrwt>0</asrwt>
<pdfrwt beam="1">  1       21 0.47094612E-02 0.12648876E+03</pdfrwt>
<pdfrwt beam="2">  1       21 0.36640678E-01 0.12648876E+03</pdfrwt>
<totfact> 0.21250991E+06</totfact>
</mgrwt>
</event>
<event>
 6    1  0.4216855E-002  0.1276548E+03  0.7546771E-02  0.1230978E+00
         21   -1    0    0  503  502  0.00000000000E+00  0.00000000000E+00  0.20875244286E+02  0.20875244286E+02  0.00000000000E+00 0. -1.
         21   -1    0    0  504  503 -0.00000000000E+00 -0.00000000000E+00 -0.49910160145E+03  0.49910160145E+03  0.00000000000E+00 0. -1.
         25    2    1    2    0    0  0.11841339330E+02 -0.23060264486E+02 -0.47725859649E+03  0.49403595762E+03  0.12499506543E+03 0.  0.
          5    1    3    3  501    0 -0.38361144323E+01  0.49687817965E+02 -0.13832323682E+03  0.14702694607E+03  0.10000000000E+00 0. -1.
         -5    1    3    3    0  501  0.15677453763E+02 -0.72748082452E+02 -0.33893535968E+03  0.34700901155E+03  0.10000000000E+00 0. -1.
         21    1    1    2  504  502 -0.11841339330E+02  0.23060264486E+02 -0.96776066863E+00  0.25940888112E+02  0.00000000000E+00 0. -1.
<mgrwt>
<rscale>  1 0.12765485E+03</rscale>
<asrwt>0</asrwt>
<pdfrwt beam="1">  1       21 0.32115762E-02 0.12765485E+03</pdfrwt>
<pdfrwt beam="2">  1       21 0.76784858E-01 0.12765485E+03</pdfrwt>
<totfact> 0.85692849E+05</totfact>
</mgrwt>
</event>
<event>
 6    1  0.4216855E-002  0.1564258E+03  0.7546771E-02  0.1192792E+00
         21   -1    0    0  503  502  0.00000000000E+00  0.00000000000E+00  0.14757317002E+03  0.14757317002E+03  0.00000000000E+00 0.  1.
         21   -1    0    0  504  503 -0.00000000000E+00 -0.00000000000E+00 -0.48758457296E+03  0.48758457296E+03  0.00000000000E+00 0. -1.
         25    2    1    2    0    0 -0.26117509910E+02  0.90342905365E+02 -0.45817344604E+03  0.48414041516E+03  0.12500028023E+03 0.  0.
          5    1    3    3  501    0  0.18799080705E+02  0.64538422931E+02 -0.89957698295E+02  0.11229875757E+03  0.10000000000E+00 0.  1.
         -5    1    3    3    0  501 -0.44916590615E+02  0.25804482435E+02 -0.36821574775E+03  0.37184165759E+03  0.10000000000E+00 0.  1.
         21    1    1    2  504  502  0.26117509910E+02 -0.90342905365E+02  0.11816204310E+03  0.15101732783E+03  0.00000000000E+00 0.  1.
<mgrwt>
<rscale>  1 0.15642581E+03</rscale>
<asrwt>0</asrwt>
<pdfrwt beam="1">  1       21 0.22703565E-01 0.15642581E+03</pdfrwt>
<pdfrwt beam="2">  1       21 0.75013010E-01 0.15642581E+03</pdfrwt>
<totfact> 0.29519905E+04</totfact>
</mgrwt>
</event>
<event>
 6    1  0.4216855E-002  0.1265886E+03  0.7546771E-02  0.1232607E+00
         21   -1    0    0  504  502  0.00000000000E+00  0.00000000000E+00  0.16114082502E+02  0.16114082502E+02  0.00000000000E+00 0.  1.
         21   -1    0    0  502  503 -0.00000000000E+00 -0.00000000000E+00 -0.55310688086E+03  0.55310688086E+03  0.00000000000E+00 0.  1.
         25    2    1    2    0    0  0.12385669879E+02  0.15718102364E+02 -0.53422577318E+03  0.54901898354E+03  0.12499681597E+03 0.  0.
          5    1    3    3  501    0  0.63857274147E+02  0.15753628932E+02 -0.39791102716E+03  0.40331020793E+03  0.10000000000E+00 0.  1.
         -5    1    3    3    0  501 -0.51471604268E+02 -0.35526567445E-01 -0.13631474602E+03  0.14570877561E+03  0.10000000000E+00 0.  1.
         21    1    1    2  504  503 -0.12385669879E+02 -0.15718102364E+02 -0.27670251804E+01  0.20201979820E+02  0.00000000000E+00 0.  1.
<mgrwt>
<rscale>  1 0.12658858E+03</rscale>
<asrwt>0</asrwt>
<pdfrwt beam="1">  1       21 0.24790896E-02 0.12658858E+03</pdfrwt>
<pdfrwt beam="2">  1       21 0.85093367E-01 0.12658858E+03</pdfrwt>
<totfact> 0.10397624E+06</totfact>
</mgrwt>
</event>
<event>
 6    1  0.4216855E-002  0.1510812E+03  0.7546771E-02  0.1199151E+00
         21   -1    0    0  504  502  0.00000000000E+00  0.00000000000E+00  0.28267890693E+02  0.28267890693E+02  0.00000000000E+00 0.  1.
         21   -1    0    0  502  503 -0.00000000000E+00 -0.00000000000E+00 -0.51944291342E+03  0.51944291342E+03  0.00000000000E+00 0.  1.
         25    2    1    2    0    0 -0.59038884680E+02 -0.60958538142E+02 -0.37109625294E+03  0.40067188331E+03  0.12499598336E+03 0.  0.
          5    1    3    3  501    0  0.89680068945E+01 -0.50082986386E+02 -0.46756854719E+02  0.69100970588E+02  0.10000000000E+00 0.  1.
         -5    1    3    3    0  501 -0.68006891575E+02 -0.10875551756E+02 -0.32433939822E+03  0.33157091272E+03  0.10000000000E+00 0.  1.
         21    1    1    2  504  503  0.59038884680E+02  0.60958538142E+02 -0.12007876979E+03  0.14703892081E+03  0.00000000000E+00 0.  1.
<mgrwt>
<rscale>  1 0.15108120E+03</rscale>
<asrwt>0</asrwt>
<pdfrwt beam="1">  1       21 0.43489062E-02 0.15108120E+03</pdfrwt>
<pdfrwt beam="2">  1       21 0.79914295E-01 0.15108120E+03</pdfrwt>
<totfact> 0.47316158E+05</totfact>
</mgrwt>
</event>
<event>
 6    1  0.4216855E-002  0.1310371E+03  0.7546771E-02  0.1225925E+00
         21   -1    0    0  504  502  0.00000000000E+00  0.00000000000E+00  0.26883423181E+02  0.26883423181E+02  0.00000000000E+00 0. -1.
         21   -1    0    0  502  503 -0.00000000000E+00 -0.00000000000E+00 -0.32962670604E+03  0.32962670604E+03  0.00000000000E+00 0. -1.
         25    2    1    2    0    0 -0.34415519224E+02  0.19012546200E+02 -0.28437488654E+03  0.31311309176E+03  0.12499930906E+03 0.  0.
          5    1    3    3  501    0 -0.54760451668E+02 -0.26446734241E+02 -0.23590190710E+03  0.24361415516E+03  0.10000000000E+00 0.  1.
         -5    1    3    3    0  501  0.20344932444E+02  0.45459280440E+02 -0.48472979437E+02  0.69498936609E+02  0.10000000000E+00 0.  1.
         21    1    1    2  504  503  0.34415519224E+02 -0.19012546200E+02 -0.18368396320E+02  0.43397037454E+02  0.00000000000E+00 0. -1.
<mgrwt>
<rscale>  1 0.13103714E+03</rscale>
<asrwt>0</asrwt>
<pdfrwt beam="1">  1       21 0.41359112E-02 0.13103714E+03</pdfrwt>
<pdfrwt beam="2">  1       21 0.50711801E-01 0.13103714E+03</pdfrwt>
<totfact> 0.13699505E+06</totfact>
</mgrwt>
</event>
<event>
 6    1  0.4216855E-002  0.1326431E+03  0.7546771E-02  0.1223586E+00
         21   -1    0    0  503  502  0.00000000000E+00  0.00000000000E+00  0.24419189820E+04  0.24419189820E+04  0.00000000000E+00 0. -1.
         21   -1    0    0  504  503 -0.00000000000E+00 -0.00000000000E+00 -0.77164938042E+02  0.77164938042E+02  0.00000000000E+00 0. -1.
         25    2    1    2    0    0  0.41530124719E+02 -0.15422039553E+02 -0.19804950508E+02  0.13411344042E+03  0.12502635032E+03 0.  0.
          5    1    3    3  501    0  0.27376257049E+02 -0.30682960542E+02 -0.69209196132E+02  0.80503579715E+02  0.10000000000E+00 0. -1.
         -5    1    3    3    0  501  0.14153867669E+02  0.15260920989E+02  0.49404245624E+02  0.53609860708E+02  0.10000000000E+00 0. -1.
         21    1    1    2  504  502 -0.41530124719E+02  0.15422039553E+02  0.23845589944E+04  0.23849704796E+04  0.00000000000E+00 0. -1.
<mgrwt>
<rscale>  1 0.13264305E+03</rscale>
<asrwt>0</asrwt>
<pdfrwt beam="1">  1       21 0.37567978E+00 0.13264305E+03</pdfrwt>
<pdfrwt beam="2">  1       21 0.11871531E-01 0.13264305E+03</pdfrwt>
<totfact> 0.81975048E+02</totfact>
</mgrwt>
</event>
<event>
 6    1  0.4216855E-002  0.1373106E+03  0.7546771E-02  0.1216994E+00
         21   -1    0    0  504  502  0.00000000000E+00  0.00000000000E+00  0.29472382163E+03  0.29472382163E+03  0.00000000000E+00 0. -1.
         21   -1    0    0  502  503 -0.00000000000E+00 -0.00000000000E+00 -0.35941517843E+02  0.35941517843E+02  0.00000000000E+00 0. -1.
         25    2    1    2    0    0  0.13307686780E+02 -0.55259201910E+02  0.12654216178E+03  0.18672740465E+03  0.12499412392E+03 0.  0.
          5    1    3    3  501    0 -0.23011484226E+02 -0.36105442019E+02 -0.10149630820E+02  0.44001776731E+02  0.10000000000E+00 0. -1.
         -5    1    3    3    0  501  0.36319171006E+02 -0.19153759891E+02  0.13669179260E+03  0.14272562792E+03  0.10000000000E+00 0. -1.
         21    1    1    2  504  503 -0.13307686780E+02  0.55259201910E+02  0.13224014201E+03  0.14393793483E+03  0.00000000000E+00 0. -1.
<mgrwt>
<rscale>  1 0.13731061E+03</rscale>
<asrwt>0</asrwt>
<pdfrwt beam="1">  1       21 0.45342125E-01 0.13731061E+03</pdfrwt>
<pdfrwt beam="2">  1       21 0.55294645E-02 0.13731061E+03</pdfrwt>
<totfact> 0.10595109E+06</totfact>
</mgrwt>
</event>
<event>
 6    1  0.4216855E-002  0.1394773E+03  0.7546771E-02  0.1214034E+00
         21   -1    0    0  503  502  0.00000000000E+00  0.00000000000E+00  0.12684727217E+03  0.12684727217E+03  0.00000000000E+00 0.  1.
         21   -1    0    0  504  503 -0.00000000000E+00 -0.00000000000E+00 -0.96413536878E+03  0.96413536878E+03  0.00000000000E+00 0.  1.
         25    2    1    2    0    0 -0.58654383155E+02  0.19747944771E+02 -0.95118509417E+03  0.96135685633E+03  0.12499441530E+03 0.  0.
          5    1    3    3  501    0  0.31905618825E+02  0.26939962750E+02 -0.45596921430E+03  0.45787734656E+03  0.10000000000E+00 0. -1.
         -5    1    3    3    0  501 -0.90560001980E+02 -0.71920179791E+01 -0.49521587987E+03  0.50347950977E+03  0.10000000000E+00 0. -1.
         21    1    1    2  504  502  0.58654383155E+02 -0.19747944771E+02  0.11389699755E+03  0.12962578462E+03  0.00000000000E+00 0.  1.
<mgrwt>
<rscale>  1 0.13947732E+03</rscale>
<asrwt>0</asrwt>
<pdfrwt beam="1">  1       21 0.19514966E-01 0.13947732E+03</pdfrwt>
<pdfrwt beam="2">  1       21 0.14832851E+00 0.13947732E+03</pdfrwt>
<totfact> 0.77897053E+03</totfact>
</mgrwt>
</event>
<event>
 6    1  0.4216855E-002  0.1282582E+03  0.7546771E-02  0.1230063E+00
         21   -1    0    0  503  502  0.00000000000E+00  0.00000000000E+00  0.53692764125E+02  0.53692764125E+02  0.00000000000E+00 0.  1.
         21   -1    0    0  504  503 -0.00000000000E+00 -0.00000000000E+00 -0.15241111149E+03  0.15241111149E+03  0.00000000000E+00 0.  1.
         25    2    1    2    0    0  0.27206534770E+02  0.91736139504E+01 -0.11571134363E+03  0.17274053272E+03  0.12500330345E+03 0.  0.
          5    1    3    3  501    0 -0.52974626470E+00 -0.38194980302E+02  0.65184037787E+01  0.38750957913E+02  0.10000000000E+00 0. -1.
         -5    1    3    3    0  501  0.27736281035E+02  0.47368594252E+02 -0.12222974740E+03  0.13398957481E+03  0.10000000000E+00 0. -1.
         21    1    1    2  504  502 -0.27206534770E+02 -0.91736139504E+01  0.16992996259E+02  0.33363342893E+02  0.00000000000E+00 0.  1.
<mgrwt>
<rscale>  1 0.12825824E+03</rscale>
<asrwt>0</asrwt>
<pdfrwt beam="1">  1       21 0.82604252E-02 0.12825824E+03</pdfrwt>
<pdfrwt beam="2">  1       21 0.23447863E-01 0.12825824E+03</pdfrwt>
<totfact> 0.19310650E+06</totfact>
</mgrwt>
</event>
<event>
 6    1  0.4216855E-002  0.1279769E+03  0.7546771E-02  0.1230489E+00
         21   -1    0    0  503  502  0.00000000000E+00  0.00000000000E+00  0.25908326741E+02  0.25908326741E+02  0.00000000000E+00 0.  1.
         21   -1    0    0  504  503 -0.00000000000E+00 -0.00000000000E+00 -0.12682203990E+04  0.12682203990E+04  0.00000000000E+00 0. -1.
         25    2    1    2    0    0 -0.16548621702E+02  0.21896562567E+02 -0.12566589004E+04  0.12631586142E+04  0.12499910539E+03 0.  0.
          5    1    3    3  501    0  0.27703128016E+02 -0.46523305674E+01 -0.10421908663E+04  0.10425693834E+04  0.10000000000E+00 0. -1.
         -5    1    3    3    0  501 -0.44251749719E+02  0.26548893134E+02 -0.21446803414E+03  0.22058923081E+03  0.10000000000E+00 0. -1.
         21    1    1    2  504  502  0.16548621702E+02 -0.21896562567E+02  0.14346828124E+02  0.30970111555E+02  0.00000000000E+00 0.  1.
<mgrwt>
<rscale>  1 0.12797692E+03</rscale>
<asrwt>0</asrwt>
<pdfrwt beam="1">  1       21 0.39858966E-02 0.12797692E+03</pdfrwt>
<pdfrwt beam="2">  1       21 0.19511082E+00 0.12797692E+03</pdfrwt>
<totfact> 0.59488510E+04</totfact>
</mgrwt>
</event>
<event>
 6    1  0.4216855E-002  0.1264142E+03  0.7546771E-02  0.1232876E+00
         21   -1    0    0  503  502  0.00000000000E+00  0.00000000000E+00  0.21003693875E+03  0.21003693875E+03  0.00000000000E+00 0.  1.
         21   -1    0    0  504  503 -0.00000000000E+00 -0.00000000000E+00 -0.25388226781E+02  0.25388226781E+02  0.00000000000E+00 0.  1.
         25    2    1    2    0    0  0.93918457919E+01  0.16391209806E+02  0.15192995942E+03  0.19764428022E+03  0.12499468152E+03 0.  0.
          5    1    3    3  501    0  0.51981663141E+02 -0.24643081182E+02  0.37024405774E+02  0.68411924223E+02  0.10000000000E+00 0.  1.
         -5    1    3    3    0  501 -0.42589817349E+02  0.41034290988E+02  0.11490555364E+03  0.12923235600E+03  0.10000000000E+00 0.  1.
         21    1    1    2  504  502 -0.93918457919E+01 -0.16391209806E+02  0.32718752557E+02  0.37780885315E+02  0.00000000000E+00 0. -1.
<mgrwt>
<rscale>  1 0.12641420E+03</rscale>
<asrwt>0</asrwt>
<pdfrwt beam="1">  1       21 0.32313374E-01 0.12641420E+03</pdfrwt>
<pdfrwt beam="2">  1       21 0.39058812E-02 0.12641420E+03</pdfrwt>
<totfact> 0.37126138E+06</totfact>
</mgrwt>
</event>
<event>
 6    1  0.4216855E-002  0.1308952E+03  0.7546771E-02  0.1226133E+00
         21   -1    0    0  504  502  0.00000000000E+00  0.00000000000E+00  0.16311380082E+03  0.16311380082E+03  0.00000000000E+00 0.  1.
         21   -1    0    0  502  503 -0.00000000000E+00 -0.00000000000E+00 -0.12740279424E+03  0.12740279424E+03  0.00000000000E+00 0.  1.
         25    2    1    2    0    0 -0.94476298736E+01 -0.37664683946E+02 -0.90061798576E+02  0.15888572997E+03  0.12500264596E+03 0.  0.
          5    1    3    3  501    0 -0.81501342241E+01 -0.83377593519E+02 -0.46936733717E+02  0.96027677057E+02  0.10000000000E+00 0. -1.
         -5    1    3    3    0  501 -0.12974956496E+01  0.45712909573E+02 -0.43125064859E+02  0.62858052910E+02  0.10000000000E+00 0. -1.
         21    1    1    2  504  503  0.94476298736E+01  0.37664683946E+02  0.12577280516E+03  0.13163086509E+03  0.00000000000E+00 0.  1.
<mgrwt>
<rscale>  1 0.13089518E+03</rscale>
<asrwt>0</asrwt>
<pdfrwt beam="1">  1       21 0.25094431E-01 0.13089518E+03</pdfrwt>
<pdfrwt beam="2">  1       21 0.19600430E-01 0.13089518E+03</pdfrwt>
<totfact> 0.36441569E+05</totfact>
</mgrwt>
</event>
<event>
 6    1  0.4216855E-002  0.1297335E+03  0.7546771E-02  0.1227852E+00
         21   -1    0    0  503  502  0.00000000000E+00  0.00000000000E+00  0.38437495639E+02  0.38437495639E+02  0.00000000000E+00 0. -1.
         21   -1    0    0  504  503 -0.00000000000E+00 -0.00000000000E+00 -0.18933521512E+03  0.18933521512E+03  0.00000000000E+00 0. -1.
         25    2    1    2    0    0 -0.49587737886E+01 -0.34337445029E+02 -0.90706018757E+02  0.15829832408E+03  0.12500851171E+03 0.  0.
          5    1    3    3  501    0  0.26308738014E+01  0.18224837193E+02  0.24963220809E+02  0.31019970678E+02  0.10000000000E+00 0. -1.
         -5    1    3    3    0  501 -0.75896475899E+01 -0.52562282221E+02 -0.11566923957E+03  0.12727835340E+03  0.10000000000E+00 0. -1.
         21    1    1    2  504  502  0.49587737886E+01  0.34337445029E+02 -0.60191700727E+02  0.69474386683E+02  0.00000000000E+00 0. -1.
<mgrwt>
<rscale>  1 0.12973349E+03</rscale>
<asrwt>0</asrwt>
<pdfrwt beam="1">  1       21 0.59134609E-02 0.12973349E+03</pdfrwt>
<pdfrwt beam="2">  1       21 0.29128495E-01 0.12973349E+03</pdfrwt>
<totfact> 0.22663349E+06</totfact>
</mgrwt>
</event>
<event>
 6    1  0.4216855E-002  0.1265045E+03  0.7546771E-02  0.1232737E+00
         21   -1    0    0  503  502  0.00000000000E+00  0.00000000000E+00  0.19904977260E+03  0.19904977260E+03  0.00000000000E+00 0. -1.
         21   -1    0    0  504  503 -0.00000000000E+00 -0.00000000000E+00 -0.33967015824E+02  0.33967015824E+02  0.00000000000E+00 0. -1.
         25    2    1    2    0    0  0.14152929401E+02 -0.13347668302E+02  0.89481611142E+02  0.15495271935E+03  0.12499968336E+03 0.  0.
          5    1    3    3  501    0  0.46354757612E+02  0.77675586455E+01  0.10373966688E+03  0.11389041665E+03  0.10000000000E+00 0. -1.
         -5    1    3    3    0  501 -0.32201828211E+02 -0.21115226947E+02 -0.14258055739E+02  0.41062302695E+02  0.10000000000E+00 0. -1.
         21    1    1    2  504  502 -0.14152929401E+02  0.13347668302E+02  0.75601145631E+02  0.78064069074E+02  0.00000000000E+00 0. -1.
<mgrwt>
<rscale>  1 0.12650449E+03</rscale>
<asrwt>0</asrwt>
<pdfrwt beam="1">  1       21 0.30623041E-01 0.12650449E+03</pdfrwt>
<pdfrwt beam="2">  1       21 0.52256948E-02 0.12650449E+03</pdfrwt>
<totfact> 0.25336727E+06</totfact>
</mgrwt>
</event>
<event>
 6    1  0.4216855E-002  0.1303421E+03  0.7546771E-02  0.1226949E+00
         21   -1    0    0  503  502  0.00000000000E+00  0.00000000000E+00  0.20195726740E+04  0.20195726740E+04  0.00000000000E+00 0.  1.
         21   -1    0    0  504  503 -0.00000000000E+00 -0.00000000000E+00 -0.41029338109E+01  0.41029338109E+01  0.00000000000E+00 0.  1.
         25    2    1    2    0    0 -0.39959008898E+01 -0.36721949899E+02  0.11400391702E+04  0.11474660714E+04  0.12499842636E+03 0.  0.
          5    1    3    3  501    0 -0.27426721917E+01 -0.17783702625E+02  0.11189462328E+04  0.11190909097E+04  0.10000000000E+00 0.  1.
         -5    1    3    3    0  501 -0.12532286982E+01 -0.18938247274E+02  0.21092937406E+02  0.28375161681E+02  0.10000000000E+00 0.  1.
         21    1    1    2  504  502  0.39959008898E+01  0.36721949899E+02  0.87543056999E+03  0.87620953641E+03  0.00000000000E+00 0.  1.
<mgrwt>
<rscale>  1 0.13034215E+03</rscale>
<asrwt>0</asrwt>
<pdfrwt beam="1">  1       21 0.31070269E+00 0.13034215E+03</pdfrwt>
<pdfrwt beam="2">  1       21 0.63122220E-03 0.13034215E+03</pdfrwt>
<totfact> 0.24213666E+05</totfact>
</mgrwt>
</event>
<event>
 6    1  0.4216855E-002  0.1259795E+03  0.7546771E-02  0.1233546E+00
         21   -1    0    0  503  502  0.00000000000E+00  0.00000000000E+00  0.77461566452E+02  0.77461566452E+02  0.00000000000E+00 0. -1.
         21   -1    0    0  504  503 -0.00000000000E+00 -0.00000000000E+00 -0.26758938091E+03  0.26758938091E+03  0.00000000000E+00 0.  1.
         25    2    1    2    0    0  0.14822731370E+02 -0.51109554679E+01 -0.25172506600E+03  0.28148950757E+03  0.12499999516E+03 0.  0.
          5    1    3    3  501    0 -0.52420845954E+02 -0.20292683060E+02 -0.12929716114E+03  0.14098760214E+03  0.10000000000E+00 0. -1.
         -5    1    3    3    0  501  0.67243577324E+02  0.15181727593E+02 -0.12242790486E+03  0.14050190544E+03  0.10000000000E+00 0. -1.
         21    1    1    2  504  502 -0.14822731370E+02  0.51109554679E+01  0.61597251539E+02  0.63561439790E+02  0.00000000000E+00 0. -1.
<mgrwt>
<rscale>  1 0.12597950E+03</rscale>
<asrwt>0</asrwt>
<pdfrwt beam="1">  1       21 0.11917164E-01 0.12597950E+03</pdfrwt>
<pdfrwt beam="2">  1       21 0.41167598E-01 0.12597950E+03</pdfrwt>
<totfact> 0.34192106E+05</totfact>
</mgrwt>
</event>
<event>
 6    1  0.4216855E-002  0.1595320E+03  0.7546771E-02  0.1189226E+00
         21   -1    0    0  503  502  0.00000000000E+00  0.00000000000E+00  0.68344190143E+02  0.68344190143E+02  0.00000000000E+00 0. -1.
         21   -1    0    0  504  503 -0.00000000000E+00 -0.00000000000E+00 -0.29329691876E+03  0.29329691876E+03  0.00000000000E+00 0. -1.
         25    2    1    2    0    0  0.46790278835E+02 -0.87386615783E+02 -0.20628174299E+03  0.26077309357E+03  0.12499879211E+03 0.  0.
          5    1    3    3  501    0 -0.25107516561E+02 -0.82794269175E+02 -0.12673869915E+03  0.15345353127E+03  0.10000000000E+00 0. -1.
         -5    1    3    3    0  501  0.71897795396E+02 -0.45923466075E+01 -0.79543043838E+02  0.10731956230E+03  0.10000000000E+00 0. -1.
         21    1    1    2  504  502 -0.46790278835E+02  0.87386615783E+02 -0.18670985621E+02  0.10086801532E+03  0.00000000000E+00 0. -1.
<mgrwt>
<rscale>  1 0.15953197E+03</rscale>
<asrwt>0</asrwt>
<pdfrwt beam="1">  1       21 0.10514491E-01 0.15953197E+03</pdfrwt>
<pdfrwt beam="2">  1       21 0.45122603E-01 0.15953197E+03</pdfrwt>
<totfact> 0.35246116E+05</totfact>
</mgrwt>
</event>
<event>
 6    1  0.4216855E-002  0.1493958E+03  0.7546771E-02  0.1201217E+00
         21   -1    0    0  503  502  0.00000000000E+00  0.00000000000E+00  0.87754901591E+03  0.87754901591E+03  0.00000000000E+00 0. -1.
         21   -1    0    0  504  503 -0.00000000000E+00 -0.00000000000E+00 -0.20946090701E+02  0.20946090701E+02  0.00000000000E+00 0. -1.
         25    2    1    2    0    0 -0.76550850111E+02 -0.28769971500E+02  0.29198216743E+03  0.32798275440E+03  0.12502542610E+03 0.  0.
          5    1    3    3  501    0 -0.12261920866E+02  0.47684288537E+02  0.10582350597E+03  0.11671662475E+03  0.10000000000E+00 0.  1.
         -5    1    3    3    0  501 -0.64288929244E+02 -0.76454260036E+02  0.18615866146E+03  0.21126612965E+03  0.10000000000E+00 0.  1.
         21    1    1    2  504  502  0.76550850111E+02  0.28769971500E+02  0.56462075778E+03  0.57051235221E+03  0.00000000000E+00 0. -1.
<mgrwt>
<rscale>  1 0.14939579E+03</rscale>
<asrwt>0</asrwt>
<pdfrwt beam="1">  1       21 0.13500751E+00 0.14939579E+03</pdfrwt>
<pdfrwt beam="2">  1       21 0.32224762E-02 0.14939579E+03</pdfrwt>
<totfact> 0.22418594E+05</totfact>
</mgrwt>
</event>
<event>
 6    1  0.4216855E-002  0.1262211E+03  0.7546771E-02  0.1233173E+00
         21   -1    0    0  504  502  0.00000000000E+00  0.00000000000E+00  0.82756761709E+02  0.82756761709E+02  0.00000000000E+00 0. -1.
         21   -1    0    0  502  503 -0.00000000000E+00 -0.00000000000E+00 -0.71748366510E+02  0.71748366510E+02  0.00000000000E+00 0. -1.
         25    2    1    2    0    0 -0.17304434242E+02 -0.27531181193E+01 -0.10623060077E+02  0.12666733087E+03  0.12499896080E+03 0.  0.
          5    1    3    3  501    0 -0.74121336577E+01 -0.45107219406E+02  0.39422022268E+02  0.60363124567E+02  0.10000000000E+00 0.  1.
         -5    1    3    3    0  501 -0.98923005839E+01  0.42354101286E+02 -0.50045082345E+02  0.66304206303E+02  0.10000000000E+00 0.  1.
         21    1    1    2  504  503  0.17304434242E+02  0.27531181193E+01  0.21631455277E+02  0.27837797348E+02  0.00000000000E+00 0.  1.
<mgrwt>
<rscale>  1 0.12622109E+03</rscale>
<asrwt>0</asrwt>
<pdfrwt beam="1">  1       21 0.12731810E-01 0.12622109E+03</pdfrwt>
<pdfrwt beam="2">  1       21 0.11038210E-01 0.12622109E+03</pdfrwt>
<totfact> 0.35489440E+06</totfact>
</mgrwt>
</event>
<event>
 6    1  0.4216855E-002  0.1459220E+03  0.7546771E-02  0.1205575E+00
         21   -1    0    0  503  502  0.00000000000E+00  0.00000000000E+00  0.22452549708E+03  0.22452549708E+03  0.00000000000E+00 0.  1.
         21   -1    0    0  504  503 -0.00000000000E+00 -0.00000000000E+00 -0.71824298576E+02  0.71824298576E+02  0.00000000000E+00 0.  1.
         25    2    1    2    0    0  0.56606151954E+02 -0.49649333822E+02  0.24919780984E+02  0.14803457914E+03  0.12499571332E+03 0.  0.
          5    1    3    3  501    0  0.91125292829E+02 -0.52826439794E+02  0.36517283268E+02  0.11148082217E+03  0.10000000000E+00 0.  1.
         -5    1    3    3    0  501 -0.34519140876E+02  0.31771059725E+01 -0.11597502283E+02  0.36553756966E+02  0.10000000000E+00 0.  1.
         21    1    1    2  504  502 -0.56606151954E+02  0.49649333822E+02  0.12778141752E+03  0.14831521652E+03  0.00000000000E+00 0.  1.
<mgrwt>
<rscale>  1 0.14592204E+03</rscale>
<asrwt>0</asrwt>
<pdfrwt beam="1">  1       21 0.34542384E-01 0.14592204E+03</pdfrwt>
<pdfrwt beam="2">  1       21 0.11049892E-01 0.14592204E+03</pdfrwt>
<totfact> 0.55247625E+05</totfact>
</mgrwt>
</event>
<event>
 6    1  0.4216855E-002  0.1282304E+03  0.7546771E-02  0.1230105E+00
         21   -1    0    0  503  502  0.00000000000E+00  0.00000000000E+00  0.22535596677E+02  0.22535596677E+02  0.00000000000E+00 0.  1.
         21   -1    0    0  504  503 -0.00000000000E+00 -0.00000000000E+00 -0.56597306383E+03  0.56597306383E+03  0.00000000000E+00 0.  1.
         25    2    1    2    0    0  0.82673004929E+01 -0.27389088966E+02 -0.54497492400E+03  0.55985775781E+03  0.12499812295E+03 0.  0.
          5    1    3    3  501    0 -0.79223110571E+01  0.19106185630E+02 -0.10641059929E+02  0.23260513713E+02  0.10000000000E+00 0.  1.
         -5    1    3    3    0  501  0.16189611550E+02 -0.46495274595E+02 -0.53433386407E+03  0.53659724410E+03  0.10000000000E+00 0.  1.
         21    1    1    2  504  502 -0.82673004929E+01  0.27389088966E+02  0.15374568444E+01  0.28650902697E+02  0.00000000000E+00 0.  1.
<mgrwt>
<rscale>  1 0.12823042E+03</rscale>
<asrwt>0</asrwt>
<pdfrwt beam="1">  1       21 0.34670145E-02 0.12823042E+03</pdfrwt>
<pdfrwt beam="2">  1       21 0.87072788E-01 0.12823042E+03</pdfrwt>
<totfact> 0.56974986E+05</totfact>
</mgrwt>
</event>
<event>
 6    1  0.4216855E-002  0.1274867E+03  0.7546771E-02  0.1231233E+00
         21   -1    0    0  503  502  0.00000000000E+00  0.00000000000E+00  0.11629053406E+03  0.11629053406E+03  0.00000000000E+00 0. -1.
         21   -1    0    0  504  503 -0.00000000000E+00 -0.00000000000E+00 -0.11165876712E+04  0.11165876712E+04  0.00000000000E+00 0.  1.
         25    2    1    2    0    0  0.16552077820E+02 -0.18809075715E+02 -0.11115509818E+04  0.11188379905E+04  0.12500044574E+03 0.  0.
          5    1    3    3  501    0  0.53731472170E+02 -0.25178474523E+02 -0.27006784765E+03  0.27650981721E+03  0.10000000000E+00 0.  1.
         -5    1    3    3    0  501 -0.37179394349E+02  0.63693988073E+01 -0.84148313411E+03  0.84232817333E+03  0.10000000000E+00 0.  1.
         21    1    1    2  504  502 -0.16552077820E+02  0.18809075715E+02  0.11125384466E+03  0.11404021467E+03  0.00000000000E+00 0. -1.
<mgrwt>
<rscale>  1 0.12748672E+03</rscale>
<asrwt>0</asrwt>
<pdfrwt beam="1">  1       21 0.17890851E-01 0.12748672E+03</pdfrwt>
<pdfrwt beam="2">  1       21 0.17178272E+00 0.12748672E+03</pdfrwt>
<totfact> 0.62729949E+03</totfact>
</mgrwt>
</event>
<event>
 6    1  0.4216855E-002  0.1275093E+03  0.7546771E-02  0.1231199E+00
         21   -1    0    0  503  502  0.00000000000E+00  0.00000000000E+00  0.90313634635E+02  0.90313634635E+02  0.00000000000E+00 0. -1.
         21   -1    0    0  504  503 -0.00000000000E+00 -0.00000000000E+00 -0.20631423125E+03  0.20631423125E+03  0.00000000000E+00 0.  1.
         25    2    1    2    0    0 -0.18970698780E+02  0.16546262460E+02 -0.18414530347E+03  0.22398237542E+03  0.12499978198E+03 0.  0.
          5    1    3    3  501    0 -0.40903642885E+02  0.32005001218E+02 -0.16928292425E+02  0.54626048628E+02  0.10000000000E+00 0.  1.
         -5    1    3    3    0  501  0.21932944106E+02 -0.15458738758E+02 -0.16721701105E+03  0.16935632679E+03  0.10000000000E+00 0.  1.
         21    1    1    2  504  502  0.18970698780E+02 -0.16546262460E+02  0.68144706852E+02  0.72645490470E+02  0.00000000000E+00 0. -1.
<mgrwt>
<rscale>  1 0.12750926E+03</rscale>
<asrwt>0</asrwt>
<pdfrwt beam="1">  1       21 0.13894405E-01 0.12750926E+03</pdfrwt>
<pdfrwt beam="2">  1       21 0.31740651E-01 0.12750926E+03</pdfrwt>
<totfact> 0.43438304E+05</totfact>
</mgrwt>
</event>
<event>
 6    1  0.4216855E-002  0.1333484E+03  0.7546771E-02  0.1222570E+00
         21   -1    0    0  503  502  0.00000000000E+00  0.00000000000E+00  0.36221588590E+03  0.36221588590E+03  0.00000000000E+00 0.  1.
         21   -1    0    0  504  503 -0.00000000000E+00 -0.00000000000E+00 -0.55808707617E+03  0.55808707617E+03  0.00000000000E+00 0.  1.
         25    2    1    2    0    0  0.20628663246E+02 -0.41605033492E+02 -0.54857780102E+03  0.56455238397E+03  0.12500107964E+03 0.  0.
          5    1    3    3  501    0 -0.26669029751E+02 -0.62140290919E+02 -0.42948930665E+03  0.43478009088E+03  0.10000000000E+00 0. -1.
         -5    1    3    3    0  501  0.47297692997E+02  0.20535257427E+02 -0.11908849438E+03  0.12977229309E+03  0.10000000000E+00 0. -1.
         21    1    1    2  504  502 -0.20628663246E+02  0.41605033492E+02  0.35270661075E+03  0.35575057811E+03  0.00000000000E+00 0.  1.
<mgrwt>
<rscale>  1 0.13334838E+03</rscale>
<asrwt>0</asrwt>
<pdfrwt beam="1">  1       21 0.55725521E-01 0.13334838E+03</pdfrwt>
<pdfrwt beam="2">  1       21 0.85859550E-01 0.13334838E+03</pdfrwt>
<totfact> 0.37537308E+03</totfact>
</mgrwt>
</event>
<event>
 6    1  0.4216855E-002  0.1314235E+03  0.7546771E-02  0.1225359E+00
         21   -1    0    0  503  502  0.00000000000E+00  0.00000000000E+00  0.59591438878E+02  0.59591438878E+02  0.00000000000E+00 0. -1.
         21   -1    0    0  504  503 -0.00000000000E+00 -0.00000000000E+00 -0.13326595986E+03  0.13326595986E+03  0.00000000000E+00 0. -1.
         25    2    1    2    0    0  0.39720571903E+02 -0.82852472604E+01 -0.33212582748E+02  0.13555523822E+03  0.12500311117E+03 0.  0.
          5    1    3    3  501    0  0.46909194790E+02 -0.60887022657E+02 -0.96303852925E+01  0.77462612948E+02  0.10000000000E+00 0. -1.
         -5    1    3    3    0  501 -0.71886228865E+01  0.52601775397E+02 -0.23582197456E+02  0.58092625270E+02  0.10000000000E+00 0. -1.
         21    1    1    2  504  502 -0.39720571903E+02  0.82852472604E+01 -0.40461938232E+02  0.57302160517E+02  0.00000000000E+00 0. -1.
<mgrwt>
<rscale>  1 0.13142354E+03</rscale>
<asrwt>0</asrwt>
<pdfrwt beam="1">  1       21 0.91679136E-02 0.13142354E+03</pdfrwt>
<pdfrwt beam="2">  1       21 0.20502455E-01 0.13142354E+03</pdfrwt>
<totfact> 0.20719619E+06</totfact>
</mgrwt>
</event>
<event>
 6    1  0.4216855E-002  0.1324188E+03  0.7546771E-02  0.1223910E+00
         21   -1    0    0  504  502  0.00000000000E+00  0.00000000000E+00  0.14839890236E+03  0.14839890236E+03  0.00000000000E+00 0.  1.
         21   -1    0    0  502  503 -0.00000000000E+00 -0.00000000000E+00 -0.16702379688E+03  0.16702379688E+03  0.00000000000E+00 0.  1.
         25    2    1    2    0    0 -0.30303420035E+02 -0.31490712338E+02 -0.13621633489E+03  0.18997267303E+03  0.12499905751E+03 0.  0.
          5    1    3    3  501    0  0.18801743543E+01 -0.32791963216E+02  0.14462907954E+02  0.35889185191E+02  0.10000000000E+00 0.  1.
         -5    1    3    3    0  501 -0.32183594389E+02  0.13012508786E+01 -0.15067924284E+03  0.15408348784E+03  0.10000000000E+00 0.  1.
         21    1    1    2  504  503  0.30303420035E+02  0.31490712338E+02  0.11759144036E+03  0.12545002621E+03  0.00000000000E+00 0.  1.
<mgrwt>
<rscale>  1 0.13241875E+03</rscale>
<asrwt>0</asrwt>
<pdfrwt beam="1">  1       21 0.22830601E-01 0.13241875E+03</pdfrwt>
<pdfrwt beam="2">  1       21 0.25695969E-01 0.13241875E+03</pdfrwt>
<totfact> 0.26229397E+05</totfact>
</mgrwt>
</event>
<event>
 6    1  0.4216855E-002  0.1260251E+03  0.7546771E-02  0.1233476E+00
         21   -1    0    0  504  502  0.00000000000E+00  0.00000000000E+00  0.24713692864E+03  0.24713692864E+03  0.00000000000E+00 0. -1.
         21   -1    0    0  502  503 -0.00000000000E+00 -0.00000000000E+00 -0.21202651583E+02  0.21202651583E+02  0.00000000000E+00 0. -1.
         25    2    1    2    0    0 -0.13339198846E+02  0.89767960088E+01  0.21386637282E+03  0.24823606299E+03  0.12499520172E+03 0.  0.
          5    1    3    3  501    0  0.56874721238E+01  0.33527040163E+02  0.21449054360E+03  0.21716954910E+03  0.10000000000E+00 0.  1.
         -5    1    3    3    0  501 -0.19026670970E+02 -0.24550244155E+02 -0.62417078061E+00  0.31066513892E+02  0.10000000000E+00 0.  1.
         21    1    1    2  504  503  0.13339198846E+02 -0.89767960088E+01  0.12067904236E+02  0.20103517232E+02  0.00000000000E+00 0.  1.
<mgrwt>
<rscale>  1 0.12602507E+03</rscale>
<asrwt>0</asrwt>
<pdfrwt beam="1">  1       21 0.38021064E-01 0.12602507E+03</pdfrwt>
<pdfrwt beam="2">  1       21 0.32619466E-02 0.12602507E+03</pdfrwt>
<totfact> 0.36319160E+06</totfact>
</mgrwt>
</event>
<event>
 6    1  0.4216855E-002  0.1263825E+03  0.7546771E-02  0.1232924E+00
         21   -1    0    0  503  502  0.00000000000E+00  0.00000000000E+00  0.56308366649E+02  0.56308366649E+02  0.00000000000E+00 0. -1.
         21   -1    0    0  504  503 -0.00000000000E+00 -0.00000000000E+00 -0.12020093870E+03  0.12020093870E+03  0.00000000000E+00 0.  1.
         25    2    1    2    0    0 -0.17221633225E+02 -0.67818321352E+01 -0.81969750392E+02  0.15063726881E+03  0.12501987393E+03 0.  0.
          5    1    3    3  501    0  0.20709228752E+02 -0.98039499700E+01  0.26884597084E+02  0.35323945857E+02  0.10000000000E+00 0. -1.
         -5    1    3    3    0  501 -0.37930861977E+02  0.30221178348E+01 -0.10885434748E+03  0.11531332296E+03  0.10000000000E+00 0. -1.
         21    1    1    2  504  502  0.17221633225E+02  0.67818321352E+01  0.18077178338E+02  0.25872036539E+02  0.00000000000E+00 0. -1.
<mgrwt>
<rscale>  1 0.12638254E+03</rscale>
<asrwt>0</asrwt>
<pdfrwt beam="1">  1       21 0.86628258E-02 0.12638254E+03</pdfrwt>
<pdfrwt beam="2">  1       21 0.18492452E-01 0.12638254E+03</pdfrwt>
<totfact> 0.27617660E+06</totfact>
</mgrwt>
</event>
<event>
 6    1  0.4216855E-002  0.1311060E+03  0.7546771E-02  0.1225824E+00
         21   -1    0    0  504  502  0.00000000000E+00  0.00000000000E+00  0.72512219593E+01  0.72512219593E+01  0.00000000000E+00 0.  1.
         21   -1    0    0  502  503 -0.00000000000E+00 -0.00000000000E+00 -0.11388270501E+04  0.11388270501E+04  0.00000000000E+00 0.  1.
         25    2    1    2    0    0 -0.12248381119E+02  0.37723745413E+02 -0.10027666766E+04  0.10113010436E+04  0.12496275103E+03 0.  0.
          5    1    3    3  501    0  0.65333090808E+01 -0.47295261583E+01 -0.88020954460E+03  0.88024650238E+03  0.10000000000E+00 0.  1.
         -5    1    3    3    0  501 -0.18781690199E+02  0.42453271571E+02 -0.12255713203E+03  0.13105454119E+03  0.10000000000E+00 0.  1.
         21    1    1    2  504  503  0.12248381119E+02 -0.37723745413E+02 -0.12880915151E+03  0.13477722849E+03  0.00000000000E+00 0.  1.
<mgrwt>
<rscale>  1 0.13110604E+03</rscale>
<asrwt>0</asrwt>
<pdfrwt beam="1">  1       21 0.11155730E-02 0.13110604E+03</pdfrwt>
<pdfrwt beam="2">  1       21 0.17520411E+00 0.13110604E+03</pdfrwt>
<totfact> 0.63019150E+05</totfact>
</mgrwt>
</event>
<event>
 6    1  0.4216855E-002  0.1259576E+03  0.7546771E-02  0.1233580E+00
         21   -1    0    0  503  502  0.00000000000E+00  0.00000000000E+00  0.11393846388E+02  0.11393846388E+02  0.00000000000E+00 0. -1.
         21   -1    0    0  504  503 -0.00000000000E+00 -0.00000000000E+00 -0.45214756752E+03  0.45214756752E+03  0.00000000000E+00 0. -1.
         25    2    1    2    0    0 -0.14939788680E+02  0.42166724708E+01 -0.41252279327E+03  0.43132398229E+03  0.12499738042E+03 0.  0.
          5    1    3    3  501    0  0.20177423219E+02 -0.53736961988E+02 -0.16530267225E+03  0.17498506492E+03  0.10000000000E+00 0.  1.
         -5    1    3    3    0  501 -0.35117211899E+02  0.57953634459E+02 -0.24722012103E+03  0.25633891737E+03  0.10000000000E+00 0.  1.
         21    1    1    2  504  502  0.14939788680E+02 -0.42166724708E+01 -0.28230927855E+02  0.32217431619E+02  0.00000000000E+00 0. -1.
<mgrwt>
<rscale>  1 0.12595762E+03</rscale>
<asrwt>0</asrwt>
<pdfrwt beam="1">  1       21 0.17528994E-02 0.12595762E+03</pdfrwt>
<pdfrwt beam="2">  1       21 0.69561165E-01 0.12595762E+03</pdfrwt>
<totfact> 0.28452637E+06</totfact>
</mgrwt>
</event>
<event>
 6    1  0.4216855E-002  0.1592037E+03  0.7546771E-02  0.1189599E+00
         21   -1    0    0  503  502  0.00000000000E+00  0.00000000000E+00  0.10693754831E+04  0.10693754831E+04  0.00000000000E+00 0.  1.
         21   -1    0    0  504  503 -0.00000000000E+00 -0.00000000000E+00 -0.54728887465E+02  0.54728887465E+02  0.00000000000E+00 0.  1.
         25    2    1    2    0    0  0.10818858903E+02  0.97994691781E+02  0.69303383804E+02  0.17363406830E+03  0.12500329333E+03 0.  0.
          5    1    3    3  501    0  0.34338066849E+02  0.68689952964E+02  0.99316333826E+02  0.12554344522E+03  0.10000000000E+00 0. -1.
         -5    1    3    3    0  501 -0.23519207947E+02  0.29304738817E+02 -0.30012950022E+02  0.48090623084E+02  0.10000000000E+00 0. -1.
         21    1    1    2  504  502 -0.10818858903E+02 -0.97994691781E+02  0.94534321187E+03  0.95047030230E+03  0.00000000000E+00 0.  1.
<mgrwt>
<rscale>  1 0.15920374E+03</rscale>
<asrwt>0</asrwt>
<pdfrwt beam="1">  1       21 0.16451929E+00 0.15920374E+03</pdfrwt>
<pdfrwt beam="2">  1       21 0.84198296E-02 0.15920374E+03</pdfrwt>
<totfact> 0.26225610E+04</totfact>
</mgrwt>
</event>
<event>
 6    1  0.4216855E-002  0.1517052E+03  0.7546771E-02  0.1198393E+00
         21   -1    0    0  503  502  0.00000000000E+00  0.00000000000E+00  0.13445026064E+03  0.13445026064E+03  0.00000000000E+00 0.  1.
         21   -1    0    0  504  503 -0.00000000000E+00 -0.00000000000E+00 -0.15172984813E+03  0.15172984813E+03  0.00000000000E+00 0.  1.
         25    2    1    2    0    0  0.76295712226E+01 -0.85624584741E+02 -0.87545005151E+02  0.17515304545E+03  0.12499872613E+03 0.  0.
          5    1    3    3  501    0  0.67015814354E+01 -0.10554598850E+03 -0.23857662106E+02  0.10841616542E+03  0.10000000000E+00 0. -1.
         -5    1    3    3    0  501  0.92798978721E+00  0.19921403759E+02 -0.63687343045E+02  0.66736880036E+02  0.10000000000E+00 0. -1.
         21    1    1    2  504  502 -0.76295712226E+01  0.85624584741E+02  0.70265417665E+02  0.11102706332E+03  0.00000000000E+00 0.  1.
<mgrwt>
<rscale>  1 0.15170518E+03</rscale>
<asrwt>0</asrwt>
<pdfrwt beam="1">  1       21 0.20684656E-01 0.15170518E+03</pdfrwt>
<pdfrwt beam="2">  1       21 0.23343053E-01 0.15170518E+03</pdfrwt>
<totfact> 0.37696021E+05</totfact>
</mgrwt>
</event>
<event>
 6    1  0.4216855E-002  0.1308300E+03  0.7546771E-02  0.1226229E+00
         21   -1    0    0  503  502  0.00000000000E+00  0.00000000000E+00  0.46138807373E+02  0.46138807373E+02  0.00000000000E+00 0. -1.
         21   -1    0    0  504  503 -0.00000000000E+00 -0.00000000000E+00 -0.15937977398E+03  0.15937977398E+03  0.00000000000E+00 0. -1.
         25    2    1    2    0    0  0.30768154788E+02  0.23329360831E+02 -0.10009804958E+03  0.16473041280E+03  0.12500220376E+03 0.  0.
          5    1    3    3  501    0  0.39861449008E+02  0.65380698840E+02 -0.94055325835E+02  0.12128472788E+03  0.10000000000E+00 0. -1.
         -5    1    3    3    0  501 -0.90932942203E+01 -0.42051338010E+02 -0.60427237452E+01  0.43445684923E+02  0.10000000000E+00 0. -1.
         21    1    1    2  504  502 -0.30768154788E+02 -0.23329360831E+02 -0.13142917022E+02  0.40788168550E+02  0.00000000000E+00 0. -1.
<mgrwt>
<rscale>  1 0.13083000E+03</rscale>
<asrwt>0</asrwt>
<pdfrwt beam="1">  1       21 0.70982780E-02 0.13083000E+03</pdfrwt>
<pdfrwt beam="2">  1       21 0.24519966E-01 0.13083000E+03</pdfrwt>
<totfact> 0.23054606E+06</totfact>
</mgrwt>
</event>
<event>
 6    1  0.4216855E-002  0.1289623E+03  0.7546771E-02  0.1229004E+00
         21   -1    0    0  503  502  0.00000000000E+00  0.00000000000E+00  0.21275897389E+03  0.21275897389E+03  0.00000000000E+00 0. -1.
         21   -1    0    0  504  503 -0.00000000000E+00 -0.00000000000E+00 -0.59433074556E+02  0.59433074556E+02  0.00000000000E+00 0. -1.
         25    2    1    2    0    0 -0.26388193099E+02 -0.17508590294E+02  0.14471075033E+02  0.12977172089E+03  0.12501359950E+03 0.  0.
          5    1    3    3  501    0  0.50180186752E+02 -0.13568373854E+02  0.10268778636E+02  0.52986882586E+02  0.10000000000E+00 0.  1.
         -5    1    3    3    0  501 -0.76568379850E+02 -0.39402164399E+01  0.42022963962E+01  0.76784838305E+02  0.10000000000E+00 0.  1.
         21    1    1    2  504  502  0.26388193099E+02  0.17508590294E+02  0.13885482430E+03  0.14242032755E+03  0.00000000000E+00 0. -1.
<mgrwt>
<rscale>  1 0.12896235E+03</rscale>
<asrwt>0</asrwt>
<pdfrwt beam="1">  1       21 0.32732150E-01 0.12896235E+03</pdfrwt>
<pdfrwt beam="2">  1       21 0.91435500E-02 0.12896235E+03</pdfrwt>
<totfact> 0.85594138E+05</totfact>
</mgrwt>
</event>
<event>
 6    1  0.4216855E-002  0.1260401E+03  0.7546771E-02  0.1233453E+00
         21   -1    0    0  504  502  0.00000000000E+00  0.00000000000E+00  0.64396763173E+02  0.64396763173E+02  0.00000000000E+00 0.  1.
         21   -1    0    0  502  503 -0.00000000000E+00 -0.00000000000E+00 -0.84911155669E+02  0.84911155669E+02  0.00000000000E+00 0.  1.
         25    2    1    2    0    0 -0.98811266413E+00 -0.16126711973E+02 -0.31316763665E+02  0.12987242480E+03  0.12500023933E+03 0.  0.
          5    1    3    3  501    0 -0.28511526366E+02 -0.41419709599E+02  0.29637982374E+02  0.58368822827E+02  0.10000000000E+00 0. -1.
         -5    1    3    3    0  501  0.27523413702E+02  0.25292997626E+02 -0.60954746039E+02  0.71503601975E+02  0.10000000000E+00 0. -1.
         21    1    1    2  504  503  0.98811266413E+00  0.16126711973E+02  0.10802371170E+02  0.19435494040E+02  0.00000000000E+00 0.  1.
<mgrwt>
<rscale>  1 0.12604010E+03</rscale>
<asrwt>0</asrwt>
<pdfrwt beam="1">  1       21 0.99071943E-02 0.12604010E+03</pdfrwt>
<pdfrwt beam="2">  1       21 0.13063255E-01 0.12604010E+03</pdfrwt>
<totfact> 0.40976094E+06</totfact>
</mgrwt>
</event>
<event>
 6    1  0.4216855E-002  0.1259698E+03  0.7546771E-02  0.1233561E+00
         21   -1    0    0  504  502  0.00000000000E+00  0.00000000000E+00  0.41963455094E+02  0.41963455094E+02  0.00000000000E+00 0. -1.
         21   -1    0    0  502  503 -0.00000000000E+00 -0.00000000000E+00 -0.15846620702E+03  0.15846620702E+03  0.00000000000E+00 0.  1.
         25    2    1    2    0    0 -0.12392036170E+02  0.94566763771E+01 -0.12910930446E+03  0.18038180798E+03  0.12500157144E+03 0.  0.
          5    1    3    3  501    0 -0.50414229628E+02  0.23434312800E+02 -0.12563992400E+02  0.56996714558E+02  0.10000000000E+00 0. -1.
         -5    1    3    3    0  501  0.38022193458E+02 -0.13977636423E+02 -0.11654531206E+03  0.12338509342E+03  0.10000000000E+00 0. -1.
         21    1    1    2  504  503  0.12392036170E+02 -0.94566763771E+01  0.12606552536E+02  0.20047854134E+02  0.00000000000E+00 0. -1.
<mgrwt>
<rscale>  1 0.12596977E+03</rscale>
<asrwt>0</asrwt>
<pdfrwt beam="1">  1       21 0.64559160E-02 0.12596977E+03</pdfrwt>
<pdfrwt beam="2">  1       21 0.24379417E-01 0.12596977E+03</pdfrwt>
<totfact> 0.27367782E+06</totfact>
</mgrwt>
</event>
<event>
 6    1  0.4216855E-002  0.1258969E+03  0.7546771E-02  0.1233674E+00
         21   -1    0    0  504  502  0.00000000000E+00  0.00000000000E+00  0.30552350572E+03  0.30552350572E+03  0.00000000000E+00 0.  1.
         21   -1    0    0  502  503 -0.00000000000E+00 -0.00000000000E+00 -0.30283036172E+03  0.30283036172E+03  0.00000000000E+00 0. -1.
         25    2    1    2    0    0  0.76703067184E+01 -0.13041186031E+02 -0.28954129754E+03  0.31572803987E+03  0.12498450322E+03 0.  0.
          5    1    3    3  501    0 -0.43753616637E+02 -0.20134701964E+02 -0.45605454988E+02  0.66329878009E+02  0.10000000000E+00 0. -1.
         -5    1    3    3    0  501  0.51423923356E+02  0.70935159331E+01 -0.24393584255E+03  0.24939816186E+03  0.10000000000E+00 0. -1.
         21    1    1    2  504  503 -0.76703067184E+01  0.13041186031E+02  0.29223444154E+03  0.29262582757E+03  0.00000000000E+00 0.  1.
<mgrwt>
<rscale>  1 0.12589691E+03</rscale>
<asrwt>0</asrwt>
<pdfrwt beam="1">  1       21 0.47003616E-01 0.12589691E+03</pdfrwt>
<pdfrwt beam="2">  1       21 0.46589287E-01 0.12589691E+03</pdfrwt>
<totfact> 0.19968583E+04</totfact>
</mgrwt>
</event>
<event>
 6    1  0.4216855E-002  0.1265803E+03  0.7546771E-02  0.1232620E+00
         21   -1    0    0  504  502  0.00000000000E+00  0.00000000000E+00  0.10925149973E+03  0.10925149973E+03  0.00000000000E+00 0.  1.
         21   -1    0    0  502  503 -0.00000000000E+00 -0.00000000000E+00 -0.64014064293E+02  0.64014064293E+02  0.00000000000E+00 0.  1.
         25    2    1    2    0    0 -0.19299211855E+02 -0.50084840574E+01  0.30651189731E+01  0.12661742615E+03  0.12500013264E+03 0.  0.
          5    1    3    3  501    0  0.48478750854E+02 -0.20719413164E+02 -0.14850811454E+02  0.54772620597E+02  0.10000000000E+00 0. -1.
         -5    1    3    3    0  501 -0.67777962710E+02  0.15710929106E+02  0.17915930427E+02  0.71844805557E+02  0.10000000000E+00 0. -1.
         21    1    1    2  504  503  0.19299211855E+02  0.50084840574E+01  0.42172316466E+02  0.46648137872E+02  0.00000000000E+00 0. -1.
<mgrwt>
<rscale>  1 0.12658032E+03</rscale>
<asrwt>0</asrwt>
<pdfrwt beam="1">  1       21 0.16807923E-01 0.12658032E+03</pdfrwt>
<pdfrwt beam="2">  1       21 0.98483176E-02 0.12658032E+03</pdfrwt>
<totfact> 0.26307398E+06</totfact>
</mgrwt>
</event>
<event>
 6    1  0.4216855E-002  0.1330103E+03  0.7546771E-02  0.1223056E+00
         21   -1    0    0  503  502  0.00000000000E+00  0.00000000000E+00  0.96948330969E+02  0.96948330969E+02  0.00000000000E+00 0. -1.
         21   -1    0    0  504  503 -0.00000000000E+00 -0.00000000000E+00 -0.12680390064E+03  0.12680390064E+03  0.00000000000E+00 0. -1.
         25    2    1    2    0    0 -0.31511651123E+02  0.32808453269E+02 -0.80661202486E+02  0.15555698920E+03  0.12498947372E+03 0.  0.
          5    1    3    3  501    0 -0.70524558828E+01  0.68389900840E+02 -0.88090820477E+02  0.11174488052E+03  0.10000000000E+00 0.  1.
         -5    1    3    3    0  501 -0.24459195240E+02 -0.35581447571E+02  0.74296179908E+01  0.43812108675E+02  0.10000000000E+00 0.  1.
         21    1    1    2  504  502  0.31511651123E+02 -0.32808453269E+02  0.50805632812E+02  0.68195242413E+02  0.00000000000E+00 0. -1.
<mgrwt>
<rscale>  1 0.13301033E+03</rscale>
<asrwt>0</asrwt>
<pdfrwt beam="1">  1       21 0.14915128E-01 0.13301033E+03</pdfrwt>
<pdfrwt beam="2">  1       21 0.19508292E-01 0.13301033E+03</pdfrwt>
<totfact> 0.95995059E+05</totfact>
</mgrwt>
</event>
<event>
 6    1  0.4216855E-002  0.1281748E+03  0.7546771E-02  0.1230189E+00
         21   -1    0    0  504  502  0.00000000000E+00  0.00000000000E+00  0.37724380701E+03  0.37724380701E+03  0.00000000000E+00 0. -1.
         21   -1    0    0  502  503 -0.00000000000E+00 -0.00000000000E+00 -0.11914692334E+03  0.11914692334E+03  0.00000000000E+00 0.  1.
         25    2    1    2    0    0 -0.27708152740E+02 -0.60045058791E+01 -0.83918169911E+02  0.15320260017E+03  0.12499992655E+03 0.  0.
          5    1    3    3  501    0  0.17161155940E+02  0.37304885900E+02  0.82849944979E+01  0.41890463342E+02  0.10000000000E+00 0.  1.
         -5    1    3    3    0  501 -0.44869308680E+02 -0.43309391779E+02 -0.92203164409E+02  0.11131213683E+03  0.10000000000E+00 0.  1.
         21    1    1    2  504  503  0.27708152740E+02  0.60045058791E+01  0.34201505358E+03  0.34318813018E+03  0.00000000000E+00 0. -1.
<mgrwt>
<rscale>  1 0.12817479E+03</rscale>
<asrwt>0</asrwt>
<pdfrwt beam="1">  1       21 0.58037508E-01 0.12817479E+03</pdfrwt>
<pdfrwt beam="2">  1       21 0.18330296E-01 0.12817479E+03</pdfrwt>
<totfact> 0.77673335E+04</totfact>
</mgrwt>
</event>
<event>
 6    1  0.4216855E-002  0.1925782E+03  0.7546771E-02  0.1156156E+00
         21   -1    0    0  504  502  0.00000000000E+00  0.00000000000E+00  0.30098121325E+03  0.30098121325E+03  0.00000000000E+00 0. -1.
         21   -1    0    0  502  503 -0.00000000000E+00 -0.00000000000E+00 -0.96966187671E+02  0.96966187671E+02  0.00000000000E+00 0. -1.
         25    2    1    2    0    0  0.14376716889E+02  0.14579009579E+03  0.91398812207E+02  0.21316684585E+03  0.12499967711E+03 0.  0.
          5    1    3    3  501    0  0.37687293188E+02  0.13059430456E+03  0.11393477951E+03  0.17735937650E+03  0.10000000000E+00 0. -1.
         -5    1    3    3    0  501 -0.23310576300E+02  0.15195791231E+02 -0.22535967304E+02  0.35807469345E+02  0.10000000000E+00 0. -1.
         21    1    1    2  504  503 -0.14376716889E+02 -0.14579009579E+03  0.11261621337E+03  0.18478055508E+03  0.00000000000E+00 0. -1.
<mgrwt>
<rscale>  1 0.19257820E+03</rscale>
<asrwt>0</asrwt>
<pdfrwt beam="1">  1       21 0.46304802E-01 0.19257820E+03</pdfrwt>
<pdfrwt beam="2">  1       21 0.14917875E-01 0.19257820E+03</pdfrwt>
<totfact> 0.17704628E+05</totfact>
</mgrwt>
</event>
<event>
 6    1  0.4216855E-002  0.1262165E+03  0.7546771E-02  0.1233180E+00
         21   -1    0    0  504  502  0.00000000000E+00  0.00000000000E+00  0.40692356527E+03  0.40692356527E+03  0.00000000000E+00 0. -1.
         21   -1    0    0  502  503 -0.00000000000E+00 -0.00000000000E+00 -0.13440728965E+02  0.13440728965E+02  0.00000000000E+00 0. -1.
         25    2    1    2    0    0 -0.14075456410E+02 -0.10377470570E+02  0.30351364185E+03  0.32871132746E+03  0.12499918256E+03 0.  0.
          5    1    3    3  501    0 -0.13494607708E+02 -0.57913929556E+02  0.25068507608E+03  0.25764150489E+03  0.10000000000E+00 0. -1.
         -5    1    3    3    0  501 -0.58084870171E+00  0.47536458986E+02  0.52828565773E+02  0.71069822567E+02  0.10000000000E+00 0. -1.
         21    1    1    2  504  503  0.14075456410E+02  0.10377470570E+02  0.89969194454E+02  0.91652966778E+02  0.00000000000E+00 0. -1.
<mgrwt>
<rscale>  1 0.12621650E+03</rscale>
<asrwt>0</asrwt>
<pdfrwt beam="1">  1       21 0.62603616E-01 0.12621650E+03</pdfrwt>
<pdfrwt beam="2">  1       21 0.20678048E-02 0.12621650E+03</pdfrwt>
<totfact> 0.27375277E+06</totfact>
</mgrwt>
</event>
<event>
 6    1  0.4216855E-002  0.1696458E+03  0.7546771E-02  0.1178218E+00
         21   -1    0    0  503  502  0.00000000000E+00  0.00000000000E+00  0.77655669304E+02  0.77655669304E+02  0.00000000000E+00 0. -1.
         21   -1    0    0  504  503 -0.00000000000E+00 -0.00000000000E+00 -0.90451354816E+03  0.90451354816E+03  0.00000000000E+00 0. -1.
         25    2    1    2    0    0 -0.72141598597E+02  0.89153705839E+02 -0.84864267955E+03  0.86543288612E+03  0.12500755704E+03 0.  0.
          5    1    3    3  501    0 -0.91056607995E+02  0.80384629963E+02 -0.44578321725E+03  0.46203428593E+03  0.10000000000E+00 0.  1.
         -5    1    3    3    0  501  0.18915009398E+02  0.87690758765E+01 -0.40285946230E+03  0.40339860019E+03  0.10000000000E+00 0.  1.
         21    1    1    2  504  502  0.72141598597E+02 -0.89153705839E+02  0.21784800697E+02  0.11673633134E+03  0.00000000000E+00 0. -1.
<mgrwt>
<rscale>  1 0.16964576E+03</rscale>
<asrwt>0</asrwt>
<pdfrwt beam="1">  1       21 0.11947026E-01 0.16964576E+03</pdfrwt>
<pdfrwt beam="2">  1       21 0.13915594E+00 0.16964576E+03</pdfrwt>
<totfact> 0.21830136E+04</totfact>
</mgrwt>
</event>
<event>
 6    1  0.4216855E-002  0.1269457E+03  0.7546771E-02  0.1232059E+00
         21   -1    0    0  504  502  0.00000000000E+00  0.00000000000E+00  0.72562945779E+03  0.72562945779E+03  0.00000000000E+00 0. -1.
         21   -1    0    0  502  503 -0.00000000000E+00 -0.00000000000E+00 -0.96958528165E+01  0.96958528165E+01  0.00000000000E+00 0. -1.
         25    2    1    2    0    0 -0.11154217726E+02 -0.19169022469E+02  0.42516587221E+03  0.44371299534E+03  0.12499334123E+03 0.  0.
          5    1    3    3  501    0 -0.26167252277E+02 -0.14528718556E+02  0.15425536379E+02  0.33671440824E+02  0.10000000000E+00 0.  1.
         -5    1    3    3    0  501  0.15013034551E+02 -0.46403039126E+01  0.40974033583E+03  0.41004155452E+03  0.10000000000E+00 0.  1.
         21    1    1    2  504  503  0.11154217726E+02  0.19169022469E+02  0.29076773276E+03  0.29161231526E+03  0.00000000000E+00 0. -1.
<mgrwt>
<rscale>  1 0.12694567E+03</rscale>
<asrwt>0</asrwt>
<pdfrwt beam="1">  1       21 0.11163526E+00 0.12694567E+03</pdfrwt>
<pdfrwt beam="2">  1       21 0.14916702E-02 0.12694567E+03</pdfrwt>
<totfact> 0.12529429E+06</totfact>
</mgrwt>
</event>
<event>
 6    1  0.4216855E-002  0.1276666E+03  0.7546771E-02  0.1230960E+00
         21   -1    0    0  504  502  0.00000000000E+00  0.00000000000E+00  0.71597573543E+02  0.71597573543E+02  0.00000000000E+00 0.  1.
         21   -1    0    0  502  503 -0.00000000000E+00 -0.00000000000E+00 -0.85906957870E+02  0.85906957870E+02  0.00000000000E+00 0.  1.
         25    2    1    2    0    0  0.20510076095E+02 -0.15909750372E+02 -0.23801029335E+02  0.12986624812E+03  0.12499988010E+03 0.  0.
          5    1    3    3  501    0 -0.36709046911E+02  0.13446244606E+01 -0.52094326882E+02  0.63743164601E+02  0.10000000000E+00 0.  1.
         -5    1    3    3    0  501  0.57219123006E+02 -0.17254374832E+02  0.28293297547E+02  0.66123083522E+02  0.10000000000E+00 0.  1.
         21    1    1    2  504  503 -0.20510076095E+02  0.15909750372E+02  0.94916450084E+01  0.27638283291E+02  0.00000000000E+00 0.  1.
<mgrwt>
<rscale>  1 0.12766657E+03</rscale>
<asrwt>0</asrwt>
<pdfrwt beam="1">  1       21 0.11015011E-01 0.12766657E+03</pdfrwt>
<pdfrwt beam="2">  1       21 0.13216455E-01 0.12766657E+03</pdfrwt>
<totfact> 0.33343929E+06</totfact>
</mgrwt>
</event>
<event>
 6    1  0.4216855E-002  0.1367585E+03  0.7546771E-02  0.1217758E+00
         21   -1    0    0  504  502  0.00000000000E+00  0.00000000000E+00  0.10496267135E+03  0.10496267135E+03  0.00000000000E+00 0.  1.
         21   -1    0    0  502  503 -0.00000000000E+00 -0.00000000000E+00 -0.97514934747E+02  0.97514934747E+02  0.00000000000E+00 0.  1.
         25    2    1    2    0    0 -0.62657968642E+01  0.55121530100E+02 -0.23788052853E+02  0.13881193376E+03  0.12500095282E+03 0.  0.
          5    1    3    3  501    0  0.53703864036E+02  0.17942303598E+02 -0.36149595865E+02  0.67177634313E+02  0.10000000000E+00 0.  1.
         -5    1    3    3    0  501 -0.59969660900E+02  0.37179226502E+02  0.12361543012E+02  0.71634299448E+02  0.10000000000E+00 0.  1.
         21    1    1    2  504  503  0.62657968642E+01 -0.55121530100E+02  0.31235789453E+02  0.63665672334E+02  0.00000000000E+00 0.  1.
<mgrwt>
<rscale>  1 0.13675848E+03</rscale>
<asrwt>0</asrwt>
<pdfrwt beam="1">  1       21 0.16148103E-01 0.13675848E+03</pdfrwt>
<pdfrwt beam="2">  1       21 0.15002298E-01 0.13675848E+03</pdfrwt>
<totfact> 0.13430171E+06</totfact>
</mgrwt>
</event>
<event>
 6    1  0.4216855E-002  0.1287357E+03  0.7546771E-02  0.1229344E+00
         21   -1    0    0  504  502  0.00000000000E+00  0.00000000000E+00  0.32788719543E+03  0.32788719543E+03  0.00000000000E+00 0. -1.
         21   -1    0    0  502  503 -0.00000000000E+00 -0.00000000000E+00 -0.48169715267E+02  0.48169715267E+02  0.00000000000E+00 0. -1.
         25    2    1    2    0    0 -0.28289658575E+02  0.12140590251E+02  0.40629204024E+02  0.13499488030E+03  0.12500074709E+03 0.  0.
          5    1    3    3  501    0 -0.62278151458E+02 -0.20362188780E+02 -0.95590587243E+01  0.66216104421E+02  0.10000000000E+00 0. -1.
         -5    1    3    3    0  501  0.33988492884E+02  0.32502779030E+02  0.50188262749E+02  0.68778775875E+02  0.10000000000E+00 0. -1.
         21    1    1    2  504  503  0.28289658575E+02 -0.12140590251E+02  0.23908827614E+03  0.24106203040E+03  0.00000000000E+00 0. -1.
<mgrwt>
<rscale>  1 0.12873572E+03</rscale>
<asrwt>0</asrwt>
<pdfrwt beam="1">  1       21 0.50444183E-01 0.12873572E+03</pdfrwt>
<pdfrwt beam="2">  1       21 0.74107256E-02 0.12873572E+03</pdfrwt>
<totfact> 0.51707441E+05</totfact>
</mgrwt>
</event>
<event>
 6    1  0.4216855E-002  0.1287079E+03  0.7546771E-02  0.1229386E+00
         21   -1    0    0  503  502  0.00000000000E+00  0.00000000000E+00  0.90663328978E+02  0.90663328978E+02  0.00000000000E+00 0. -1.
         21   -1    0    0  504  503 -0.00000000000E+00 -0.00000000000E+00 -0.72631347172E+02  0.72631347172E+02  0.00000000000E+00 0. -1.
         25    2    1    2    0    0 -0.12550894268E+02 -0.27986943665E+02  0.20856361529E+01  0.12872474843E+03  0.12499966807E+03 0.  0.
          5    1    3    3  501    0  0.47412132869E+02 -0.63715418578E+01 -0.30905083644E+02  0.56952972564E+02  0.10000000000E+00 0. -1.
         -5    1    3    3    0  501 -0.59963027137E+02 -0.21615401807E+02  0.32990719797E+02  0.71771775869E+02  0.10000000000E+00 0. -1.
         21    1    1    2  504  502  0.12550894268E+02  0.27986943665E+02  0.15946345654E+02  0.34569927717E+02  0.00000000000E+00 0. -1.
<mgrwt>
<rscale>  1 0.12870785E+03</rscale>
<asrwt>0</asrwt>
<pdfrwt beam="1">  1       21 0.13948204E-01 0.12870785E+03</pdfrwt>
<pdfrwt beam="2">  1       21 0.11174053E-01 0.12870785E+03</pdfrwt>
<totfact> 0.29535079E+06</totfact>
</mgrwt>
</event>
<event>
 6    1  0.4216855E-002  0.1274550E+03  0.7546771E-02  0.1231282E+00
         21   -1    0    0  504  502  0.00000000000E+00  0.00000000000E+00  0.36725432453E+03  0.36725432453E+03  0.00000000000E+00 0.  1.
         21   -1    0    0  502  503 -0.00000000000E+00 -0.00000000000E+00 -0.10033765030E+03  0.10033765030E+03  0.00000000000E+00 0. -1.
         25    2    1    2    0    0 -0.21024103946E+02  0.12404649045E+02 -0.59221366231E+02  0.14054165805E+03  0.12509556014E+03 0.  0.
          5    1    3    3  501    0  0.38773102062E+01 -0.39281965937E+02  0.18780113328E+02  0.43712801774E+02  0.10000000000E+00 0.  1.
         -5    1    3    3    0  501 -0.24901414152E+02  0.51686614982E+02 -0.78001479559E+02  0.96828856280E+02  0.10000000000E+00 0.  1.
         21    1    1    2  504  503  0.21024103946E+02 -0.12404649045E+02  0.32613804046E+03  0.32705031677E+03  0.00000000000E+00 0.  1.
<mgrwt>
<rscale>  1 0.12745504E+03</rscale>
<asrwt>0</asrwt>
<pdfrwt beam="1">  1       21 0.56500664E-01 0.12745504E+03</pdfrwt>
<pdfrwt beam="2">  1       21 0.15436562E-01 0.12745504E+03</pdfrwt>
<totfact> 0.11238867E+05</totfact>
</mgrwt>
</event>
<event>
 6    1  0.4216855E-002  0.1260708E+03  0.7546771E-02  0.1233405E+00
         21   -1    0    0  503  502  0.00000000000E+00  0.00000000000E+00  0.25000370701E+02  0.25000370701E+02  0.00000000000E+00 0.  1.
         21   -1    0    0  504  503 -0.00000000000E+00 -0.00000000000E+00 -0.20844487337E+03  0.20844487337E+03  0.00000000000E+00 0.  1.
         25    2    1    2    0    0  0.12315188918E+02  0.10886491178E+02 -0.14828846272E+03  0.19463639568E+03  0.12499471501E+03 0.  0.
          5    1    3    3  501    0  0.61673793733E+02 -0.23040882512E+02 -0.84754724603E+02  0.10732153765E+03  0.10000000000E+00 0. -1.
         -5    1    3    3    0  501 -0.49358604815E+02  0.33927373690E+02 -0.63533738118E+02  0.87314858037E+02  0.10000000000E+00 0. -1.
         21    1    1    2  504  502 -0.12315188918E+02 -0.10886491178E+02 -0.35156039946E+02  0.38808848385E+02  0.00000000000E+00 0.  1.
<mgrwt>
<rscale>  1 0.12607085E+03</rscale>
<asrwt>0</asrwt>
<pdfrwt beam="1">  1       21 0.38462109E-02 0.12607085E+03</pdfrwt>
<pdfrwt beam="2">  1       21 0.32068442E-01 0.12607085E+03</pdfrwt>
<totfact> 0.38648753E+06</totfact>
</mgrwt>
</event>
<event>
 6    1  0.4216855E-002  0.1331201E+03  0.7546771E-02  0.1222898E+00
         21   -1    0    0  504  502  0.00000000000E+00  0.00000000000E+00  0.30315727106E+03  0.30315727106E+03  0.00000000000E+00 0. -1.
         21   -1    0    0  502  503 -0.00000000000E+00 -0.00000000000E+00 -0.61182145677E+02  0.61182145677E+02  0.00000000000E+00 0. -1.
         25    2    1    2    0    0  0.23560759227E+02 -0.39267495598E+02  0.16357430384E+02  0.13412128130E+03  0.12499562786E+03 0.  0.
          5    1    3    3  501    0  0.27774260106E+02 -0.62712917013E+02  0.55546988254E+02  0.88259828851E+02  0.10000000000E+00 0.  1.
         -5    1    3    3    0  501 -0.42135008783E+01  0.23445421415E+02 -0.39189557870E+02  0.45861452453E+02  0.10000000000E+00 0.  1.
         21    1    1    2  504  503 -0.23560759227E+02  0.39267495598E+02  0.22561769500E+03  0.23021813544E+03  0.00000000000E+00 0. -1.
<mgrwt>
<rscale>  1 0.13312007E+03</rscale>
<asrwt>0</asrwt>
<pdfrwt beam="1">  1       21 0.46639579E-01 0.13312007E+03</pdfrwt>
<pdfrwt beam="2">  1       21 0.94126380E-02 0.13312007E+03</pdfrwt>
<totfact> 0.40154023E+05</totfact>
</mgrwt>
</event>
<event>
 6    1  0.4216855E-002  0.1525559E+03  0.7546771E-02  0.1197367E+00
         21   -1    0    0  504  502  0.00000000000E+00  0.00000000000E+00  0.16629138127E+03  0.16629138127E+03  0.00000000000E+00 0.  1.
         21   -1    0    0  502  503 -0.00000000000E+00 -0.00000000000E+00 -0.98615793981E+02  0.98615793981E+02  0.00000000000E+00 0.  1.
         25    2    1    2    0    0 -0.46813003655E+02  0.73863740565E+02 -0.28201630892E+01  0.15258193186E+03  0.12500393246E+03 0.  0.
          5    1    3    3  501    0  0.35444622797E+02  0.76063379236E+00  0.19252192991E+02  0.40342989279E+02  0.10000000000E+00 0. -1.
         -5    1    3    3    0  501 -0.82257626452E+02  0.73103106773E+02 -0.22072356080E+02  0.11223894258E+03  0.10000000000E+00 0. -1.
         21    1    1    2  504  503  0.46813003655E+02 -0.73863740565E+02  0.70495750382E+02  0.11232524339E+03  0.00000000000E+00 0.  1.
<mgrwt>
<rscale>  1 0.15255587E+03</rscale>
<asrwt>0</asrwt>
<pdfrwt beam="1">  1       21 0.25583289E-01 0.15255587E+03</pdfrwt>
<pdfrwt beam="2">  1       21 0.15171661E-01 0.15255587E+03</pdfrwt>
<totfact> 0.55989587E+05</totfact>
</mgrwt>
</event>
<event>
 6    1  0.4216855E-002  0.1296473E+03  0.7546771E-02  0.1227980E+00
         21   -1    0    0  504  502  0.00000000000E+00  0.00000000000E+00  0.92150708653E+02  0.92150708653E+02  0.00000000000E+00 0.  1.
         21   -1    0    0  502  503 -0.00000000000E+00 -0.00000000000E+00 -0.87869480225E+02  0.87869480225E+02  0.00000000000E+00 0.  1.
         25    2    1    2    0    0  0.58013468964E+01  0.33901881206E+02 -0.28237445968E+02  0.13268671912E+03  0.12500167559E+03 0.  0.
          5    1    3    3  501    0  0.33148652880E+02 -0.39255136664E+02 -0.79208233032E+01  0.51986040281E+02  0.10000000000E+00 0.  1.
         -5    1    3    3    0  501 -0.27347305984E+02  0.73157017870E+02 -0.20316622664E+02  0.80700678837E+02  0.10000000000E+00 0.  1.
         21    1    1    2  504  503 -0.58013468964E+01 -0.33901881206E+02  0.32518674395E+02  0.47333469760E+02  0.00000000000E+00 0.  1.
<mgrwt>
<rscale>  1 0.12964726E+03</rscale>
<asrwt>0</asrwt>
<pdfrwt beam="1">  1       21 0.14177032E-01 0.12964726E+03</pdfrwt>
<pdfrwt beam="2">  1       21 0.13518381E-01 0.12964726E+03</pdfrwt>
<totfact> 0.20462442E+06</totfact>
</mgrwt>
</event>
<event>
 6    1  0.4216855E-002  0.1265992E+03  0.7546771E-02  0.1232591E+00
         21   -1    0    0  503  502  0.00000000000E+00  0.00000000000E+00  0.79667409233E+03  0.79667409233E+03  0.00000000000E+00 0. -1.
         21   -1    0    0  504  503 -0.00000000000E+00 -0.00000000000E+00 -0.67746055305E+01  0.67746055305E+01  0.00000000000E+00 0. -1.
         25    2    1    2    0    0  0.56292322107E+01 -0.19104408208E+02  0.66015884711E+03  0.67218826873E+03  0.12502279206E+03 0.  0.
          5    1    3    3  501    0 -0.14619973695E+02 -0.68166901909E+02  0.45323271742E+03  0.45856338307E+03  0.10000000000E+00 0.  1.
         -5    1    3    3    0  501  0.20249205905E+02  0.49062493701E+02  0.20692612969E+03  0.21362488567E+03  0.10000000000E+00 0.  1.
         21    1    1    2  504  502 -0.56292322107E+01  0.19104408208E+02  0.12974063969E+03  0.13126042913E+03  0.00000000000E+00 0. -1.
<mgrwt>
<rscale>  1 0.12659923E+03</rscale>
<asrwt>0</asrwt>
<pdfrwt beam="1">  1       21 0.12256517E+00 0.12659923E+03</pdfrwt>
<pdfrwt beam="2">  1       21 0.10422476E-02 0.12659923E+03</pdfrwt>
<totfact> 0.17650960E+06</totfact>
</mgrwt>
</event>
<event>
 6    1  0.4216855E-002  0.1285785E+03  0.7546771E-02  0.1229580E+00
         21   -1    0    0  503  502  0.00000000000E+00  0.00000000000E+00  0.44116757997E+03  0.44116757997E+03  0.00000000000E+00 0. -1.
         21   -1    0    0  504  503 -0.00000000000E+00 -0.00000000000E+00 -0.27327756304E+02  0.27327756304E+02  0.00000000000E+00 0. -1.
         25    2    1    2    0    0  0.29358977768E+02  0.65972819183E+01  0.12922833446E+03  0.18229754891E+03  0.12500784058E+03 0.  0.
          5    1    3    3  501    0 -0.10088674934E+02 -0.50283737262E+02  0.87641825807E+02  0.10154474494E+03  0.10000000000E+00 0. -1.
         -5    1    3    3    0  501  0.39447652702E+02  0.56881019180E+02  0.41586508656E+02  0.80752803969E+02  0.10000000000E+00 0. -1.
         21    1    1    2  504  502 -0.29358977768E+02 -0.65972819183E+01  0.28461148921E+03  0.28619778737E+03  0.00000000000E+00 0. -1.
<mgrwt>
<rscale>  1 0.12857851E+03</rscale>
<asrwt>0</asrwt>
<pdfrwt beam="1">  1       21 0.67871930E-01 0.12857851E+03</pdfrwt>
<pdfrwt beam="2">  1       21 0.42042705E-02 0.12857851E+03</pdfrwt>
<totfact> 0.71923457E+05</totfact>
</mgrwt>
</event>
<event>
 6    1  0.4216855E-002  0.1322177E+03  0.7546771E-02  0.1224202E+00
         21   -1    0    0  503  502  0.00000000000E+00  0.00000000000E+00  0.18316527079E+03  0.18316527079E+03  0.00000000000E+00 0.  1.
         21   -1    0    0  504  503 -0.00000000000E+00 -0.00000000000E+00 -0.41995026176E+02  0.41995026176E+02  0.00000000000E+00 0.  1.
         25    2    1    2    0    0 -0.34888940980E+02 -0.25303407264E+02  0.10328701208E+03  0.16777876745E+03  0.12499602923E+03 0.  0.
          5    1    3    3  501    0 -0.21582774107E+02 -0.76215618146E+02  0.55752616955E+02  0.96865891236E+02  0.10000000000E+00 0. -1.
         -5    1    3    3    0  501 -0.13306166873E+02  0.50912210882E+02  0.47534395121E+02  0.70912876216E+02  0.10000000000E+00 0. -1.
         21    1    1    2  504  502  0.34888940980E+02  0.25303407264E+02  0.37883232538E+02  0.57381529514E+02  0.00000000000E+00 0.  1.
<mgrwt>
<rscale>  1 0.13221765E+03</rscale>
<asrwt>0</asrwt>
<pdfrwt beam="1">  1       21 0.28179272E-01 0.13221765E+03</pdfrwt>
<pdfrwt beam="2">  1       21 0.64607734E-02 0.13221765E+03</pdfrwt>
<totfact> 0.20790512E+06</totfact>
</mgrwt>
</event>
<event>
 6    1  0.4216855E-002  0.1288912E+03  0.7546771E-02  0.1229110E+00
         21   -1    0    0  504  502  0.00000000000E+00  0.00000000000E+00  0.11717039756E+02  0.11717039756E+02  0.00000000000E+00 0. -1.
         21   -1    0    0  502  503 -0.00000000000E+00 -0.00000000000E+00 -0.70621097031E+03  0.70621097031E+03  0.00000000000E+00 0. -1.
         25    2    1    2    0    0  0.88698106872E+01  0.30136821127E+02 -0.65450303560E+03  0.66707357852E+03  0.12500413598E+03 0.  0.
          5    1    3    3  501    0  0.89285860292E+01 -0.39851905838E+02 -0.97747508734E+02  0.10593620491E+03  0.10000000000E+00 0. -1.
         -5    1    3    3    0  501 -0.58775342051E-01  0.69988726965E+02 -0.55675552687E+03  0.56113737360E+03  0.10000000000E+00 0. -1.
         21    1    1    2  504  503 -0.88698106872E+01 -0.30136821127E+02 -0.39990894948E+02  0.50854431548E+02  0.00000000000E+00 0. -1.
<mgrwt>
<rscale>  1 0.12889118E+03</rscale>
<asrwt>0</asrwt>
<pdfrwt beam="1">  1       21 0.18026214E-02 0.12889118E+03</pdfrwt>
<pdfrwt beam="2">  1       21 0.10864785E+00 0.12889118E+03</pdfrwt>
<totfact> 0.98705637E+05</totfact>
</mgrwt>
</event>
<event>
 6    1  0.4216855E-002  0.1275123E+03  0.7546771E-02  0.1231194E+00
         21   -1    0    0  503  502  0.00000000000E+00  0.00000000000E+00  0.12661421801E+04  0.12661421801E+04  0.00000000000E+00 0.  1.
         21   -1    0    0  504  503 -0.00000000000E+00 -0.00000000000E+00 -0.53751117376E+01  0.53751117376E+01  0.00000000000E+00 0.  1.
         25    2    1    2    0    0  0.25179487489E+02 -0.11907414775E+01  0.80340777716E+03  0.81346386078E+03  0.12499588768E+03 0.  0.
          5    1    3    3  501    0  0.52923640696E+02 -0.22720555434E+02  0.17832087099E+03  0.18739124424E+03  0.10000000000E+00 0.  1.
         -5    1    3    3    0  501 -0.27744153207E+02  0.21529813956E+02  0.62508690616E+03  0.62607261654E+03  0.10000000000E+00 0.  1.
         21    1    1    2  504  502 -0.25179487489E+02  0.11907414775E+01  0.45735929119E+03  0.45805343105E+03  0.00000000000E+00 0.  1.
<mgrwt>
<rscale>  1 0.12751234E+03</rscale>
<asrwt>0</asrwt>
<pdfrwt beam="1">  1       21 0.19479087E+00 0.12751234E+03</pdfrwt>
<pdfrwt beam="2">  1       21 0.82694127E-03 0.12751234E+03</pdfrwt>
<totfact> 0.75144407E+05</totfact>
</mgrwt>
</event>
<event>
 6    1  0.4216855E-002  0.1621306E+03  0.7546771E-02  0.1186312E+00
         21   -1    0    0  504  502  0.00000000000E+00  0.00000000000E+00  0.29810018682E+03  0.29810018682E+03  0.00000000000E+00 0.  1.
         21   -1    0    0  502  503 -0.00000000000E+00 -0.00000000000E+00 -0.15632945336E+03  0.15632945336E+03  0.00000000000E+00 0. -1.
         25    2    1    2    0    0 -0.17283699749E+00  0.10325868421E+03 -0.10072032249E+03  0.19086883514E+03  0.12499577245E+03 0.  0.
          5    1    3    3  501    0 -0.44476220115E+02  0.14220474140E+02 -0.74660075727E+02  0.88059598841E+02  0.10000000000E+00 0.  1.
         -5    1    3    3    0  501  0.44303383117E+02  0.89038210066E+02 -0.26060246760E+02  0.10280923630E+03  0.10000000000E+00 0.  1.
         21    1    1    2  504  503  0.17283699749E+00 -0.10325868421E+03  0.24249105595E+03  0.26356080504E+03  0.00000000000E+00 0.  1.
<mgrwt>
<rscale>  1 0.16213059E+03</rscale>
<asrwt>0</asrwt>
<pdfrwt beam="1">  1       21 0.45861567E-01 0.16213059E+03</pdfrwt>
<pdfrwt beam="2">  1       21 0.24050685E-01 0.16213059E+03</pdfrwt>
<totfact> 0.75305273E+04</totfact>
</mgrwt>
</event>
<event>
 6    1  0.4216855E-002  0.1264515E+03  0.7546771E-02  0.1232818E+00
         21   -1    0    0  504  502  0.00000000000E+00  0.00000000000E+00  0.72220574546E+02  0.72220574546E+02  0.00000000000E+00 0. -1.
         21   -1    0    0  502  503 -0.00000000000E+00 -0.00000000000E+00 -0.74494797950E+02  0.74494797950E+02  0.00000000000E+00 0. -1.
         25    2    1    2    0    0  0.19142953273E+02 -0.67251495222E+00 -0.80535765052E+01  0.12670772749E+03  0.12499233246E+03 0.  0.
          5    1    3    3  501    0  0.36349578852E+02 -0.51144070033E+02 -0.29372015956E+02  0.69280106117E+02  0.10000000000E+00 0.  1.
         -5    1    3    3    0  501 -0.17206625579E+02  0.50471555081E+02  0.21318439451E+02  0.57427621374E+02  0.10000000000E+00 0.  1.
         21    1    1    2  504  503 -0.19142953273E+02  0.67251495222E+00  0.57793531018E+01  0.20007645005E+02  0.00000000000E+00 0. -1.
<mgrwt>
<rscale>  1 0.12645152E+03</rscale>
<asrwt>0</asrwt>
<pdfrwt beam="1">  1       21 0.11110858E-01 0.12645152E+03</pdfrwt>
<pdfrwt beam="2">  1       21 0.11460738E-01 0.12645152E+03</pdfrwt>
<totfact> 0.42270079E+06</totfact>
</mgrwt>
</event>
<event>
 6    1  0.4216855E-002  0.1265209E+03  0.7546771E-02  0.1232711E+00
         21   -1    0    0  503  502  0.00000000000E+00  0.00000000000E+00  0.28749101081E+03  0.28749101081E+03  0.00000000000E+00 0.  1.
         21   -1    0    0  504  503 -0.00000000000E+00 -0.00000000000E+00 -0.34433870808E+02  0.34433870808E+02  0.00000000000E+00 0.  1.
         25    2    1    2    0    0 -0.18663672492E+02 -0.58668597784E+01  0.84289821003E+02  0.15202738112E+03  0.12499919188E+03 0.  0.
          5    1    3    3  501    0  0.96930669390E+01 -0.60950653076E+02  0.58110459502E+02  0.84768939834E+02  0.10000000000E+00 0.  1.
         -5    1    3    3    0  501 -0.28356739431E+02  0.55083793297E+02  0.26179361501E+02  0.67258441283E+02  0.10000000000E+00 0.  1.
         21    1    1    2  504  502  0.18663672492E+02  0.58668597784E+01  0.16876731900E+03  0.16989750050E+03  0.00000000000E+00 0.  1.
<mgrwt>
<rscale>  1 0.12652095E+03</rscale>
<asrwt>0</asrwt>
<pdfrwt beam="1">  1       21 0.44229385E-01 0.12652095E+03</pdfrwt>
<pdfrwt beam="2">  1       21 0.52975188E-02 0.12652095E+03</pdfrwt>
<totfact> 0.11970621E+06</totfact>
</mgrwt>
</event>
<event>
 6    1  0.4216855E-002  0.1352539E+03  0.7546771E-02  0.1219862E+00
         21   -1    0    0  504  502  0.00000000000E+00  0.00000000000E+00  0.68946525453E+03  0.68946525453E+03  0.00000000000E+00 0. -1.
         21   -1    0    0  502  503 -0.00000000000E+00 -0.00000000000E+00 -0.14706833903E+02  0.14706833903E+02  0.00000000000E+00 0. -1.
         25    2    1    2    0    0 -0.22104131467E+02  0.46686320806E+02  0.34806958433E+03  0.37342475142E+03  0.12500161704E+03 0.  0.
          5    1    3    3  501    0 -0.24143479922E+02  0.87599589270E+02  0.19781949254E+03  0.21769050804E+03  0.10000000000E+00 0. -1.
         -5    1    3    3    0  501  0.20393484542E+01 -0.40913268464E+02  0.15025009178E+03  0.15573424337E+03  0.10000000000E+00 0. -1.
         21    1    1    2  504  503  0.22104131467E+02 -0.46686320806E+02  0.32668883630E+03  0.33074733701E+03  0.00000000000E+00 0. -1.
<mgrwt>
<rscale>  1 0.13525387E+03</rscale>
<asrwt>0</asrwt>
<pdfrwt beam="1">  1       21 0.10607155E+00 0.13525387E+03</pdfrwt>
<pdfrwt beam="2">  1       21 0.22625904E-02 0.13525387E+03</pdfrwt>
<totfact> 0.72369263E+05</totfact>
</mgrwt>
</event>
<event>
 6    1  0.4216855E-002  0.1354992E+03  0.7546771E-02  0.1219517E+00
         21   -1    0    0  503  502  0.00000000000E+00  0.00000000000E+00  0.74406062654E+03  0.74406062654E+03  0.00000000000E+00 0. -1.
         21   -1    0    0  504  503 -0.00000000000E+00 -0.00000000000E+00 -0.13735408729E+02  0.13735408729E+02  0.00000000000E+00 0. -1.
         25    2    1    2    0    0 -0.50650503852E+02  0.13048443163E+02  0.63265380456E+03  0.64700144887E+03  0.12499721198E+03 0.  0.
          5    1    3    3  501    0 -0.44824133909E+02 -0.47862092256E+02  0.44012503075E+03  0.44498318570E+03  0.10000000000E+00 0. -1.
         -5    1    3    3    0  501 -0.58263699425E+01  0.60910535419E+02  0.19252877381E+03  0.20201826318E+03  0.10000000000E+00 0. -1.
         21    1    1    2  504  502  0.50650503852E+02 -0.13048443163E+02  0.97671413245E+02  0.11079458640E+03  0.00000000000E+00 0. -1.
<mgrwt>
<rscale>  1 0.13549922E+03</rscale>
<asrwt>0</asrwt>
<pdfrwt beam="1">  1       21 0.11447083E+00 0.13549922E+03</pdfrwt>
<pdfrwt beam="2">  1       21 0.21131404E-02 0.13549922E+03</pdfrwt>
<totfact> 0.67367610E+05</totfact>
</mgrwt>
</event>
<event>
 6    1  0.4216855E-002  0.1312749E+03  0.7546771E-02  0.1225576E+00
         21   -1    0    0  504  502  0.00000000000E+00  0.00000000000E+00  0.25170978472E+02  0.25170978472E+02  0.00000000000E+00 0.  1.
         21   -1    0    0  502  503 -0.00000000000E+00 -0.00000000000E+00 -0.32675231747E+03  0.32675231747E+03  0.00000000000E+00 0.  1.
         25    2    1    2    0    0 -0.37936164289E+02 -0.13044434695E+02 -0.17261533518E+03  0.21686205065E+03  0.12499514086E+03 0.  0.
          5    1    3    3  501    0 -0.68255031460E+02 -0.43101204212E+02 -0.74449178516E+02  0.10981417625E+03  0.10000000000E+00 0. -1.
         -5    1    3    3    0  501  0.30318867171E+02  0.30056769517E+02 -0.98166156659E+02  0.10704787440E+03  0.10000000000E+00 0. -1.
         21    1    1    2  504  503  0.37936164289E+02  0.13044434695E+02 -0.12896600382E+03  0.13506124529E+03  0.00000000000E+00 0.  1.
<mgrwt>
<rscale>  1 0.13127488E+03</rscale>
<asrwt>0</asrwt>
<pdfrwt beam="1">  1       21 0.38724583E-02 0.13127488E+03</pdfrwt>
<pdfrwt beam="2">  1       21 0.50269587E-01 0.13127488E+03</pdfrwt>
<totfact> 0.15562491E+06</totfact>
</mgrwt>
</event>
<event>
 6    1  0.4216855E-002  0.1259154E+03  0.7546771E-02  0.1233646E+00
         21   -1    0    0  503  502  0.00000000000E+00  0.00000000000E+00  0.33787742578E+03  0.33787742578E+03  0.00000000000E+00 0.  1.
         21   -1    0    0  504  503 -0.00000000000E+00 -0.00000000000E+00 -0.15622349047E+02  0.15622349047E+02  0.00000000000E+00 0.  1.
         25    2    1    2    0    0  0.14770992123E+02  0.34274815272E+01  0.25296956299E+03  0.28257437562E+03  0.12499899248E+03 0.  0.
          5    1    3    3  501    0  0.12112980671E+02 -0.51908070015E+02  0.53368968870E+02  0.75428302855E+02  0.10000000000E+00 0.  1.
         -5    1    3    3    0  501  0.26580114518E+01  0.55335551542E+02  0.19960059412E+03  0.20714607276E+03  0.10000000000E+00 0.  1.
         21    1    1    2  504  502 -0.14770992123E+02 -0.34274815272E+01  0.69285513744E+02  0.70925399207E+02  0.00000000000E+00 0. -1.
<mgrwt>
<rscale>  1 0.12591536E+03</rscale>
<asrwt>0</asrwt>
<pdfrwt beam="1">  1       21 0.51981137E-01 0.12591536E+03</pdfrwt>
<pdfrwt beam="2">  1       21 0.24034386E-02 0.12591536E+03</pdfrwt>
<totfact> 0.31732435E+06</totfact>
</mgrwt>
</event>
<event>
 6    1  0.4216855E-002  0.1326806E+03  0.7546771E-02  0.1223532E+00
         21   -1    0    0  504  502  0.00000000000E+00  0.00000000000E+00  0.50796183731E+03  0.50796183731E+03  0.00000000000E+00 0.  1.
         21   -1    0    0  502  503 -0.00000000000E+00 -0.00000000000E+00 -0.13232271622E+03  0.13232271622E+03  0.00000000000E+00 0. -1.
         25    2    1    2    0    0 -0.30437691392E+02 -0.32458609526E+02 -0.97755155329E+02  0.16480358089E+03  0.12499654192E+03 0.  0.
          5    1    3    3  501    0  0.47722743475E+02 -0.11596051635E+02 -0.53379571878E+02  0.72534938838E+02  0.10000000000E+00 0.  1.
         -5    1    3    3    0  501 -0.78160434868E+02 -0.20862557891E+02 -0.44375583450E+02  0.92268642057E+02  0.10000000000E+00 0.  1.
         21    1    1    2  504  503  0.30437691392E+02  0.32458609526E+02  0.47339427642E+03  0.47548097263E+03  0.00000000000E+00 0.  1.
<mgrwt>
<rscale>  1 0.13268063E+03</rscale>
<asrwt>0</asrwt>
<pdfrwt beam="1">  1       21 0.78147974E-01 0.13268063E+03</pdfrwt>
<pdfrwt beam="2">  1       21 0.20357341E-01 0.13268063E+03</pdfrwt>
<totfact> 0.33511653E+04</totfact>
</mgrwt>
</event>
<event>
 6    1  0.4216855E-002  0.1317255E+03  0.7546771E-02  0.1224918E+00
         21   -1    0    0  504  502  0.00000000000E+00  0.00000000000E+00  0.22523623020E+03  0.22523623020E+03  0.00000000000E+00 0. -1.
         21   -1    0    0  502  503 -0.00000000000E+00 -0.00000000000E+00 -0.16690959082E+03  0.16690959082E+03  0.00000000000E+00 0.  1.
         25    2    1    2    0    0 -0.21143106034E+02 -0.35768513510E+02 -0.13840781542E+03  0.19107154818E+03  0.12500078266E+03 0.  0.
          5    1    3    3  501    0 -0.73703564036E+02 -0.15074437448E+02 -0.80120343019E+02  0.10990329104E+03  0.10000000000E+00 0.  1.
         -5    1    3    3    0  501  0.52560458002E+02 -0.20694076062E+02 -0.58287472397E+02  0.81168257145E+02  0.10000000000E+00 0.  1.
         21    1    1    2  504  503  0.21143106034E+02  0.35768513510E+02  0.19673445480E+03  0.20107427284E+03  0.00000000000E+00 0. -1.
<mgrwt>
<rscale>  1 0.13172552E+03</rscale>
<asrwt>0</asrwt>
<pdfrwt beam="1">  1       21 0.34651728E-01 0.13172552E+03</pdfrwt>
<pdfrwt beam="2">  1       21 0.25678399E-01 0.13172552E+03</pdfrwt>
<totfact> 0.11806574E+05</totfact>
</mgrwt>
</event>
<event>
 6    1  0.4216855E-002  0.1334329E+03  0.7546771E-02  0.1222449E+00
         21   -1    0    0  503  502  0.00000000000E+00  0.00000000000E+00  0.27249114895E+02  0.27249114895E+02  0.00000000000E+00 0.  1.
         21   -1    0    0  504  503 -0.00000000000E+00 -0.00000000000E+00 -0.68895556462E+03  0.68895556462E+03  0.00000000000E+00 0.  1.
         25    2    1    2    0    0  0.44714433229E+02  0.13472715273E+02 -0.65567778035E+03  0.66911710738E+03  0.12499382843E+03 0.  0.
          5    1    3    3  501    0  0.57313743028E+02 -0.20519634844E+02 -0.14642453298E+03  0.15857513807E+03  0.10000000000E+00 0.  1.
         -5    1    3    3    0  501 -0.12599309799E+02  0.33992350117E+02 -0.50925324737E+03  0.51054196931E+03  0.10000000000E+00 0.  1.
         21    1    1    2  504  502 -0.44714433229E+02 -0.13472715273E+02 -0.60286693823E+01  0.47087572143E+02  0.00000000000E+00 0.  1.
<mgrwt>
<rscale>  1 0.13343295E+03</rscale>
<asrwt>0</asrwt>
<pdfrwt beam="1">  1       21 0.41921720E-02 0.13343295E+03</pdfrwt>
<pdfrwt beam="2">  1       21 0.10599315E+00 0.13343295E+03</pdfrwt>
<totfact> 0.26315397E+05</totfact>
</mgrwt>
</event>
<event>
 6    1  0.4216855E-002  0.1676529E+03  0.7546771E-02  0.1180318E+00
         21   -1    0    0  504  502  0.00000000000E+00  0.00000000000E+00  0.87957764354E+03  0.87957764354E+03  0.00000000000E+00 0. -1.
         21   -1    0    0  502  503 -0.00000000000E+00 -0.00000000000E+00 -0.50736360524E+02  0.50736360524E+02  0.00000000000E+00 0. -1.
         25    2    1    2    0    0 -0.10298061318E+03 -0.43224165833E+02  0.10480787012E+03  0.19771744510E+03  0.12503664765E+03 0.  0.
          5    1    3    3  501    0 -0.65923545209E+02 -0.56753678135E+02  0.13554746024E+01  0.86998512092E+02  0.10000000000E+00 0. -1.
         -5    1    3    3    0  501 -0.37057067974E+02  0.13529512302E+02  0.10345239551E+03  0.11071893301E+03  0.10000000000E+00 0. -1.
         21    1    1    2  504  503  0.10298061318E+03  0.43224165833E+02  0.72403341290E+03  0.73259655896E+03  0.00000000000E+00 0. -1.
<mgrwt>
<rscale>  1 0.16765291E+03</rscale>
<asrwt>0</asrwt>
<pdfrwt beam="1">  1       21 0.13531963E+00 0.16765291E+03</pdfrwt>
<pdfrwt beam="2">  1       21 0.78055946E-02 0.16765291E+03</pdfrwt>
<totfact> 0.49591119E+04</totfact>
</mgrwt>
</event>
<event>
 6    1  0.4216855E-002  0.1269537E+03  0.7546771E-02  0.1232047E+00
         21   -1    0    0  503  502  0.00000000000E+00  0.00000000000E+00  0.32747701965E+02  0.32747701965E+02  0.00000000000E+00 0.  1.
         21   -1    0    0  504  503 -0.00000000000E+00 -0.00000000000E+00 -0.17712673728E+03  0.17712673728E+03  0.00000000000E+00 0.  1.
         25    2    1    2    0    0 -0.10087847991E+02  0.19742906887E+02 -0.13633006435E+03  0.18628772724E+03  0.12500273527E+03 0.  0.
          5    1    3    3  501    0 -0.58387967265E+02 -0.16598755318E+02 -0.96144182674E+02  0.11370306619E+03  0.10000000000E+00 0.  1.
         -5    1    3    3    0  501  0.48300119273E+02  0.36341662206E+02 -0.40185881678E+02  0.72584661051E+02  0.10000000000E+00 0.  1.
         21    1    1    2  504  502  0.10087847991E+02 -0.19742906887E+02 -0.80489709623E+01  0.23586712001E+02  0.00000000000E+00 0.  1.
<mgrwt>
<rscale>  1 0.12695366E+03</rscale>
<asrwt>0</asrwt>
<pdfrwt beam="1">  1       21 0.50381079E-02 0.12695366E+03</pdfrwt>
<pdfrwt beam="2">  1       21 0.27250268E-01 0.12695366E+03</pdfrwt>
<totfact> 0.33712276E+06</totfact>
</mgrwt>
</event>
<event>
 6    1  0.4216855E-002  0.1300380E+03  0.7546771E-02  0.1227399E+00
         21   -1    0    0  503  502  0.00000000000E+00  0.00000000000E+00  0.18551878752E+03  0.18551878752E+03  0.00000000000E+00 0. -1.
         21   -1    0    0  504  503 -0.00000000000E+00 -0.00000000000E+00 -0.45086987231E+02  0.45086987231E+02  0.00000000000E+00 0. -1.
         25    2    1    2    0    0 -0.27730066152E+01 -0.35738252863E+02  0.61358819344E+02  0.14378729401E+03  0.12499987569E+03 0.  0.
          5    1    3    3  501    0  0.53070168142E+02 -0.48648457447E+01  0.59602706618E+02  0.79953749799E+02  0.10000000000E+00 0. -1.
         -5    1    3    3    0  501 -0.55843174757E+02 -0.30873407119E+02  0.17561127256E+01  0.63833544206E+02  0.10000000000E+00 0. -1.
         21    1    1    2  504  502  0.27730066152E+01  0.35738252863E+02  0.79072980948E+02  0.86818480748E+02  0.00000000000E+00 0. -1.
<mgrwt>
<rscale>  1 0.13003800E+03</rscale>
<asrwt>0</asrwt>
<pdfrwt beam="1">  1       21 0.28541351E-01 0.13003800E+03</pdfrwt>
<pdfrwt beam="2">  1       21 0.69364597E-02 0.13003800E+03</pdfrwt>
<totfact> 0.17962735E+06</totfact>
</mgrwt>
</event>
<event>
 6    1  0.4216855E-002  0.1260197E+03  0.7546771E-02  0.1233484E+00
         21   -1    0    0  504  502  0.00000000000E+00  0.00000000000E+00  0.83286550870E+02  0.83286550870E+02  0.00000000000E+00 0. -1.
         21   -1    0    0  502  503 -0.00000000000E+00 -0.00000000000E+00 -0.81422639626E+02  0.81422639626E+02  0.00000000000E+00 0.  1.
         25    2    1    2    0    0 -0.55317887566E+01 -0.15019455098E+02 -0.29563270618E+02  0.12944089768E+03  0.12499909721E+03 0.  0.
          5    1    3    3  501    0 -0.58218383489E+02 -0.29063751369E+02  0.43723534144E+01  0.65216633569E+02  0.10000000000E+00 0.  1.
         -5    1    3    3    0  501  0.52686594732E+02  0.14044296271E+02 -0.33935624033E+02  0.64224264112E+02  0.10000000000E+00 0.  1.
         21    1    1    2  504  503  0.55317887566E+01  0.15019455098E+02  0.31427181862E+02  0.35268292815E+02  0.00000000000E+00 0. -1.
<mgrwt>
<rscale>  1 0.12601968E+03</rscale>
<asrwt>0</asrwt>
<pdfrwt beam="1">  1       21 0.12813316E-01 0.12601968E+03</pdfrwt>
<pdfrwt beam="2">  1       21 0.12526560E-01 0.12601968E+03</pdfrwt>
<totfact> 0.28055900E+06</totfact>
</mgrwt>
</event>
<event>
 6    1  0.4216855E-002  0.1327715E+03  0.7546771E-02  0.1223400E+00
         21   -1    0    0  504  502  0.00000000000E+00  0.00000000000E+00  0.96587529782E+01  0.96587529782E+01  0.00000000000E+00 0.  1.
         21   -1    0    0  502  503 -0.00000000000E+00 -0.00000000000E+00 -0.13497817684E+04  0.13497817684E+04  0.00000000000E+00 0. -1.
         25    2    1    2    0    0 -0.25324974337E+02 -0.36943174021E+02 -0.12652192097E+04  0.12721666275E+04  0.12498850845E+03 0.  0.
          5    1    3    3  501    0  0.25429362091E+02 -0.13729065805E+01 -0.57845759520E+02  0.63203474772E+02  0.10000000000E+00 0.  1.
         -5    1    3    3    0  501 -0.50754336428E+02 -0.35570267441E+02 -0.12073734502E+04  0.12089631528E+04  0.10000000000E+00 0.  1.
         21    1    1    2  504  503  0.25324974337E+02  0.36943174021E+02 -0.74903805757E+02  0.87273893856E+02  0.00000000000E+00 0.  1.
<mgrwt>
<rscale>  1 0.13277153E+03</rscale>
<asrwt>0</asrwt>
<pdfrwt beam="1">  1       21 0.14859633E-02 0.13277153E+03</pdfrwt>
<pdfrwt beam="2">  1       21 0.20765855E+00 0.13277153E+03</pdfrwt>
<totfact> 0.24640715E+05</totfact>
</mgrwt>
</event>
<event>
 6    1  0.4216855E-002  0.1289604E+03  0.7546771E-02  0.1229007E+00
         21   -1    0    0  503  502  0.00000000000E+00  0.00000000000E+00  0.49132905469E+02  0.49132905469E+02  0.00000000000E+00 0.  1.
         21   -1    0    0  504  503 -0.00000000000E+00 -0.00000000000E+00 -0.13325191423E+03  0.13325191423E+03  0.00000000000E+00 0.  1.
         25    2    1    2    0    0  0.26951704727E+02  0.16694723945E+02 -0.75880907189E+02  0.14962853003E+03  0.12500270688E+03 0.  0.
          5    1    3    3  501    0  0.22705425632E+02  0.16131963171E+02 -0.11090208937E+03  0.11434622869E+03  0.10000000000E+00 0.  1.
         -5    1    3    3    0  501  0.42462790953E+01  0.56276077360E+00  0.35021182186E+02  0.35282301335E+02  0.10000000000E+00 0.  1.
         21    1    1    2  504  502 -0.26951704727E+02 -0.16694723945E+02 -0.82381015705E+01  0.32756289668E+02  0.00000000000E+00 0.  1.
<mgrwt>
<rscale>  1 0.12896040E+03</rscale>
<asrwt>0</asrwt>
<pdfrwt beam="1">  1       21 0.75589084E-02 0.12896040E+03</pdfrwt>
<pdfrwt beam="2">  1       21 0.20500295E-01 0.12896040E+03</pdfrwt>
<totfact> 0.28912507E+06</totfact>
</mgrwt>
</event>
<event>
 6    1  0.4216855E-002  0.1634425E+03  0.7546771E-02  0.1184864E+00
         21   -1    0    0  503  502  0.00000000000E+00  0.00000000000E+00  0.14841633240E+03  0.14841633240E+03  0.00000000000E+00 0. -1.
         21   -1    0    0  504  503 -0.00000000000E+00 -0.00000000000E+00 -0.12335171338E+03  0.12335171338E+03  0.00000000000E+00 0. -1.
         25    2    1    2    0    0 -0.86207936249E+02  0.60477087296E+02 -0.33339531150E+00  0.16344286176E+03  0.12499668615E+03 0.  0.
          5    1    3    3  501    0 -0.10886573219E+03  0.11493511671E+02  0.11330173097E+00  0.10947086961E+03  0.10000000000E+00 0. -1.
         -5    1    3    3    0  501  0.22657795946E+02  0.48983575625E+02 -0.44669704247E+00  0.53971992148E+02  0.10000000000E+00 0. -1.
         21    1    1    2  504  502  0.86207936249E+02 -0.60477087296E+02  0.25398014335E+02  0.10832518402E+03  0.00000000000E+00 0. -1.
<mgrwt>
<rscale>  1 0.16344252E+03</rscale>
<asrwt>0</asrwt>
<pdfrwt beam="1">  1       21 0.22833282E-01 0.16344252E+03</pdfrwt>
<pdfrwt beam="2">  1       21 0.18977187E-01 0.16344252E+03</pdfrwt>
<totfact> 0.46041238E+05</totfact>
</mgrwt>
</event>
<event>
 6    1  0.4216855E-002  0.1265289E+03  0.7546771E-02  0.1232699E+00
         21   -1    0    0  503  502  0.00000000000E+00  0.00000000000E+00  0.17193396782E+02  0.17193396782E+02  0.00000000000E+00 0.  1.
         21   -1    0    0  504  503 -0.00000000000E+00 -0.00000000000E+00 -0.50702080433E+03  0.50702080433E+03  0.00000000000E+00 0.  1.
         25    2    1    2    0    0  0.19551021713E+02  0.91546002591E+00 -0.48847369637E+03  0.50459500003E+03  0.12500592585E+03 0.  0.
          5    1    3    3  501    0  0.55350927952E+02  0.68166011378E+01 -0.10056867685E+03  0.11499678273E+03  0.10000000000E+00 0.  1.
         -5    1    3    3    0  501 -0.35799906240E+02 -0.59011411119E+01 -0.38790501952E+03  0.38959821730E+03  0.10000000000E+00 0.  1.
         21    1    1    2  504  502 -0.19551021713E+02 -0.91546002591E+00 -0.13537111811E+01  0.19619201080E+02  0.00000000000E+00 0.  1.
<mgrwt>
<rscale>  1 0.12652890E+03</rscale>
<asrwt>0</asrwt>
<pdfrwt beam="1">  1       21 0.26451383E-02 0.12652890E+03</pdfrwt>
<pdfrwt beam="2">  1       21 0.78003190E-01 0.12652890E+03</pdfrwt>
<totfact> 0.11369656E+06</totfact>
</mgrwt>
</event>
<event>
 6    1  0.4216855E-002  0.1262759E+03  0.7546771E-02  0.1233089E+00
         21   -1    0    0  503  502  0.00000000000E+00  0.00000000000E+00  0.11448062496E+02  0.11448062496E+02  0.00000000000E+00 0. -1.
         21   -1    0    0  504  503 -0.00000000000E+00 -0.00000000000E+00 -0.48558991319E+03  0.48558991319E+03  0.00000000000E+00 0. -1.
         25    2    1    2    0    0 -0.17789729545E+02  0.19612973595E+01 -0.36006611232E+03  0.38156678772E+03  0.12500114834E+03 0.  0.
          5    1    3    3  501    0 -0.61345522144E+01  0.54732107704E+02 -0.85289511739E+02  0.10152609102E+03  0.10000000000E+00 0. -1.
         -5    1    3    3    0  501 -0.11655177330E+02 -0.52770810344E+02 -0.27477660058E+03  0.28004069671E+03  0.10000000000E+00 0. -1.
         21    1    1    2  504  502  0.17789729545E+02 -0.19612973595E+01 -0.11407573837E+03  0.11547118796E+03  0.00000000000E+00 0. -1.
<mgrwt>
<rscale>  1 0.12627592E+03</rscale>
<asrwt>0</asrwt>
<pdfrwt beam="1">  1       21 0.17612406E-02 0.12627592E+03</pdfrwt>
<pdfrwt beam="2">  1       21 0.74706129E-01 0.12627592E+03</pdfrwt>
<totfact> 0.24152727E+06</totfact>
</mgrwt>
</event>
<event>
 6    1  0.4216855E-002  0.1275934E+03  0.7546771E-02  0.1231071E+00
         21   -1    0    0  504  502  0.00000000000E+00  0.00000000000E+00  0.10512679489E+03  0.10512679489E+03  0.00000000000E+00 0. -1.
         21   -1    0    0  502  503 -0.00000000000E+00 -0.00000000000E+00 -0.36058450749E+03  0.36058450749E+03  0.00000000000E+00 0. -1.
         25    2    1    2    0    0 -0.24913194559E+02 -0.62865093623E+01 -0.34748200082E+03  0.37016729636E+03  0.12497959408E+03 0.  0.
          5    1    3    3  501    0  0.21024632159E+02 -0.50575922792E+02 -0.23044844735E+03  0.23686801390E+03  0.10000000000E+00 0.  1.
         -5    1    3    3    0  501 -0.45937826717E+02  0.44289413430E+02 -0.11703355347E+03  0.13329928246E+03  0.10000000000E+00 0.  1.
         21    1    1    2  504  503  0.24913194559E+02  0.62865093623E+01  0.92024288225E+02  0.95544006020E+02  0.00000000000E+00 0. -1.
<mgrwt>
<rscale>  1 0.12759344E+03</rscale>
<asrwt>0</asrwt>
<pdfrwt beam="1">  1       21 0.16173353E-01 0.12759344E+03</pdfrwt>
<pdfrwt beam="2">  1       21 0.55474540E-01 0.12759344E+03</pdfrwt>
<totfact> 0.10733772E+05</totfact>
</mgrwt>
</event>
<event>
 6    1  0.4216855E-002  0.1315755E+03  0.7546771E-02  0.1225137E+00
         21   -1    0    0  504  502  0.00000000000E+00  0.00000000000E+00  0.21286804466E+02  0.21286804466E+02  0.00000000000E+00 0. -1.
         21   -1    0    0  502  503 -0.00000000000E+00 -0.00000000000E+00 -0.72351835302E+03  0.72351835302E+03  0.00000000000E+00 0.  1.
         25    2    1    2    0    0 -0.28193701793E+02  0.29924017251E+02 -0.68924187406E+03  0.70168830147E+03  0.12498711867E+03 0.  0.
          5    1    3    3  501    0  0.41770502213E+02  0.14372292306E+02 -0.11853485204E+03  0.12649845370E+03  0.10000000000E+00 0. -1.
         -5    1    3    3    0  501 -0.69964204006E+02  0.15551724945E+02 -0.57070702202E+03  0.57518984777E+03  0.10000000000E+00 0. -1.
         21    1    1    2  504  503  0.28193701793E+02 -0.29924017251E+02 -0.12989674495E+02  0.43116856016E+02  0.00000000000E+00 0. -1.
<mgrwt>
<rscale>  1 0.13157550E+03</rscale>
<asrwt>0</asrwt>
<pdfrwt beam="1">  1       21 0.32748934E-02 0.13157550E+03</pdfrwt>
<pdfrwt beam="2">  1       21 0.11131050E+00 0.13157550E+03</pdfrwt>
<totfact> 0.35264099E+05</totfact>
</mgrwt>
</event>
<event>
 6    1  0.4216855E-002  0.1264337E+03  0.7546771E-02  0.1232846E+00
         21   -1    0    0  503  502  0.00000000000E+00  0.00000000000E+00  0.78924064430E+01  0.78924064430E+01  0.00000000000E+00 0. -1.
         21   -1    0    0  504  503 -0.00000000000E+00 -0.00000000000E+00 -0.96424630437E+03  0.96424630437E+03  0.00000000000E+00 0. -1.
         25    2    1    2    0    0  0.16737163785E+02  0.90011286874E+01 -0.93517671016E+03  0.94368477874E+03  0.12499731762E+03 0.  0.
          5    1    3    3  501    0  0.35448515014E+02  0.32982701495E+02 -0.14398064862E+03  0.15190422309E+03  0.10000000000E+00 0.  1.
         -5    1    3    3    0  501 -0.18711351229E+02 -0.23981572808E+02 -0.79119606154E+03  0.79178055565E+03  0.10000000000E+00 0.  1.
         21    1    1    2  504  502 -0.16737163785E+02 -0.90011286874E+01 -0.21177187767E+02  0.28453932082E+02  0.00000000000E+00 0. -1.
<mgrwt>
<rscale>  1 0.12643371E+03</rscale>
<asrwt>0</asrwt>
<pdfrwt beam="1">  1       21 0.12142170E-02 0.12643371E+03</pdfrwt>
<pdfrwt beam="2">  1       21 0.14834551E+00 0.12643371E+03</pdfrwt>
<totfact> 0.85817006E+05</totfact>
</mgrwt>
</event>
<event>
 6    1  0.4216855E-002  0.1301835E+03  0.7546771E-02  0.1227184E+00
         21   -1    0    0  503  502  0.00000000000E+00  0.00000000000E+00  0.21495678737E+03  0.21495678737E+03  0.00000000000E+00 0.  1.
         21   -1    0    0  504  503 -0.00000000000E+00 -0.00000000000E+00 -0.11876930858E+03  0.11876930858E+03  0.00000000000E+00 0.  1.
         25    2    1    2    0    0 -0.34763975569E+02 -0.10767885297E+02 -0.80677582168E+02  0.15315552488E+03  0.12499304455E+03 0.  0.
          5    1    3    3  501    0 -0.65203673781E+02 -0.28263131021E+02 -0.92013146499E+02  0.11626157051E+03  0.10000000000E+00 0.  1.
         -5    1    3    3    0  501  0.30439698212E+02  0.17495245724E+02  0.11335564331E+02  0.36893954368E+02  0.10000000000E+00 0.  1.
         21    1    1    2  504  502  0.34763975569E+02  0.10767885297E+02  0.17686506095E+03  0.18057057107E+03  0.00000000000E+00 0.  1.
<mgrwt>
<rscale>  1 0.13018350E+03</rscale>
<asrwt>0</asrwt>
<pdfrwt beam="1">  1       21 0.33070275E-01 0.13018350E+03</pdfrwt>
<pdfrwt beam="2">  1       21 0.18272201E-01 0.13018350E+03</pdfrwt>
<totfact> 0.24406013E+05</totfact>
</mgrwt>
</event>
<event>
 6    1  0.4216855E-002  0.1261575E+03  0.7546771E-02  0.1233271E+00
         21   -1    0    0  503  502  0.00000000000E+00  0.00000000000E+00  0.90362096197E+03  0.90362096197E+03  0.00000000000E+00 0. -1.
         21   -1    0    0  504  503 -0.00000000000E+00 -0.00000000000E+00 -0.13563945822E+03  0.13563945822E+03  0.00000000000E+00 0. -1.
         25    2    1    2    0    0  0.11983728653E+02 -0.12163848844E+02 -0.10620343212E+03  0.16490873404E+03  0.12499661034E+03 0.  0.
          5    1    3    3  501    0 -0.13543028604E+02 -0.49264634434E+02 -0.17065840568E+01  0.51120839770E+02  0.10000000000E+00 0.  1.
         -5    1    3    3    0  501  0.25526757257E+02  0.37100785589E+02 -0.10449684806E+03  0.11378789427E+03  0.10000000000E+00 0.  1.
         21    1    1    2  504  502 -0.11983728653E+02  0.12163848844E+02  0.87418493587E+03  0.87435168615E+03  0.00000000000E+00 0. -1.
<mgrwt>
<rscale>  1 0.12615753E+03</rscale>
<asrwt>0</asrwt>
<pdfrwt beam="1">  1       21 0.13901861E+00 0.12615753E+03</pdfrwt>
<pdfrwt beam="2">  1       21 0.20867610E-01 0.12615753E+03</pdfrwt>
<totfact> 0.82337079E+03</totfact>
</mgrwt>
</event>
<event>
 6    1  0.4216855E-002  0.1906353E+03  0.7546771E-02  0.1157890E+00
         21   -1    0    0  503  502  0.00000000000E+00  0.00000000000E+00  0.25034777809E+03  0.25034777809E+03  0.00000000000E+00 0. -1.
         21   -1    0    0  504  503 -0.00000000000E+00 -0.00000000000E+00 -0.16620740991E+03  0.16620740991E+03  0.00000000000E+00 0. -1.
         25    2    1    2    0    0 -0.11651349651E+02  0.14346102958E+03 -0.72382276677E+02  0.20391427165E+03  0.12500006099E+03 0.  0.
          5    1    3    3  501    0  0.31939324525E+02  0.15917316098E+02  0.19617431930E+02  0.40722660011E+02  0.10000000000E+00 0.  1.
         -5    1    3    3    0  501 -0.43590674176E+02  0.12754371348E+03 -0.91999708606E+02  0.16319161163E+03  0.10000000000E+00 0.  1.
         21    1    1    2  504  502  0.11651349651E+02 -0.14346102958E+03  0.15652264486E+03  0.21264091636E+03  0.00000000000E+00 0. -1.
<mgrwt>
<rscale>  1 0.19063535E+03</rscale>
<asrwt>0</asrwt>
<pdfrwt beam="1">  1       21 0.38515043E-01 0.19063535E+03</pdfrwt>
<pdfrwt beam="2">  1       21 0.25570371E-01 0.19063535E+03</pdfrwt>
<totfact> 0.94383006E+04</totfact>
</mgrwt>
</event>
<event>
 6    1  0.4216855E-002  0.1264858E+03  0.7546771E-02  0.1232765E+00
         21   -1    0    0  503  502  0.00000000000E+00  0.00000000000E+00  0.10362384501E+03  0.10362384501E+03  0.00000000000E+00 0. -1.
         21   -1    0    0  504  503 -0.00000000000E+00 -0.00000000000E+00 -0.86008590636E+02  0.86008590636E+02  0.00000000000E+00 0. -1.
         25    2    1    2    0    0  0.16580553376E+02  0.99142820326E+01 -0.36930262543E+02  0.13176689189E+03  0.12500184706E+03 0.  0.
          5    1    3    3  501    0  0.28631224888E+02  0.46496246823E+02 -0.64418823280E+02  0.84447870311E+02  0.10000000000E+00 0.  1.
         -5    1    3    3    0  501 -0.12050671512E+02 -0.36581964790E+02  0.27488560737E+02  0.47319021579E+02  0.10000000000E+00 0.  1.
         21    1    1    2  504  502 -0.16580553376E+02 -0.99142820326E+01  0.54545516915E+02  0.57865543755E+02  0.00000000000E+00 0. -1.
<mgrwt>
<rscale>  1 0.12648585E+03</rscale>
<asrwt>0</asrwt>
<pdfrwt beam="1">  1       21 0.15942130E-01 0.12648585E+03</pdfrwt>
<pdfrwt beam="2">  1       21 0.13232091E-01 0.12648585E+03</pdfrwt>
<totfact> 0.17194982E+06</totfact>
</mgrwt>
</event>
<event>
 6    1  0.4216855E-002  0.1356978E+03  0.7546771E-02  0.1219238E+00
         21   -1    0    0  503  502  0.00000000000E+00  0.00000000000E+00  0.10520683161E+04  0.10520683161E+04  0.00000000000E+00 0. -1.
         21   -1    0    0  504  503 -0.00000000000E+00 -0.00000000000E+00 -0.57338369451E+02  0.57338369451E+02  0.00000000000E+00 0. -1.
         25    2    1    2    0    0 -0.60419812148E+01  0.52487104556E+02  0.24685967171E+02  0.13792496992E+03  0.12498999428E+03 0.  0.
          5    1    3    3  501    0 -0.42857796539E+02  0.22109381187E+01 -0.32120044054E+02  0.53603975614E+02  0.10000000000E+00 0. -1.
         -5    1    3    3    0  501  0.36815815324E+02  0.50276166437E+02  0.56806011225E+02  0.84320994307E+02  0.10000000000E+00 0. -1.
         21    1    1    2  504  502  0.60419812148E+01 -0.52487104556E+02  0.97004397951E+03  0.97148171566E+03  0.00000000000E+00 0. -1.
<mgrwt>
<rscale>  1 0.13569783E+03</rscale>
<asrwt>0</asrwt>
<pdfrwt beam="1">  1       21 0.16185665E+00 0.13569783E+03</pdfrwt>
<pdfrwt beam="2">  1       21 0.88212884E-02 0.13569783E+03</pdfrwt>
<totfact> 0.25713825E+04</totfact>
</mgrwt>
</event>
<event>
 6    1  0.4216855E-002  0.1373373E+03  0.7546771E-02  0.1216957E+00
         21   -1    0    0  503  502  0.00000000000E+00  0.00000000000E+00  0.24059786062E+04  0.24059786062E+04  0.00000000000E+00 0.  1.
         21   -1    0    0  504  503 -0.00000000000E+00 -0.00000000000E+00 -0.41458969597E+01  0.41458969597E+01  0.00000000000E+00 0.  1.
         25    2    1    2    0    0 -0.10609724167E+02  0.55899860192E+02  0.14137931289E+04  0.14204480040E+04  0.12499664077E+03 0.  0.
          5    1    3    3  501    0  0.43352611892E+02  0.46916987827E+02  0.39022346277E+03  0.39541751807E+03  0.10000000000E+00 0. -1.
         -5    1    3    3    0  501 -0.53962336058E+02  0.89828723650E+01  0.10235696661E+04  0.10250304860E+04  0.10000000000E+00 0. -1.
         21    1    1    2  504  502  0.10609724167E+02 -0.55899860192E+02  0.98803958029E+03  0.98967649908E+03  0.00000000000E+00 0.  1.
<mgrwt>
<rscale>  1 0.13733725E+03</rscale>
<asrwt>0</asrwt>
<pdfrwt beam="1">  1       21 0.37014944E+00 0.13733725E+03</pdfrwt>
<pdfrwt beam="2">  1       21 0.63783222E-03 0.13733725E+03</pdfrwt>
<totfact> 0.10761309E+05</totfact>
</mgrwt>
</event>
<event>
 6    1  0.4216855E-002  0.1374592E+03  0.7546771E-02  0.1216789E+00
         21   -1    0    0  503  502  0.00000000000E+00  0.00000000000E+00  0.19070771527E+02  0.19070771527E+02  0.00000000000E+00 0. -1.
         21   -1    0    0  504  503 -0.00000000000E+00 -0.00000000000E+00 -0.56995908662E+03  0.56995908662E+03  0.00000000000E+00 0. -1.
         25    2    1    2    0    0 -0.49993717813E+02  0.27758161069E+02 -0.47191959701E+03  0.49153141835E+03  0.12500056743E+03 0.  0.
          5    1    3    3  501    0 -0.91678207442E+02  0.20690408274E+02 -0.35391186078E+03  0.36617837445E+03  0.10000000000E+00 0.  1.
         -5    1    3    3    0  501  0.41684489630E+02  0.70677527948E+01 -0.11800773622E+03  0.12535304390E+03  0.10000000000E+00 0.  1.
         21    1    1    2  504  502  0.49993717813E+02 -0.27758161069E+02 -0.78968718086E+02  0.97498439796E+02  0.00000000000E+00 0.  1.
<mgrwt>
<rscale>  1 0.13745919E+03</rscale>
<asrwt>0</asrwt>
<pdfrwt beam="1">  1       21 0.29339647E-02 0.13745919E+03</pdfrwt>
<pdfrwt beam="2">  1       21 0.87686018E-01 0.13745919E+03</pdfrwt>
<totfact> 0.73742029E+05</totfact>
</mgrwt>
</event>
<event>
 6    1  0.4216855E-002  0.1325393E+03  0.7546771E-02  0.1223736E+00
         21   -1    0    0  504  502  0.00000000000E+00  0.00000000000E+00  0.28763754675E+03  0.28763754675E+03  0.00000000000E+00 0. -1.
         21   -1    0    0  502  503 -0.00000000000E+00 -0.00000000000E+00 -0.15554633809E+03  0.15554633809E+03  0.00000000000E+00 0. -1.
         25    2    1    2    0    0  0.36495193280E+01 -0.43920059159E+02 -0.12509377467E+03  0.18225016482E+03  0.12499751809E+03 0.  0.
          5    1    3    3  501    0  0.21056991051E+02  0.34294074753E+02 -0.81826038894E+02  0.91186572895E+02  0.10000000000E+00 0.  1.
         -5    1    3    3    0  501 -0.17407471723E+02 -0.78214133912E+02 -0.43267735779E+02  0.91063591928E+02  0.10000000000E+00 0.  1.
         21    1    1    2  504  503 -0.36495193280E+01  0.43920059159E+02  0.25718498333E+03  0.26093372001E+03  0.00000000000E+00 0. -1.
<mgrwt>
<rscale>  1 0.13253932E+03</rscale>
<asrwt>0</asrwt>
<pdfrwt beam="1">  1       21 0.44251930E-01 0.13253932E+03</pdfrwt>
<pdfrwt beam="2">  1       21 0.23930206E-01 0.13253932E+03</pdfrwt>
<totfact> 0.82786312E+04</totfact>
</mgrwt>
</event>
<event>
 6    1  0.4216855E-002  0.1459326E+03  0.7546771E-02  0.1205562E+00
         21   -1    0    0  503  502  0.00000000000E+00  0.00000000000E+00  0.55545835483E+03  0.55545835483E+03  0.00000000000E+00 0. -1.
         21   -1    0    0  504  503 -0.00000000000E+00 -0.00000000000E+00 -0.16706309963E+03  0.16706309963E+03  0.00000000000E+00 0. -1.
         25    2    1    2    0    0 -0.43936482289E+02 -0.61154097659E+02 -0.13195881368E+03  0.19674717290E+03  0.12500433353E+03 0.  0.
          5    1    3    3  501    0 -0.36217050715E+02  0.11835823905E+02  0.77956379541E+01  0.38891431718E+02  0.10000000000E+00 0. -1.
         -5    1    3    3    0  501 -0.77194315740E+01 -0.72989921563E+02 -0.13975445163E+03  0.15785574119E+03  0.10000000000E+00 0. -1.
         21    1    1    2  504  502  0.43936482289E+02  0.61154097659E+02  0.52035406889E+03  0.52577428155E+03  0.00000000000E+00 0. -1.
<mgrwt>
<rscale>  1 0.14593259E+03</rscale>
<asrwt>0</asrwt>
<pdfrwt beam="1">  1       21 0.85455130E-01 0.14593259E+03</pdfrwt>
<pdfrwt beam="2">  1       21 0.25702016E-01 0.14593259E+03</pdfrwt>
<totfact> 0.17540014E+04</totfact>
</mgrwt>
</event>
<event>
 6    1  0.4216855E-002  0.1262882E+03  0.7546771E-02  0.1233070E+00
         21   -1    0    0  504  502  0.00000000000E+00  0.00000000000E+00  0.12780225631E+04  0.12780225631E+04  0.00000000000E+00 0.  1.
         21   -1    0    0  502  503 -0.00000000000E+00 -0.00000000000E+00 -0.99393336835E+01  0.99393336835E+01  0.00000000000E+00 0.  1.
         25    2    1    2    0    0 -0.17581419429E+01 -0.17905121047E+02  0.39508075483E+03  0.41477405613E+03  0.12500012153E+03 0.  0.
          5    1    3    3  501    0  0.25030940045E+02 -0.62816917808E+02  0.15573488824E+03  0.16978185574E+03  0.10000000000E+00 0.  1.
         -5    1    3    3    0  501 -0.26789081988E+02  0.44911796760E+02  0.23934586658E+03  0.24499220039E+03  0.10000000000E+00 0.  1.
         21    1    1    2  504  503  0.17581419429E+01  0.17905121047E+02  0.87300247454E+03  0.87318784061E+03  0.00000000000E+00 0.  1.
<mgrwt>
<rscale>  1 0.12628822E+03</rscale>
<asrwt>0</asrwt>
<pdfrwt beam="1">  1       21 0.19661873E+00 0.12628822E+03</pdfrwt>
<pdfrwt beam="2">  1       21 0.15291293E-02 0.12628822E+03</pdfrwt>
<totfact> 0.27691460E+05</totfact>
</mgrwt>
</event>
<event>
 6    1  0.4216855E-002  0.1326186E+03  0.7546771E-02  0.1223621E+00
         21   -1    0    0  503  502  0.00000000000E+00  0.00000000000E+00  0.14864038875E+03  0.14864038875E+03  0.00000000000E+00 0. -1.
         21   -1    0    0  504  503 -0.00000000000E+00 -0.00000000000E+00 -0.12244115607E+04  0.12244115607E+04  0.00000000000E+00 0. -1.
         25    2    1    2    0    0  0.24290812152E+02 -0.37201664485E+02 -0.12174079646E+04  0.12246100806E+04  0.12495475128E+03 0.  0.
          5    1    3    3  501    0  0.57011523427E+02 -0.53284060472E+02 -0.10668606180E+04  0.10697107521E+04  0.10000000000E+00 0.  1.
         -5    1    3    3    0  501 -0.32720711274E+02  0.16082395986E+02 -0.15054734658E+03  0.15489932850E+03  0.10000000000E+00 0.  1.
         21    1    1    2  504  502 -0.24290812152E+02  0.37201664485E+02  0.14163679265E+03  0.14844186885E+03  0.00000000000E+00 0. -1.
<mgrwt>
<rscale>  1 0.13261862E+03</rscale>
<asrwt>0</asrwt>
<pdfrwt beam="1">  1       21 0.22867751E-01 0.13261862E+03</pdfrwt>
<pdfrwt beam="2">  1       21 0.18837102E+00 0.13261862E+03</pdfrwt>
<totfact> 0.30659329E+03</totfact>
</mgrwt>
</event>
<event>
 6    1  0.4216855E-002  0.1282763E+03  0.7546771E-02  0.1230036E+00
         21   -1    0    0  504  502  0.00000000000E+00  0.00000000000E+00  0.81746425754E+03  0.81746425754E+03  0.00000000000E+00 0. -1.
         21   -1    0    0  502  503 -0.00000000000E+00 -0.00000000000E+00 -0.76348762483E+01  0.76348762483E+01  0.00000000000E+00 0. -1.
         25    2    1    2    0    0 -0.27482203687E+02  0.86323670349E+01  0.69289356285E+03  0.70466751454E+03  0.12500010932E+03 0.  0.
          5    1    3    3  501    0 -0.28351835290E+02  0.54216536889E+02  0.18767663114E+03  0.19739753623E+03  0.10000000000E+00 0.  1.
         -5    1    3    3    0  501  0.86963160257E+00 -0.45584169854E+02  0.50521693172E+03  0.50726997831E+03  0.10000000000E+00 0.  1.
         21    1    1    2  504  503  0.27482203687E+02 -0.86323670349E+01  0.11693581844E+03  0.12043161925E+03  0.00000000000E+00 0. -1.
<mgrwt>
<rscale>  1 0.12827633E+03</rscale>
<asrwt>0</asrwt>
<pdfrwt beam="1">  1       21 0.12576366E+00 0.12827633E+03</pdfrwt>
<pdfrwt beam="2">  1       21 0.11745970E-02 0.12827633E+03</pdfrwt>
<totfact> 0.13714232E+06</totfact>
</mgrwt>
</event>
<event>
 6    1  0.4216855E-002  0.1300918E+03  0.7546771E-02  0.1227320E+00
         21   -1    0    0  503  502  0.00000000000E+00  0.00000000000E+00  0.15307354380E+03  0.15307354380E+03  0.00000000000E+00 0. -1.
         21   -1    0    0  504  503 -0.00000000000E+00 -0.00000000000E+00 -0.45086151089E+02  0.45086151089E+02  0.00000000000E+00 0. -1.
         25    2    1    2    0    0  0.10981944134E+02  0.34345524908E+02  0.84653112790E+02  0.15520964486E+03  0.12499466458E+03 0.  0.
          5    1    3    3  501    0  0.27422813351E+02  0.77973332333E+02  0.62304430319E+02  0.10350702046E+03  0.10000000000E+00 0. -1.
         -5    1    3    3    0  501 -0.16440869217E+02 -0.43627807425E+02  0.22348682471E+02  0.51702624397E+02  0.10000000000E+00 0. -1.
         21    1    1    2  504  502 -0.10981944134E+02 -0.34345524908E+02  0.23334279917E+02  0.42950050028E+02  0.00000000000E+00 0. -1.
<mgrwt>
<rscale>  1 0.13009183E+03</rscale>
<asrwt>0</asrwt>
<pdfrwt beam="1">  1       21 0.23549776E-01 0.13009183E+03</pdfrwt>
<pdfrwt beam="2">  1       21 0.69363310E-02 0.13009183E+03</pdfrwt>
<totfact> 0.25872558E+06</totfact>
</mgrwt>
</event>
<event>
 6    1  0.4216855E-002  0.1259743E+03  0.7546771E-02  0.1233554E+00
         21   -1    0    0  504  502  0.00000000000E+00  0.00000000000E+00  0.53118677726E+03  0.53118677726E+03  0.00000000000E+00 0. -1.
         21   -1    0    0  502  503 -0.00000000000E+00 -0.00000000000E+00 -0.13371006570E+02  0.13371006570E+02  0.00000000000E+00 0. -1.
         25    2    1    2    0    0  0.13845464648E+02 -0.72531137781E+01  0.28966607480E+03  0.31587331062E+03  0.12500083569E+03 0.  0.
          5    1    3    3  501    0  0.47684004305E+02  0.37280459168E+02  0.20989412195E+03  0.21844713166E+03  0.10000000000E+00 0.  1.
         -5    1    3    3    0  501 -0.33838539657E+02 -0.44533572946E+02  0.79771952850E+02  0.97426178961E+02  0.10000000000E+00 0.  1.
         21    1    1    2  504  503 -0.13845464648E+02  0.72531137781E+01  0.22814969589E+03  0.22868447321E+03  0.00000000000E+00 0. -1.
<mgrwt>
<rscale>  1 0.12597426E+03</rscale>
<asrwt>0</asrwt>
<pdfrwt beam="1">  1       21 0.81721026E-01 0.12597426E+03</pdfrwt>
<pdfrwt beam="2">  1       21 0.20570783E-02 0.12597426E+03</pdfrwt>
<totfact> 0.15408634E+06</totfact>
</mgrwt>
</event>
<event>
 6    1  0.4216855E-002  0.1283678E+03  0.7546771E-02  0.1229898E+00
         21   -1    0    0  504  502  0.00000000000E+00  0.00000000000E+00  0.46519122605E+02  0.46519122605E+02  0.00000000000E+00 0.  1.
         21   -1    0    0  502  503 -0.00000000000E+00 -0.00000000000E+00 -0.14797867856E+03  0.14797867856E+03  0.00000000000E+00 0.  1.
         25    2    1    2    0    0 -0.38385909015E+01  0.28973464718E+02 -0.10393156301E+03  0.16516680635E+03  0.12499643073E+03 0.  0.
          5    1    3    3  501    0 -0.49120783788E+02 -0.19437782970E+02 -0.16293765475E+02  0.55282688069E+02  0.10000000000E+00 0. -1.
         -5    1    3    3    0  501  0.45282192887E+02  0.48411247688E+02 -0.87637797530E+02  0.10988411828E+03  0.10000000000E+00 0. -1.
         21    1    1    2  504  503  0.38385909015E+01 -0.28973464718E+02  0.24720070492E+01  0.29330994813E+02  0.00000000000E+00 0. -1.
<mgrwt>
<rscale>  1 0.12836785E+03</rscale>
<asrwt>0</asrwt>
<pdfrwt beam="1">  1       21 0.71567881E-02 0.12836785E+03</pdfrwt>
<pdfrwt beam="2">  1       21 0.22765951E-01 0.12836785E+03</pdfrwt>
<totfact> 0.26118657E+06</totfact>
</mgrwt>
</event>
<event>
 6    1  0.4216855E-002  0.1350057E+03  0.7546771E-02  0.1220212E+00
         21   -1    0    0  504  502  0.00000000000E+00  0.00000000000E+00  0.13899314636E+02  0.13899314636E+02  0.00000000000E+00 0.  1.
         21   -1    0    0  502  503 -0.00000000000E+00 -0.00000000000E+00 -0.67782926631E+03  0.67782926631E+03  0.00000000000E+00 0.  1.
         25    2    1    2    0    0 -0.44919611882E+02 -0.24151356692E+02 -0.55884963076E+03  0.57492561264E+03  0.12500196282E+03 0.  0.
          5    1    3    3  501    0  0.30813292304E+02  0.17868433547E+02 -0.70849195168E+02  0.79299169958E+02  0.10000000000E+00 0.  1.
         -5    1    3    3    0  501 -0.75732904186E+02 -0.42019790239E+02 -0.48800043559E+03  0.49562644268E+03  0.10000000000E+00 0.  1.
         21    1    1    2  504  503  0.44919611882E+02  0.24151356692E+02 -0.10508032091E+03  0.11680296830E+03  0.00000000000E+00 0.  1.
<mgrwt>
<rscale>  1 0.13500574E+03</rscale>
<asrwt>0</asrwt>
<pdfrwt beam="1">  1       21 0.21383564E-02 0.13500574E+03</pdfrwt>
<pdfrwt beam="2">  1       21 0.10428141E+00 0.13500574E+03</pdfrwt>
<totfact> 0.82580852E+05</totfact>
</mgrwt>
</event>
<event>
 6    1  0.4216855E-002  0.1269231E+03  0.7546771E-02  0.1232094E+00
         21   -1    0    0  503  502  0.00000000000E+00  0.00000000000E+00  0.96223224927E+02  0.96223224927E+02  0.00000000000E+00 0.  1.
         21   -1    0    0  504  503 -0.00000000000E+00 -0.00000000000E+00 -0.58696317736E+02  0.58696317736E+02  0.00000000000E+00 0.  1.
         25    2    1    2    0    0 -0.29310573118E+01  0.21810690660E+02  0.24253140453E+02  0.12921953863E+03  0.12500070807E+03 0.  0.
          5    1    3    3  501    0  0.40181748339E+02 -0.27525575408E+02  0.38601385728E+02  0.62147463192E+02  0.10000000000E+00 0. -1.
         -5    1    3    3    0  501 -0.43112805650E+02  0.49336266069E+02 -0.14348245275E+02  0.67072075435E+02  0.10000000000E+00 0. -1.
         21    1    1    2  504  502  0.29310573118E+01 -0.21810690660E+02  0.13273766738E+02  0.25700004036E+02  0.00000000000E+00 0.  1.
<mgrwt>
<rscale>  1 0.12692310E+03</rscale>
<asrwt>0</asrwt>
<pdfrwt beam="1">  1       21 0.14803573E-01 0.12692310E+03</pdfrwt>
<pdfrwt beam="2">  1       21 0.90302028E-02 0.12692310E+03</pdfrwt>
<totfact> 0.38504495E+06</totfact>
</mgrwt>
</event>
<event>
 6    1  0.4216855E-002  0.1268336E+03  0.7546771E-02  0.1232231E+00
         21   -1    0    0  504  502  0.00000000000E+00  0.00000000000E+00  0.25565013940E+03  0.25565013940E+03  0.00000000000E+00 0.  1.
         21   -1    0    0  502  503 -0.00000000000E+00 -0.00000000000E+00 -0.23162859393E+02  0.23162859393E+02  0.00000000000E+00 0.  1.
         25    2    1    2    0    0 -0.21000877596E+02 -0.44892388833E+01  0.16577759054E+03  0.20873181163E+03  0.12500227812E+03 0.  0.
          5    1    3    3  501    0 -0.30442823018E+02  0.51313131777E+02  0.43020909919E+02  0.73556860022E+02  0.10000000000E+00 0. -1.
         -5    1    3    3    0  501  0.94419454230E+01 -0.55802370660E+02  0.12275668062E+03  0.13517495161E+03  0.10000000000E+00 0. -1.
         21    1    1    2  504  503  0.21000877596E+02  0.44892388833E+01  0.66709689465E+02  0.70081187162E+02  0.00000000000E+00 0.  1.
<mgrwt>
<rscale>  1 0.12683359E+03</rscale>
<asrwt>0</asrwt>
<pdfrwt beam="1">  1       21 0.39330789E-01 0.12683359E+03</pdfrwt>
<pdfrwt beam="2">  1       21 0.35635170E-02 0.12683359E+03</pdfrwt>
<totfact> 0.29355998E+06</totfact>
</mgrwt>
</event>
<event>
 6    1  0.4216855E-002  0.1271601E+03  0.7546771E-02  0.1231732E+00
         21   -1    0    0  504  502  0.00000000000E+00  0.00000000000E+00  0.16238388253E+03  0.16238388253E+03  0.00000000000E+00 0.  1.
         21   -1    0    0  502  503 -0.00000000000E+00 -0.00000000000E+00 -0.43642140084E+02  0.43642140084E+02  0.00000000000E+00 0.  1.
         25    2    1    2    0    0  0.20150218544E+02 -0.11722875208E+02  0.55722784404E+02  0.13883341749E+03  0.12500492790E+03 0.  0.
          5    1    3    3  501    0  0.50278904566E+02  0.19209086546E+02 -0.15085531422E+02  0.55897589470E+02  0.10000000000E+00 0.  1.
         -5    1    3    3    0  501 -0.30128686022E+02 -0.30931961754E+02  0.70808315826E+02  0.82935828021E+02  0.10000000000E+00 0.  1.
         21    1    1    2  504  503 -0.20150218544E+02  0.11722875208E+02  0.63018958045E+02  0.67192605126E+02  0.00000000000E+00 0.  1.
<mgrwt>
<rscale>  1 0.12716009E+03</rscale>
<asrwt>0</asrwt>
<pdfrwt beam="1">  1       21 0.24982136E-01 0.12716009E+03</pdfrwt>
<pdfrwt beam="2">  1       21 0.67141755E-02 0.12716009E+03</pdfrwt>
<totfact> 0.24453892E+06</totfact>
</mgrwt>
</event>
<event>
 6    1  0.4216855E-002  0.1263501E+03  0.7546771E-02  0.1232974E+00
         21   -1    0    0  504  502  0.00000000000E+00  0.00000000000E+00  0.69895966166E+03  0.69895966166E+03  0.00000000000E+00 0. -1.
         21   -1    0    0  502  503 -0.00000000000E+00 -0.00000000000E+00 -0.75340186557E+01  0.75340186557E+01  0.00000000000E+00 0. -1.
         25    2    1    2    0    0 -0.68105908434E+01 -0.17104173423E+02  0.61910107964E+03  0.63186272587E+03  0.12500168252E+03 0.  0.
          5    1    3    3  501    0 -0.32074604584E+02 -0.20509065600E+02  0.53368918562E+02  0.65556490903E+02  0.10000000000E+00 0. -1.
         -5    1    3    3    0  501  0.25264013740E+02  0.34048921770E+01  0.56573216108E+03  0.56630623496E+03  0.10000000000E+00 0. -1.
         21    1    1    2  504  503  0.68105908434E+01  0.17104173423E+02  0.72324563367E+02  0.74630954451E+02  0.00000000000E+00 0. -1.
<mgrwt>
<rscale>  1 0.12635014E+03</rscale>
<asrwt>0</asrwt>
<pdfrwt beam="1">  1       21 0.10753220E+00 0.12635014E+03</pdfrwt>
<pdfrwt beam="2">  1       21 0.11590803E-02 0.12635014E+03</pdfrwt>
<totfact> 0.20455690E+06</totfact>
</mgrwt>
</event>
<event>
 6    1  0.4216855E-002  0.1877250E+03  0.7546771E-02  0.1160529E+00
         21   -1    0    0  503  502  0.00000000000E+00  0.00000000000E+00  0.11055782178E+04  0.11055782178E+04  0.00000000000E+00 0.  1.
         21   -1    0    0  504  503 -0.00000000000E+00 -0.00000000000E+00 -0.69012418721E+03  0.69012418721E+03  0.00000000000E+00 0. -1.
         25    2    1    2    0    0 -0.77706306758E+02 -0.11657936226E+03 -0.67278368108E+03  0.69848304002E+03  0.12494662001E+03 0.  0.
          5    1    3    3  501    0 -0.83627071914E+02 -0.99120955719E+02 -0.66650977618E+03  0.67900938341E+03  0.10000000000E+00 0. -1.
         -5    1    3    3    0  501  0.59207651562E+01 -0.17458406536E+02 -0.62739048986E+01  0.19473656603E+02  0.10000000000E+00 0. -1.
         21    1    1    2  504  502  0.77706306758E+02  0.11657936226E+03  0.10882377117E+04  0.10972193650E+04  0.00000000000E+00 0.  1.
<mgrwt>
<rscale>  1 0.18772500E+03</rscale>
<asrwt>0</asrwt>
<pdfrwt beam="1">  1       21 0.17008896E+00 0.18772500E+03</pdfrwt>
<pdfrwt beam="2">  1       21 0.10617295E+00 0.18772500E+03</pdfrwt>
<totfact> 0.15260094E+02</totfact>
</mgrwt>
</event>
<event>
 6    1  0.4216855E-002  0.1356372E+03  0.7546771E-02  0.1219323E+00
         21   -1    0    0  504  502  0.00000000000E+00  0.00000000000E+00  0.14838124687E+03  0.14838124687E+03  0.00000000000E+00 0.  1.
         21   -1    0    0  502  503 -0.00000000000E+00 -0.00000000000E+00 -0.10216176269E+03  0.10216176269E+03  0.00000000000E+00 0.  1.
         25    2    1    2    0    0  0.46021130772E+02  0.25576877393E+02 -0.46943932339E+02  0.14353112559E+03  0.12500132037E+03 0.  0.
          5    1    3    3  501    0 -0.22609948169E+02  0.54910645835E+02 -0.98869812013E+01  0.60200923411E+02  0.10000000000E+00 0. -1.
         -5    1    3    3    0  501  0.68631078941E+02 -0.29333768442E+02 -0.37056951137E+02  0.83330202179E+02  0.10000000000E+00 0. -1.
         21    1    1    2  504  503 -0.46021130772E+02 -0.25576877393E+02  0.93163416519E+02  0.10701188398E+03  0.00000000000E+00 0.  1.
<mgrwt>
<rscale>  1 0.13563720E+03</rscale>
<asrwt>0</asrwt>
<pdfrwt beam="1">  1       21 0.22827884E-01 0.13563720E+03</pdfrwt>
<pdfrwt beam="2">  1       21 0.15717194E-01 0.13563720E+03</pdfrwt>
<totfact> 0.65186309E+05</totfact>
</mgrwt>
</event>
<event>
 6    1  0.4216855E-002  0.1259771E+03  0.7546771E-02  0.1233550E+00
         21   -1    0    0  503  502  0.00000000000E+00  0.00000000000E+00  0.89471387418E+01  0.89471387418E+01  0.00000000000E+00 0. -1.
         21   -1    0    0  504  503 -0.00000000000E+00 -0.00000000000E+00 -0.64965786187E+03  0.64965786187E+03  0.00000000000E+00 0. -1.
         25    2    1    2    0    0 -0.15452783890E+02  0.19897624326E+01 -0.62010492238E+03  0.63277194603E+03  0.12500989257E+03 0.  0.
          5    1    3    3  501    0 -0.32066744963E+00 -0.20626654759E+02 -0.11616176192E+02  0.23675034604E+02  0.10000000000E+00 0.  1.
         -5    1    3    3    0  501 -0.15132116441E+02  0.22616417191E+02 -0.60848874618E+03  0.60909691143E+03  0.10000000000E+00 0.  1.
         21    1    1    2  504  502  0.15452783890E+02 -0.19897624326E+01 -0.20605800754E+02  0.25833054585E+02  0.00000000000E+00 0. -1.
<mgrwt>
<rscale>  1 0.12597707E+03</rscale>
<asrwt>0</asrwt>
<pdfrwt beam="1">  1       21 0.13764827E-02 0.12597707E+03</pdfrwt>
<pdfrwt beam="2">  1       21 0.99947375E-01 0.12597707E+03</pdfrwt>
<totfact> 0.18509099E+06</totfact>
</mgrwt>
</event>
<event>
 6    1  0.4216855E-002  0.1266096E+03  0.7546771E-02  0.1232575E+00
         21   -1    0    0  503  502  0.00000000000E+00  0.00000000000E+00  0.23548957170E+03  0.23548957170E+03  0.00000000000E+00 0. -1.
         21   -1    0    0  504  503 -0.00000000000E+00 -0.00000000000E+00 -0.23093345979E+02  0.23093345979E+02  0.00000000000E+00 0. -1.
         25    2    1    2    0    0 -0.12995468111E+02 -0.15350042382E+02  0.17337204684E+03  0.21468083880E+03  0.12500195970E+03 0.  0.
          5    1    3    3  501    0  0.13091361152E+02  0.30004314338E+02 -0.87513358363E+00  0.32747801063E+02  0.10000000000E+00 0. -1.
         -5    1    3    3    0  501 -0.26086829263E+02 -0.45354356720E+02  0.17424718042E+03  0.18193303773E+03  0.10000000000E+00 0. -1.
         21    1    1    2  504  502  0.12995468111E+02  0.15350042382E+02  0.39024178891E+02  0.43902078888E+02  0.00000000000E+00 0. -1.
<mgrwt>
<rscale>  1 0.12660962E+03</rscale>
<asrwt>0</asrwt>
<pdfrwt beam="1">  1       21 0.36229163E-01 0.12660962E+03</pdfrwt>
<pdfrwt beam="2">  1       21 0.35528226E-02 0.12660962E+03</pdfrwt>
<totfact> 0.34716366E+06</totfact>
</mgrwt>
</event>
<event>
 6    1  0.4216855E-002  0.1412378E+03  0.7546771E-02  0.1211673E+00
         21   -1    0    0  504  502  0.00000000000E+00  0.00000000000E+00  0.20690836737E+03  0.20690836737E+03  0.00000000000E+00 0.  1.
         21   -1    0    0  502  503 -0.00000000000E+00 -0.00000000000E+00 -0.21769816929E+03  0.21769816929E+03  0.00000000000E+00 0.  1.
         25    2    1    2    0    0  0.65749546457E+02 -0.15350417857E+00 -0.18825861587E+03  0.23534955172E+03  0.12500031449E+03 0.  0.
          5    1    3    3  501    0  0.15799847436E+02 -0.35426604996E+02 -0.16568808535E+03  0.17016824365E+03  0.10000000000E+00 0.  1.
         -5    1    3    3    0  501  0.49949699021E+02  0.35273100818E+02 -0.22570530520E+02  0.65181308069E+02  0.10000000000E+00 0.  1.
         21    1    1    2  504  503 -0.65749546457E+02  0.15350417857E+00  0.17746881395E+03  0.18925698494E+03  0.00000000000E+00 0.  1.
<mgrwt>
<rscale>  1 0.14123776E+03</rscale>
<asrwt>0</asrwt>
<pdfrwt beam="1">  1       21 0.31832056E-01 0.14123776E+03</pdfrwt>
<pdfrwt beam="2">  1       21 0.33492026E-01 0.14123776E+03</pdfrwt>
<totfact> 0.83221059E+04</totfact>
</mgrwt>
</event>
<event>
 6    1  0.4216855E-002  0.1269262E+03  0.7546771E-02  0.1232089E+00
         21   -1    0    0  503  502  0.00000000000E+00  0.00000000000E+00  0.20327991665E+03  0.20327991665E+03  0.00000000000E+00 0.  1.
         21   -1    0    0  504  503 -0.00000000000E+00 -0.00000000000E+00 -0.42849733093E+02  0.42849733093E+02  0.00000000000E+00 0.  1.
         25    2    1    2    0    0 -0.18519583009E+02  0.11894399422E+02  0.54834614079E+02  0.13826456742E+03  0.12500321599E+03 0.  0.
          5    1    3    3  501    0 -0.12057820591E+02  0.52495263213E+02  0.75108598181E+02  0.92425403532E+02  0.10000000000E+00 0.  1.
         -5    1    3    3    0  501 -0.64617624184E+01 -0.40600863792E+02 -0.20273984102E+02  0.45839163884E+02  0.10000000000E+00 0.  1.
         21    1    1    2  504  502  0.18519583009E+02 -0.11894399422E+02  0.10559556947E+03  0.10786508233E+03  0.00000000000E+00 0.  1.
<mgrwt>
<rscale>  1 0.12692618E+03</rscale>
<asrwt>0</asrwt>
<pdfrwt beam="1">  1       21 0.31273833E-01 0.12692618E+03</pdfrwt>
<pdfrwt beam="2">  1       21 0.65922668E-02 0.12692618E+03</pdfrwt>
<totfact> 0.16417688E+06</totfact>
</mgrwt>
</event>
<event>
 6    1  0.4216855E-002  0.1379527E+03  0.7546771E-02  0.1216111E+00
         21   -1    0    0  504  502  0.00000000000E+00  0.00000000000E+00  0.36508938056E+03  0.36508938056E+03  0.00000000000E+00 0.  1.
         21   -1    0    0  502  503 -0.00000000000E+00 -0.00000000000E+00 -0.26501146545E+02  0.26501146545E+02  0.00000000000E+00 0.  1.
         25    2    1    2    0    0 -0.98422101389E+01 -0.57530113237E+02  0.24915972824E+03  0.28480082407E+03  0.12499742471E+03 0.  0.
          5    1    3    3  501    0 -0.36160382151E+02 -0.86831115135E+02  0.20548858399E+03  0.22599288472E+03  0.10000000000E+00 0. -1.
         -5    1    3    3    0  501  0.26318172012E+02  0.29301001898E+02  0.43671144244E+02  0.58807939344E+02  0.10000000000E+00 0. -1.
         21    1    1    2  504  503  0.98422101389E+01  0.57530113237E+02  0.89428505772E+02  0.10678970303E+03  0.00000000000E+00 0.  1.
<mgrwt>
<rscale>  1 0.13795267E+03</rscale>
<asrwt>0</asrwt>
<pdfrwt beam="1">  1       21 0.56167593E-01 0.13795267E+03</pdfrwt>
<pdfrwt beam="2">  1       21 0.40770997E-02 0.13795267E+03</pdfrwt>
<totfact> 0.11342016E+06</totfact>
</mgrwt>
</event>
<event>
 6    1  0.4216855E-002  0.1285134E+03  0.7546771E-02  0.1229678E+00
         21   -1    0    0  503  502  0.00000000000E+00  0.00000000000E+00  0.10245302715E+03  0.10245302715E+03  0.00000000000E+00 0. -1.
         21   -1    0    0  504  503 -0.00000000000E+00 -0.00000000000E+00 -0.11985938069E+03  0.11985938069E+03  0.00000000000E+00 0. -1.
         25    2    1    2    0    0  0.29565083303E+02  0.37549596561E+01 -0.81119240013E+02  0.15197375719E+03  0.12500999121E+03 0.  0.
          5    1    3    3  501    0  0.62815988266E+02 -0.32360228838E+02 -0.74087380148E+02  0.10238155444E+03  0.10000000000E+00 0. -1.
         -5    1    3    3    0  501 -0.33250904963E+02  0.36115188495E+02 -0.70318598647E+01  0.49592202754E+02  0.10000000000E+00 0. -1.
         21    1    1    2  504  502 -0.29565083303E+02 -0.37549596561E+01  0.63712886471E+02  0.70338650650E+02  0.00000000000E+00 0. -1.
<mgrwt>
<rscale>  1 0.12851339E+03</rscale>
<asrwt>0</asrwt>
<pdfrwt beam="1">  1       21 0.15762004E-01 0.12851339E+03</pdfrwt>
<pdfrwt beam="2">  1       21 0.18439905E-01 0.12851339E+03</pdfrwt>
<totfact> 0.96338912E+05</totfact>
</mgrwt>
</event>
<event>
 6    1  0.4216855E-002  0.1287543E+03  0.7546771E-02  0.1229316E+00
         21   -1    0    0  503  502  0.00000000000E+00  0.00000000000E+00  0.57281307849E+03  0.57281307849E+03  0.00000000000E+00 0. -1.
         21   -1    0    0  504  503 -0.00000000000E+00 -0.00000000000E+00 -0.66062933072E+02  0.66062933072E+02  0.00000000000E+00 0. -1.
         25    2    1    2    0    0  0.22968364993E+02 -0.20623070954E+02 -0.24140744360E+01  0.12877694312E+03  0.12499926591E+03 0.  0.
          5    1    3    3  501    0 -0.23741837223E+02 -0.55524886718E+02 -0.26169159029E+02  0.65814305162E+02  0.10000000000E+00 0. -1.
         -5    1    3    3    0  501  0.46710202215E+02  0.34901815764E+02  0.23755084593E+02  0.62962637958E+02  0.10000000000E+00 0. -1.
         21    1    1    2  504  502 -0.22968364993E+02  0.20623070954E+02  0.50916421986E+03  0.51009906845E+03  0.00000000000E+00 0. -1.
<mgrwt>
<rscale>  1 0.12875431E+03</rscale>
<asrwt>0</asrwt>
<pdfrwt beam="1">  1       21 0.88125086E-01 0.12875431E+03</pdfrwt>
<pdfrwt beam="2">  1       21 0.10163529E-01 0.12875431E+03</pdfrwt>
<totfact> 0.89393767E+04</totfact>
</mgrwt>
</event>
<event>
 6    1  0.4216855E-002  0.1283559E+03  0.7546771E-02  0.1229916E+00
         21   -1    0    0  503  502  0.00000000000E+00  0.00000000000E+00  0.34394954964E+03  0.34394954964E+03  0.00000000000E+00 0. -1.
         21   -1    0    0  504  503 -0.00000000000E+00 -0.00000000000E+00 -0.18374205209E+02  0.18374205209E+02  0.00000000000E+00 0. -1.
         25    2    1    2    0    0  0.25637284474E+02  0.13883115591E+02  0.24411337962E+03  0.27580171740E+03  0.12500093582E+03 0.  0.
          5    1    3    3  501    0 -0.69706100631E+01  0.64533251494E+02  0.15700577160E+03  0.16989394418E+03  0.10000000000E+00 0.  1.
         -5    1    3    3    0  501  0.32607894537E+02 -0.50650135903E+02  0.87107608018E+02  0.10590777322E+03  0.10000000000E+00 0.  1.
         21    1    1    2  504  502 -0.25637284474E+02 -0.13883115591E+02  0.81461964811E+02  0.86522037451E+02  0.00000000000E+00 0. -1.
<mgrwt>
<rscale>  1 0.12835593E+03</rscale>
<asrwt>0</asrwt>
<pdfrwt beam="1">  1       21 0.52915311E-01 0.12835593E+03</pdfrwt>
<pdfrwt beam="2">  1       21 0.28268011E-02 0.12835593E+03</pdfrwt>
<totfact> 0.23488810E+06</totfact>
</mgrwt>
</event>
<event>
 6    1  0.4216855E-002  0.1928624E+03  0.7546771E-02  0.1155905E+00
         21   -1    0    0  503  502  0.00000000000E+00  0.00000000000E+00  0.36851188911E+02  0.36851188911E+02  0.00000000000E+00 0. -1.
         21   -1    0    0  504  503 -0.00000000000E+00 -0.00000000000E+00 -0.89661489991E+03  0.89661489991E+03  0.00000000000E+00 0. -1.
         25    2    1    2    0    0  0.13108731668E+03  0.66217039277E+02 -0.31587914356E+03  0.37010208253E+03  0.12500934873E+03 0.  0.
          5    1    3    3  501    0  0.68742854388E+02  0.73367066388E+02 -0.28069667255E+03  0.29815925014E+03  0.10000000000E+00 0.  1.
         -5    1    3    3    0  501  0.62344462295E+02 -0.71500271118E+01 -0.35182471008E+02  0.71942832393E+02  0.10000000000E+00 0.  1.
         21    1    1    2  504  502 -0.13108731668E+03 -0.66217039277E+02 -0.54388456744E+03  0.56336400629E+03  0.00000000000E+00 0. -1.
<mgrwt>
<rscale>  1 0.19286243E+03</rscale>
<asrwt>0</asrwt>
<pdfrwt beam="1">  1       21 0.56694133E-02 0.19286243E+03</pdfrwt>
<pdfrwt beam="2">  1       21 0.13794076E+00 0.19286243E+03</pdfrwt>
<totfact> 0.80756294E+04</totfact>
</mgrwt>
</event>
<event>
 6    1  0.4216855E-002  0.1278803E+03  0.7546771E-02  0.1230635E+00
         21   -1    0    0  504  502  0.00000000000E+00  0.00000000000E+00  0.16839910384E+03  0.16839910384E+03  0.00000000000E+00 0.  1.
         21   -1    0    0  502  503 -0.00000000000E+00 -0.00000000000E+00 -0.10244360267E+03  0.10244360267E+03  0.00000000000E+00 0.  1.
         25    2    1    2    0    0 -0.28140607019E+01  0.26816795830E+02 -0.60553250812E+02  0.14149231491E+03  0.12500527797E+03 0.  0.
          5    1    3    3  501    0 -0.24701944548E+02  0.20343715555E+02 -0.94957645315E+02  0.10020487628E+03  0.10000000000E+00 0.  1.
         -5    1    3    3    0  501  0.21887883846E+02  0.64730802744E+01  0.34404394503E+02  0.41287438630E+02  0.10000000000E+00 0.  1.
         21    1    1    2  504  503  0.28140607019E+01 -0.26816795830E+02  0.12650875199E+03  0.12935039160E+03  0.00000000000E+00 0.  1.
<mgrwt>
<rscale>  1 0.12788033E+03</rscale>
<asrwt>0</asrwt>
<pdfrwt beam="1">  1       21 0.25907555E-01 0.12788033E+03</pdfrwt>
<pdfrwt beam="2">  1       21 0.15760554E-01 0.12788033E+03</pdfrwt>
<totfact> 0.51110959E+05</totfact>
</mgrwt>
</event>
<event>
 6    1  0.4216855E-002  0.1300187E+03  0.7546771E-02  0.1227428E+00
         21   -1    0    0  503  502  0.00000000000E+00  0.00000000000E+00  0.45200218426E+02  0.45200218426E+02  0.00000000000E+00 0. -1.
         21   -1    0    0  504  503 -0.00000000000E+00 -0.00000000000E+00 -0.16021620919E+03  0.16021620919E+03  0.00000000000E+00 0. -1.
         25    2    1    2    0    0  0.35513737926E+02 -0.43106625887E+01 -0.10785884395E+03  0.16893311439E+03  0.12500023810E+03 0.  0.
          5    1    3    3  501    0 -0.16793602694E+02  0.10792330448E+02  0.21042765171E+02  0.29005300447E+02  0.10000000000E+00 0.  1.
         -5    1    3    3    0  501  0.52307340620E+02 -0.15102993037E+02 -0.12890160912E+03  0.13992781394E+03  0.10000000000E+00 0.  1.
         21    1    1    2  504  502 -0.35513737926E+02  0.43106625887E+01 -0.71571468172E+01  0.36483313226E+02  0.00000000000E+00 0. -1.
<mgrwt>
<rscale>  1 0.13001872E+03</rscale>
<asrwt>0</asrwt>
<pdfrwt beam="1">  1       21 0.69538797E-02 0.13001872E+03</pdfrwt>
<pdfrwt beam="2">  1       21 0.24648648E-01 0.13001872E+03</pdfrwt>
<totfact> 0.23640612E+06</totfact>
</mgrwt>
</event>
<event>
 6    1  0.4216855E-002  0.1262216E+03  0.7546771E-02  0.1233172E+00
         21   -1    0    0  503  502  0.00000000000E+00  0.00000000000E+00  0.21530801484E+03  0.21530801484E+03  0.00000000000E+00 0.  1.
         21   -1    0    0  504  503 -0.00000000000E+00 -0.00000000000E+00 -0.24281919762E+02  0.24281919762E+02  0.00000000000E+00 0.  1.
         25    2    1    2    0    0  0.74536352716E+01  0.15872908657E+02  0.15830049857E+03  0.20246217444E+03  0.12499751327E+03 0.  0.
          5    1    3    3  501    0 -0.41871329820E+02  0.11018597939E+02  0.14474014670E+03  0.15107725781E+03  0.10000000000E+00 0. -1.
         -5    1    3    3    0  501  0.49324965092E+02  0.48543107179E+01  0.13560351872E+02  0.51384916627E+02  0.10000000000E+00 0. -1.
         21    1    1    2  504  502 -0.74536352716E+01 -0.15872908657E+02  0.32725596507E+02  0.37127760163E+02  0.00000000000E+00 0.  1.
<mgrwt>
<rscale>  1 0.12622157E+03</rscale>
<asrwt>0</asrwt>
<pdfrwt beam="1">  1       21 0.33124309E-01 0.12622157E+03</pdfrwt>
<pdfrwt beam="2">  1       21 0.37356801E-02 0.12622157E+03</pdfrwt>
<totfact> 0.38084250E+06</totfact>
</mgrwt>
</event>
<event>
 6    1  0.4216855E-002  0.1282307E+03  0.7546771E-02  0.1230105E+00
         21   -1    0    0  504  502  0.00000000000E+00  0.00000000000E+00  0.63021488899E+02  0.63021488899E+02  0.00000000000E+00 0.  1.
         21   -1    0    0  502  503 -0.00000000000E+00 -0.00000000000E+00 -0.12870161292E+03  0.12870161292E+03  0.00000000000E+00 0.  1.
         25    2    1    2    0    0 -0.28607143240E+02 -0.62050723860E+00 -0.87925021317E+02  0.15547963165E+03  0.12499741122E+03 0.  0.
          5    1    3    3  501    0  0.10344958033E+02  0.24159249711E+02 -0.10347861363E+03  0.10676385616E+03  0.10000000000E+00 0. -1.
         -5    1    3    3    0  501 -0.38952101273E+02 -0.24779756950E+02  0.15553592314E+02  0.48715775493E+02  0.10000000000E+00 0. -1.
         21    1    1    2  504  503  0.28607143240E+02  0.62050723860E+00  0.22244897299E+02  0.36243470162E+02  0.00000000000E+00 0.  1.
<mgrwt>
<rscale>  1 0.12823068E+03</rscale>
<asrwt>0</asrwt>
<pdfrwt beam="1">  1       21 0.96956137E-02 0.12823068E+03</pdfrwt>
<pdfrwt beam="2">  1       21 0.19800248E-01 0.12823068E+03</pdfrwt>
<totfact> 0.20031837E+06</totfact>
</mgrwt>
</event>
<event>
 6    1  0.4216855E-002  0.1260502E+03  0.7546771E-02  0.1233437E+00
         21   -1    0    0  503  502  0.00000000000E+00  0.00000000000E+00  0.54828179742E+02  0.54828179742E+02  0.00000000000E+00 0.  1.
         21   -1    0    0  504  503 -0.00000000000E+00 -0.00000000000E+00 -0.11994912593E+03  0.11994912593E+03  0.00000000000E+00 0.  1.
         25    2    1    2    0    0  0.16059869142E+02 -0.23545804415E+01 -0.82772186183E+02  0.15079752837E+03  0.12500078525E+03 0.  0.
          5    1    3    3  501    0  0.96448875207E+01 -0.10314186364E+02 -0.11557705187E+03  0.11643655446E+03  0.10000000000E+00 0.  1.
         -5    1    3    3    0  501  0.64149816217E+01  0.79596059222E+01  0.32804865686E+02  0.34360973914E+02  0.10000000000E+00 0.  1.
         21    1    1    2  504  502 -0.16059869142E+02  0.23545804415E+01  0.17651239995E+02  0.23979777299E+02  0.00000000000E+00 0.  1.
<mgrwt>
<rscale>  1 0.12605023E+03</rscale>
<asrwt>0</asrwt>
<pdfrwt beam="1">  1       21 0.84351047E-02 0.12605023E+03</pdfrwt>
<pdfrwt beam="2">  1       21 0.18453711E-01 0.12605023E+03</pdfrwt>
<totfact> 0.29028801E+06</totfact>
</mgrwt>
</event>
<event>
 6    1  0.4216855E-002  0.1263999E+03  0.7546771E-02  0.1232897E+00
         21   -1    0    0  504  502  0.00000000000E+00  0.00000000000E+00  0.88997824093E+02  0.88997824093E+02  0.00000000000E+00 0. -1.
         21   -1    0    0  502  503 -0.00000000000E+00 -0.00000000000E+00 -0.82242686937E+02  0.82242686937E+02  0.00000000000E+00 0. -1.
         25    2    1    2    0    0 -0.15747816979E+02  0.10387616774E+02 -0.30013687955E+02  0.12991445603E+03  0.12498419140E+03 0.  0.
          5    1    3    3  501    0 -0.21432481025E+02  0.65568118995E+02 -0.52992534516E+01  0.69185414348E+02  0.10000000000E+00 0. -1.
         -5    1    3    3    0  501  0.56846640459E+01 -0.55180502220E+02 -0.24714434504E+02  0.60729041681E+02  0.10000000000E+00 0. -1.
         21    1    1    2  504  503  0.15747816979E+02 -0.10387616774E+02  0.36768825111E+02  0.41326055001E+02  0.00000000000E+00 0. -1.
<mgrwt>
<rscale>  1 0.12639994E+03</rscale>
<asrwt>0</asrwt>
<pdfrwt beam="1">  1       21 0.13691973E-01 0.12639994E+03</pdfrwt>
<pdfrwt beam="2">  1       21 0.12652721E-01 0.12639994E+03</pdfrwt>
<totfact> 0.24487537E+06</totfact>
</mgrwt>
</event>
<event>
 6    1  0.4216855E-002  0.1261601E+03  0.7546771E-02  0.1233267E+00
         21   -1    0    0  504  502  0.00000000000E+00  0.00000000000E+00  0.34224571787E+01  0.34224571787E+01  0.00000000000E+00 0.  1.
         21   -1    0    0  502  503 -0.00000000000E+00 -0.00000000000E+00 -0.23515651616E+04  0.23515651616E+04  0.00000000000E+00 0.  1.
         25    2    1    2    0    0  0.17053236196E+02 -0.30450349383E+00 -0.23070357798E+04  0.23104827333E+04  0.12500186245E+03 0.  0.
          5    1    3    3  501    0  0.64302509808E+02  0.29015749242E+02 -0.12782502245E+04  0.12801954432E+04  0.10000000000E+00 0. -1.
         -5    1    3    3    0  501 -0.47249273612E+02 -0.29320252736E+02 -0.10287855553E+04  0.10302872900E+04  0.10000000000E+00 0. -1.
         21    1    1    2  504  503 -0.17053236196E+02  0.30450349383E+00 -0.41106924598E+02  0.44504885541E+02  0.00000000000E+00 0.  1.
<mgrwt>
<rscale>  1 0.12616010E+03</rscale>
<asrwt>0</asrwt>
<pdfrwt beam="1">  1       21 0.52653151E-03 0.12616010E+03</pdfrwt>
<pdfrwt beam="2">  1       21 0.36177950E+00 0.12616010E+03</pdfrwt>
<totfact> 0.16463902E+05</totfact>
</mgrwt>
</event>
<event>
 6    1  0.4216855E-002  0.1282480E+03  0.7546771E-02  0.1230079E+00
         21   -1    0    0  504  502  0.00000000000E+00  0.00000000000E+00  0.33221980924E+03  0.33221980924E+03  0.00000000000E+00 0. -1.
         21   -1    0    0  502  503 -0.00000000000E+00 -0.00000000000E+00 -0.18635959674E+02  0.18635959674E+02  0.00000000000E+00 0. -1.
         25    2    1    2    0    0  0.25545123111E+02 -0.13024983511E+02  0.24549087870E+03  0.27697169626E+03  0.12500138197E+03 0.  0.
          5    1    3    3  501    0  0.56366937109E+01  0.16987779427E+02 -0.89380047115E+01  0.20006371337E+02  0.10000000000E+00 0. -1.
         -5    1    3    3    0  501  0.19908429400E+02 -0.30012762938E+02  0.25442888341E+03  0.25696532492E+03  0.10000000000E+00 0. -1.
         21    1    1    2  504  503 -0.25545123111E+02  0.13024983511E+02  0.68092970865E+02  0.73884072651E+02  0.00000000000E+00 0. -1.
<mgrwt>
<rscale>  1 0.12824800E+03</rscale>
<asrwt>0</asrwt>
<pdfrwt beam="1">  1       21 0.51110735E-01 0.12824800E+03</pdfrwt>
<pdfrwt beam="2">  1       21 0.28670710E-02 0.12824800E+03</pdfrwt>
<totfact> 0.24664230E+06</totfact>
</mgrwt>
</event>
<event>
 6    1  0.4216855E-002  0.1286508E+03  0.7546771E-02  0.1229472E+00
         21   -1    0    0  504  502  0.00000000000E+00  0.00000000000E+00  0.33339750328E+02  0.33339750328E+02  0.00000000000E+00 0. -1.
         21   -1    0    0  502  503 -0.00000000000E+00 -0.00000000000E+00 -0.18998823861E+03  0.18998823861E+03  0.00000000000E+00 0. -1.
         25    2    1    2    0    0 -0.24671172581E+02 -0.17786166584E+02 -0.12989637949E+03  0.18282255963E+03  0.12500401765E+03 0.  0.
          5    1    3    3  501    0 -0.73333641278E+02 -0.21117948064E+02 -0.57603689737E+02  0.95613731989E+02  0.10000000000E+00 0. -1.
         -5    1    3    3    0  501  0.48662468697E+02  0.33317814802E+01 -0.72292689752E+02  0.87208827644E+02  0.10000000000E+00 0. -1.
         21    1    1    2  504  503  0.24671172581E+02  0.17786166584E+02 -0.26752108791E+02  0.40505429304E+02  0.00000000000E+00 0. -1.
<mgrwt>
<rscale>  1 0.12865076E+03</rscale>
<asrwt>0</asrwt>
<pdfrwt beam="1">  1       21 0.51291924E-02 0.12865076E+03</pdfrwt>
<pdfrwt beam="2">  1       21 0.29228960E-01 0.12865076E+03</pdfrwt>
<totfact> 0.28617215E+06</totfact>
</mgrwt>
</event>
<event>
 6    1  0.4216855E-002  0.1745155E+03  0.7546771E-02  0.1173219E+00
         21   -1    0    0  504  502  0.00000000000E+00  0.00000000000E+00  0.96016197340E+01  0.96016197340E+01  0.00000000000E+00 0. -1.
         21   -1    0    0  502  503 -0.00000000000E+00 -0.00000000000E+00 -0.23530669805E+04  0.23530669805E+04  0.00000000000E+00 0.  1.
         25    2    1    2    0    0 -0.11481812615E+03 -0.40576126886E+02 -0.11776818033E+04  0.11905419317E+04  0.12500414879E+03 0.  0.
          5    1    3    3  501    0 -0.89043967155E+02  0.33820590605E+02 -0.59824788816E+03  0.60578313457E+03  0.10000000000E+00 0.  1.
         -5    1    3    3    0  501 -0.25774158990E+02 -0.74396717491E+02 -0.57943391511E+03  0.58475879713E+03  0.10000000000E+00 0.  1.
         21    1    1    2  504  503  0.11481812615E+03  0.40576126886E+02 -0.11657835575E+04  0.11721266685E+04  0.00000000000E+00 0.  1.
<mgrwt>
<rscale>  1 0.17451550E+03</rscale>
<asrwt>0</asrwt>
<pdfrwt beam="1">  1       21 0.14771733E-02 0.17451550E+03</pdfrwt>
<pdfrwt beam="2">  1       21 0.36201005E+00 0.17451550E+03</pdfrwt>
<totfact> 0.30462132E+04</totfact>
</mgrwt>
</event>
<event>
 6    1  0.4216855E-002  0.1603402E+03  0.7546771E-02  0.1188313E+00
         21   -1    0    0  503  502  0.00000000000E+00  0.00000000000E+00  0.96204066387E+02  0.96204066387E+02  0.00000000000E+00 0.  1.
         21   -1    0    0  504  503 -0.00000000000E+00 -0.00000000000E+00 -0.21747982587E+03  0.21747982587E+03  0.00000000000E+00 0.  1.
         25    2    1    2    0    0  0.55271187978E+02  0.83835959372E+02 -0.13840980876E+03  0.21181658667E+03  0.12500247566E+03 0.  0.
          5    1    3    3  501    0  0.52629201108E+02  0.76068617750E+02 -0.21950932726E+02  0.95069032094E+02  0.10000000000E+00 0.  1.
         -5    1    3    3    0  501  0.26419868701E+01  0.77673416222E+01 -0.11645887604E+03  0.11674755457E+03  0.10000000000E+00 0.  1.
         21    1    1    2  504  502 -0.55271187978E+02 -0.83835959372E+02  0.17134049278E+02  0.10186730559E+03  0.00000000000E+00 0.  1.
<mgrwt>
<rscale>  1 0.16034024E+03</rscale>
<asrwt>0</asrwt>
<pdfrwt beam="1">  1       21 0.14800626E-01 0.16034024E+03</pdfrwt>
<pdfrwt beam="2">  1       21 0.33458435E-01 0.16034024E+03</pdfrwt>
<totfact> 0.34826387E+05</totfact>
</mgrwt>
</event>
<event>
 6    1  0.4216855E-002  0.1259960E+03  0.7546771E-02  0.1233521E+00
         21   -1    0    0  504  502  0.00000000000E+00  0.00000000000E+00  0.86573842465E+02  0.86573842465E+02  0.00000000000E+00 0.  1.
         21   -1    0    0  502  503 -0.00000000000E+00 -0.00000000000E+00 -0.58267560606E+02  0.58267560606E+02  0.00000000000E+00 0.  1.
         25    2    1    2    0    0  0.15582094268E+02  0.28844316945E+01  0.22651622376E+02  0.12801592293E+03  0.12499543560E+03 0.  0.
          5    1    3    3  501    0  0.51036652542E+02  0.44047724671E+02  0.28862420691E+02  0.73334789013E+02  0.10000000000E+00 0.  1.
         -5    1    3    3    0  501 -0.35454558274E+02 -0.41163292977E+02 -0.62107983141E+01  0.54681133920E+02  0.10000000000E+00 0.  1.
         21    1    1    2  504  503 -0.15582094268E+02 -0.28844316945E+01  0.56546594830E+01  0.16825480137E+02  0.00000000000E+00 0.  1.
<mgrwt>
<rscale>  1 0.12599595E+03</rscale>
<asrwt>0</asrwt>
<pdfrwt beam="1">  1       21 0.13319053E-01 0.12599595E+03</pdfrwt>
<pdfrwt beam="2">  1       21 0.89642401E-02 0.12599595E+03</pdfrwt>
<totfact> 0.47113881E+06</totfact>
</mgrwt>
</event>
<event>
 6    1  0.4216855E-002  0.1266469E+03  0.7546771E-02  0.1232518E+00
         21   -1    0    0  503  502  0.00000000000E+00  0.00000000000E+00  0.15003611994E+03  0.15003611994E+03  0.00000000000E+00 0.  1.
         21   -1    0    0  504  503 -0.00000000000E+00 -0.00000000000E+00 -0.43276167502E+02  0.43276167502E+02  0.00000000000E+00 0.  1.
         25    2    1    2    0    0 -0.19823261585E+02 -0.44469804406E+01  0.55691087823E+02  0.13835078939E+03  0.12500682512E+03 0.  0.
          5    1    3    3  501    0 -0.53371972435E+02  0.36369877412E+02  0.56048112921E+02  0.85514539036E+02  0.10000000000E+00 0. -1.
         -5    1    3    3    0  501  0.33548710850E+02 -0.40816857853E+02 -0.35702509776E+00  0.52836250355E+02  0.10000000000E+00 0. -1.
         21    1    1    2  504  502  0.19823261585E+02  0.44469804406E+01  0.51068864617E+02  0.54961498053E+02  0.00000000000E+00 0.  1.
<mgrwt>
<rscale>  1 0.12664693E+03</rscale>
<asrwt>0</asrwt>
<pdfrwt beam="1">  1       21 0.23082480E-01 0.12664693E+03</pdfrwt>
<pdfrwt beam="2">  1       21 0.66578720E-02 0.12664693E+03</pdfrwt>
<totfact> 0.28783023E+06</totfact>
</mgrwt>
</event>
<event>
 6    1  0.4216855E-002  0.1342725E+03  0.7546771E-02  0.1221250E+00
         21   -1    0    0  504  502  0.00000000000E+00  0.00000000000E+00  0.36031252480E+04  0.36031252480E+04  0.00000000000E+00 0. -1.
         21   -1    0    0  502  503 -0.00000000000E+00 -0.00000000000E+00 -0.23311938056E+01  0.23311938056E+01  0.00000000000E+00 0. -1.
         25    2    1    2    0    0 -0.48143597447E+02 -0.92596619101E+01  0.26384649159E+04  0.26418792950E+04  0.12500219972E+03 0.  0.
          5    1    3    3  501    0  0.74937849818E+01  0.44762170712E+02  0.51411298621E+03  0.51611237277E+03  0.10000000000E+00 0.  1.
         -5    1    3    3    0  501 -0.55637382429E+02 -0.54021832622E+02  0.21243519297E+04  0.21257669223E+04  0.10000000000E+00 0.  1.
         21    1    1    2  504  503  0.48143597447E+02  0.92596619101E+01  0.96232913832E+03  0.96357714677E+03  0.00000000000E+00 0. -1.
<mgrwt>
<rscale>  1 0.13427247E+03</rscale>
<asrwt>0</asrwt>
<pdfrwt beam="1">  1       21 0.55432250E+00 0.13427247E+03</pdfrwt>
<pdfrwt beam="2">  1       21 0.35864808E-03 0.13427247E+03</pdfrwt>
<totfact> 0.15549181E+04</totfact>
</mgrwt>
</event>
<event>
 6    1  0.4216855E-002  0.1346437E+03  0.7546771E-02  0.1220724E+00
         21   -1    0    0  503  502  0.00000000000E+00  0.00000000000E+00  0.21044183530E+02  0.21044183530E+02  0.00000000000E+00 0. -1.
         21   -1    0    0  504  503 -0.00000000000E+00 -0.00000000000E+00 -0.53385024993E+03  0.53385024993E+03  0.00000000000E+00 0. -1.
         25    2    1    2    0    0 -0.49087089778E+02 -0.96917892256E+01 -0.47045187915E+03  0.48934025481E+03  0.12500176487E+03 0.  0.
          5    1    3    3  501    0  0.32384646018E+02 -0.16157187277E+02 -0.27669555177E+03  0.27905242943E+03  0.10000000000E+00 0. -1.
         -5    1    3    3    0  501 -0.81471735796E+02  0.64653980511E+01 -0.19375632738E+03  0.21028782538E+03  0.10000000000E+00 0. -1.
         21    1    1    2  504  502  0.49087089778E+02  0.96917892256E+01 -0.42354187257E+02  0.65554178658E+02  0.00000000000E+00 0. -1.
<mgrwt>
<rscale>  1 0.13464366E+03</rscale>
<asrwt>0</asrwt>
<pdfrwt beam="1">  1       21 0.32375667E-02 0.13464366E+03</pdfrwt>
<pdfrwt beam="2">  1       21 0.82130807E-01 0.13464366E+03</pdfrwt>
<totfact> 0.72749478E+05</totfact>
</mgrwt>
</event>
<event>
 6    1  0.4216855E-002  0.1281018E+03  0.7546771E-02  0.1230300E+00
         21   -1    0    0  504  502  0.00000000000E+00  0.00000000000E+00  0.13544920351E+02  0.13544920351E+02  0.00000000000E+00 0.  1.
         21   -1    0    0  502  503 -0.00000000000E+00 -0.00000000000E+00 -0.11279776572E+04  0.11279776572E+04  0.00000000000E+00 0.  1.
         25    2    1    2    0    0  0.21180703895E+00 -0.27984088539E+02 -0.11043832986E+04  0.11117879969E+04  0.12500770327E+03 0.  0.
          5    1    3    3  501    0  0.19215609028E+02  0.36618590473E+02 -0.16908632974E+03  0.17406997933E+03  0.10000000000E+00 0.  1.
         -5    1    3    3    0  501 -0.19003801989E+02 -0.64602679012E+02 -0.93529696883E+03  0.93771801760E+03  0.10000000000E+00 0.  1.
         21    1    1    2  504  503 -0.21180703895E+00  0.27984088539E+02 -0.10049438239E+02  0.29734580584E+02  0.00000000000E+00 0.  1.
<mgrwt>
<rscale>  1 0.12810183E+03</rscale>
<asrwt>0</asrwt>
<pdfrwt beam="1">  1       21 0.20838336E-02 0.12810183E+03</pdfrwt>
<pdfrwt beam="2">  1       21 0.17353505E+00 0.12810183E+03</pdfrwt>
<totfact> 0.23857980E+05</totfact>
</mgrwt>
</event>
<event>
 6    1  0.4216855E-002  0.1300164E+03  0.7546771E-02  0.1227431E+00
         21   -1    0    0  504  502  0.00000000000E+00  0.00000000000E+00  0.43614221355E+03  0.43614221355E+03  0.00000000000E+00 0.  1.
         21   -1    0    0  502  503 -0.00000000000E+00 -0.00000000000E+00 -0.19337974122E+02  0.19337974122E+02  0.00000000000E+00 0.  1.
         25    2    1    2    0    0  0.22690243315E+02  0.27672202527E+02  0.22080066419E+03  0.25623661954E+03  0.12499469570E+03 0.  0.
          5    1    3    3  501    0  0.72759498401E+02  0.51411322150E+01  0.10237398630E+03  0.12570130834E+03  0.10000000000E+00 0. -1.
         -5    1    3    3    0  501 -0.50069255087E+02  0.22531070312E+02  0.11842667789E+03  0.13053531120E+03  0.10000000000E+00 0. -1.
         21    1    1    2  504  503 -0.22690243315E+02 -0.27672202527E+02  0.19600357523E+03  0.19924356812E+03  0.00000000000E+00 0.  1.
<mgrwt>
<rscale>  1 0.13001643E+03</rscale>
<asrwt>0</asrwt>
<pdfrwt beam="1">  1       21 0.67098795E-01 0.13001643E+03</pdfrwt>
<pdfrwt beam="2">  1       21 0.29750733E-02 0.13001643E+03</pdfrwt>
<totfact> 0.13055548E+06</totfact>
</mgrwt>
</event>
<event>
 6    1  0.4216855E-002  0.1399921E+03  0.7546771E-02  0.1213340E+00
         21   -1    0    0  504  502  0.00000000000E+00  0.00000000000E+00  0.79050320831E+02  0.79050320831E+02  0.00000000000E+00 0. -1.
         21   -1    0    0  502  503 -0.00000000000E+00 -0.00000000000E+00 -0.22817112092E+03  0.22817112092E+03  0.00000000000E+00 0. -1.
         25    2    1    2    0    0  0.18454761908E+02 -0.60261677551E+02 -0.18707185590E+03  0.23365289783E+03  0.12500299746E+03 0.  0.
          5    1    3    3  501    0  0.64993231621E+02 -0.18705378798E+02 -0.14005319825E+03  0.15552787433E+03  0.10000000000E+00 0.  1.
         -5    1    3    3    0  501 -0.46538469713E+02 -0.41556298753E+02 -0.47018657650E+02  0.78125023497E+02  0.10000000000E+00 0.  1.
         21    1    1    2  504  503 -0.18454761908E+02  0.60261677551E+02  0.37951055811E+02  0.73568543927E+02  0.00000000000E+00 0. -1.
<mgrwt>
<rscale>  1 0.13999213E+03</rscale>
<asrwt>0</asrwt>
<pdfrwt beam="1">  1       21 0.12161588E-01 0.13999213E+03</pdfrwt>
<pdfrwt beam="2">  1       21 0.35103249E-01 0.13999213E+03</pdfrwt>
<totfact> 0.45187050E+05</totfact>
</mgrwt>
</event>
<event>
 6    1  0.4216855E-002  0.1260817E+03  0.7546771E-02  0.1233388E+00
         21   -1    0    0  503  502  0.00000000000E+00  0.00000000000E+00  0.11320603044E+04  0.11320603044E+04  0.00000000000E+00 0.  1.
         21   -1    0    0  504  503 -0.00000000000E+00 -0.00000000000E+00 -0.44913998512E+01  0.44913998512E+01  0.00000000000E+00 0.  1.
         25    2    1    2    0    0  0.16345095221E+02  0.22473949989E+01  0.98928969480E+03  0.99729168569E+03  0.12499757269E+03 0.  0.
          5    1    3    3  501    0  0.65294552984E+02 -0.23761430569E+02  0.61655399847E+03  0.62045695037E+03  0.10000000000E+00 0.  1.
         -5    1    3    3    0  501 -0.48949457764E+02  0.26008825568E+02  0.37273569633E+03  0.37683473532E+03  0.10000000000E+00 0.  1.
         21    1    1    2  504  502 -0.16345095221E+02 -0.22473949989E+01  0.13827920978E+03  0.13926001860E+03  0.00000000000E+00 0.  1.
<mgrwt>
<rscale>  1 0.12608174E+03</rscale>
<asrwt>0</asrwt>
<pdfrwt beam="1">  1       21 0.17416290E+00 0.12608174E+03</pdfrwt>
<pdfrwt beam="2">  1       21 0.69098549E-03 0.12608174E+03</pdfrwt>
<totfact> 0.13600695E+06</totfact>
</mgrwt>
</event>
<event>
 6    1  0.4216855E-002  0.1792701E+03  0.7546771E-02  0.1168511E+00
         21   -1    0    0  503  502  0.00000000000E+00  0.00000000000E+00  0.16655487563E+03  0.16655487563E+03  0.00000000000E+00 0. -1.
         21   -1    0    0  504  503 -0.00000000000E+00 -0.00000000000E+00 -0.21021559887E+03  0.21021559887E+03  0.00000000000E+00 0. -1.
         25    2    1    2    0    0 -0.44800054974E+02  0.12053190854E+03 -0.13038432595E+03  0.22167060613E+03  0.12491116550E+03 0.  0.
          5    1    3    3  501    0 -0.35066301398E+02  0.72354186693E+02  0.20287021924E+01  0.80429468842E+02  0.10000000000E+00 0.  1.
         -5    1    3    3    0  501 -0.97337535762E+01  0.48177721849E+02 -0.13241302814E+03  0.14124113729E+03  0.10000000000E+00 0.  1.
         21    1    1    2  504  502  0.44800054974E+02 -0.12053190854E+03  0.86723602711E+02  0.15509986837E+03  0.00000000000E+00 0. -1.
<mgrwt>
<rscale>  1 0.17927015E+03</rscale>
<asrwt>0</asrwt>
<pdfrwt beam="1">  1       21 0.25623827E-01 0.17927015E+03</pdfrwt>
<pdfrwt beam="2">  1       21 0.32340861E-01 0.17927015E+03</pdfrwt>
<totfact> 0.13351957E+05</totfact>
</mgrwt>
</event>
<event>
 6    1  0.4216855E-002  0.1469333E+03  0.7546771E-02  0.1204293E+00
         21   -1    0    0  503  502  0.00000000000E+00  0.00000000000E+00  0.76305291836E+02  0.76305291836E+02  0.00000000000E+00 0. -1.
         21   -1    0    0  504  503 -0.00000000000E+00 -0.00000000000E+00 -0.46124286203E+03  0.46124286203E+03  0.00000000000E+00 0. -1.
         25    2    1    2    0    0  0.76534316413E+02 -0.10352568330E+02 -0.42561182985E+03  0.45026085434E+03  0.12499891995E+03 0.  0.
          5    1    3    3  501    0  0.79054780026E+01 -0.14110066839E+02  0.27619366015E+01  0.16408194978E+02  0.10000000000E+00 0.  1.
         -5    1    3    3    0  501  0.68628838410E+02  0.37574985091E+01 -0.42837376645E+03  0.43385265936E+03  0.10000000000E+00 0.  1.
         21    1    1    2  504  502 -0.76534316413E+02  0.10352568330E+02  0.40674259653E+02  0.87287299524E+02  0.00000000000E+00 0. -1.
<mgrwt>
<rscale>  1 0.14693334E+03</rscale>
<asrwt>0</asrwt>
<pdfrwt beam="1">  1       21 0.11739276E-01 0.14693334E+03</pdfrwt>
<pdfrwt beam="2">  1       21 0.70960440E-01 0.14693334E+03</pdfrwt>
<totfact> 0.11166317E+05</totfact>
</mgrwt>
</event>
<event>
 6    1  0.4216855E-002  0.1349210E+03  0.7546771E-02  0.1220331E+00
         21   -1    0    0  504  502  0.00000000000E+00  0.00000000000E+00  0.19293202878E+03  0.19293202878E+03  0.00000000000E+00 0.  1.
         21   -1    0    0  502  503 -0.00000000000E+00 -0.00000000000E+00 -0.13751847427E+03  0.13751847427E+03  0.00000000000E+00 0.  1.
         25    2    1    2    0    0 -0.48747212720E+02 -0.14241222199E+02 -0.99359235285E+02  0.16755876103E+03  0.12499831040E+03 0.  0.
          5    1    3    3  501    0 -0.84161863352E+02 -0.33722780578E+02 -0.49249744083E+02  0.10317941881E+03  0.10000000000E+00 0. -1.
         -5    1    3    3    0  501  0.35414650632E+02  0.19481558379E+02 -0.50109491202E+02  0.64379342221E+02  0.10000000000E+00 0. -1.
         21    1    1    2  504  503  0.48747212720E+02  0.14241222199E+02  0.15477278979E+03  0.16289174202E+03  0.00000000000E+00 0.  1.
<mgrwt>
<rscale>  1 0.13492102E+03</rscale>
<asrwt>0</asrwt>
<pdfrwt beam="1">  1       21 0.29681851E-01 0.13492102E+03</pdfrwt>
<pdfrwt beam="2">  1       21 0.21156688E-01 0.13492102E+03</pdfrwt>
<totfact> 0.22936023E+05</totfact>
</mgrwt>
</event>
<event>
 6    1  0.4216855E-002  0.1270104E+03  0.7546771E-02  0.1231960E+00
         21   -1    0    0  504  502  0.00000000000E+00  0.00000000000E+00  0.51639768113E+03  0.51639768113E+03  0.00000000000E+00 0.  1.
         21   -1    0    0  502  503 -0.00000000000E+00 -0.00000000000E+00 -0.10974913523E+02  0.10974913523E+02  0.00000000000E+00 0.  1.
         25    2    1    2    0    0 -0.87283293480E+01 -0.20696715040E+02  0.40410141391E+03  0.42359131280E+03  0.12500843898E+03 0.  0.
          5    1    3    3  501    0 -0.57253752792E+02 -0.19684357237E+02  0.11044340126E+03  0.12594927952E+03  0.10000000000E+00 0.  1.
         -5    1    3    3    0  501  0.48525423444E+02 -0.10123578031E+01  0.29365801264E+03  0.29764203329E+03  0.10000000000E+00 0.  1.
         21    1    1    2  504  503  0.87283293480E+01  0.20696715040E+02  0.10132135370E+03  0.10378128185E+03  0.00000000000E+00 0.  1.
<mgrwt>
<rscale>  1 0.12701042E+03</rscale>
<asrwt>0</asrwt>
<pdfrwt beam="1">  1       21 0.79445778E-01 0.12701042E+03</pdfrwt>
<pdfrwt beam="2">  1       21 0.16884486E-02 0.12701042E+03</pdfrwt>
<totfact> 0.22552490E+06</totfact>
</mgrwt>
</event>
<event>
 6    1  0.4216855E-002  0.1270144E+03  0.7546771E-02  0.1231954E+00
         21   -1    0    0  503  502  0.00000000000E+00  0.00000000000E+00  0.37167743715E+03  0.37167743715E+03  0.00000000000E+00 0.  1.
         21   -1    0    0  504  503 -0.00000000000E+00 -0.00000000000E+00 -0.30017923861E+02  0.30017923861E+02  0.00000000000E+00 0.  1.
         25    2    1    2    0    0  0.18171048417E+02 -0.13285609741E+02  0.10733829447E+03  0.16629542895E+03  0.12500386315E+03 0.  0.
          5    1    3    3  501    0 -0.12640031745E+02 -0.19424266336E+02 -0.22745190797E+02  0.32471929872E+02  0.10000000000E+00 0. -1.
         -5    1    3    3    0  501  0.30811080162E+02  0.61386565951E+01  0.13008348527E+03  0.13382349907E+03  0.10000000000E+00 0. -1.
         21    1    1    2  504  502 -0.18171048417E+02  0.13285609741E+02  0.23432121882E+03  0.23539993207E+03  0.00000000000E+00 0.  1.
<mgrwt>
<rscale>  1 0.12701441E+03</rscale>
<asrwt>0</asrwt>
<pdfrwt beam="1">  1       21 0.57181141E-01 0.12701441E+03</pdfrwt>
<pdfrwt beam="2">  1       21 0.46181424E-02 0.12701441E+03</pdfrwt>
<totfact> 0.88692299E+05</totfact>
</mgrwt>
</event>
<event>
 6    1  0.4216855E-002  0.1268635E+03  0.7546771E-02  0.1232185E+00
         21   -1    0    0  503  502  0.00000000000E+00  0.00000000000E+00  0.14313028455E+02  0.14313028455E+02  0.00000000000E+00 0.  1.
         21   -1    0    0  504  503 -0.00000000000E+00 -0.00000000000E+00 -0.51812767934E+03  0.51812767934E+03  0.00000000000E+00 0. -1.
         25    2    1    2    0    0  0.79932503715E+01 -0.20196449501E+02 -0.49120940362E+03  0.50732734716E+03  0.12499028100E+03 0.  0.
          5    1    3    3  501    0  0.46641491466E+02 -0.37780785368E+01 -0.43317179036E+03  0.43569199277E+03  0.10000000000E+00 0.  1.
         -5    1    3    3    0  501 -0.38648241094E+02 -0.16418370964E+02 -0.58037613261E+02  0.71635354384E+02  0.10000000000E+00 0.  1.
         21    1    1    2  504  502 -0.79932503715E+01  0.20196449501E+02 -0.12605247269E+02  0.25113360640E+02  0.00000000000E+00 0.  1.
<mgrwt>
<rscale>  1 0.12686354E+03</rscale>
<asrwt>0</asrwt>
<pdfrwt beam="1">  1       21 0.22020043E-02 0.12686354E+03</pdfrwt>
<pdfrwt beam="2">  1       21 0.79711954E-01 0.12686354E+03</pdfrwt>
<totfact> 0.14593958E+06</totfact>
</mgrwt>
</event>
<event>
 6    1  0.4216855E-002  0.1265958E+03  0.7546771E-02  0.1232596E+00
         21   -1    0    0  504  502  0.00000000000E+00  0.00000000000E+00  0.61301821985E+02  0.61301821985E+02  0.00000000000E+00 0. -1.
         21   -1    0    0  502  503 -0.00000000000E+00 -0.00000000000E+00 -0.84286517182E+03  0.84286517182E+03  0.00000000000E+00 0. -1.
         25    2    1    2    0    0 -0.57487362919E+01 -0.19193483332E+02 -0.83632648825E+03  0.84585370972E+03  0.12500026206E+03 0.  0.
          5    1    3    3  501    0  0.93989799413E+01 -0.71233405738E+02 -0.43739200508E+03  0.44325423294E+03  0.10000000000E+00 0. -1.
         -5    1    3    3    0  501 -0.15147716233E+02  0.52039922405E+02 -0.39893448318E+03  0.40259947677E+03  0.10000000000E+00 0. -1.
         21    1    1    2  504  503  0.57487362919E+01  0.19193483332E+02  0.54763138420E+02  0.58313284087E+02  0.00000000000E+00 0. -1.
<mgrwt>
<rscale>  1 0.12659583E+03</rscale>
<asrwt>0</asrwt>
<pdfrwt beam="1">  1       21 0.94310503E-02 0.12659583E+03</pdfrwt>
<pdfrwt beam="2">  1       21 0.12967155E+00 0.12659583E+03</pdfrwt>
<totfact> 0.40735126E+04</totfact>
</mgrwt>
</event>
<event>
 6    1  0.4216855E-002  0.1286197E+03  0.7546771E-02  0.1229518E+00
         21   -1    0    0  504  502  0.00000000000E+00  0.00000000000E+00  0.52822792134E+02  0.52822792134E+02  0.00000000000E+00 0.  1.
         21   -1    0    0  502  503 -0.00000000000E+00 -0.00000000000E+00 -0.25217934714E+03  0.25217934714E+03  0.00000000000E+00 0.  1.
         25    2    1    2    0    0  0.24964657379E+02  0.17170838854E+02 -0.22897789794E+03  0.26262884837E+03  0.12499984971E+03 0.  0.
          5    1    3    3  501    0 -0.29820949517E+02  0.54519947006E+02 -0.10401524567E+03  0.12116474315E+03  0.10000000000E+00 0. -1.
         -5    1    3    3    0  501  0.54785606896E+02 -0.37349108152E+02 -0.12496265227E+03  0.14146410521E+03  0.10000000000E+00 0. -1.
         21    1    1    2  504  503 -0.24964657379E+02 -0.17170838854E+02  0.29621342932E+02  0.42373290904E+02  0.00000000000E+00 0.  1.
<mgrwt>
<rscale>  1 0.12861973E+03</rscale>
<asrwt>0</asrwt>
<pdfrwt beam="1">  1       21 0.81265835E-02 0.12861973E+03</pdfrwt>
<pdfrwt beam="2">  1       21 0.38796822E-01 0.12861973E+03</pdfrwt>
<totfact> 0.75126319E+05</totfact>
</mgrwt>
</event>
<event>
 6    1  0.4216855E-002  0.1315033E+03  0.7546771E-02  0.1225242E+00
         21   -1    0    0  504  502  0.00000000000E+00  0.00000000000E+00  0.54599255450E+03  0.54599255450E+03  0.00000000000E+00 0. -1.
         21   -1    0    0  502  503 -0.00000000000E+00 -0.00000000000E+00 -0.72739321261E+03  0.72739321261E+03  0.00000000000E+00 0. -1.
         25    2    1    2    0    0 -0.37169154839E+02 -0.16928028135E+02 -0.72067116012E+03  0.73257084631E+03  0.12500007849E+03 0.  0.
          5    1    3    3  501    0 -0.27405079940E+02 -0.64216397943E+02 -0.57222946849E+03  0.57647320734E+03  0.10000000000E+00 0.  1.
         -5    1    3    3    0  501 -0.97640748990E+01  0.47288369808E+02 -0.14844169163E+03  0.15609763897E+03  0.10000000000E+00 0.  1.
         21    1    1    2  504  503  0.37169154839E+02  0.16928028135E+02  0.53927050202E+03  0.54081492080E+03  0.00000000000E+00 0. -1.
<mgrwt>
<rscale>  1 0.13150332E+03</rscale>
<asrwt>0</asrwt>
<pdfrwt beam="1">  1       21 0.83998855E-01 0.13150332E+03</pdfrwt>
<pdfrwt beam="2">  1       21 0.11190665E+00 0.13150332E+03</pdfrwt>
<totfact> 0.83056901E+02</totfact>
</mgrwt>
</event>
<event>
 6    1  0.4216855E-002  0.1298910E+03  0.7546771E-02  0.1227618E+00
         21   -1    0    0  504  502  0.00000000000E+00  0.00000000000E+00  0.10761414500E+03  0.10761414500E+03  0.00000000000E+00 0. -1.
         21   -1    0    0  502  503 -0.00000000000E+00 -0.00000000000E+00 -0.73139031716E+02  0.73139031716E+02  0.00000000000E+00 0. -1.
         25    2    1    2    0    0  0.37425112924E+01  0.34970021352E+02 -0.22411956163E+01  0.12991031956E+03  0.12503903146E+03 0.  0.
          5    1    3    3  501    0  0.14221950231E+02  0.92065101051E+01  0.59675304574E+02  0.62033665639E+02  0.10000000000E+00 0. -1.
         -5    1    3    3    0  501 -0.10479438938E+02  0.25763511247E+02 -0.61916500190E+02  0.67876653925E+02  0.10000000000E+00 0. -1.
         21    1    1    2  504  503 -0.37425112924E+01 -0.34970021352E+02  0.36716308900E+02  0.50842857152E+02  0.00000000000E+00 0. -1.
<mgrwt>
<rscale>  1 0.12989099E+03</rscale>
<asrwt>0</asrwt>
<pdfrwt beam="1">  1       21 0.16556022E-01 0.12989099E+03</pdfrwt>
<pdfrwt beam="2">  1       21 0.11252159E-01 0.12989099E+03</pdfrwt>
<totfact> 0.21418813E+06</totfact>
</mgrwt>
</event>
<event>
 6    1  0.4216855E-002  0.1263440E+03  0.7546771E-02  0.1232984E+00
         21   -1    0    0  503  502  0.00000000000E+00  0.00000000000E+00  0.41116641123E+01  0.41116641123E+01  0.00000000000E+00 0. -1.
         21   -1    0    0  504  503 -0.00000000000E+00 -0.00000000000E+00 -0.13366689085E+04  0.13366689085E+04  0.00000000000E+00 0. -1.
         25    2    1    2    0    0  0.45114606415E+01  0.17827732458E+02 -0.10400736907E+04  0.10477194689E+04  0.12499848854E+03 0.  0.
          5    1    3    3  501    0  0.86115279472E+01  0.89628878444E+01 -0.10375588712E+04  0.10376333230E+04  0.10000000000E+00 0.  1.
         -5    1    3    3    0  501 -0.41000673057E+01  0.88648446137E+01 -0.25148194597E+01  0.10086145887E+02  0.10000000000E+00 0.  1.
         21    1    1    2  504  502 -0.45114606415E+01 -0.17827732458E+02 -0.29248355377E+03  0.29306110378E+03  0.00000000000E+00 0. -1.
<mgrwt>
<rscale>  1 0.12634399E+03</rscale>
<asrwt>0</asrwt>
<pdfrwt beam="1">  1       21 0.63256342E-03 0.12634399E+03</pdfrwt>
<pdfrwt beam="2">  1       21 0.20564147E+00 0.12634399E+03</pdfrwt>
<totfact> 0.97607353E+05</totfact>
</mgrwt>
</event>
<event>
 6    1  0.4216855E-002  0.1489987E+03  0.7546771E-02  0.1201709E+00
         21   -1    0    0  503  502  0.00000000000E+00  0.00000000000E+00  0.24064331916E+03  0.24064331916E+03  0.00000000000E+00 0.  1.
         21   -1    0    0  504  503 -0.00000000000E+00 -0.00000000000E+00 -0.55016530553E+02  0.55016530553E+02  0.00000000000E+00 0.  1.
         25    2    1    2    0    0 -0.10136835141E+02 -0.80458400862E+02  0.11785330337E+03  0.18997373427E+03  0.12499723557E+03 0.  0.
          5    1    3    3  501    0  0.50727910963E+02 -0.64536484273E+02  0.44629760133E+02  0.93435026850E+02  0.10000000000E+00 0.  1.
         -5    1    3    3    0  501 -0.60864746104E+02 -0.15921916590E+02  0.73223543236E+02  0.96538707419E+02  0.10000000000E+00 0.  1.
         21    1    1    2  504  502  0.10136835141E+02  0.80458400862E+02  0.67773485235E+02  0.10568611544E+03  0.00000000000E+00 0.  1.
<mgrwt>
<rscale>  1 0.14899872E+03</rscale>
<asrwt>0</asrwt>
<pdfrwt beam="1">  1       21 0.37022049E-01 0.14899872E+03</pdfrwt>
<pdfrwt beam="2">  1       21 0.84640818E-02 0.14899872E+03</pdfrwt>
<totfact> 0.76827124E+05</totfact>
</mgrwt>
</event>
<event>
 6    1  0.4216855E-002  0.1463108E+03  0.7546771E-02  0.1205081E+00
         21   -1    0    0  504  502  0.00000000000E+00  0.00000000000E+00  0.17286170383E+04  0.17286170383E+04  0.00000000000E+00 0.  1.
         21   -1    0    0  502  503 -0.00000000000E+00 -0.00000000000E+00 -0.72663039113E+01  0.72663039113E+01  0.00000000000E+00 0.  1.
         25    2    1    2    0    0 -0.73424563278E+02 -0.19771221739E+02  0.12325164093E+04  0.12411702283E+04  0.12499907478E+03 0.  0.
          5    1    3    3  501    0  0.33614357435E+02 -0.17818980435E+02  0.39817494619E+03  0.39998842341E+03  0.10000000000E+00 0. -1.
         -5    1    3    3    0  501 -0.10703892071E+03 -0.19522413035E+01  0.83434146315E+03  0.84118180492E+03  0.10000000000E+00 0. -1.
         21    1    1    2  504  503  0.73424563278E+02  0.19771221739E+02  0.48883432507E+03  0.49471311391E+03  0.00000000000E+00 0.  1.
<mgrwt>
<rscale>  1 0.14631075E+03</rscale>
<asrwt>0</asrwt>
<pdfrwt beam="1">  1       21 0.26594076E+00 0.14631075E+03</pdfrwt>
<pdfrwt beam="2">  1       21 0.11178943E-02 0.14631075E+03</pdfrwt>
<totfact> 0.17434818E+05</totfact>
</mgrwt>
</event>
<event>
 6    1  0.4216855E-002  0.1289303E+03  0.7546771E-02  0.1229052E+00
         21   -1    0    0  503  502  0.00000000000E+00  0.00000000000E+00  0.10565333303E+03  0.10565333303E+03  0.00000000000E+00 0. -1.
         21   -1    0    0  504  503 -0.00000000000E+00 -0.00000000000E+00 -0.93072955534E+02  0.93072955534E+02  0.00000000000E+00 0. -1.
         25    2    1    2    0    0 -0.23575125631E+02 -0.21034131808E+02 -0.42052867048E+02  0.13561517497E+03  0.12499924322E+03 0.  0.
          5    1    3    3  501    0  0.84362732522E+01 -0.19159967734E+02  0.41302140897E+02  0.46304987988E+02  0.10000000000E+00 0.  1.
         -5    1    3    3    0  501 -0.32011398884E+02 -0.18741640737E+01 -0.83355007944E+02  0.89310186983E+02  0.10000000000E+00 0.  1.
         21    1    1    2  504  502  0.23575125631E+02  0.21034131808E+02  0.54633244542E+02  0.63111113591E+02  0.00000000000E+00 0. -1.
<mgrwt>
<rscale>  1 0.12893034E+03</rscale>
<asrwt>0</asrwt>
<pdfrwt beam="1">  1       21 0.16254359E-01 0.12893034E+03</pdfrwt>
<pdfrwt beam="2">  1       21 0.14318916E-01 0.12893034E+03</pdfrwt>
<totfact> 0.14419510E+06</totfact>
</mgrwt>
</event>
<event>
 6    1  0.4216855E-002  0.1280293E+03  0.7546771E-02  0.1230410E+00
         21   -1    0    0  504  502  0.00000000000E+00  0.00000000000E+00  0.11664093950E+03  0.11664093950E+03  0.00000000000E+00 0. -1.
         21   -1    0    0  502  503 -0.00000000000E+00 -0.00000000000E+00 -0.52150349311E+02  0.52150349311E+02  0.00000000000E+00 0. -1.
         25    2    1    2    0    0  0.25335057723E+02  0.11175553345E+02  0.49181678568E+02  0.13715079391E+03  0.12499897848E+03 0.  0.
          5    1    3    3  501    0  0.35855161322E+02  0.54673125914E+02  0.62510614731E+02  0.90456233863E+02  0.10000000000E+00 0. -1.
         -5    1    3    3    0  501 -0.10520103599E+02 -0.43497572569E+02 -0.13328936163E+02  0.46694560052E+02  0.10000000000E+00 0. -1.
         21    1    1    2  504  503 -0.25335057723E+02 -0.11175553345E+02  0.15308911623E+02  0.31640494899E+02  0.00000000000E+00 0. -1.
<mgrwt>
<rscale>  1 0.12802930E+03</rscale>
<asrwt>0</asrwt>
<pdfrwt beam="1">  1       21 0.17944760E-01 0.12802930E+03</pdfrwt>
<pdfrwt beam="2">  1       21 0.80231307E-02 0.12802930E+03</pdfrwt>
<totfact> 0.33333817E+06</totfact>
</mgrwt>
</event>
<event>
 6    1  0.4216855E-002  0.1296487E+03  0.7546771E-02  0.1227978E+00
         21   -1    0    0  503  502  0.00000000000E+00  0.00000000000E+00  0.97135393667E+02  0.97135393667E+02  0.00000000000E+00 0.  1.
         21   -1    0    0  504  503 -0.00000000000E+00 -0.00000000000E+00 -0.16064777215E+03  0.16064777215E+03  0.00000000000E+00 0.  1.
         25    2    1    2    0    0  0.41503526729E+01 -0.34142488349E+02 -0.12957797844E+03  0.18330096368E+03  0.12500342335E+03 0.  0.
          5    1    3    3  501    0  0.12893498527E+02 -0.70605801255E+02 -0.12679640342E+03  0.14570092448E+03  0.10000000000E+00 0.  1.
         -5    1    3    3    0  501 -0.87431458544E+01  0.36463312906E+02 -0.27815750229E+01  0.37600039191E+02  0.10000000000E+00 0.  1.
         21    1    1    2  504  502 -0.41503526729E+01  0.34142488349E+02  0.66065599960E+02  0.74482202143E+02  0.00000000000E+00 0.  1.
<mgrwt>
<rscale>  1 0.12964872E+03</rscale>
<asrwt>0</asrwt>
<pdfrwt beam="1">  1       21 0.14943907E-01 0.12964872E+03</pdfrwt>
<pdfrwt beam="2">  1       21 0.24715042E-01 0.12964872E+03</pdfrwt>
<totfact> 0.61508478E+05</totfact>
</mgrwt>
</event>
<event>
 6    1  0.4216855E-002  0.1299911E+03  0.7546771E-02  0.1227469E+00
         21   -1    0    0  503  502  0.00000000000E+00  0.00000000000E+00  0.20765253351E+02  0.20765253351E+02  0.00000000000E+00 0. -1.
         21   -1    0    0  504  503 -0.00000000000E+00 -0.00000000000E+00 -0.42155524111E+03  0.42155524111E+03  0.00000000000E+00 0. -1.
         25    2    1    2    0    0 -0.13606769272E+02  0.32996925491E+02 -0.37859577771E+03  0.40029045495E+03  0.12499497654E+03 0.  0.
          5    1    3    3  501    0  0.27813746046E+02  0.67136270191E+01 -0.33000483949E+03  0.33124293403E+03  0.10000000000E+00 0. -1.
         -5    1    3    3    0  501 -0.41420515318E+02  0.26283298472E+02 -0.48590938217E+02  0.69047520916E+02  0.10000000000E+00 0. -1.
         21    1    1    2  504  502  0.13606769272E+02 -0.32996925491E+02 -0.22194210049E+02  0.42030039515E+02  0.00000000000E+00 0. -1.
<mgrwt>
<rscale>  1 0.12999110E+03</rscale>
<asrwt>0</asrwt>
<pdfrwt beam="1">  1       21 0.31946543E-02 0.12999110E+03</pdfrwt>
<pdfrwt beam="2">  1       21 0.64854654E-01 0.12999110E+03</pdfrwt>
<totfact> 0.12499400E+06</totfact>
</mgrwt>
</event>
<event>
 6    1  0.4216855E-002  0.1319168E+03  0.7546771E-02  0.1224639E+00
         21   -1    0    0  504  502  0.00000000000E+00  0.00000000000E+00  0.26156072098E+03  0.26156072098E+03  0.00000000000E+00 0. -1.
         21   -1    0    0  502  503 -0.00000000000E+00 -0.00000000000E+00 -0.17510623089E+03  0.17510623089E+03  0.00000000000E+00 0. -1.
         25    2    1    2    0    0 -0.38022047212E+02 -0.18178980850E+02 -0.14811394822E+03  0.19834258537E+03  0.12500355233E+03 0.  0.
          5    1    3    3  501    0 -0.82297937759E+02 -0.52025134986E+01 -0.11517833219E+03  0.14165477370E+03  0.10000000000E+00 0.  1.
         -5    1    3    3    0  501  0.44275890547E+02 -0.12976467351E+02 -0.32935616024E+02  0.56687811667E+02  0.10000000000E+00 0.  1.
         21    1    1    2  504  503  0.38022047212E+02  0.18178980850E+02  0.23456843831E+03  0.23832436650E+03  0.00000000000E+00 0. -1.
<mgrwt>
<rscale>  1 0.13191679E+03</rscale>
<asrwt>0</asrwt>
<pdfrwt beam="1">  1       21 0.40240111E-01 0.13191679E+03</pdfrwt>
<pdfrwt beam="2">  1       21 0.26939420E-01 0.13191679E+03</pdfrwt>
<totfact> 0.80135380E+04</totfact>
</mgrwt>
</event>
<event>
 6    1  0.4216855E-002  0.1339598E+03  0.7546771E-02  0.1221696E+00
         21   -1    0    0  503  502  0.00000000000E+00  0.00000000000E+00  0.57504803998E+02  0.57504803998E+02  0.00000000000E+00 0. -1.
         21   -1    0    0  504  503 -0.00000000000E+00 -0.00000000000E+00 -0.25587205430E+03  0.25587205430E+03  0.00000000000E+00 0. -1.
         25    2    1    2    0    0  0.38660586603E+02 -0.28717528746E+02 -0.22234268215E+03  0.25957947224E+03  0.12500358670E+03 0.  0.
          5    1    3    3  501    0  0.74132764591E+02  0.69497399045E+01 -0.17633060457E+03  0.19140652491E+03  0.10000000000E+00 0. -1.
         -5    1    3    3    0  501 -0.35472177989E+02 -0.35667268651E+02 -0.46012077583E+02  0.68172947331E+02  0.10000000000E+00 0. -1.
         21    1    1    2  504  502 -0.38660586603E+02  0.28717528746E+02  0.23975431852E+02  0.53797386054E+02  0.00000000000E+00 0. -1.
<mgrwt>
<rscale>  1 0.13395982E+03</rscale>
<asrwt>0</asrwt>
<pdfrwt beam="1">  1       21 0.88468929E-02 0.13395982E+03</pdfrwt>
<pdfrwt beam="2">  1       21 0.39364931E-01 0.13395982E+03</pdfrwt>
<totfact> 0.62998864E+05</totfact>
</mgrwt>
</event>
<event>
 6    1  0.4216855E-002  0.1285907E+03  0.7546771E-02  0.1229562E+00
         21   -1    0    0  503  502  0.00000000000E+00  0.00000000000E+00  0.64185343549E+01  0.64185343549E+01  0.00000000000E+00 0. -1.
         21   -1    0    0  504  503 -0.00000000000E+00 -0.00000000000E+00 -0.10673552321E+04  0.10673552321E+04  0.00000000000E+00 0. -1.
         25    2    1    2    0    0 -0.20099085349E+02  0.22666606921E+02 -0.95404725723E+03  0.96267425793E+03  0.12497123490E+03 0.  0.
          5    1    3    3  501    0 -0.68954866108E+02 -0.13768536474E+01 -0.39445860868E+03  0.40044259669E+03  0.10000000000E+00 0. -1.
         -5    1    3    3    0  501  0.48855780759E+02  0.24043460569E+02 -0.55958864855E+03  0.56223166124E+03  0.10000000000E+00 0. -1.
         21    1    1    2  504  502  0.20099085349E+02 -0.22666606921E+02 -0.10688944056E+03  0.11109950857E+03  0.00000000000E+00 0. -1.
<mgrwt>
<rscale>  1 0.12859066E+03</rscale>
<asrwt>0</asrwt>
<pdfrwt beam="1">  1       21 0.98746767E-03 0.12859066E+03</pdfrwt>
<pdfrwt beam="2">  1       21 0.16420836E+00 0.12859066E+03</pdfrwt>
<totfact> 0.91084346E+05</totfact>
</mgrwt>
</event>
<event>
 6    1  0.4216855E-002  0.1268272E+03  0.7546771E-02  0.1232241E+00
         21   -1    0    0  503  502  0.00000000000E+00  0.00000000000E+00  0.15297235738E+03  0.15297235738E+03  0.00000000000E+00 0.  1.
         21   -1    0    0  504  503 -0.00000000000E+00 -0.00000000000E+00 -0.12222316527E+03  0.12222316527E+03  0.00000000000E+00 0.  1.
         25    2    1    2    0    0  0.33452793023E+01 -0.21186982316E+02 -0.88101499323E+02  0.15442480613E+03  0.12500026981E+03 0.  0.
          5    1    3    3  501    0 -0.11867468236E+02  0.41575790912E+02 -0.77829588273E+02  0.89032791729E+02  0.10000000000E+00 0. -1.
         -5    1    3    3    0  501  0.15212747538E+02 -0.62762773228E+02 -0.10271911050E+02  0.65392014402E+02  0.10000000000E+00 0. -1.
         21    1    1    2  504  502 -0.33452793023E+01  0.21186982316E+02  0.11885069144E+03  0.12077071652E+03  0.00000000000E+00 0.  1.
<mgrwt>
<rscale>  1 0.12682723E+03</rscale>
<asrwt>0</asrwt>
<pdfrwt beam="1">  1       21 0.23534209E-01 0.12682723E+03</pdfrwt>
<pdfrwt beam="2">  1       21 0.18803564E-01 0.12682723E+03</pdfrwt>
<totfact> 0.44413719E+05</totfact>
</mgrwt>
</event>
<event>
 6    1  0.4216855E-002  0.1420257E+03  0.7546771E-02  0.1210629E+00
         21   -1    0    0  503  502  0.00000000000E+00  0.00000000000E+00  0.61801928382E+02  0.61801928382E+02  0.00000000000E+00 0.  1.
         21   -1    0    0  504  503 -0.00000000000E+00 -0.00000000000E+00 -0.25464220712E+03  0.25464220712E+03  0.00000000000E+00 0.  1.
         25    2    1    2    0    0  0.62303043422E+02  0.25743575470E+02 -0.20353487986E+03  0.24818891306E+03  0.12500755317E+03 0.  0.
          5    1    3    3  501    0  0.23979827276E+02 -0.91810379885E+01  0.10664008752E+02  0.27803860476E+02  0.10000000000E+00 0. -1.
         -5    1    3    3    0  501  0.38323216146E+02  0.34924613459E+02 -0.21419888861E+03  0.22038505259E+03  0.10000000000E+00 0. -1.
         21    1    1    2  504  502 -0.62303043422E+02 -0.25743575470E+02  0.10694601119E+02  0.68255222443E+02  0.00000000000E+00 0.  1.
<mgrwt>
<rscale>  1 0.14202566E+03</rscale>
<asrwt>0</asrwt>
<pdfrwt beam="1">  1       21 0.95079889E-02 0.14202566E+03</pdfrwt>
<pdfrwt beam="2">  1       21 0.39175724E-01 0.14202566E+03</pdfrwt>
<totfact> 0.56073039E+05</totfact>
</mgrwt>
</event>
<event>
 6    1  0.4216855E-002  0.1446397E+03  0.7546771E-02  0.1207219E+00
         21   -1    0    0  504  502  0.00000000000E+00  0.00000000000E+00  0.10293733158E+03  0.10293733158E+03  0.00000000000E+00 0. -1.
         21   -1    0    0  502  503 -0.00000000000E+00 -0.00000000000E+00 -0.21983476861E+03  0.21983476861E+03  0.00000000000E+00 0. -1.
         25    2    1    2    0    0 -0.54273257715E+02  0.48469574740E+02 -0.17686696236E+03  0.22847878046E+03  0.12500297823E+03 0.  0.
          5    1    3    3  501    0 -0.34134474113E+02  0.52637347941E+02 -0.19261603500E+03  0.20257541722E+03  0.10000000000E+00 0. -1.
         -5    1    3    3    0  501 -0.20138783602E+02 -0.41677732008E+01  0.15749072636E+02  0.25903363244E+02  0.10000000000E+00 0. -1.
         21    1    1    2  504  503  0.54273257715E+02 -0.48469574740E+02  0.59969525326E+02  0.94293319734E+02  0.00000000000E+00 0. -1.
<mgrwt>
<rscale>  1 0.14463966E+03</rscale>
<asrwt>0</asrwt>
<pdfrwt beam="1">  1       21 0.15836513E-01 0.14463966E+03</pdfrwt>
<pdfrwt beam="2">  1       21 0.33820734E-01 0.14463966E+03</pdfrwt>
<totfact> 0.30235939E+05</totfact>
</mgrwt>
</event>
<event>
 6    1  0.4216855E-002  0.1445023E+03  0.7546771E-02  0.1207396E+00
         21   -1    0    0  503  502  0.00000000000E+00  0.00000000000E+00  0.10836783279E+03  0.10836783279E+03  0.00000000000E+00 0. -1.
         21   -1    0    0  504  503 -0.00000000000E+00 -0.00000000000E+00 -0.11018349413E+03  0.11018349413E+03  0.00000000000E+00 0. -1.
         25    2    1    2    0    0 -0.65724456686E+02 -0.30597928414E+02  0.11036454470E+02  0.14492311011E+03  0.12499986835E+03 0.  0.
          5    1    3    3  501    0 -0.54259265502E+02  0.42934528775E+02  0.13343803675E+02  0.70466366093E+02  0.10000000000E+00 0.  1.
         -5    1    3    3    0  501 -0.11465191184E+02 -0.73532457188E+02 -0.23073492046E+01  0.74456744016E+02  0.10000000000E+00 0.  1.
         21    1    1    2  504  502  0.65724456686E+02  0.30597928414E+02 -0.12852115803E+02  0.73628216809E+02  0.00000000000E+00 0. -1.
<mgrwt>
<rscale>  1 0.14450226E+03</rscale>
<asrwt>0</asrwt>
<pdfrwt beam="1">  1       21 0.16671974E-01 0.14450226E+03</pdfrwt>
<pdfrwt beam="2">  1       21 0.16951307E-01 0.14450226E+03</pdfrwt>
<totfact> 0.10156758E+06</totfact>
</mgrwt>
</event>
<event>
 6    1  0.4216855E-002  0.1398104E+03  0.7546771E-02  0.1213584E+00
         21   -1    0    0  504  502  0.00000000000E+00  0.00000000000E+00  0.84612341190E+03  0.84612341190E+03  0.00000000000E+00 0.  1.
         21   -1    0    0  502  503 -0.00000000000E+00 -0.00000000000E+00 -0.12369677586E+02  0.12369677586E+02  0.00000000000E+00 0.  1.
         25    2    1    2    0    0 -0.51336770522E+02  0.35891626176E+02  0.63005975762E+03  0.64538534918E+03  0.12499311152E+03 0.  0.
          5    1    3    3  501    0  0.22280778584E+01  0.72837665662E+02  0.38486124030E+03  0.39169946918E+03  0.10000000000E+00 0.  1.
         -5    1    3    3    0  501 -0.53564848381E+02 -0.36946039486E+02  0.24519851732E+03  0.25368588000E+03  0.10000000000E+00 0.  1.
         21    1    1    2  504  503  0.51336770522E+02 -0.35891626176E+02  0.20369397670E+03  0.21310774031E+03  0.00000000000E+00 0.  1.
<mgrwt>
<rscale>  1 0.13981041E+03</rscale>
<asrwt>0</asrwt>
<pdfrwt beam="1">  1       21 0.13017279E+00 0.13981041E+03</pdfrwt>
<pdfrwt beam="2">  1       21 0.19030280E-02 0.13981041E+03</pdfrwt>
<totfact> 0.58156687E+05</totfact>
</mgrwt>
</event>
<event>
 6    1  0.4216855E-002  0.1306708E+03  0.7546771E-02  0.1226464E+00
         21   -1    0    0  504  502  0.00000000000E+00  0.00000000000E+00  0.89934411279E+02  0.89934411279E+02  0.00000000000E+00 0.  1.
         21   -1    0    0  502  503 -0.00000000000E+00 -0.00000000000E+00 -0.79098130341E+02  0.79098130341E+02  0.00000000000E+00 0.  1.
         25    2    1    2    0    0  0.21333419159E+02  0.31454761406E+02  0.77416058331E+01  0.13089995972E+03  0.12502139899E+03 0.  0.
          5    1    3    3  501    0 -0.44817514447E+02  0.43449573782E+02  0.11883022699E+02  0.63542830371E+02  0.10000000000E+00 0.  1.
         -5    1    3    3    0  501  0.66150933606E+02 -0.11994812376E+02 -0.41414168658E+01  0.67357129352E+02  0.10000000000E+00 0.  1.
         21    1    1    2  504  503 -0.21333419159E+02 -0.31454761406E+02  0.30946751042E+01  0.38132581897E+02  0.00000000000E+00 0.  1.
<mgrwt>
<rscale>  1 0.13067083E+03</rscale>
<asrwt>0</asrwt>
<pdfrwt beam="1">  1       21 0.13836063E-01 0.13067083E+03</pdfrwt>
<pdfrwt beam="2">  1       21 0.12168943E-01 0.13067083E+03</pdfrwt>
<totfact> 0.25785207E+06</totfact>
</mgrwt>
</event>
<event>
 6    1  0.4216855E-002  0.1261848E+03  0.7546771E-02  0.1233229E+00
         21   -1    0    0  504  502  0.00000000000E+00  0.00000000000E+00  0.30609672295E+02  0.30609672295E+02  0.00000000000E+00 0.  1.
         21   -1    0    0  502  503 -0.00000000000E+00 -0.00000000000E+00 -0.65158214642E+03  0.65158214642E+03  0.00000000000E+00 0.  1.
         25    2    1    2    0    0 -0.97003701857E+01  0.14280452679E+02 -0.64239964257E+03  0.65467542254E+03  0.12499831836E+03 0.  0.
          5    1    3    3  501    0  0.57629451229E+02  0.51777233810E+01 -0.32094426532E+03  0.32611837407E+03  0.10000000000E+00 0. -1.
         -5    1    3    3    0  501 -0.67329821415E+02  0.91027292977E+01 -0.32145537726E+03  0.32855704847E+03  0.10000000000E+00 0. -1.
         21    1    1    2  504  503  0.97003701857E+01 -0.14280452679E+02  0.21427168450E+02  0.27516396171E+02  0.00000000000E+00 0.  1.
<mgrwt>
<rscale>  1 0.12618482E+03</rscale>
<asrwt>0</asrwt>
<pdfrwt beam="1">  1       21 0.47091799E-02 0.12618482E+03</pdfrwt>
<pdfrwt beam="2">  1       21 0.10024342E+00 0.12618482E+03</pdfrwt>
<totfact> 0.24771729E+05</totfact>
</mgrwt>
</event>
<event>
 6    1  0.4216855E-002  0.1748053E+03  0.7546771E-02  0.1172927E+00
         21   -1    0    0  504  502  0.00000000000E+00  0.00000000000E+00  0.68464697169E+02  0.68464697169E+02  0.00000000000E+00 0. -1.
         21   -1    0    0  502  503 -0.00000000000E+00 -0.00000000000E+00 -0.32208460879E+03  0.32208460879E+03  0.00000000000E+00 0. -1.
         25    2    1    2    0    0  0.11318069726E+03 -0.46039070495E+02 -0.14842590171E+03  0.22931889330E+03  0.12500976074E+03 0.  0.
          5    1    3    3  501    0 -0.91100512568E+01 -0.41392830922E+02 -0.76260136341E+02  0.87246649680E+02  0.10000000000E+00 0. -1.
         -5    1    3    3    0  501  0.12229074852E+03 -0.46462395729E+01 -0.72165765365E+02  0.14207224362E+03  0.10000000000E+00 0. -1.
         21    1    1    2  504  503 -0.11318069726E+03  0.46039070495E+02 -0.10519400991E+03  0.16123041266E+03  0.00000000000E+00 0. -1.
<mgrwt>
<rscale>  1 0.17480534E+03</rscale>
<asrwt>0</asrwt>
<pdfrwt beam="1">  1       21 0.10533030E-01 0.17480534E+03</pdfrwt>
<pdfrwt beam="2">  1       21 0.49551478E-01 0.17480534E+03</pdfrwt>
<totfact> 0.28864125E+05</totfact>
</mgrwt>
</event>
<event>
 6    1  0.4216855E-002  0.1261634E+03  0.7546771E-02  0.1233262E+00
         21   -1    0    0  503  502  0.00000000000E+00  0.00000000000E+00  0.19689149718E+02  0.19689149718E+02  0.00000000000E+00 0. -1.
         21   -1    0    0  504  503 -0.00000000000E+00 -0.00000000000E+00 -0.26683888821E+03  0.26683888821E+03  0.00000000000E+00 0. -1.
         25    2    1    2    0    0  0.57754808837E+01 -0.16004800198E+02 -0.23023280087E+03  0.26253444321E+03  0.12501072541E+03 0.  0.
          5    1    3    3  501    0  0.44651637927E+02 -0.23089613852E+02 -0.30214623839E+02  0.58650085517E+02  0.10000000000E+00 0.  1.
         -5    1    3    3    0  501 -0.38876157043E+02  0.70848136541E+01 -0.20001817703E+03  0.20388435770E+03  0.10000000000E+00 0.  1.
         21    1    1    2  504  502 -0.57754808837E+01  0.16004800198E+02 -0.16916937623E+02  0.23993594715E+02  0.00000000000E+00 0. -1.
<mgrwt>
<rscale>  1 0.12616335E+03</rscale>
<asrwt>0</asrwt>
<pdfrwt beam="1">  1       21 0.30291001E-02 0.12616335E+03</pdfrwt>
<pdfrwt beam="2">  1       21 0.41052135E-01 0.12616335E+03</pdfrwt>
<totfact> 0.35200611E+06</totfact>
</mgrwt>
</event>
<event>
 6    1  0.4216855E-002  0.1341935E+03  0.7546771E-02  0.1221363E+00
         21   -1    0    0  504  502  0.00000000000E+00  0.00000000000E+00  0.15785813487E+03  0.15785813487E+03  0.00000000000E+00 0. -1.
         21   -1    0    0  502  503 -0.00000000000E+00 -0.00000000000E+00 -0.55156565459E+02  0.55156565459E+02  0.00000000000E+00 0. -1.
         25    2    1    2    0    0  0.45107733904E+02  0.18673160792E+02  0.92921491525E+02  0.16322469616E+03  0.12499801301E+03 0.  0.
          5    1    3    3  501    0  0.49831635633E+02  0.68185019908E+02  0.59022581808E+02  0.10303428562E+03  0.10000000000E+00 0. -1.
         -5    1    3    3    0  501 -0.47239017290E+01 -0.49511859116E+02  0.33898909717E+02  0.60190410538E+02  0.10000000000E+00 0. -1.
         21    1    1    2  504  503 -0.45107733904E+02 -0.18673160792E+02  0.97800778850E+01  0.49790004171E+02  0.00000000000E+00 0. -1.
<mgrwt>
<rscale>  1 0.13419351E+03</rscale>
<asrwt>0</asrwt>
<pdfrwt beam="1">  1       21 0.24285867E-01 0.13419351E+03</pdfrwt>
<pdfrwt beam="2">  1       21 0.84856255E-02 0.13419351E+03</pdfrwt>
<totfact> 0.17273266E+06</totfact>
</mgrwt>
</event>
<event>
 6    1  0.4216855E-002  0.1261890E+03  0.7546771E-02  0.1233223E+00
         21   -1    0    0  504  502  0.00000000000E+00  0.00000000000E+00  0.11828010744E+03  0.11828010744E+03  0.00000000000E+00 0.  1.
         21   -1    0    0  502  503 -0.00000000000E+00 -0.00000000000E+00 -0.45947981453E+02  0.45947981453E+02  0.00000000000E+00 0.  1.
         25    2    1    2    0    0  0.17254678550E+02 -0.83530053525E+00  0.49392011924E+02  0.13551101223E+03  0.12500096774E+03 0.  0.
          5    1    3    3  501    0  0.56731792420E+02  0.10159313770E+02 -0.14661822600E+02  0.59470051029E+02  0.10000000000E+00 0.  1.
         -5    1    3    3    0  501 -0.39477113870E+02 -0.10994614305E+02  0.64053834524E+02  0.76040961202E+02  0.10000000000E+00 0.  1.
         21    1    1    2  504  503 -0.17254678550E+02  0.83530053525E+00  0.22940114067E+02  0.28717076666E+02  0.00000000000E+00 0.  1.
<mgrwt>
<rscale>  1 0.12618900E+03</rscale>
<asrwt>0</asrwt>
<pdfrwt beam="1">  1       21 0.18196939E-01 0.12618900E+03</pdfrwt>
<pdfrwt beam="2">  1       21 0.70689203E-02 0.12618900E+03</pdfrwt>
<totfact> 0.40359812E+06</totfact>
</mgrwt>
</event>
<event>
 6    1  0.4216855E-002  0.1261036E+03  0.7546771E-02  0.1233355E+00
         21   -1    0    0  504  502  0.00000000000E+00  0.00000000000E+00  0.27081948636E+01  0.27081948636E+01  0.00000000000E+00 0.  1.
         21   -1    0    0  502  503 -0.00000000000E+00 -0.00000000000E+00 -0.20358630539E+04  0.20358630539E+04  0.00000000000E+00 0.  1.
         25    2    1    2    0    0 -0.38218309119E+01 -0.16244034013E+02 -0.19260926827E+04  0.19302163474E+04  0.12499460251E+03 0.  0.
          5    1    3    3  501    0 -0.73062047220E+01 -0.50380761544E+02 -0.34351589641E+03  0.34726759545E+03  0.10000000000E+00 0. -1.
         -5    1    3    3    0  501  0.34843738101E+01  0.34136727531E+02 -0.15825767863E+04  0.15829487520E+04  0.10000000000E+00 0. -1.
         21    1    1    2  504  503  0.38218309119E+01  0.16244034013E+02 -0.10706217637E+03  0.10835490132E+03  0.00000000000E+00 0.  1.
<mgrwt>
<rscale>  1 0.12610363E+03</rscale>
<asrwt>0</asrwt>
<pdfrwt beam="1">  1       21 0.41664451E-03 0.12610363E+03</pdfrwt>
<pdfrwt beam="2">  1       21 0.31321034E+00 0.12610363E+03</pdfrwt>
<totfact> 0.44731165E+05</totfact>
</mgrwt>
</event>
<event>
 6    1  0.4216855E-002  0.1301329E+03  0.7546771E-02  0.1227259E+00
         21   -1    0    0  504  502  0.00000000000E+00  0.00000000000E+00  0.67538195087E+02  0.67538195087E+02  0.00000000000E+00 0.  1.
         21   -1    0    0  502  503 -0.00000000000E+00 -0.00000000000E+00 -0.19655821720E+03  0.19655821720E+03  0.00000000000E+00 0.  1.
         25    2    1    2    0    0 -0.20463399894E+02 -0.29869841989E+02 -0.16693879288E+03  0.21166749495E+03  0.12499443849E+03 0.  0.
          5    1    3    3  501    0  0.91412288489E+01 -0.62349205321E+02 -0.33895001008E+02  0.71553242850E+02  0.10000000000E+00 0.  1.
         -5    1    3    3    0  501 -0.29604628743E+02  0.32479363333E+02 -0.13304379188E+03  0.14011425210E+03  0.10000000000E+00 0.  1.
         21    1    1    2  504  503  0.20463399894E+02  0.29869841989E+02  0.37918770773E+02  0.52428917332E+02  0.00000000000E+00 0.  1.
<mgrwt>
<rscale>  1 0.13013289E+03</rscale>
<asrwt>0</asrwt>
<pdfrwt beam="1">  1       21 0.10390492E-01 0.13013289E+03</pdfrwt>
<pdfrwt beam="2">  1       21 0.30239725E-01 0.13013289E+03</pdfrwt>
<totfact> 0.79837660E+05</totfact>
</mgrwt>
</event>
<event>
 6    1  0.4216855E-002  0.1261559E+03  0.7546771E-02  0.1233274E+00
         21   -1    0    0  503  502  0.00000000000E+00  0.00000000000E+00  0.12944027881E+03  0.12944027881E+03  0.00000000000E+00 0.  1.
         21   -1    0    0  504  503 -0.00000000000E+00 -0.00000000000E+00 -0.41144346002E+02  0.41144346002E+02  0.00000000000E+00 0.  1.
         25    2    1    2    0    0 -0.81041867787E+01 -0.14971647936E+02  0.65538305717E+02  0.14216389864E+03  0.12500190589E+03 0.  0.
          5    1    3    3  501    0  0.35247640568E+02 -0.53930039318E+02  0.17845721287E+02  0.66853010962E+02  0.10000000000E+00 0. -1.
         -5    1    3    3    0  501 -0.43351827346E+02  0.38958391382E+02  0.47692584431E+02  0.75310887679E+02  0.10000000000E+00 0. -1.
         21    1    1    2  504  502  0.81041867787E+01  0.14971647936E+02  0.22757627087E+02  0.28420726168E+02  0.00000000000E+00 0.  1.
<mgrwt>
<rscale>  1 0.12615587E+03</rscale>
<asrwt>0</asrwt>
<pdfrwt beam="1">  1       21 0.19913889E-01 0.12615587E+03</pdfrwt>
<pdfrwt beam="2">  1       21 0.63298994E-02 0.12615587E+03</pdfrwt>
<totfact> 0.41276843E+06</totfact>
</mgrwt>
</event>
<event>
 6    1  0.4216855E-002  0.1300834E+03  0.7546771E-02  0.1227332E+00
         21   -1    0    0  504  502  0.00000000000E+00  0.00000000000E+00  0.41108378317E+02  0.41108378317E+02  0.00000000000E+00 0.  1.
         21   -1    0    0  502  503 -0.00000000000E+00 -0.00000000000E+00 -0.43051456758E+03  0.43051456758E+03  0.00000000000E+00 0.  1.
         25    2    1    2    0    0  0.31494952556E+02 -0.17442351726E+02 -0.41000365051E+03  0.43014496282E+03  0.12500211174E+03 0.  0.
          5    1    3    3  501    0  0.47304198960E+02 -0.42970153686E+02 -0.38720556931E+03  0.39244398868E+03  0.10000000000E+00 0. -1.
         -5    1    3    3    0  501 -0.15809246404E+02  0.25527801960E+02 -0.22798081198E+02  0.37700974139E+02  0.10000000000E+00 0. -1.
         21    1    1    2  504  503 -0.31494952556E+02  0.17442351726E+02  0.20597461246E+02  0.41477983076E+02  0.00000000000E+00 0.  1.
<mgrwt>
<rscale>  1 0.13008342E+03</rscale>
<asrwt>0</asrwt>
<pdfrwt beam="1">  1       21 0.63243659E-02 0.13008342E+03</pdfrwt>
<pdfrwt beam="2">  1       21 0.66233010E-01 0.13008342E+03</pdfrwt>
<totfact> 0.38144170E+05</totfact>
</mgrwt>
</event>
<event>
 6    1  0.4216855E-002  0.1268914E+03  0.7546771E-02  0.1232143E+00
         21   -1    0    0  503  502  0.00000000000E+00  0.00000000000E+00  0.17067586464E+03  0.17067586464E+03  0.00000000000E+00 0. -1.
         21   -1    0    0  504  503 -0.00000000000E+00 -0.00000000000E+00 -0.49989820013E+02  0.49989820013E+02  0.00000000000E+00 0. -1.
         25    2    1    2    0    0 -0.21408647804E+01  0.21701271893E+02  0.34124725348E+02  0.13139984293E+03  0.12500357330E+03 0.  0.
          5    1    3    3  501    0 -0.63471634221E+02  0.14759736359E+02  0.17022931218E+02  0.67351973656E+02  0.10000000000E+00 0.  1.
         -5    1    3    3    0  501  0.61330769441E+02  0.69415355345E+01  0.17101794130E+02  0.64047869272E+02  0.10000000000E+00 0.  1.
         21    1    1    2  504  502  0.21408647804E+01 -0.21701271893E+02  0.86561319278E+02  0.89265841725E+02  0.00000000000E+00 0.  1.
<mgrwt>
<rscale>  1 0.12689138E+03</rscale>
<asrwt>0</asrwt>
<pdfrwt beam="1">  1       21 0.26257825E-01 0.12689138E+03</pdfrwt>
<pdfrwt beam="2">  1       21 0.76907416E-02 0.12689138E+03</pdfrwt>
<totfact> 0.17634416E+06</totfact>
</mgrwt>
</event>
<event>
 6    1  0.4216855E-002  0.1259800E+03  0.7546771E-02  0.1233546E+00
         21   -1    0    0  503  502  0.00000000000E+00  0.00000000000E+00  0.61941924177E+01  0.61941924177E+01  0.00000000000E+00 0.  1.
         21   -1    0    0  504  503 -0.00000000000E+00 -0.00000000000E+00 -0.97114997444E+03  0.97114997444E+03  0.00000000000E+00 0.  1.
         25    2    1    2    0    0 -0.10760830189E+02  0.11406623276E+02 -0.93577256764E+03  0.94421462532E+03  0.12500021519E+03 0.  0.
          5    1    3    3  501    0  0.25894359421E+02  0.20978819685E+02 -0.84751084430E+03  0.84816582691E+03  0.10000000000E+00 0.  1.
         -5    1    3    3    0  501 -0.36655189610E+02 -0.95721964088E+01 -0.88261723336E+02  0.96048798408E+02  0.10000000000E+00 0.  1.
         21    1    1    2  504  502  0.10760830189E+02 -0.11406623276E+02 -0.29183214382E+02  0.33129541539E+02  0.00000000000E+00 0. -1.
<mgrwt>
<rscale>  1 0.12598000E+03</rscale>
<asrwt>0</asrwt>
<pdfrwt beam="1">  1       21 0.95295352E-03 0.12598000E+03</pdfrwt>
<pdfrwt beam="2">  1       21 0.14940756E+00 0.12598000E+03</pdfrwt>
<totfact> 0.12351569E+06</totfact>
</mgrwt>
</event>
<event>
 6    1  0.4216855E-002  0.1307345E+03  0.7546771E-02  0.1226370E+00
         21   -1    0    0  503  502  0.00000000000E+00  0.00000000000E+00  0.34303688067E+03  0.34303688067E+03  0.00000000000E+00 0.  1.
         21   -1    0    0  504  503 -0.00000000000E+00 -0.00000000000E+00 -0.15499103844E+03  0.15499103844E+03  0.00000000000E+00 0. -1.
         25    2    1    2    0    0  0.78123176877E+01 -0.37523683715E+02 -0.12604876684E+03  0.18160339003E+03  0.12498976159E+03 0.  0.
          5    1    3    3  501    0 -0.19848374620E+02 -0.91328292488E+01 -0.13837797748E+03  0.14009225959E+03  0.10000000000E+00 0. -1.
         -5    1    3    3    0  501  0.27660692308E+02 -0.28390854467E+02  0.12329210632E+02  0.41511130448E+02  0.10000000000E+00 0. -1.
         21    1    1    2  504  502 -0.78123176877E+01  0.37523683715E+02  0.31409460907E+03  0.31642452907E+03  0.00000000000E+00 0.  1.
<mgrwt>
<rscale>  1 0.13073446E+03</rscale>
<asrwt>0</asrwt>
<pdfrwt beam="1">  1       21 0.52774905E-01 0.13073446E+03</pdfrwt>
<pdfrwt beam="2">  1       21 0.23844775E-01 0.13073446E+03</pdfrwt>
<totfact> 0.58092061E+04</totfact>
</mgrwt>
</event>
<event>
 6    1  0.4216855E-002  0.1276085E+03  0.7546771E-02  0.1231048E+00
         21   -1    0    0  503  502  0.00000000000E+00  0.00000000000E+00  0.11961114088E+04  0.11961114088E+04  0.00000000000E+00 0.  1.
         21   -1    0    0  504  503 -0.00000000000E+00 -0.00000000000E+00 -0.39037896665E+02  0.39037896665E+02  0.00000000000E+00 0.  1.
         25    2    1    2    0    0  0.46164314181E+00 -0.25617703279E+02  0.65798581901E+02  0.14357363095E+03  0.12500981677E+03 0.  0.
          5    1    3    3  501    0 -0.80026728140E+01 -0.75593820812E+02  0.47744297869E+02  0.89766343894E+02  0.10000000000E+00 0.  1.
         -5    1    3    3    0  501  0.84643159559E+01  0.49976117533E+02  0.18054284032E+02  0.53807287055E+02  0.10000000000E+00 0.  1.
         21    1    1    2  504  502 -0.46164314181E+00  0.25617703279E+02  0.10912749302E+04  0.10915756745E+04  0.00000000000E+00 0.  1.
<mgrwt>
<rscale>  1 0.12760852E+03</rscale>
<asrwt>0</asrwt>
<pdfrwt beam="1">  1       21 0.18401711E+00 0.12760852E+03</pdfrwt>
<pdfrwt beam="2">  1       21 0.60058312E-02 0.12760852E+03</pdfrwt>
<totfact> 0.35291502E+04</totfact>
</mgrwt>
</event>
<event>
 6    1  0.4216855E-002  0.1261299E+03  0.7546771E-02  0.1233314E+00
         21   -1    0    0  504  502  0.00000000000E+00  0.00000000000E+00  0.97036492022E+02  0.97036492022E+02  0.00000000000E+00 0. -1.
         21   -1    0    0  502  503 -0.00000000000E+00 -0.00000000000E+00 -0.11321833002E+03  0.11321833002E+03  0.00000000000E+00 0. -1.
         25    2    1    2    0    0 -0.13550735997E+02  0.10119067681E+02 -0.76563762481E+02  0.14754920202E+03  0.12499095693E+03 0.  0.
          5    1    3    3  501    0 -0.30756592006E+02  0.62647653323E+02 -0.52152189289E+02  0.87123804246E+02  0.10000000000E+00 0. -1.
         -5    1    3    3    0  501  0.17205856009E+02 -0.52528585642E+02 -0.24411573192E+02  0.60425397775E+02  0.10000000000E+00 0. -1.
         21    1    1    2  504  503  0.13550735997E+02 -0.10119067681E+02  0.60381924488E+02  0.62705620017E+02  0.00000000000E+00 0. -1.
<mgrwt>
<rscale>  1 0.12612992E+03</rscale>
<asrwt>0</asrwt>
<pdfrwt beam="1">  1       21 0.14928691E-01 0.12612992E+03</pdfrwt>
<pdfrwt beam="2">  1       21 0.17418205E-01 0.12612992E+03</pdfrwt>
<totfact> 0.11791512E+06</totfact>
</mgrwt>
</event>
<event>
 6    1  0.4216855E-002  0.1265625E+03  0.7546771E-02  0.1232647E+00
         21   -1    0    0  504  502  0.00000000000E+00  0.00000000000E+00  0.28694748961E+03  0.28694748961E+03  0.00000000000E+00 0. -1.
         21   -1    0    0  502  503 -0.00000000000E+00 -0.00000000000E+00 -0.76064852233E+02  0.76064852233E+02  0.00000000000E+00 0. -1.
         25    2    1    2    0    0 -0.19029044052E+02 -0.54851843292E+01 -0.22708211508E+02  0.12858351160E+03  0.12500345924E+03 0.  0.
          5    1    3    3  501    0 -0.59900603211E+02  0.14057594272E+02  0.21604927403E+02  0.65211050520E+02  0.10000000000E+00 0. -1.
         -5    1    3    3    0  501  0.40871559160E+02 -0.19542778601E+02 -0.44313138911E+02  0.63372461083E+02  0.10000000000E+00 0. -1.
         21    1    1    2  504  503  0.19029044052E+02  0.54851843292E+01  0.23359084888E+03  0.23442883024E+03  0.00000000000E+00 0. -1.
<mgrwt>
<rscale>  1 0.12656246E+03</rscale>
<asrwt>0</asrwt>
<pdfrwt beam="1">  1       21 0.44145767E-01 0.12656246E+03</pdfrwt>
<pdfrwt beam="2">  1       21 0.11702285E-01 0.12656246E+03</pdfrwt>
<totfact> 0.30670301E+05</totfact>
</mgrwt>
</event>
<event>
 6    1  0.4216855E-002  0.1614586E+03  0.7546771E-02  0.1187060E+00
         21   -1    0    0  504  502  0.00000000000E+00  0.00000000000E+00  0.23049115521E+03  0.23049115521E+03  0.00000000000E+00 0.  1.
         21   -1    0    0  502  503 -0.00000000000E+00 -0.00000000000E+00 -0.83492013884E+03  0.83492013884E+03  0.00000000000E+00 0. -1.
         25    2    1    2    0    0 -0.59577153687E+02  0.83059907544E+02 -0.81526719708E+03  0.83110137593E+03  0.12498203456E+03 0.  0.
          5    1    3    3  501    0 -0.62453419274E+02  0.12401004462E+02 -0.62292874609E+03  0.62617445429E+03  0.10000000000E+00 0. -1.
         -5    1    3    3    0  501  0.28762655872E+01  0.70658903083E+02 -0.19233845098E+03  0.20492692164E+03  0.10000000000E+00 0. -1.
         21    1    1    2  504  503  0.59577153687E+02 -0.83059907544E+02  0.21083821345E+03  0.23430991813E+03  0.00000000000E+00 0.  1.
<mgrwt>
<rscale>  1 0.16145865E+03</rscale>
<asrwt>0</asrwt>
<pdfrwt beam="1">  1       21 0.35460177E-01 0.16145865E+03</pdfrwt>
<pdfrwt beam="2">  1       21 0.12844925E+00 0.16145865E+03</pdfrwt>
<totfact> 0.35159288E+03</totfact>
</mgrwt>
</event>
<event>
 6    1  0.4216855E-002  0.1275309E+03  0.7546771E-02  0.1231166E+00
         21   -1    0    0  503  502  0.00000000000E+00  0.00000000000E+00  0.13278170226E+04  0.13278170226E+04  0.00000000000E+00 0. -1.
         21   -1    0    0  504  503 -0.00000000000E+00 -0.00000000000E+00 -0.73159801814E+01  0.73159801814E+01  0.00000000000E+00 0. -1.
         25    2    1    2    0    0 -0.11460683194E+02 -0.22472866900E+02  0.56513884103E+03  0.57934967915E+03  0.12501105581E+03 0.  0.
          5    1    3    3  501    0 -0.22673710091E+01  0.16767532748E+02  0.51381113848E+03  0.51408966840E+03  0.10000000000E+00 0.  1.
         -5    1    3    3    0  501 -0.91933121847E+01 -0.39240399648E+02  0.51327702553E+02  0.65260010748E+02  0.10000000000E+00 0.  1.
         21    1    1    2  504  502  0.11460683194E+02  0.22472866900E+02  0.75536220140E+03  0.75578332365E+03  0.00000000000E+00 0. -1.
<mgrwt>
<rscale>  1 0.12753094E+03</rscale>
<asrwt>0</asrwt>
<pdfrwt beam="1">  1       21 0.20427935E+00 0.12753094E+03</pdfrwt>
<pdfrwt beam="2">  1       21 0.11255365E-02 0.12753094E+03</pdfrwt>
<totfact> 0.40318058E+05</totfact>
</mgrwt>
</event>
<event>
 6    1  0.4216855E-002  0.1297605E+03  0.7546771E-02  0.1227812E+00
         21   -1    0    0  503  502  0.00000000000E+00  0.00000000000E+00  0.84046647953E+02  0.84046647953E+02  0.00000000000E+00 0.  1.
         21   -1    0    0  504  503 -0.00000000000E+00 -0.00000000000E+00 -0.12509364155E+03  0.12509364155E+03  0.00000000000E+00 0.  1.
         25    2    1    2    0    0  0.11488012142E+02 -0.32940936149E+02 -0.83413795211E+02  0.15425836555E+03  0.12498280847E+03 0.  0.
          5    1    3    3  501    0 -0.56035246484E+02 -0.24712363465E+02 -0.32814680214E+02  0.69479946705E+02  0.10000000000E+00 0.  1.
         -5    1    3    3    0  501  0.67523258626E+02 -0.82285726842E+01 -0.50599114996E+02  0.84778418847E+02  0.10000000000E+00 0.  1.
         21    1    1    2  504  502 -0.11488012142E+02  0.32940936149E+02  0.42366801615E+02  0.54881923949E+02  0.00000000000E+00 0.  1.
<mgrwt>
<rscale>  1 0.12976048E+03</rscale>
<asrwt>0</asrwt>
<pdfrwt beam="1">  1       21 0.12930254E-01 0.12976048E+03</pdfrwt>
<pdfrwt beam="2">  1       21 0.19245176E-01 0.12976048E+03</pdfrwt>
<totfact> 0.12711025E+06</totfact>
</mgrwt>
</event>
<event>
 6    1  0.4216855E-002  0.1289687E+03  0.7546771E-02  0.1228994E+00
         21   -1    0    0  503  502  0.00000000000E+00  0.00000000000E+00  0.21108262451E+02  0.21108262451E+02  0.00000000000E+00 0. -1.
         21   -1    0    0  504  503 -0.00000000000E+00 -0.00000000000E+00 -0.42028648421E+03  0.42028648421E+03  0.00000000000E+00 0. -1.
         25    2    1    2    0    0 -0.29656616295E+02 -0.11435699432E+02 -0.38601902411E+03  0.40699337177E+03  0.12499050997E+03 0.  0.
          5    1    3    3  501    0  0.23171400650E+02 -0.35338678944E+02 -0.47636250724E+02  0.63678555422E+02  0.10000000000E+00 0.  1.
         -5    1    3    3    0  501 -0.52828016945E+02  0.23902979512E+02 -0.33838277338E+03  0.34331481635E+03  0.10000000000E+00 0.  1.
         21    1    1    2  504  502  0.29656616295E+02  0.11435699432E+02 -0.13159197656E+02  0.34401374893E+02  0.00000000000E+00 0. -1.
<mgrwt>
<rscale>  1 0.12896867E+03</rscale>
<asrwt>0</asrwt>
<pdfrwt beam="1">  1       21 0.32474251E-02 0.12896867E+03</pdfrwt>
<pdfrwt beam="2">  1       21 0.64659456E-01 0.12896867E+03</pdfrwt>
<totfact> 0.12245189E+06</totfact>
</mgrwt>
</event>
<event>
 6    1  0.4216855E-002  0.1270337E+03  0.7546771E-02  0.1231925E+00
         21   -1    0    0  503  502  0.00000000000E+00  0.00000000000E+00  0.51713746611E+02  0.51713746611E+02  0.00000000000E+00 0.  1.
         21   -1    0    0  504  503 -0.00000000000E+00 -0.00000000000E+00 -0.11291349821E+03  0.11291349821E+03  0.00000000000E+00 0.  1.
         25    2    1    2    0    0  0.17459884411E+02  0.14377719305E+02 -0.63264503516E+02  0.14191536299E+03  0.12500402582E+03 0.  0.
          5    1    3    3  501    0 -0.37509064617E+02  0.13097173204E+02  0.18144800730E+02  0.43677335861E+02  0.10000000000E+00 0. -1.
         -5    1    3    3    0  501  0.54968949028E+02  0.12805461010E+01 -0.81409304245E+02  0.98238027125E+02  0.10000000000E+00 0. -1.
         21    1    1    2  504  502 -0.17459884411E+02 -0.14377719305E+02  0.20647519163E+01  0.22711881836E+02  0.00000000000E+00 0. -1.
<mgrwt>
<rscale>  1 0.12703375E+03</rscale>
<asrwt>0</asrwt>
<pdfrwt beam="1">  1       21 0.79559610E-02 0.12703375E+03</pdfrwt>
<pdfrwt beam="2">  1       21 0.17371307E-01 0.12703375E+03</pdfrwt>
<totfact> 0.35875602E+06</totfact>
</mgrwt>
</event>
<event>
 6    1  0.4216855E-002  0.1887917E+03  0.7546771E-02  0.1159556E+00
         21   -1    0    0  503  502  0.00000000000E+00  0.00000000000E+00  0.60907906559E+02  0.60907906559E+02  0.00000000000E+00 0.  1.
         21   -1    0    0  504  503 -0.00000000000E+00 -0.00000000000E+00 -0.51269363586E+03  0.51269363586E+03  0.00000000000E+00 0.  1.
         25    2    1    2    0    0 -0.13049341180E+03  0.54680556170E+02 -0.35531171205E+03  0.40235397382E+03  0.12499525506E+03 0.  0.
          5    1    3    3  501    0 -0.81174574816E+02  0.51590739034E+02 -0.33566972704E+03  0.34917773640E+03  0.10000000000E+00 0. -1.
         -5    1    3    3    0  501 -0.49318836981E+02  0.30898171364E+01 -0.19641985013E+02  0.53176237422E+02  0.10000000000E+00 0. -1.
         21    1    1    2  504  502  0.13049341180E+03 -0.54680556170E+02 -0.96474017254E+02  0.17124756860E+03  0.00000000000E+00 0.  1.
<mgrwt>
<rscale>  1 0.18879170E+03</rscale>
<asrwt>0</asrwt>
<pdfrwt beam="1">  1       21 0.93704473E-02 0.18879170E+03</pdfrwt>
<pdfrwt beam="2">  1       21 0.78875943E-01 0.18879170E+03</pdfrwt>
<totfact> 0.12940088E+05</totfact>
</mgrwt>
</event>
<event>
 6    1  0.4216855E-002  0.1346102E+03  0.7546771E-02  0.1220771E+00
         21   -1    0    0  504  502  0.00000000000E+00  0.00000000000E+00  0.66756507512E+02  0.66756507512E+02  0.00000000000E+00 0.  1.
         21   -1    0    0  502  503 -0.00000000000E+00 -0.00000000000E+00 -0.24628370364E+03  0.24628370364E+03  0.00000000000E+00 0. -1.
         25    2    1    2    0    0  0.50465574436E+00 -0.49946213613E+02 -0.21367040584E+03  0.25253700709E+03  0.12500007475E+03 0.  0.
          5    1    3    3  501    0  0.55464836594E+02 -0.40060905665E+02 -0.67711534338E+02  0.96260511860E+02  0.10000000000E+00 0. -1.
         -5    1    3    3    0  501 -0.54960180850E+02 -0.98853079479E+01 -0.14595887150E+03  0.15627649523E+03  0.10000000000E+00 0. -1.
         21    1    1    2  504  503 -0.50465574436E+00  0.49946213613E+02  0.34143209714E+02  0.60503204058E+02  0.00000000000E+00 0.  1.
<mgrwt>
<rscale>  1 0.13461017E+03</rscale>
<asrwt>0</asrwt>
<pdfrwt beam="1">  1       21 0.10270232E-01 0.13461017E+03</pdfrwt>
<pdfrwt beam="2">  1       21 0.37889802E-01 0.13461017E+03</pdfrwt>
<totfact> 0.52388710E+05</totfact>
</mgrwt>
</event>
<event>
 6    1  0.4216855E-002  0.2175431E+03  0.7546771E-02  0.1135728E+00
         21   -1    0    0  503  502  0.00000000000E+00  0.00000000000E+00  0.52363821848E+03  0.52363821848E+03  0.00000000000E+00 0.  1.
         21   -1    0    0  504  503 -0.00000000000E+00 -0.00000000000E+00 -0.17628167782E+03  0.17628167782E+03  0.00000000000E+00 0.  1.
         25    2    1    2    0    0 -0.17427216034E+03 -0.36470503943E+02 -0.84050505062E+02  0.23321557596E+03  0.12499653572E+03 0.  0.
          5    1    3    3  501    0 -0.17901440190E+02 -0.21974836806E+02  0.28354536402E+02  0.40091704231E+02  0.10000000000E+00 0. -1.
         -5    1    3    3    0  501 -0.15637072015E+03 -0.14495667137E+02 -0.11240504146E+03  0.19312387173E+03  0.10000000000E+00 0. -1.
         21    1    1    2  504  502  0.17427216034E+03  0.36470503943E+02  0.43140704572E+03  0.46670432034E+03  0.00000000000E+00 0.  1.
<mgrwt>
<rscale>  1 0.21754314E+03</rscale>
<asrwt>0</asrwt>
<pdfrwt beam="1">  1       21 0.80559725E-01 0.21754314E+03</pdfrwt>
<pdfrwt beam="2">  1       21 0.27120258E-01 0.21754314E+03</pdfrwt>
<totfact> 0.17278267E+04</totfact>
</mgrwt>
</event>
<event>
 6    1  0.4216855E-002  0.1272164E+03  0.7546771E-02  0.1231645E+00
         21   -1    0    0  503  502  0.00000000000E+00  0.00000000000E+00  0.25078270252E+02  0.25078270252E+02  0.00000000000E+00 0.  1.
         21   -1    0    0  504  503 -0.00000000000E+00 -0.00000000000E+00 -0.23015023462E+03  0.23015023462E+03  0.00000000000E+00 0.  1.
         25    2    1    2    0    0 -0.26387688774E+01 -0.23725578165E+02 -0.18179905565E+03  0.22188942209E+03  0.12495660383E+03 0.  0.
          5    1    3    3  501    0 -0.47330023215E+01 -0.30996146669E+02 -0.19986142495E+03  0.20230610866E+03  0.10000000000E+00 0. -1.
         -5    1    3    3    0  501  0.20942334441E+01  0.72705685036E+01  0.18062369301E+02  0.19583313429E+02  0.10000000000E+00 0. -1.
         21    1    1    2  504  502  0.26387688774E+01  0.23725578165E+02 -0.23272908721E+02  0.33339082783E+02  0.00000000000E+00 0.  1.
<mgrwt>
<rscale>  1 0.12721643E+03</rscale>
<asrwt>0</asrwt>
<pdfrwt beam="1">  1       21 0.38581953E-02 0.12721643E+03</pdfrwt>
<pdfrwt beam="2">  1       21 0.35407730E-01 0.12721643E+03</pdfrwt>
<totfact> 0.31693939E+06</totfact>
</mgrwt>
</event>
<event>
 6    1  0.4216855E-002  0.1263272E+03  0.7546771E-02  0.1233010E+00
         21   -1    0    0  504  502  0.00000000000E+00  0.00000000000E+00  0.42275043933E+02  0.42275043933E+02  0.00000000000E+00 0. -1.
         21   -1    0    0  502  503 -0.00000000000E+00 -0.00000000000E+00 -0.19270777621E+03  0.19270777621E+03  0.00000000000E+00 0. -1.
         25    2    1    2    0    0 -0.14923557183E+02 -0.10540760871E+02 -0.16762378661E+03  0.20989592022E+03  0.12499897315E+03 0.  0.
          5    1    3    3  501    0 -0.22106857258E+02  0.55542608408E+02 -0.82961759458E+02  0.10225633486E+03  0.10000000000E+00 0.  1.
         -5    1    3    3    0  501  0.71833000750E+01 -0.66083369279E+02 -0.84662027147E+02  0.10763958536E+03  0.10000000000E+00 0.  1.
         21    1    1    2  504  503  0.14923557183E+02  0.10540760871E+02  0.17191054331E+02  0.25086899923E+02  0.00000000000E+00 0. -1.
<mgrwt>
<rscale>  1 0.12632721E+03</rscale>
<asrwt>0</asrwt>
<pdfrwt beam="1">  1       21 0.65038529E-02 0.12632721E+03</pdfrwt>
<pdfrwt beam="2">  1       21 0.29647350E-01 0.12632721E+03</pdfrwt>
<totfact> 0.18622925E+06</totfact>
</mgrwt>
</event>
<event>
 6    1  0.4216855E-002  0.1259246E+03  0.7546771E-02  0.1233631E+00
         21   -1    0    0  504  502  0.00000000000E+00  0.00000000000E+00  0.98668661549E+02  0.98668661549E+02  0.00000000000E+00 0. -1.
         21   -1    0    0  502  503 -0.00000000000E+00 -0.00000000000E+00 -0.51426540808E+02  0.51426540808E+02  0.00000000000E+00 0. -1.
         25    2    1    2    0    0  0.11260589013E+02  0.10317326647E+02  0.35507016120E+02  0.13083486034E+03  0.12499505747E+03 0.  0.
          5    1    3    3  501    0  0.35782517867E+02 -0.47773733133E+02  0.26847425396E+01  0.59748941454E+02  0.10000000000E+00 0.  1.
         -5    1    3    3    0  501 -0.24521928855E+02  0.58091059781E+02  0.32822273580E+02  0.71085918888E+02  0.10000000000E+00 0.  1.
         21    1    1    2  504  503 -0.11260589013E+02 -0.10317326647E+02  0.11735104621E+02  0.19260342015E+02  0.00000000000E+00 0. -1.
<mgrwt>
<rscale>  1 0.12592463E+03</rscale>
<asrwt>0</asrwt>
<pdfrwt beam="1">  1       21 0.15179794E-01 0.12592463E+03</pdfrwt>
<pdfrwt beam="2">  1       21 0.79117755E-02 0.12592463E+03</pdfrwt>
<totfact> 0.46237872E+06</totfact>
</mgrwt>
</event>
<event>
 6    1  0.4216855E-002  0.1263616E+03  0.7546771E-02  0.1232957E+00
         21   -1    0    0  503  502  0.00000000000E+00  0.00000000000E+00  0.44077122330E+02  0.44077122330E+02  0.00000000000E+00 0. -1.
         21   -1    0    0  504  503 -0.00000000000E+00 -0.00000000000E+00 -0.11983787579E+03  0.11983787579E+03  0.00000000000E+00 0. -1.
         25    2    1    2    0    0  0.56660307341E+00 -0.18472571642E+02 -0.70507566649E+02  0.14470164564E+03  0.12500276938E+03 0.  0.
          5    1    3    3  501    0 -0.50170534733E+02 -0.28053686009E+02 -0.73111455532E+02  0.93002079462E+02  0.10000000000E+00 0. -1.
         -5    1    3    3    0  501  0.50737137807E+02  0.95811143669E+01  0.26038888834E+01  0.51699566175E+02  0.10000000000E+00 0. -1.
         21    1    1    2  504  502 -0.56660307341E+00  0.18472571642E+02 -0.52531868156E+01  0.19213352488E+02  0.00000000000E+00 0. -1.
<mgrwt>
<rscale>  1 0.12636158E+03</rscale>
<asrwt>0</asrwt>
<pdfrwt beam="1">  1       21 0.67810958E-02 0.12636158E+03</pdfrwt>
<pdfrwt beam="2">  1       21 0.18436596E-01 0.12636158E+03</pdfrwt>
<totfact> 0.42307124E+06</totfact>
</mgrwt>
</event>
<event>
 6    1  0.4216855E-002  0.1261942E+03  0.7546771E-02  0.1233215E+00
         21   -1    0    0  503  502  0.00000000000E+00  0.00000000000E+00  0.29034677730E+02  0.29034677730E+02  0.00000000000E+00 0. -1.
         21   -1    0    0  504  503 -0.00000000000E+00 -0.00000000000E+00 -0.31143114624E+03  0.31143114624E+03  0.00000000000E+00 0. -1.
         25    2    1    2    0    0  0.16243408255E+02  0.63990870706E+01 -0.29370287915E+03  0.31966602713E+03  0.12498076276E+03 0.  0.
          5    1    3    3  501    0  0.46678228292E+02 -0.21197241558E+02 -0.46949092189E+02  0.69515518437E+02  0.10000000000E+00 0.  1.
         -5    1    3    3    0  501 -0.30434820038E+02  0.27596328629E+02 -0.24675378696E+03  0.25015050870E+03  0.10000000000E+00 0.  1.
         21    1    1    2  504  502 -0.16243408255E+02 -0.63990870706E+01  0.11306410634E+02  0.20799796837E+02  0.00000000000E+00 0. -1.
<mgrwt>
<rscale>  1 0.12619425E+03</rscale>
<asrwt>0</asrwt>
<pdfrwt beam="1">  1       21 0.44668734E-02 0.12619425E+03</pdfrwt>
<pdfrwt beam="2">  1       21 0.47912485E-01 0.12619425E+03</pdfrwt>
<totfact> 0.13536309E+06</totfact>
</mgrwt>
</event>
<event>
 6    1  0.4216855E-002  0.1259145E+03  0.7546771E-02  0.1233647E+00
         21   -1    0    0  504  502  0.00000000000E+00  0.00000000000E+00  0.45359235346E+02  0.45359235346E+02  0.00000000000E+00 0. -1.
         21   -1    0    0  502  503 -0.00000000000E+00 -0.00000000000E+00 -0.95389008688E+03  0.95389008688E+03  0.00000000000E+00 0.  1.
         25    2    1    2    0    0 -0.15083225662E+02  0.14975771159E+01 -0.94833462910E+03  0.95665722035E+03  0.12499888827E+03 0.  0.
          5    1    3    3  501    0 -0.19889981245E+02 -0.60404950963E+02 -0.45092516474E+03  0.45538761912E+03  0.10000000000E+00 0.  1.
         -5    1    3    3    0  501  0.48067555825E+01  0.61902528079E+02 -0.49740946437E+03  0.50126960123E+03  0.10000000000E+00 0.  1.
         21    1    1    2  504  503  0.15083225662E+02 -0.14975771159E+01  0.39803777566E+02  0.42592101874E+02  0.00000000000E+00 0. -1.
<mgrwt>
<rscale>  1 0.12591453E+03</rscale>
<asrwt>0</asrwt>
<pdfrwt beam="1">  1       21 0.69783444E-02 0.12591453E+03</pdfrwt>
<pdfrwt beam="2">  1       21 0.14675231E+00 0.12591453E+03</pdfrwt>
<totfact> 0.50119203E+04</totfact>
</mgrwt>
</event>
<event>
 6    1  0.4216855E-002  0.1325633E+03  0.7546771E-02  0.1223701E+00
         21   -1    0    0  503  502  0.00000000000E+00  0.00000000000E+00  0.15813995969E+03  0.15813995969E+03  0.00000000000E+00 0. -1.
         21   -1    0    0  504  503 -0.00000000000E+00 -0.00000000000E+00 -0.21234753014E+03  0.21234753014E+03  0.00000000000E+00 0.  1.
         25    2    1    2    0    0  0.13596168973E+02 -0.41995538748E+02 -0.18775340185E+03  0.22983554292E+03  0.12499822318E+03 0.  0.
          5    1    3    3  501    0  0.40257213011E+02  0.17714208438E+02 -0.17287903018E+02  0.47257993723E+02  0.10000000000E+00 0.  1.
         -5    1    3    3    0  501 -0.26661044038E+02 -0.59709747187E+02 -0.17046549883E+03  0.18257754919E+03  0.10000000000E+00 0.  1.
         21    1    1    2  504  502 -0.13596168973E+02  0.41995538748E+02  0.13354583140E+03  0.14065194691E+03  0.00000000000E+00 0. -1.
<mgrwt>
<rscale>  1 0.13256333E+03</rscale>
<asrwt>0</asrwt>
<pdfrwt beam="1">  1       21 0.24329225E-01 0.13256333E+03</pdfrwt>
<pdfrwt beam="2">  1       21 0.32668851E-01 0.13256333E+03</pdfrwt>
<totfact> 0.14668584E+05</totfact>
</mgrwt>
</event>
<event>
 6    1  0.4216855E-002  0.1318034E+03  0.7546771E-02  0.1224804E+00
         21   -1    0    0  503  502  0.00000000000E+00  0.00000000000E+00  0.20505907043E+03  0.20505907043E+03  0.00000000000E+00 0.  1.
         21   -1    0    0  504  503 -0.00000000000E+00 -0.00000000000E+00 -0.50859655349E+02  0.50859655349E+02  0.00000000000E+00 0. -1.
         25    2    1    2    0    0 -0.25554491816E+02  0.33075660604E+02  0.45460137011E+02  0.13942296632E+03  0.12500043242E+03 0.  0.
          5    1    3    3  501    0 -0.54593604144E+02 -0.10642331218E+02 -0.16695236102E+02  0.58072900183E+02  0.10000000000E+00 0.  1.
         -5    1    3    3    0  501  0.29039112328E+02  0.43717991823E+02  0.62155373113E+02  0.81350066138E+02  0.10000000000E+00 0.  1.
         21    1    1    2  504  502  0.25554491816E+02 -0.33075660604E+02  0.10873927807E+03  0.11649575946E+03  0.00000000000E+00 0.  1.
<mgrwt>
<rscale>  1 0.13180341E+03</rscale>
<asrwt>0</asrwt>
<pdfrwt beam="1">  1       21 0.31547549E-01 0.13180341E+03</pdfrwt>
<pdfrwt beam="2">  1       21 0.78245624E-02 0.13180341E+03</pdfrwt>
<totfact> 0.12043493E+06</totfact>
</mgrwt>
</event>
<event>
 6    1  0.4216855E-002  0.1293912E+03  0.7546771E-02  0.1228362E+00
         21   -1    0    0  503  502  0.00000000000E+00  0.00000000000E+00  0.11685950338E+03  0.11685950338E+03  0.00000000000E+00 0.  1.
         21   -1    0    0  504  503 -0.00000000000E+00 -0.00000000000E+00 -0.58807672838E+02  0.58807672838E+02  0.00000000000E+00 0.  1.
         25    2    1    2    0    0 -0.21030893972E+02 -0.25863288654E+02  0.31813617756E+02  0.13324487063E+03  0.12502352208E+03 0.  0.
          5    1    3    3  501    0  0.37408483786E+02 -0.36891374777E+02  0.48473336412E+02  0.71484561516E+02  0.10000000000E+00 0.  1.
         -5    1    3    3    0  501 -0.58439377758E+02  0.11028086123E+02 -0.16659718656E+02  0.61760309115E+02  0.10000000000E+00 0.  1.
         21    1    1    2  504  502  0.21030893972E+02  0.25863288654E+02  0.26238212785E+02  0.42422305588E+02  0.00000000000E+00 0.  1.
<mgrwt>
<rscale>  1 0.12939123E+03</rscale>
<asrwt>0</asrwt>
<pdfrwt beam="1">  1       21 0.17978385E-01 0.12939123E+03</pdfrwt>
<pdfrwt beam="2">  1       21 0.90473343E-02 0.12939123E+03</pdfrwt>
<totfact> 0.26994411E+06</totfact>
</mgrwt>
</event>
<event>
 6    1  0.4216855E-002  0.1264228E+03  0.7546771E-02  0.1232862E+00
         21   -1    0    0  503  502  0.00000000000E+00  0.00000000000E+00  0.52198836127E+03  0.52198836127E+03  0.00000000000E+00 0.  1.
         21   -1    0    0  504  503 -0.00000000000E+00 -0.00000000000E+00 -0.88247221774E+02  0.88247221774E+02  0.00000000000E+00 0. -1.
         25    2    1    2    0    0 -0.16218208307E+02 -0.97062150129E+01 -0.42685235691E+02  0.13343443805E+03  0.12500191607E+03 0.  0.
          5    1    3    3  501    0  0.46112324587E+02 -0.27315215684E+02  0.37686202641E+01  0.53727832502E+02  0.10000000000E+00 0. -1.
         -5    1    3    3    0  501 -0.62330532894E+02  0.17609000671E+02 -0.46453855955E+02  0.79706605552E+02  0.10000000000E+00 0. -1.
         21    1    1    2  504  502  0.16218208307E+02  0.97062150129E+01  0.47642637518E+03  0.47680114499E+03  0.00000000000E+00 0.  1.
<mgrwt>
<rscale>  1 0.12642278E+03</rscale>
<asrwt>0</asrwt>
<pdfrwt beam="1">  1       21 0.80305900E-01 0.12642278E+03</pdfrwt>
<pdfrwt beam="2">  1       21 0.13576496E-01 0.12642278E+03</pdfrwt>
<totfact> 0.66131743E+04</totfact>
</mgrwt>
</event>
<event>
 6    1  0.4216855E-002  0.1392806E+03  0.7546771E-02  0.1214300E+00
         21   -1    0    0  503  502  0.00000000000E+00  0.00000000000E+00  0.15686953401E+04  0.15686953401E+04  0.00000000000E+00 0. -1.
         21   -1    0    0  504  503 -0.00000000000E+00 -0.00000000000E+00 -0.79454983102E+01  0.79454983102E+01  0.00000000000E+00 0. -1.
         25    2    1    2    0    0 -0.53411162508E+02  0.30302260978E+02  0.70112525696E+03  0.71482565744E+03  0.12501246054E+03 0.  0.
          5    1    3    3  501    0 -0.76000937251E+02  0.11664335828E+02  0.65928847105E+03  0.66375710712E+03  0.10000000000E+00 0. -1.
         -5    1    3    3    0  501  0.22589774743E+02  0.18637925150E+02  0.41836785910E+02  0.51068550323E+02  0.10000000000E+00 0. -1.
         21    1    1    2  504  502  0.53411162508E+02 -0.30302260978E+02  0.85962458480E+03  0.86181518093E+03  0.00000000000E+00 0. -1.
<mgrwt>
<rscale>  1 0.13928063E+03</rscale>
<asrwt>0</asrwt>
<pdfrwt beam="1">  1       21 0.24133750E+00 0.13928063E+03</pdfrwt>
<pdfrwt beam="2">  1       21 0.12223856E-02 0.13928063E+03</pdfrwt>
<totfact> 0.21070415E+05</totfact>
</mgrwt>
</event>
<event>
 6    1  0.4216855E-002  0.1262804E+03  0.7546771E-02  0.1233082E+00
         21   -1    0    0  504  502  0.00000000000E+00  0.00000000000E+00  0.27496941374E+01  0.27496941374E+01  0.00000000000E+00 0.  1.
         21   -1    0    0  502  503 -0.00000000000E+00 -0.00000000000E+00 -0.19052150861E+04  0.19052150861E+04  0.00000000000E+00 0.  1.
         25    2    1    2    0    0  0.17904454241E+02 -0.10426695686E+01 -0.17152822070E+04  0.17199243554E+04  0.12500032798E+03 0.  0.
          5    1    3    3  501    0  0.43487894743E+02  0.41832424519E+02 -0.13370643041E+04  0.13384252359E+04  0.10000000000E+00 0. -1.
         -5    1    3    3    0  501 -0.25583440502E+02 -0.42875094087E+02 -0.37821790283E+03  0.38149911945E+03  0.10000000000E+00 0. -1.
         21    1    1    2  504  503 -0.17904454241E+02  0.10426695686E+01 -0.18718318495E+03  0.18804042482E+03  0.00000000000E+00 0.  1.
<mgrwt>
<rscale>  1 0.12628040E+03</rscale>
<asrwt>0</asrwt>
<pdfrwt beam="1">  1       21 0.42303001E-03 0.12628040E+03</pdfrwt>
<pdfrwt beam="2">  1       21 0.29310991E+00 0.12628040E+03</pdfrwt>
<totfact> 0.56650401E+05</totfact>
</mgrwt>
</event>
<event>
 6    1  0.4216855E-002  0.1264906E+03  0.7546771E-02  0.1232758E+00
         21   -1    0    0  504  502  0.00000000000E+00  0.00000000000E+00  0.43685848076E+02  0.43685848076E+02  0.00000000000E+00 0. -1.
         21   -1    0    0  502  503 -0.00000000000E+00 -0.00000000000E+00 -0.12181305857E+03  0.12181305857E+03  0.00000000000E+00 0. -1.
         25    2    1    2    0    0  0.14148645231E+02 -0.13214331889E+02 -0.66314064496E+02  0.14281955155E+03  0.12500026570E+03 0.  0.
          5    1    3    3  501    0  0.42273237283E+02  0.34884667055E+02 -0.67674074621E+02  0.87084768827E+02  0.10000000000E+00 0. -1.
         -5    1    3    3    0  501 -0.28124592053E+02 -0.48098998944E+02  0.13600101247E+01  0.55734782722E+02  0.10000000000E+00 0. -1.
         21    1    1    2  504  503 -0.14148645231E+02  0.13214331889E+02 -0.11813145994E+02  0.22679355092E+02  0.00000000000E+00 0. -1.
<mgrwt>
<rscale>  1 0.12649059E+03</rscale>
<asrwt>0</asrwt>
<pdfrwt beam="1">  1       21 0.67208996E-02 0.12649059E+03</pdfrwt>
<pdfrwt beam="2">  1       21 0.18740471E-01 0.12649059E+03</pdfrwt>
<totfact> 0.41688566E+06</totfact>
</mgrwt>
</event>
<event>
 6    1  0.4216855E-002  0.1283779E+03  0.7546771E-02  0.1229883E+00
         21   -1    0    0  504  502  0.00000000000E+00  0.00000000000E+00  0.11638981021E+03  0.11638981021E+03  0.00000000000E+00 0. -1.
         21   -1    0    0  502  503 -0.00000000000E+00 -0.00000000000E+00 -0.12503501767E+03  0.12503501767E+03  0.00000000000E+00 0. -1.
         25    2    1    2    0    0 -0.17045431979E+02  0.23804430948E+02 -0.88795423755E+02  0.15609455860E+03  0.12499474493E+03 0.  0.
          5    1    3    3  501    0  0.12357992143E+02 -0.10166972657E+02  0.27279841296E+02  0.31627314839E+02  0.10000000000E+00 0. -1.
         -5    1    3    3    0  501 -0.29403424122E+02  0.33971403605E+02 -0.11607526505E+03  0.12446724376E+03  0.10000000000E+00 0. -1.
         21    1    1    2  504  503  0.17045431979E+02 -0.23804430948E+02  0.80150216294E+02  0.85330269284E+02  0.00000000000E+00 0. -1.
<mgrwt>
<rscale>  1 0.12837790E+03</rscale>
<asrwt>0</asrwt>
<pdfrwt beam="1">  1       21 0.17906125E-01 0.12837790E+03</pdfrwt>
<pdfrwt beam="2">  1       21 0.19236157E-01 0.12837790E+03</pdfrwt>
<totfact> 0.70675984E+05</totfact>
</mgrwt>
</event>
<event>
 6    1  0.4216855E-002  0.1410595E+03  0.7546771E-02  0.1211910E+00
         21   -1    0    0  504  502  0.00000000000E+00  0.00000000000E+00  0.13907613274E+03  0.13907613274E+03  0.00000000000E+00 0.  1.
         21   -1    0    0  502  503 -0.00000000000E+00 -0.00000000000E+00 -0.11397544364E+03  0.11397544364E+03  0.00000000000E+00 0.  1.
         25    2    1    2    0    0 -0.65362518110E+02  0.75496701216E+00 -0.53462279841E+02  0.15085094606E+03  0.12499985525E+03 0.  0.
          5    1    3    3  501    0  0.32801544091E+02  0.87359889125E+01  0.78456277733E+01  0.34839957982E+02  0.10000000000E+00 0.  1.
         -5    1    3    3    0  501 -0.98164062201E+02 -0.79810219003E+01 -0.61307907615E+02  0.11601098808E+03  0.10000000000E+00 0.  1.
         21    1    1    2  504  503  0.65362518110E+02 -0.75496701216E+00  0.78562968938E+02  0.10220063032E+03  0.00000000000E+00 0.  1.
<mgrwt>
<rscale>  1 0.14105954E+03</rscale>
<asrwt>0</asrwt>
<pdfrwt beam="1">  1       21 0.21396328E-01 0.14105954E+03</pdfrwt>
<pdfrwt beam="2">  1       21 0.17534684E-01 0.14105954E+03</pdfrwt>
<totfact> 0.60269985E+05</totfact>
</mgrwt>
</event>
<event>
 6    1  0.4216855E-002  0.1332659E+03  0.7546771E-02  0.1222689E+00
         21   -1    0    0  504  502  0.00000000000E+00  0.00000000000E+00  0.17516396818E+03  0.17516396818E+03  0.00000000000E+00 0. -1.
         21   -1    0    0  502  503 -0.00000000000E+00 -0.00000000000E+00 -0.60592107114E+02  0.60592107114E+02  0.00000000000E+00 0. -1.
         25    2    1    2    0    0  0.42560101790E+02 -0.17961428600E+02  0.25880895444E+02  0.13575576247E+03  0.12500332441E+03 0.  0.
          5    1    3    3  501    0  0.80799337813E+02 -0.38786275149E+02  0.19843846649E+02  0.91797039063E+02  0.10000000000E+00 0.  1.
         -5    1    3    3    0  501 -0.38239236023E+02  0.20824846549E+02  0.60370487946E+01  0.43958723407E+02  0.10000000000E+00 0.  1.
         21    1    1    2  504  503 -0.42560101790E+02  0.17961428600E+02  0.88690965620E+02  0.10000031282E+03  0.00000000000E+00 0. -1.
<mgrwt>
<rscale>  1 0.13326592E+03</rscale>
<asrwt>0</asrwt>
<pdfrwt beam="1">  1       21 0.26948303E-01 0.13326592E+03</pdfrwt>
<pdfrwt beam="2">  1       21 0.93218627E-02 0.13326592E+03</pdfrwt>
<totfact> 0.12043513E+06</totfact>
</mgrwt>
</event>
<event>
 6    1  0.4216855E-002  0.1279494E+03  0.7546771E-02  0.1230531E+00
         21   -1    0    0  503  502  0.00000000000E+00  0.00000000000E+00  0.44722316759E+03  0.44722316759E+03  0.00000000000E+00 0. -1.
         21   -1    0    0  504  503 -0.00000000000E+00 -0.00000000000E+00 -0.21074056880E+03  0.21074056880E+03  0.00000000000E+00 0.  1.
         25    2    1    2    0    0 -0.22477538076E+02 -0.15462012608E+02 -0.19084453346E+03  0.22976659545E+03  0.12500695534E+03 0.  0.
          5    1    3    3  501    0  0.41416747907E+02 -0.28541132440E+02 -0.36315883674E+02  0.62038670643E+02  0.10000000000E+00 0.  1.
         -5    1    3    3    0  501 -0.63894285983E+02  0.13079119832E+02 -0.15452864979E+03  0.16772792481E+03  0.10000000000E+00 0.  1.
         21    1    1    2  504  502  0.22477538076E+02  0.15462012608E+02  0.42732713225E+03  0.42819714094E+03  0.00000000000E+00 0. -1.
<mgrwt>
<rscale>  1 0.12794941E+03</rscale>
<asrwt>0</asrwt>
<pdfrwt beam="1">  1       21 0.68803564E-01 0.12794941E+03</pdfrwt>
<pdfrwt beam="2">  1       21 0.32421626E-01 0.12794941E+03</pdfrwt>
<totfact> 0.18399662E+04</totfact>
</mgrwt>
</event>
<event>
 6    1  0.4216855E-002  0.1571134E+03  0.7546771E-02  0.1191995E+00
         21   -1    0    0  503  502  0.00000000000E+00  0.00000000000E+00  0.44135390281E+03  0.44135390281E+03  0.00000000000E+00 0.  1.
         21   -1    0    0  504  503 -0.00000000000E+00 -0.00000000000E+00 -0.58394085182E+02  0.58394085182E+02  0.00000000000E+00 0.  1.
         25    2    1    2    0    0  0.33848796363E+02 -0.88919889674E+02  0.37219399406E+03  0.40399627390E+03  0.12502852600E+03 0.  0.
          5    1    3    3  501    0 -0.30978231750E+02 -0.86849062930E+02  0.21373906544E+03  0.23278060200E+03  0.10000000000E+00 0.  1.
         -5    1    3    3    0  501  0.64827028113E+02 -0.20708267443E+01  0.15845492863E+03  0.17121567190E+03  0.10000000000E+00 0.  1.
         21    1    1    2  504  502 -0.33848796363E+02  0.88919889674E+02  0.10765823564E+02  0.95751714093E+02  0.00000000000E+00 0.  1.
<mgrwt>
<rscale>  1 0.15711340E+03</rscale>
<asrwt>0</asrwt>
<pdfrwt beam="1">  1       21 0.67900598E-01 0.15711340E+03</pdfrwt>
<pdfrwt beam="2">  1       21 0.89837057E-02 0.15711340E+03</pdfrwt>
<totfact> 0.19628879E+05</totfact>
</mgrwt>
</event>
<event>
 6    1  0.4216855E-002  0.1295448E+03  0.7546771E-02  0.1228133E+00
         21   -1    0    0  503  502  0.00000000000E+00  0.00000000000E+00  0.22138846076E+03  0.22138846076E+03  0.00000000000E+00 0. -1.
         21   -1    0    0  504  503 -0.00000000000E+00 -0.00000000000E+00 -0.49746389108E+02  0.49746389108E+02  0.00000000000E+00 0. -1.
         25    2    1    2    0    0  0.27524724930E+01  0.33921479275E+02  0.40618599351E+02  0.13576353402E+03  0.12499449466E+03 0.  0.
          5    1    3    3  501    0  0.11859424985E+02  0.63191712121E+02 -0.20419976302E+02  0.67459794499E+02  0.10000000000E+00 0. -1.
         -5    1    3    3    0  501 -0.91069524925E+01 -0.29270232845E+02  0.61038575652E+02  0.68303739518E+02  0.10000000000E+00 0. -1.
         21    1    1    2  504  502 -0.27524724930E+01 -0.33921479275E+02  0.13102347230E+03  0.13537131585E+03  0.00000000000E+00 0. -1.
<mgrwt>
<rscale>  1 0.12954484E+03</rscale>
<asrwt>0</asrwt>
<pdfrwt beam="1">  1       21 0.34059763E-01 0.12954484E+03</pdfrwt>
<pdfrwt beam="2">  1       21 0.76532907E-02 0.12954484E+03</pdfrwt>
<totfact> 0.10772753E+06</totfact>
</mgrwt>
</event>
<event>
 6    1  0.4216855E-002  0.1264306E+03  0.7546771E-02  0.1232850E+00
         21   -1    0    0  503  502  0.00000000000E+00  0.00000000000E+00  0.18890581447E+02  0.18890581447E+02  0.00000000000E+00 0. -1.
         21   -1    0    0  504  503 -0.00000000000E+00 -0.00000000000E+00 -0.34135311007E+03  0.34135311007E+03  0.00000000000E+00 0. -1.
         25    2    1    2    0    0 -0.17108523219E+02 -0.82905775494E+01 -0.31568318846E+03  0.34005967071E+03  0.12499307551E+03 0.  0.
          5    1    3    3  501    0 -0.31754002289E+02 -0.45589783165E+02 -0.62082414110E+02  0.83312550868E+02  0.10000000000E+00 0.  1.
         -5    1    3    3    0  501  0.14645479070E+02  0.37299205615E+02 -0.25360077435E+03  0.25674711985E+03  0.10000000000E+00 0.  1.
         21    1    1    2  504  502  0.17108523219E+02  0.82905775494E+01 -0.67793401631E+01  0.20184020806E+02  0.00000000000E+00 0. -1.
<mgrwt>
<rscale>  1 0.12643063E+03</rscale>
<asrwt>0</asrwt>
<pdfrwt beam="1">  1       21 0.29062436E-02 0.12643063E+03</pdfrwt>
<pdfrwt beam="2">  1       21 0.52515857E-01 0.12643063E+03</pdfrwt>
<totfact> 0.22794606E+06</totfact>
</mgrwt>
</event>
<event>
 6    1  0.4216855E-002  0.1380743E+03  0.7546771E-02  0.1215944E+00
         21   -1    0    0  503  502  0.00000000000E+00  0.00000000000E+00  0.32744308367E+02  0.32744308367E+02  0.00000000000E+00 0. -1.
         21   -1    0    0  504  503 -0.00000000000E+00 -0.00000000000E+00 -0.51480454303E+03  0.51480454303E+03  0.00000000000E+00 0. -1.
         25    2    1    2    0    0 -0.58194135103E+02  0.73115322717E+01 -0.46701468833E+03  0.48699817569E+03  0.12499795256E+03 0.  0.
          5    1    3    3  501    0 -0.59794806390E+02 -0.42378305616E+02 -0.37801454770E+03  0.38505369487E+03  0.10000000000E+00 0. -1.
         -5    1    3    3    0  501  0.16006712860E+01  0.49689837888E+02 -0.89000140628E+02  0.10194448082E+03  0.10000000000E+00 0. -1.
         21    1    1    2  504  502  0.58194135103E+02 -0.73115322717E+01 -0.15045546337E+02  0.60550675712E+02  0.00000000000E+00 0. -1.
<mgrwt>
<rscale>  1 0.13807427E+03</rscale>
<asrwt>0</asrwt>
<pdfrwt beam="1">  1       21 0.50375862E-02 0.13807427E+03</pdfrwt>
<pdfrwt beam="2">  1       21 0.79200694E-01 0.13807427E+03</pdfrwt>
<totfact> 0.37794120E+05</totfact>
</mgrwt>
</event>
<event>
 6    1  0.4216855E-002  0.1303156E+03  0.7546771E-02  0.1226988E+00
         21   -1    0    0  503  502  0.00000000000E+00  0.00000000000E+00  0.78959860343E+03  0.78959860343E+03  0.00000000000E+00 0.  1.
         21   -1    0    0  504  503 -0.00000000000E+00 -0.00000000000E+00 -0.95610989064E+01  0.95610989064E+01  0.00000000000E+00 0.  1.
         25    2    1    2    0    0 -0.32733713784E+02  0.16915210460E+02  0.49977189993E+03  0.51648244913E+03  0.12499819173E+03 0.  0.
          5    1    3    3  501    0 -0.77092290318E+02  0.12475563123E+02  0.39457654740E+03  0.40223068339E+03  0.10000000000E+00 0. -1.
         -5    1    3    3    0  501  0.44358576533E+02  0.44396473372E+01  0.10519535253E+03  0.11425176574E+03  0.10000000000E+00 0. -1.
         21    1    1    2  504  502  0.32733713784E+02 -0.16915210460E+02  0.28026560460E+03  0.28267725321E+03  0.00000000000E+00 0.  1.
<mgrwt>
<rscale>  1 0.13031565E+03</rscale>
<asrwt>0</asrwt>
<pdfrwt beam="1">  1       21 0.12147666E+00 0.13031565E+03</pdfrwt>
<pdfrwt beam="2">  1       21 0.14709389E-02 0.13031565E+03</pdfrwt>
<totfact> 0.10444326E+06</totfact>
</mgrwt>
</event>
<event>
 6    1  0.4216855E-002  0.1360720E+03  0.7546771E-02  0.1218714E+00
         21   -1    0    0  504  502  0.00000000000E+00  0.00000000000E+00  0.36248698810E+02  0.36248698810E+02  0.00000000000E+00 0.  1.
         21   -1    0    0  502  503 -0.00000000000E+00 -0.00000000000E+00 -0.33229705532E+03  0.33229705532E+03  0.00000000000E+00 0.  1.
         25    2    1    2    0    0 -0.81492685799E+01  0.53156386122E+02 -0.28176918663E+03  0.31290488196E+03  0.12499431449E+03 0.  0.
          5    1    3    3  501    0  0.28470332578E+01  0.90840341144E+02 -0.23428150327E+03  0.25129247094E+03  0.10000000000E+00 0.  1.
         -5    1    3    3    0  501 -0.10996301838E+02 -0.37683955022E+02 -0.47487683365E+02  0.61612411019E+02  0.10000000000E+00 0.  1.
         21    1    1    2  504  503  0.81492685799E+01 -0.53156386122E+02 -0.14279169880E+02  0.55640872175E+02  0.00000000000E+00 0.  1.
<mgrwt>
<rscale>  1 0.13607201E+03</rscale>
<asrwt>0</asrwt>
<pdfrwt beam="1">  1       21 0.55767226E-02 0.13607201E+03</pdfrwt>
<pdfrwt beam="2">  1       21 0.51122626E-01 0.13607201E+03</pdfrwt>
<totfact> 0.81613300E+05</totfact>
</mgrwt>
</event>
<event>
 6    1  0.4216855E-002  0.1272253E+03  0.7546771E-02  0.1231632E+00
         21   -1    0    0  503  502  0.00000000000E+00  0.00000000000E+00  0.24111775514E+03  0.24111775514E+03  0.00000000000E+00 0.  1.
         21   -1    0    0  504  503 -0.00000000000E+00 -0.00000000000E+00 -0.12745447168E+03  0.12745447168E+03  0.00000000000E+00 0.  1.
         25    2    1    2    0    0  0.21352313006E+02  0.99683492540E+01 -0.94875573655E+02  0.15870621199E+03  0.12502398966E+03 0.  0.
          5    1    3    3  501    0  0.69101518906E+02  0.17190605796E+02 -0.28678433599E+02  0.76765873905E+02  0.10000000000E+00 0.  1.
         -5    1    3    3    0  501 -0.47749205900E+02 -0.72222565418E+01 -0.66197140056E+02  0.81940338083E+02  0.10000000000E+00 0.  1.
         21    1    1    2  504  502 -0.21352313006E+02 -0.99683492540E+01  0.20853885711E+03  0.20986601484E+03  0.00000000000E+00 0.  1.
<mgrwt>
<rscale>  1 0.12722534E+03</rscale>
<asrwt>0</asrwt>
<pdfrwt beam="1">  1       21 0.37095039E-01 0.12722534E+03</pdfrwt>
<pdfrwt beam="2">  1       21 0.19608380E-01 0.12722534E+03</pdfrwt>
<totfact> 0.17118356E+05</totfact>
</mgrwt>
</event>
<event>
 6    1  0.4216855E-002  0.1259835E+03  0.7546771E-02  0.1233540E+00
         21   -1    0    0  504  502  0.00000000000E+00  0.00000000000E+00  0.24249558437E+01  0.24249558437E+01  0.00000000000E+00 0. -1.
         21   -1    0    0  502  503 -0.00000000000E+00 -0.00000000000E+00 -0.23401420358E+04  0.23401420358E+04  0.00000000000E+00 0. -1.
         25    2    1    2    0    0 -0.14919350580E+02  0.50242990948E+01 -0.22442569632E+04  0.22477902855E+04  0.12499608040E+03 0.  0.
          5    1    3    3  501    0  0.34223916725E+02 -0.21775615154E+02 -0.17336090084E+04  0.17340835210E+04  0.10000000000E+00 0. -1.
         -5    1    3    3    0  501 -0.49143267305E+02  0.26799914249E+02 -0.51064795487E+03  0.51370676454E+03  0.10000000000E+00 0. -1.
         21    1    1    2  504  503  0.14919350580E+02 -0.50242990948E+01 -0.93460116719E+02  0.94776706106E+02  0.00000000000E+00 0. -1.
<mgrwt>
<rscale>  1 0.12598353E+03</rscale>
<asrwt>0</asrwt>
<pdfrwt beam="1">  1       21 0.37306861E-03 0.12598353E+03</pdfrwt>
<pdfrwt beam="2">  1       21 0.36002332E+00 0.12598353E+03</pdfrwt>
<totfact> 0.28651073E+05</totfact>
</mgrwt>
</event>
<event>
 6    1  0.4216855E-002  0.1263698E+03  0.7546771E-02  0.1232944E+00
         21   -1    0    0  504  502  0.00000000000E+00  0.00000000000E+00  0.22048543771E+03  0.22048543771E+03  0.00000000000E+00 0. -1.
         21   -1    0    0  502  503 -0.00000000000E+00 -0.00000000000E+00 -0.79050943791E+03  0.79050943791E+03  0.00000000000E+00 0. -1.
         25    2    1    2    0    0  0.16119272157E+02 -0.91682860739E+01 -0.78505749109E+03  0.79516325003E+03  0.12500176587E+03 0.  0.
          5    1    3    3  501    0 -0.10416536425E+02 -0.55831235160E+02 -0.59396390216E+03  0.59667307474E+03  0.10000000000E+00 0. -1.
         -5    1    3    3    0  501  0.26535808582E+02  0.46662949086E+02 -0.19109358893E+03  0.19849017528E+03  0.10000000000E+00 0. -1.
         21    1    1    2  504  503 -0.16119272157E+02  0.91682860739E+01  0.21503349089E+03  0.21583162559E+03  0.00000000000E+00 0. -1.
<mgrwt>
<rscale>  1 0.12636981E+03</rscale>
<asrwt>0</asrwt>
<pdfrwt beam="1">  1       21 0.33920837E-01 0.12636981E+03</pdfrwt>
<pdfrwt beam="2">  1       21 0.12161684E+00 0.12636981E+03</pdfrwt>
<totfact> 0.45544263E+03</totfact>
</mgrwt>
</event>
<event>
 6    1  0.4216855E-002  0.1263050E+03  0.7546771E-02  0.1233044E+00
         21   -1    0    0  503  502  0.00000000000E+00  0.00000000000E+00  0.87606660721E+02  0.87606660721E+02  0.00000000000E+00 0.  1.
         21   -1    0    0  504  503 -0.00000000000E+00 -0.00000000000E+00 -0.39598614592E+03  0.39598614592E+03  0.00000000000E+00 0.  1.
         25    2    1    2    0    0 -0.27807075756E+01 -0.17779204687E+02 -0.38484333310E+03  0.40503994233E+03  0.12501652450E+03 0.  0.
          5    1    3    3  501    0 -0.28747260630E+02 -0.65745211521E+02 -0.22058474313E+03  0.23196223126E+03  0.10000000000E+00 0. -1.
         -5    1    3    3    0  501  0.25966553055E+02  0.47966006834E+02 -0.16425858998E+03  0.17307771107E+03  0.10000000000E+00 0. -1.
         21    1    1    2  504  502  0.27807075756E+01  0.17779204687E+02  0.76463847906E+02  0.78552864305E+02  0.00000000000E+00 0.  1.
<mgrwt>
<rscale>  1 0.12630504E+03</rscale>
<asrwt>0</asrwt>
<pdfrwt beam="1">  1       21 0.13477948E-01 0.12630504E+03</pdfrwt>
<pdfrwt beam="2">  1       21 0.60920947E-01 0.12630504E+03</pdfrwt>
<totfact> 0.12234498E+05</totfact>
</mgrwt>
</event>
<event>
 6    1  0.4216855E-002  0.1271734E+03  0.7546771E-02  0.1231711E+00
         21   -1    0    0  503  502  0.00000000000E+00  0.00000000000E+00  0.25158013298E+03  0.25158013298E+03  0.00000000000E+00 0.  1.
         21   -1    0    0  504  503 -0.00000000000E+00 -0.00000000000E+00 -0.35967304966E+02  0.35967304966E+02  0.00000000000E+00 0.  1.
         25    2    1    2    0    0 -0.99036026541E+01  0.21207623379E+02  0.80695485289E+02  0.15061484868E+03  0.12500090664E+03 0.  0.
          5    1    3    3  501    0 -0.32679495368E+02  0.57930059478E+02  0.92978073564E+01  0.67158770315E+02  0.10000000000E+00 0.  1.
         -5    1    3    3    0  501  0.22775892714E+02 -0.36722436098E+02  0.71397677932E+02  0.83456078365E+02  0.10000000000E+00 0.  1.
         21    1    1    2  504  502  0.99036026541E+01 -0.21207623379E+02  0.13491734272E+03  0.13693258926E+03  0.00000000000E+00 0.  1.
<mgrwt>
<rscale>  1 0.12717339E+03</rscale>
<asrwt>0</asrwt>
<pdfrwt beam="1">  1       21 0.38704635E-01 0.12717339E+03</pdfrwt>
<pdfrwt beam="2">  1       21 0.55334317E-02 0.12717339E+03</pdfrwt>
<totfact> 0.14540867E+06</totfact>
</mgrwt>
</event>
<event>
 6    1  0.4216855E-002  0.1298316E+03  0.7546771E-02  0.1227706E+00
         21   -1    0    0  503  502  0.00000000000E+00  0.00000000000E+00  0.25567447096E+02  0.25567447096E+02  0.00000000000E+00 0.  1.
         21   -1    0    0  504  503 -0.00000000000E+00 -0.00000000000E+00 -0.28726996856E+03  0.28726996856E+03  0.00000000000E+00 0.  1.
         25    2    1    2    0    0  0.18792292586E+02  0.29624395477E+02 -0.23597271696E+03  0.26933134818E+03  0.12500198755E+03 0.  0.
          5    1    3    3  501    0  0.14742575645E+02  0.18891205940E+02 -0.25003636165E+03  0.25118203230E+03  0.10000000000E+00 0. -1.
         -5    1    3    3    0  501  0.40497169418E+01  0.10733189538E+02  0.14063644691E+02  0.18149315881E+02  0.10000000000E+00 0. -1.
         21    1    1    2  504  502 -0.18792292586E+02 -0.29624395477E+02 -0.25729804504E+02  0.43506067484E+02  0.00000000000E+00 0.  1.
<mgrwt>
<rscale>  1 0.12983163E+03</rscale>
<asrwt>0</asrwt>
<pdfrwt beam="1">  1       21 0.39334535E-02 0.12983163E+03</pdfrwt>
<pdfrwt beam="2">  1       21 0.44195378E-01 0.12983163E+03</pdfrwt>
<totfact> 0.19731246E+06</totfact>
</mgrwt>
</event>
<event>
 6    1  0.4216855E-002  0.1368606E+03  0.7546771E-02  0.1217617E+00
         21   -1    0    0  504  502  0.00000000000E+00  0.00000000000E+00  0.24538684472E+02  0.24538684472E+02  0.00000000000E+00 0.  1.
         21   -1    0    0  502  503 -0.00000000000E+00 -0.00000000000E+00 -0.42235600754E+03  0.42235600754E+03  0.00000000000E+00 0.  1.
         25    2    1    2    0    0  0.16275927905E+02  0.53281706031E+02 -0.34043884128E+03  0.36691884441E+03  0.12500795058E+03 0.  0.
          5    1    3    3  501    0 -0.44242239107E+02  0.57568476859E+02 -0.14311526090E+03  0.16047894924E+03  0.10000000000E+00 0. -1.
         -5    1    3    3    0  501  0.60518167012E+02 -0.42867708284E+01 -0.19732358038E+03  0.20643989517E+03  0.10000000000E+00 0. -1.
         21    1    1    2  504  503 -0.16275927905E+02 -0.53281706031E+02 -0.57378481789E+02  0.79975847599E+02  0.00000000000E+00 0.  1.
<mgrwt>
<rscale>  1 0.13686064E+03</rscale>
<asrwt>0</asrwt>
<pdfrwt beam="1">  1       21 0.37751824E-02 0.13686064E+03</pdfrwt>
<pdfrwt beam="2">  1       21 0.64977845E-01 0.13686064E+03</pdfrwt>
<totfact> 0.94498914E+05</totfact>
</mgrwt>
</event>
<event>
 6    1  0.4216855E-002  0.1282889E+03  0.7546771E-02  0.1230017E+00
         21   -1    0    0  504  502  0.00000000000E+00  0.00000000000E+00  0.16727965355E+02  0.16727965355E+02  0.00000000000E+00 0.  1.
         21   -1    0    0  502  503 -0.00000000000E+00 -0.00000000000E+00 -0.16140726773E+04  0.16140726773E+04  0.00000000000E+00 0.  1.
         25    2    1    2    0    0  0.25128941808E+02 -0.14190600978E+02 -0.15967912413E+04  0.16019364225E+04  0.12500078706E+03 0.  0.
          5    1    3    3  501    0  0.73795571957E+02 -0.19492284457E+02 -0.11331987558E+04  0.11357663341E+04  0.10000000000E+00 0. -1.
         -5    1    3    3    0  501 -0.48666630148E+02  0.53016834792E+01 -0.46359248550E+03  0.46617008844E+03  0.10000000000E+00 0. -1.
         21    1    1    2  504  503 -0.25128941808E+02  0.14190600978E+02 -0.55347065765E+00  0.28864220105E+02  0.00000000000E+00 0.  1.
<mgrwt>
<rscale>  1 0.12828887E+03</rscale>
<asrwt>0</asrwt>
<pdfrwt beam="1">  1       21 0.25735332E-02 0.12828887E+03</pdfrwt>
<pdfrwt beam="2">  1       21 0.24831887E+00 0.12828887E+03</pdfrwt>
<totfact> 0.58513969E+04</totfact>
</mgrwt>
</event>
<event>
 6    1  0.4216855E-002  0.1304060E+03  0.7546771E-02  0.1226855E+00
         21   -1    0    0  503  502  0.00000000000E+00  0.00000000000E+00  0.35183311896E+03  0.35183311896E+03  0.00000000000E+00 0. -1.
         21   -1    0    0  504  503 -0.00000000000E+00 -0.00000000000E+00 -0.30216163720E+02  0.30216163720E+02  0.00000000000E+00 0. -1.
         25    2    1    2    0    0 -0.36190281761E+02 -0.84107459804E+01  0.12058683661E+03  0.17761448687E+03  0.12500097456E+03 0.  0.
          5    1    3    3  501    0 -0.54500560874E+02  0.40777225525E+02  0.33331000600E+02  0.75789569586E+02  0.10000000000E+00 0. -1.
         -5    1    3    3    0  501  0.18310279113E+02 -0.49187971506E+02  0.87255836014E+02  0.10182491729E+03  0.10000000000E+00 0. -1.
         21    1    1    2  504  502  0.36190281761E+02  0.84107459804E+01  0.20103011862E+03  0.20443479580E+03  0.00000000000E+00 0. -1.
<mgrwt>
<rscale>  1 0.13040598E+03</rscale>
<asrwt>0</asrwt>
<pdfrwt beam="1">  1       21 0.54128169E-01 0.13040598E+03</pdfrwt>
<pdfrwt beam="2">  1       21 0.46486408E-02 0.13040598E+03</pdfrwt>
<totfact> 0.98427367E+05</totfact>
</mgrwt>
</event>
<event>
 6    1  0.4216855E-002  0.1259678E+03  0.7546771E-02  0.1233565E+00
         21   -1    0    0  504  502  0.00000000000E+00  0.00000000000E+00  0.31347026485E+02  0.31347026485E+02  0.00000000000E+00 0. -1.
         21   -1    0    0  502  503 -0.00000000000E+00 -0.00000000000E+00 -0.29319348924E+03  0.29319348924E+03  0.00000000000E+00 0. -1.
         25    2    1    2    0    0 -0.80593258180E+01 -0.13001573711E+02 -0.27619662914E+03  0.30356622367E+03  0.12503551717E+03 0.  0.
          5    1    3    3  501    0  0.32753044952E+02 -0.71798415362E+01 -0.25502888289E+03  0.25722374149E+03  0.10000000000E+00 0.  1.
         -5    1    3    3    0  501 -0.40812370770E+02 -0.58217321748E+01 -0.21167746254E+02  0.46342482182E+02  0.10000000000E+00 0.  1.
         21    1    1    2  504  503  0.80593258180E+01  0.13001573711E+02  0.14350166391E+02  0.20974292051E+02  0.00000000000E+00 0. -1.
<mgrwt>
<rscale>  1 0.12596775E+03</rscale>
<asrwt>0</asrwt>
<pdfrwt beam="1">  1       21 0.48226194E-02 0.12596775E+03</pdfrwt>
<pdfrwt beam="2">  1       21 0.45106691E-01 0.12596775E+03</pdfrwt>
<totfact> 0.13467757E+06</totfact>
</mgrwt>
</event>
<event>
 6    1  0.4216855E-002  0.1417853E+03  0.7546771E-02  0.1210947E+00
         21   -1    0    0  503  502  0.00000000000E+00  0.00000000000E+00  0.19926733266E+03  0.19926733266E+03  0.00000000000E+00 0.  1.
         21   -1    0    0  504  503 -0.00000000000E+00 -0.00000000000E+00 -0.76233452136E+02  0.76233452136E+02  0.00000000000E+00 0.  1.
         25    2    1    2    0    0 -0.64262746287E+02 -0.18796838483E+02  0.75196000240E+01  0.14198460339E+03  0.12498024451E+03 0.  0.
          5    1    3    3  501    0 -0.41922949498E+02  0.11766332087E+02 -0.54233837049E+02  0.69550696233E+02  0.10000000000E+00 0. -1.
         -5    1    3    3    0  501 -0.22339796789E+02 -0.30563170569E+02  0.61753437073E+02  0.72433907158E+02  0.10000000000E+00 0. -1.
         21    1    1    2  504  502  0.64262746287E+02  0.18796838483E+02  0.11551428050E+03  0.13351618140E+03  0.00000000000E+00 0.  1.
<mgrwt>
<rscale>  1 0.14178534E+03</rscale>
<asrwt>0</asrwt>
<pdfrwt beam="1">  1       21 0.30656513E-01 0.14178534E+03</pdfrwt>
<pdfrwt beam="2">  1       21 0.11728223E-01 0.14178534E+03</pdfrwt>
<totfact> 0.62784064E+05</totfact>
</mgrwt>
</event>
<event>
 6    1  0.4216855E-002  0.1353207E+03  0.7546771E-02  0.1219768E+00
         21   -1    0    0  503  502  0.00000000000E+00  0.00000000000E+00  0.84671780472E+02  0.84671780472E+02  0.00000000000E+00 0.  1.
         21   -1    0    0  504  503 -0.00000000000E+00 -0.00000000000E+00 -0.10693752928E+03  0.10693752928E+03  0.00000000000E+00 0.  1.
         25    2    1    2    0    0  0.50570161020E+02 -0.11406908604E+02 -0.33633396098E+00  0.13532114061E+03  0.12499695687E+03 0.  0.
          5    1    3    3  501    0 -0.38054027822E+02 -0.15381844033E+02 -0.18079659476E+02  0.44850799838E+02  0.10000000000E+00 0. -1.
         -5    1    3    3    0  501  0.88624188842E+02  0.39749354297E+01  0.17743325515E+02  0.90470340775E+02  0.10000000000E+00 0. -1.
         21    1    1    2  504  502 -0.50570161020E+02  0.11406908604E+02 -0.21929414846E+02  0.56288169138E+02  0.00000000000E+00 0.  1.
<mgrwt>
<rscale>  1 0.13532072E+03</rscale>
<asrwt>0</asrwt>
<pdfrwt beam="1">  1       21 0.13026428E-01 0.13532072E+03</pdfrwt>
<pdfrwt beam="2">  1       21 0.16451928E-01 0.13532072E+03</pdfrwt>
<totfact> 0.16726516E+06</totfact>
</mgrwt>
</event>
<event>
 6    1  0.4216855E-002  0.1314074E+03  0.7546771E-02  0.1225382E+00
         21   -1    0    0  503  502  0.00000000000E+00  0.00000000000E+00  0.11882501757E+03  0.11882501757E+03  0.00000000000E+00 0. -1.
         21   -1    0    0  504  503 -0.00000000000E+00 -0.00000000000E+00 -0.79890799141E+02  0.79890799141E+02  0.00000000000E+00 0. -1.
         25    2    1    2    0    0 -0.37091488312E+02  0.16287457221E+02  0.68854935224E+02  0.14835403495E+03  0.12500743104E+03 0.  0.
          5    1    3    3  501    0  0.13840648516E+01  0.36733362333E+02 -0.25287673090E+02  0.44617619324E+02  0.10000000000E+00 0.  1.
         -5    1    3    3    0  501 -0.38475553163E+02 -0.20445905113E+02  0.94142608315E+02  0.10373641563E+03  0.10000000000E+00 0.  1.
         21    1    1    2  504  502  0.37091488312E+02 -0.16287457221E+02 -0.29920716799E+02  0.50361781756E+02  0.00000000000E+00 0. -1.
<mgrwt>
<rscale>  1 0.13140745E+03</rscale>
<asrwt>0</asrwt>
<pdfrwt beam="1">  1       21 0.18280772E-01 0.13140745E+03</pdfrwt>
<pdfrwt beam="2">  1       21 0.12290892E-01 0.13140745E+03</pdfrwt>
<totfact> 0.15293151E+06</totfact>
</mgrwt>
</event>
<event>
 6    1  0.4216855E-002  0.1260228E+03  0.7546771E-02  0.1233479E+00
         21   -1    0    0  504  502  0.00000000000E+00  0.00000000000E+00  0.30958897652E+03  0.30958897652E+03  0.00000000000E+00 0.  1.
         21   -1    0    0  502  503 -0.00000000000E+00 -0.00000000000E+00 -0.17771879468E+03  0.17771879468E+03  0.00000000000E+00 0.  1.
         25    2    1    2    0    0  0.15728555080E+02  0.28955285121E+01 -0.15512704193E+03  0.19986529352E+03  0.12500385948E+03 0.  0.
          5    1    3    3  501    0 -0.46193766275E+01  0.35216195449E+02 -0.15763842105E+03  0.16159022512E+03  0.10000000000E+00 0.  1.
         -5    1    3    3    0  501  0.20347931707E+02 -0.32320666937E+02  0.25113791233E+01  0.38275068401E+02  0.10000000000E+00 0.  1.
         21    1    1    2  504  503 -0.15728555080E+02 -0.28955285121E+01  0.28699722376E+03  0.28744247768E+03  0.00000000000E+00 0.  1.
<mgrwt>
<rscale>  1 0.12602276E+03</rscale>
<asrwt>0</asrwt>
<pdfrwt beam="1">  1       21 0.47629073E-01 0.12602276E+03</pdfrwt>
<pdfrwt beam="2">  1       21 0.27341353E-01 0.12602276E+03</pdfrwt>
<totfact> 0.55539251E+04</totfact>
</mgrwt>
</event>
<event>
 6    1  0.4216855E-002  0.1259717E+03  0.7546771E-02  0.1233558E+00
         21   -1    0    0  503  502  0.00000000000E+00  0.00000000000E+00  0.19195220832E+03  0.19195220832E+03  0.00000000000E+00 0.  1.
         21   -1    0    0  504  503 -0.00000000000E+00 -0.00000000000E+00 -0.12838471667E+04  0.12838471667E+04  0.00000000000E+00 0. -1.
         25    2    1    2    0    0  0.13998037526E+02  0.70333994363E+01 -0.12804314249E+04  0.12866131890E+04  0.12499380156E+03 0.  0.
          5    1    3    3  501    0 -0.38264343438E+02  0.21558019434E+02 -0.19751332534E+03  0.20233742083E+03  0.10000000000E+00 0.  1.
         -5    1    3    3    0  501  0.52262380964E+02 -0.14524619997E+02 -0.10829180996E+04  0.10842757682E+04  0.10000000000E+00 0.  1.
         21    1    1    2  504  502 -0.13998037526E+02 -0.70333994363E+01  0.18853646654E+03  0.18918618602E+03  0.00000000000E+00 0.  1.
<mgrwt>
<rscale>  1 0.12597168E+03</rscale>
<asrwt>0</asrwt>
<pdfrwt beam="1">  1       21 0.29531108E-01 0.12597168E+03</pdfrwt>
<pdfrwt beam="2">  1       21 0.19751495E+00 0.12597168E+03</pdfrwt>
<totfact> 0.16643995E+03</totfact>
</mgrwt>
</event>
<event>
 6    1  0.4216855E-002  0.1286445E+03  0.7546771E-02  0.1229481E+00
         21   -1    0    0  504  502  0.00000000000E+00  0.00000000000E+00  0.10496797890E+03  0.10496797890E+03  0.00000000000E+00 0. -1.
         21   -1    0    0  502  503 -0.00000000000E+00 -0.00000000000E+00 -0.74531285182E+02  0.74531285182E+02  0.00000000000E+00 0. -1.
         25    2    1    2    0    0  0.27874552245E+02  0.12101312113E+02  0.55502954201E+02  0.14010700809E+03  0.12500385343E+03 0.  0.
          5    1    3    3  501    0  0.71144293276E+02 -0.48566871898E+01  0.60298000825E+02  0.93386063091E+02  0.10000000000E+00 0. -1.
         -5    1    3    3    0  501 -0.43269741031E+02  0.16957999302E+02 -0.47950466241E+01  0.46720944996E+02  0.10000000000E+00 0. -1.
         21    1    1    2  504  503 -0.27874552245E+02 -0.12101312113E+02 -0.25066260484E+02  0.39392255995E+02  0.00000000000E+00 0. -1.
<mgrwt>
<rscale>  1 0.12864445E+03</rscale>
<asrwt>0</asrwt>
<pdfrwt beam="1">  1       21 0.16148920E-01 0.12864445E+03</pdfrwt>
<pdfrwt beam="2">  1       21 0.11466352E-01 0.12864445E+03</pdfrwt>
<totfact> 0.21669342E+06</totfact>
</mgrwt>
</event>
<event>
 6    1  0.4216855E-002  0.1337652E+03  0.7546771E-02  0.1221973E+00
         21   -1    0    0  504  502  0.00000000000E+00  0.00000000000E+00  0.49123087842E+03  0.49123087842E+03  0.00000000000E+00 0.  1.
         21   -1    0    0  502  503 -0.00000000000E+00 -0.00000000000E+00 -0.36737971106E+02  0.36737971106E+02  0.00000000000E+00 0.  1.
         25    2    1    2    0    0  0.26913504472E+02  0.39273093034E+02  0.91967098424E+02  0.16233012801E+03  0.12500564271E+03 0.  0.
          5    1    3    3  501    0  0.15192998633E+02  0.63708849597E+02  0.11122993690E+03  0.12908041520E+03  0.10000000000E+00 0.  1.
         -5    1    3    3    0  501  0.11720505839E+02 -0.24435756563E+02 -0.19262838479E+02  0.33249712813E+02  0.10000000000E+00 0.  1.
         21    1    1    2  504  503 -0.26913504472E+02 -0.39273093034E+02  0.36252580889E+03  0.36563872151E+03  0.00000000000E+00 0.  1.
<mgrwt>
<rscale>  1 0.13376518E+03</rscale>
<asrwt>0</asrwt>
<pdfrwt beam="1">  1       21 0.75573977E-01 0.13376518E+03</pdfrwt>
<pdfrwt beam="2">  1       21 0.56519959E-02 0.13376518E+03</pdfrwt>
<totfact> 0.34570577E+05</totfact>
</mgrwt>
</event>
<event>
 6    1  0.4216855E-002  0.1261689E+03  0.7546771E-02  0.1233254E+00
         21   -1    0    0  504  502  0.00000000000E+00  0.00000000000E+00  0.45369106693E+03  0.45369106693E+03  0.00000000000E+00 0.  1.
         21   -1    0    0  502  503 -0.00000000000E+00 -0.00000000000E+00 -0.28253182903E+02  0.28253182903E+02  0.00000000000E+00 0.  1.
         25    2    1    2    0    0  0.57195424335E+01 -0.16157448904E+02  0.11402392861E+03  0.17005896972E+03  0.12499928227E+03 0.  0.
          5    1    3    3  501    0  0.12281933826E+01 -0.34094794960E+02  0.13664618210E+03  0.14084087682E+03  0.10000000000E+00 0.  1.
         -5    1    3    3    0  501  0.44913490509E+01  0.17937346056E+02 -0.22622253488E+02  0.29218092900E+02  0.10000000000E+00 0.  1.
         21    1    1    2  504  503 -0.57195424335E+01  0.16157448904E+02  0.31141395542E+03  0.31188528011E+03  0.00000000000E+00 0.  1.
<mgrwt>
<rscale>  1 0.12616892E+03</rscale>
<asrwt>0</asrwt>
<pdfrwt beam="1">  1       21 0.69798621E-01 0.12616892E+03</pdfrwt>
<pdfrwt beam="2">  1       21 0.43466438E-02 0.12616892E+03</pdfrwt>
<totfact> 0.64032325E+05</totfact>
</mgrwt>
</event>
<event>
 6    1  0.4216855E-002  0.1271186E+03  0.7546771E-02  0.1231795E+00
         21   -1    0    0  503  502  0.00000000000E+00  0.00000000000E+00  0.88837648574E+02  0.88837648574E+02  0.00000000000E+00 0.  1.
         21   -1    0    0  504  503 -0.00000000000E+00 -0.00000000000E+00 -0.81112806112E+02  0.81112806112E+02  0.00000000000E+00 0. -1.
         25    2    1    2    0    0  0.22943131005E+02 -0.27742589988E+01 -0.25330315762E+02  0.12961774763E+03  0.12500020732E+03 0.  0.
          5    1    3    3  501    0  0.28662161517E+02 -0.45078552818E+02  0.28793290297E+02  0.60684915696E+02  0.10000000000E+00 0.  1.
         -5    1    3    3    0  501 -0.57190305121E+01  0.42304293819E+02 -0.54123606059E+02  0.68932831933E+02  0.10000000000E+00 0.  1.
         21    1    1    2  504  502 -0.22943131005E+02  0.27742589988E+01  0.33055158224E+02  0.40332707057E+02  0.00000000000E+00 0.  1.
<mgrwt>
<rscale>  1 0.12711859E+03</rscale>
<asrwt>0</asrwt>
<pdfrwt beam="1">  1       21 0.13667331E-01 0.12711859E+03</pdfrwt>
<pdfrwt beam="2">  1       21 0.12478893E-01 0.12711859E+03</pdfrwt>
<totfact> 0.25182762E+06</totfact>
</mgrwt>
</event>
<event>
 6    1  0.4216855E-002  0.1268059E+03  0.7546771E-02  0.1232274E+00
         21   -1    0    0  504  502  0.00000000000E+00  0.00000000000E+00  0.84702969646E+01  0.84702969646E+01  0.00000000000E+00 0.  1.
         21   -1    0    0  502  503 -0.00000000000E+00 -0.00000000000E+00 -0.70278080451E+03  0.70278080451E+03  0.00000000000E+00 0.  1.
         25    2    1    2    0    0 -0.12905716322E+02 -0.17354477657E+02 -0.64589160423E+03  0.65822162282E+03  0.12494800887E+03 0.  0.
          5    1    3    3  501    0  0.27786523888E+02 -0.58602200134E+02 -0.25802986869E+03  0.26605588118E+03  0.10000000000E+00 0.  1.
         -5    1    3    3    0  501 -0.40692240210E+02  0.41247722477E+02 -0.38786173554E+03  0.39216574164E+03  0.10000000000E+00 0.  1.
         21    1    1    2  504  503  0.12905716322E+02  0.17354477657E+02 -0.48418903317E+02  0.53029478660E+02  0.00000000000E+00 0.  1.
<mgrwt>
<rscale>  1 0.12680592E+03</rscale>
<asrwt>0</asrwt>
<pdfrwt beam="1">  1       21 0.13031229E-02 0.12680592E+03</pdfrwt>
<pdfrwt beam="2">  1       21 0.10812010E+00 0.12680592E+03</pdfrwt>
<totfact> 0.16770287E+06</totfact>
</mgrwt>
</event>
<event>
 6    1  0.4216855E-002  0.1281611E+03  0.7546771E-02  0.1230210E+00
         21   -1    0    0  504  502  0.00000000000E+00  0.00000000000E+00  0.20288681675E+03  0.20288681675E+03  0.00000000000E+00 0. -1.
         21   -1    0    0  502  503 -0.00000000000E+00 -0.00000000000E+00 -0.60517755536E+02  0.60517755536E+02  0.00000000000E+00 0.  1.
         25    2    1    2    0    0 -0.25024929207E+02  0.13145205711E+02  0.10556557176E+02  0.12859515223E+03  0.12500491496E+03 0.  0.
          5    1    3    3  501    0 -0.74386598359E+02  0.21392732710E+02 -0.21981864370E+00  0.77402024188E+02  0.10000000000E+00 0. -1.
         -5    1    3    3    0  501  0.49361669152E+02 -0.82475269984E+01  0.10776375819E+02  0.51193128043E+02  0.10000000000E+00 0. -1.
         21    1    1    2  504  503  0.25024929207E+02 -0.13145205711E+02  0.13181250404E+03  0.13480942006E+03  0.00000000000E+00 0. -1.
<mgrwt>
<rscale>  1 0.12816112E+03</rscale>
<asrwt>0</asrwt>
<pdfrwt beam="1">  1       21 0.31213356E-01 0.12816112E+03</pdfrwt>
<pdfrwt beam="2">  1       21 0.93104240E-02 0.12816112E+03</pdfrwt>
<totfact> 0.90960051E+05</totfact>
</mgrwt>
</event>
<event>
 6    1  0.4216855E-002  0.1267246E+03  0.7546771E-02  0.1232398E+00
         21   -1    0    0  504  502  0.00000000000E+00  0.00000000000E+00  0.23150543967E+02  0.23150543967E+02  0.00000000000E+00 0. -1.
         21   -1    0    0  502  503 -0.00000000000E+00 -0.00000000000E+00 -0.34777033360E+03  0.34777033360E+03  0.00000000000E+00 0. -1.
         25    2    1    2    0    0  0.19536032074E+02  0.72696812547E+01 -0.32626487889E+03  0.35001128327E+03  0.12499848962E+03 0.  0.
          5    1    3    3  501    0  0.43912199643E+02 -0.45737226458E+02 -0.21791466272E+03  0.22695150449E+03  0.10000000000E+00 0. -1.
         -5    1    3    3    0  501 -0.24376167569E+02  0.53006907713E+02 -0.10835021616E+03  0.12305977878E+03  0.10000000000E+00 0. -1.
         21    1    1    2  504  503 -0.19536032074E+02 -0.72696812547E+01  0.16450892572E+01  0.20909594291E+02  0.00000000000E+00 0. -1.
<mgrwt>
<rscale>  1 0.12672461E+03</rscale>
<asrwt>0</asrwt>
<pdfrwt beam="1">  1       21 0.35616223E-02 0.12672461E+03</pdfrwt>
<pdfrwt beam="2">  1       21 0.53503126E-01 0.12672461E+03</pdfrwt>
<totfact> 0.15696653E+06</totfact>
</mgrwt>
</event>
<event>
 6    1  0.4216855E-002  0.1266708E+03  0.7546771E-02  0.1232481E+00
         21   -1    0    0  504  502  0.00000000000E+00  0.00000000000E+00  0.10565666817E+04  0.10565666817E+04  0.00000000000E+00 0.  1.
         21   -1    0    0  502  503 -0.00000000000E+00 -0.00000000000E+00 -0.52084133948E+01  0.52084133948E+01  0.00000000000E+00 0.  1.
         25    2    1    2    0    0  0.20345064963E+02  0.25866591970E+01  0.85203773863E+03  0.86140222761E+03  0.12499950883E+03 0.  0.
          5    1    3    3  501    0 -0.51369544718E+01  0.46045349205E+02  0.69364817315E+03  0.69519375760E+03  0.10000000000E+00 0. -1.
         -5    1    3    3    0  501  0.25482019435E+02 -0.43458690008E+02  0.15838956548E+03  0.16620847001E+03  0.10000000000E+00 0. -1.
         21    1    1    2  504  503 -0.20345064963E+02 -0.25866591970E+01  0.19932052965E+03  0.20037286746E+03  0.00000000000E+00 0. -1.
<mgrwt>
<rscale>  1 0.12667079E+03</rscale>
<asrwt>0</asrwt>
<pdfrwt beam="1">  1       21 0.16254855E+00 0.12667079E+03</pdfrwt>
<pdfrwt beam="2">  1       21 0.80129521E-03 0.12667079E+03</pdfrwt>
<totfact> 0.12994678E+06</totfact>
</mgrwt>
</event>
<event>
 6    1  0.4216855E-002  0.1263680E+03  0.7546771E-02  0.1232947E+00
         21   -1    0    0  504  502  0.00000000000E+00  0.00000000000E+00  0.11319355619E+03  0.11319355619E+03  0.00000000000E+00 0. -1.
         21   -1    0    0  502  503 -0.00000000000E+00 -0.00000000000E+00 -0.58404041264E+02  0.58404041264E+02  0.00000000000E+00 0. -1.
         25    2    1    2    0    0  0.11495003634E+02 -0.14547671611E+02  0.14437868083E+02  0.12719010641E+03  0.12500040510E+03 0.  0.
          5    1    3    3  501    0  0.49885217717E+02 -0.10047539180E+02  0.52378724278E+02  0.73027588946E+02  0.10000000000E+00 0. -1.
         -5    1    3    3    0  501 -0.38390214083E+02 -0.45001324311E+01 -0.37940856195E+02  0.54162517464E+02  0.10000000000E+00 0. -1.
         21    1    1    2  504  503 -0.11495003634E+02  0.14547671611E+02  0.40351646844E+02  0.44407491045E+02  0.00000000000E+00 0.  1.
<mgrwt>
<rscale>  1 0.12636800E+03</rscale>
<asrwt>0</asrwt>
<pdfrwt beam="1">  1       21 0.17414393E-01 0.12636800E+03</pdfrwt>
<pdfrwt beam="2">  1       21 0.89852371E-02 0.12636800E+03</pdfrwt>
<totfact> 0.28932088E+06</totfact>
</mgrwt>
</event>
<event>
 6    1  0.4216855E-002  0.1264048E+03  0.7546771E-02  0.1232890E+00
         21   -1    0    0  504  502  0.00000000000E+00  0.00000000000E+00  0.69032061517E+03  0.69032061517E+03  0.00000000000E+00 0. -1.
         21   -1    0    0  502  503 -0.00000000000E+00 -0.00000000000E+00 -0.83502520933E+01  0.83502520933E+01  0.00000000000E+00 0. -1.
         25    2    1    2    0    0  0.11849899609E+02 -0.14548966687E+02  0.49980563474E+03  0.51554227638E+03  0.12500429455E+03 0.  0.
          5    1    3    3  501    0 -0.34436913236E+02  0.16902913876E+02  0.39387096970E+03  0.39573470945E+03  0.10000000000E+00 0.  1.
         -5    1    3    3    0  501  0.46286812846E+02 -0.31451880563E+02  0.10593466504E+03  0.11980756692E+03  0.10000000000E+00 0.  1.
         21    1    1    2  504  503 -0.11849899609E+02  0.14548966687E+02  0.18216472833E+03  0.18312859089E+03  0.00000000000E+00 0. -1.
<mgrwt>
<rscale>  1 0.12640477E+03</rscale>
<asrwt>0</asrwt>
<pdfrwt beam="1">  1       21 0.10620313E+00 0.12640477E+03</pdfrwt>
<pdfrwt beam="2">  1       21 0.12846547E-02 0.12640477E+03</pdfrwt>
<totfact> 0.17899400E+06</totfact>
</mgrwt>
</event>
<event>
 6    1  0.4216855E-002  0.1428849E+03  0.7546771E-02  0.1209499E+00
         21   -1    0    0  503  502  0.00000000000E+00  0.00000000000E+00  0.25010194546E+03  0.25010194546E+03  0.00000000000E+00 0. -1.
         21   -1    0    0  504  503 -0.00000000000E+00 -0.00000000000E+00 -0.18419730428E+03  0.18419730428E+03  0.00000000000E+00 0. -1.
         25    2    1    2    0    0 -0.61470283613E+02  0.31823510857E+02 -0.15024333114E+03  0.20733828934E+03  0.12499910425E+03 0.  0.
          5    1    3    3  501    0 -0.16764930278E+02 -0.32322781740E+02 -0.11671857248E+03  0.12226634970E+03  0.10000000000E+00 0.  1.
         -5    1    3    3    0  501 -0.44705353335E+02  0.64146292596E+02 -0.33524758659E+02  0.85071939638E+02  0.10000000000E+00 0.  1.
         21    1    1    2  504  502  0.61470283613E+02 -0.31823510857E+02  0.21614797232E+03  0.22696096041E+03  0.00000000000E+00 0. -1.
<mgrwt>
<rscale>  1 0.14288495E+03</rscale>
<asrwt>0</asrwt>
<pdfrwt beam="1">  1       21 0.38477222E-01 0.14288495E+03</pdfrwt>
<pdfrwt beam="2">  1       21 0.28338047E-01 0.14288495E+03</pdfrwt>
<totfact> 0.79166102E+04</totfact>
</mgrwt>
</event>
<event>
 6    1  0.4216855E-002  0.1269979E+03  0.7546771E-02  0.1231979E+00
         21   -1    0    0  504  502  0.00000000000E+00  0.00000000000E+00  0.12896168010E+04  0.12896168010E+04  0.00000000000E+00 0. -1.
         21   -1    0    0  502  503 -0.00000000000E+00 -0.00000000000E+00 -0.54353827976E+01  0.54353827976E+01  0.00000000000E+00 0. -1.
         25    2    1    2    0    0 -0.22384659560E+02 -0.14534956330E+01  0.12281296050E+04  0.12346784196E+04  0.12500115067E+03 0.  0.
          5    1    3    3  501    0 -0.60975463644E+02 -0.13810734035E+02  0.10557767722E+04  0.10576262791E+04  0.10000000000E+00 0. -1.
         -5    1    3    3    0  501  0.38590804084E+02  0.12357238402E+02  0.17235283277E+03  0.17705214053E+03  0.10000000000E+00 0. -1.
         21    1    1    2  504  503  0.22384659560E+02  0.14534956330E+01  0.56051813271E+02  0.60373764204E+02  0.00000000000E+00 0. -1.
<mgrwt>
<rscale>  1 0.12699793E+03</rscale>
<asrwt>0</asrwt>
<pdfrwt beam="1">  1       21 0.19840234E+00 0.12699793E+03</pdfrwt>
<pdfrwt beam="2">  1       21 0.83621376E-03 0.12699793E+03</pdfrwt>
<totfact> 0.70061582E+05</totfact>
</mgrwt>
</event>
<event>
 6    1  0.4216855E-002  0.1270529E+03  0.7546771E-02  0.1231895E+00
         21   -1    0    0  504  502  0.00000000000E+00  0.00000000000E+00  0.34397067243E+03  0.34397067243E+03  0.00000000000E+00 0. -1.
         21   -1    0    0  502  503 -0.00000000000E+00 -0.00000000000E+00 -0.18994413313E+02  0.18994413313E+02  0.00000000000E+00 0. -1.
         25    2    1    2    0    0 -0.11807988071E+02  0.19445114569E+02  0.20751109232E+03  0.24331724216E+03  0.12499954334E+03 0.  0.
          5    1    3    3  501    0 -0.45977004144E+02  0.56714043039E+02  0.93744683988E+02  0.11882105606E+03  0.10000000000E+00 0.  1.
         -5    1    3    3    0  501  0.34169016073E+02 -0.37268928470E+02  0.11376640833E+03  0.12449618610E+03  0.10000000000E+00 0.  1.
         21    1    1    2  504  503  0.11807988071E+02 -0.19445114569E+02  0.11746516680E+03  0.11964784359E+03  0.00000000000E+00 0.  1.
<mgrwt>
<rscale>  1 0.12705285E+03</rscale>
<asrwt>0</asrwt>
<pdfrwt beam="1">  1       21 0.52918561E-01 0.12705285E+03</pdfrwt>
<pdfrwt beam="2">  1       21 0.29222177E-02 0.12705285E+03</pdfrwt>
<totfact> 0.22237995E+06</totfact>
</mgrwt>
</event>
<event>
 6    1  0.4216855E-002  0.1419637E+03  0.7546771E-02  0.1210711E+00
         21   -1    0    0  503  502  0.00000000000E+00  0.00000000000E+00  0.85637554777E+02  0.85637554777E+02  0.00000000000E+00 0.  1.
         21   -1    0    0  504  503 -0.00000000000E+00 -0.00000000000E+00 -0.44606649529E+03  0.44606649529E+03  0.00000000000E+00 0.  1.
         25    2    1    2    0    0 -0.22165393538E+01  0.67245496496E+02 -0.41906423626E+03  0.44245738204E+03  0.12500732365E+03 0.  0.
          5    1    3    3  501    0  0.35333798265E+02 -0.92054129478E+01 -0.25500168008E+03  0.25760256942E+03  0.10000000000E+00 0. -1.
         -5    1    3    3    0  501 -0.37550337619E+02  0.76450909444E+02 -0.16406255618E+03  0.18485481262E+03  0.10000000000E+00 0. -1.
         21    1    1    2  504  502  0.22165393538E+01 -0.67245496496E+02  0.58635295748E+02  0.89246668023E+02  0.00000000000E+00 0.  1.
<mgrwt>
<rscale>  1 0.14196373E+03</rscale>
<asrwt>0</asrwt>
<pdfrwt beam="1">  1       21 0.13175008E-01 0.14196373E+03</pdfrwt>
<pdfrwt beam="2">  1       21 0.68625616E-01 0.14196373E+03</pdfrwt>
<totfact> 0.98001412E+04</totfact>
</mgrwt>
</event>
<event>
 6    1  0.4216855E-002  0.1259838E+03  0.7546771E-02  0.1233540E+00
         21   -1    0    0  503  502  0.00000000000E+00  0.00000000000E+00  0.20419911669E+02  0.20419911669E+02  0.00000000000E+00 0. -1.
         21   -1    0    0  504  503 -0.00000000000E+00 -0.00000000000E+00 -0.25008045275E+03  0.25008045275E+03  0.00000000000E+00 0. -1.
         25    2    1    2    0    0 -0.95356649593E+00 -0.15701818063E+02 -0.19150525805E+03  0.22922952723E+03  0.12499782363E+03 0.  0.
          5    1    3    3  501    0 -0.27875128387E+02 -0.61961909922E+02 -0.13653408971E+03  0.15250530718E+03  0.10000000000E+00 0.  1.
         -5    1    3    3    0  501  0.26921561891E+02  0.46260091860E+02 -0.54971168336E+02  0.76724220047E+02  0.10000000000E+00 0.  1.
         21    1    1    2  504  502  0.95356649593E+00  0.15701818063E+02 -0.38155283034E+02  0.41270837197E+02  0.00000000000E+00 0. -1.
<mgrwt>
<rscale>  1 0.12598378E+03</rscale>
<asrwt>0</asrwt>
<pdfrwt beam="1">  1       21 0.31415247E-02 0.12598378E+03</pdfrwt>
<pdfrwt beam="2">  1       21 0.38473917E-01 0.12598378E+03</pdfrwt>
<totfact> 0.37737751E+06</totfact>
</mgrwt>
</event>
<event>
 6    1  0.4216855E-002  0.1317475E+03  0.7546771E-02  0.1224886E+00
         21   -1    0    0  504  502  0.00000000000E+00  0.00000000000E+00  0.13311940934E+04  0.13311940934E+04  0.00000000000E+00 0.  1.
         21   -1    0    0  502  503 -0.00000000000E+00 -0.00000000000E+00 -0.13883700313E+02  0.13883700313E+02  0.00000000000E+00 0.  1.
         25    2    1    2    0    0  0.34139933032E+02 -0.23837038497E+02  0.30907878917E+03  0.33598676384E+03  0.12499467240E+03 0.  0.
          5    1    3    3  501    0  0.72219909822E+02 -0.71579392390E+00  0.25936189818E+03  0.26923007254E+03  0.10000000000E+00 0.  1.
         -5    1    3    3    0  501 -0.38079976789E+02 -0.23121244573E+02  0.49716890992E+02  0.66756691296E+02  0.10000000000E+00 0.  1.
         21    1    1    2  504  503 -0.34139933032E+02  0.23837038497E+02  0.10082316039E+04  0.10090910299E+04  0.00000000000E+00 0.  1.
<mgrwt>
<rscale>  1 0.13174751E+03</rscale>
<asrwt>0</asrwt>
<pdfrwt beam="1">  1       21 0.20479899E+00 0.13174751E+03</pdfrwt>
<pdfrwt beam="2">  1       21 0.21359550E-02 0.13174751E+03</pdfrwt>
<totfact> 0.14331122E+05</totfact>
</mgrwt>
</event>
<event>
 6    1  0.4216855E-002  0.1305331E+03  0.7546771E-02  0.1226667E+00
         21   -1    0    0  503  502  0.00000000000E+00  0.00000000000E+00  0.92610160646E+02  0.92610160646E+02  0.00000000000E+00 0.  1.
         21   -1    0    0  504  503 -0.00000000000E+00 -0.00000000000E+00 -0.37035465398E+03  0.37035465398E+03  0.00000000000E+00 0.  1.
         25    2    1    2    0    0  0.33210697082E+02 -0.17676625790E+02 -0.35434545438E+03  0.37762361277E+03  0.12499391337E+03 0.  0.
          5    1    3    3  501    0  0.18234643628E+02 -0.61994354257E+01  0.32487013503E+01  0.19532006766E+02  0.10000000000E+00 0. -1.
         -5    1    3    3    0  501  0.14976053454E+02 -0.11477190365E+02 -0.35759415574E+03  0.35809160601E+03  0.10000000000E+00 0. -1.
         21    1    1    2  504  502 -0.33210697082E+02  0.17676625790E+02  0.76600961051E+02  0.85341201855E+02  0.00000000000E+00 0.  1.
<mgrwt>
<rscale>  1 0.13053311E+03</rscale>
<asrwt>0</asrwt>
<pdfrwt beam="1">  1       21 0.14247717E-01 0.13053311E+03</pdfrwt>
<pdfrwt beam="2">  1       21 0.56977639E-01 0.13053311E+03</pdfrwt>
<totfact> 0.12741921E+05</totfact>
</mgrwt>
</event>
<event>
 6    1  0.4216855E-002  0.1261290E+03  0.7546771E-02  0.1233315E+00
         21   -1    0    0  504  502  0.00000000000E+00  0.00000000000E+00  0.14985588415E+03  0.14985588415E+03  0.00000000000E+00 0. -1.
         21   -1    0    0  502  503 -0.00000000000E+00 -0.00000000000E+00 -0.39009522441E+02  0.39009522441E+02  0.00000000000E+00 0. -1.
         25    2    1    2    0    0 -0.16414093989E+02 -0.34059791142E+01  0.68961795376E+02  0.14375066319E+03  0.12501000268E+03 0.  0.
          5    1    3    3  501    0 -0.26127172706E+02  0.56003797451E+02  0.53148591492E+02  0.81509737210E+02  0.10000000000E+00 0.  1.
         -5    1    3    3    0  501  0.97130787172E+01 -0.59409776565E+02  0.15813203884E+02  0.62240925979E+02  0.10000000000E+00 0.  1.
         21    1    1    2  504  503  0.16414093989E+02  0.34059791142E+01  0.41884566332E+02  0.45114743400E+02  0.00000000000E+00 0. -1.
<mgrwt>
<rscale>  1 0.12612900E+03</rscale>
<asrwt>0</asrwt>
<pdfrwt beam="1">  1       21 0.23054751E-01 0.12612900E+03</pdfrwt>
<pdfrwt beam="2">  1       21 0.60014650E-02 0.12612900E+03</pdfrwt>
<totfact> 0.34409094E+06</totfact>
</mgrwt>
</event>
<event>
 6    1  0.4216855E-002  0.1261382E+03  0.7546771E-02  0.1233301E+00
         21   -1    0    0  504  502  0.00000000000E+00  0.00000000000E+00  0.17483842783E+03  0.17483842783E+03  0.00000000000E+00 0. -1.
         21   -1    0    0  502  503 -0.00000000000E+00 -0.00000000000E+00 -0.31362524579E+02  0.31362524579E+02  0.00000000000E+00 0. -1.
         25    2    1    2    0    0 -0.65792394787E+01 -0.15564895546E+02  0.10479625418E+03  0.16399114765E+03  0.12500115700E+03 0.  0.
          5    1    3    3  501    0 -0.48023533866E+02 -0.52304576486E+01  0.11078566537E+03  0.12085979954E+03  0.10000000000E+00 0.  1.
         -5    1    3    3    0  501  0.41444294387E+02 -0.10334437898E+02 -0.59894111899E+01  0.43131348116E+02  0.10000000000E+00 0.  1.
         21    1    1    2  504  503  0.65792394787E+01  0.15564895546E+02  0.38679649072E+02  0.42209804760E+02  0.00000000000E+00 0. -1.
<mgrwt>
<rscale>  1 0.12613818E+03</rscale>
<asrwt>0</asrwt>
<pdfrwt beam="1">  1       21 0.26898219E-01 0.12613818E+03</pdfrwt>
<pdfrwt beam="2">  1       21 0.48250039E-02 0.12613818E+03</pdfrwt>
<totfact> 0.37146370E+06</totfact>
</mgrwt>
</event>
<event>
 6    1  0.4216855E-002  0.1317210E+03  0.7546771E-02  0.1224924E+00
         21   -1    0    0  504  502  0.00000000000E+00  0.00000000000E+00  0.23349242268E+04  0.23349242268E+04  0.00000000000E+00 0.  1.
         21   -1    0    0  502  503 -0.00000000000E+00 -0.00000000000E+00 -0.39929489732E+01  0.39929489732E+01  0.00000000000E+00 0.  1.
         25    2    1    2    0    0  0.32161242025E+02 -0.26281044378E+02  0.11970276681E+04  0.12042531572E+04  0.12500155905E+03 0.  0.
          5    1    3    3  501    0 -0.37089784435E+02  0.15213693913E+02  0.20098361666E+03  0.20494275483E+03  0.10000000000E+00 0. -1.
         -5    1    3    3    0  501  0.69251026460E+02 -0.41494738291E+02  0.99604405141E+03  0.99931040238E+03  0.10000000000E+00 0. -1.
         21    1    1    2  504  503 -0.32161242025E+02  0.26281044378E+02  0.11339036098E+04  0.11346640186E+04  0.00000000000E+00 0.  1.
<mgrwt>
<rscale>  1 0.13172103E+03</rscale>
<asrwt>0</asrwt>
<pdfrwt beam="1">  1       21 0.35921802E+00 0.13172103E+03</pdfrwt>
<pdfrwt beam="2">  1       21 0.61430171E-03 0.13172103E+03</pdfrwt>
<totfact> 0.13318214E+05</totfact>
</mgrwt>
</event>
<event>
 6    1  0.4216855E-002  0.1361851E+03  0.7546771E-02  0.1218556E+00
         21   -1    0    0  503  502  0.00000000000E+00  0.00000000000E+00  0.47243440357E+02  0.47243440357E+02  0.00000000000E+00 0.  1.
         21   -1    0    0  504  503 -0.00000000000E+00 -0.00000000000E+00 -0.63351014818E+03  0.63351014818E+03  0.00000000000E+00 0. -1.
         25    2    1    2    0    0  0.31703729740E+02  0.43787326480E+02 -0.60757152074E+03  0.62264720772E+03  0.12499574403E+03 0.  0.
          5    1    3    3  501    0  0.44426839129E+02  0.66152036458E+02 -0.57792094550E+03  0.58338877707E+03  0.10000000000E+00 0. -1.
         -5    1    3    3    0  501 -0.12723109388E+02 -0.22364709978E+02 -0.29650575237E+02  0.39258430646E+02  0.10000000000E+00 0. -1.
         21    1    1    2  504  502 -0.31703729740E+02 -0.43787326480E+02  0.21304812910E+02  0.58106380827E+02  0.00000000000E+00 0.  1.
<mgrwt>
<rscale>  1 0.13618514E+03</rscale>
<asrwt>0</asrwt>
<pdfrwt beam="1">  1       21 0.72682209E-02 0.13618514E+03</pdfrwt>
<pdfrwt beam="2">  1       21 0.97463108E-01 0.13618514E+03</pdfrwt>
<totfact> 0.12636474E+05</totfact>
</mgrwt>
</event>
<event>
 6    1  0.4216855E-002  0.1265749E+03  0.7546771E-02  0.1232628E+00
         21   -1    0    0  503  502  0.00000000000E+00  0.00000000000E+00  0.23284884771E+03  0.23284884771E+03  0.00000000000E+00 0. -1.
         21   -1    0    0  504  503 -0.00000000000E+00 -0.00000000000E+00 -0.34721740274E+02  0.34721740274E+02  0.00000000000E+00 0. -1.
         25    2    1    2    0    0 -0.16460679456E+02  0.11141699742E+02  0.84432284372E+02  0.15215133381E+03  0.12500450510E+03 0.  0.
          5    1    3    3  501    0  0.28811659593E+02 -0.32892830916E+02  0.77013437996E+02  0.88561445823E+02  0.10000000000E+00 0. -1.
         -5    1    3    3    0  501 -0.45272339050E+02  0.44034530658E+02  0.74188463756E+01  0.63589887992E+02  0.10000000000E+00 0. -1.
         21    1    1    2  504  502  0.16460679456E+02 -0.11141699742E+02  0.11369482306E+03  0.11541925417E+03  0.00000000000E+00 0. -1.
<mgrwt>
<rscale>  1 0.12657495E+03</rscale>
<asrwt>0</asrwt>
<pdfrwt beam="1">  1       21 0.35822899E-01 0.12657495E+03</pdfrwt>
<pdfrwt beam="2">  1       21 0.53418063E-02 0.12657495E+03</pdfrwt>
<totfact> 0.17982225E+06</totfact>
</mgrwt>
</event>
<event>
 6    1  0.4216855E-002  0.1367734E+03  0.7546771E-02  0.1217738E+00
         21   -1    0    0  504  502  0.00000000000E+00  0.00000000000E+00  0.23779516737E+02  0.23779516737E+02  0.00000000000E+00 0.  1.
         21   -1    0    0  502  503 -0.00000000000E+00 -0.00000000000E+00 -0.41472529161E+03  0.41472529161E+03  0.00000000000E+00 0.  1.
         25    2    1    2    0    0 -0.41919612046E+02 -0.36398828404E+02 -0.32298245467E+03  0.35074866054E+03  0.12499931307E+03 0.  0.
          5    1    3    3  501    0 -0.73253276493E+02 -0.62170818179E+02 -0.23376673105E+03  0.25274126631E+03  0.10000000000E+00 0.  1.
         -5    1    3    3    0  501  0.31333664446E+02  0.25771989775E+02 -0.89215723618E+02  0.98007394238E+02  0.10000000000E+00 0.  1.
         21    1    1    2  504  503  0.41919612046E+02  0.36398828404E+02 -0.67963320207E+02  0.87756147801E+02  0.00000000000E+00 0.  1.
<mgrwt>
<rscale>  1 0.13677338E+03</rscale>
<asrwt>0</asrwt>
<pdfrwt beam="1">  1       21 0.36583876E-02 0.13677338E+03</pdfrwt>
<pdfrwt beam="2">  1       21 0.63803884E-01 0.13677338E+03</pdfrwt>
<totfact> 0.10353752E+06</totfact>
</mgrwt>
</event>
<event>
 6    1  0.4216855E-002  0.1268991E+03  0.7546771E-02  0.1232131E+00
         21   -1    0    0  504  502  0.00000000000E+00  0.00000000000E+00  0.79391268036E+03  0.79391268036E+03  0.00000000000E+00 0.  1.
         21   -1    0    0  502  503 -0.00000000000E+00 -0.00000000000E+00 -0.90022720563E+01  0.90022720563E+01  0.00000000000E+00 0.  1.
         25    2    1    2    0    0 -0.93610018181E+01  0.19700213302E+02  0.45733628000E+03  0.47461549112E+03  0.12501065810E+03 0.  0.
          5    1    3    3  501    0 -0.47085301923E+02  0.20066434745E+02  0.77286948775E+02  0.92698273509E+02  0.10000000000E+00 0. -1.
         -5    1    3    3    0  501  0.37724300105E+02 -0.36622144230E+00  0.38004933123E+03  0.38191721761E+03  0.10000000000E+00 0. -1.
         21    1    1    2  504  503  0.93610018181E+01 -0.19700213302E+02  0.32757412830E+03  0.32829946130E+03  0.00000000000E+00 0.  1.
<mgrwt>
<rscale>  1 0.12689914E+03</rscale>
<asrwt>0</asrwt>
<pdfrwt beam="1">  1       21 0.12214036E+00 0.12689914E+03</pdfrwt>
<pdfrwt beam="2">  1       21 0.13849656E-02 0.12689914E+03</pdfrwt>
<totfact> 0.11346070E+06</totfact>
</mgrwt>
</event>
<event>
 6    1  0.4216855E-002  0.1265415E+03  0.7546771E-02  0.1232680E+00
         21   -1    0    0  504  502  0.00000000000E+00  0.00000000000E+00  0.10719834523E+02  0.10719834523E+02  0.00000000000E+00 0. -1.
         21   -1    0    0  502  503 -0.00000000000E+00 -0.00000000000E+00 -0.91336840941E+03  0.91336840941E+03  0.00000000000E+00 0. -1.
         25    2    1    2    0    0 -0.19544046899E+02 -0.81163145219E+00 -0.89363617273E+03  0.90255102249E+03  0.12502044024E+03 0.  0.
          5    1    3    3  501    0 -0.60607229744E+02 -0.31922090384E+02 -0.64542588360E+03  0.64905072019E+03  0.10000000000E+00 0. -1.
         -5    1    3    3    0  501  0.41063182845E+02  0.31110458932E+02 -0.24821028913E+03  0.25350030230E+03  0.10000000000E+00 0. -1.
         21    1    1    2  504  503  0.19544046899E+02  0.81163145219E+00 -0.90124021595E+01  0.21537221443E+02  0.00000000000E+00 0. -1.
<mgrwt>
<rscale>  1 0.12654145E+03</rscale>
<asrwt>0</asrwt>
<pdfrwt beam="1">  1       21 0.16492057E-02 0.12654145E+03</pdfrwt>
<pdfrwt beam="2">  1       21 0.14051819E+00 0.12654145E+03</pdfrwt>
<totfact> 0.60538971E+05</totfact>
</mgrwt>
</event>
<event>
 6    1  0.4216855E-002  0.1657017E+03  0.7546771E-02  0.1182406E+00
         21   -1    0    0  504  502  0.00000000000E+00  0.00000000000E+00  0.13367528280E+03  0.13367528280E+03  0.00000000000E+00 0.  1.
         21   -1    0    0  502  503 -0.00000000000E+00 -0.00000000000E+00 -0.26205164400E+03  0.26205164400E+03  0.00000000000E+00 0. -1.
         25    2    1    2    0    0 -0.46672608062E+02  0.98254213407E+02 -0.20431794259E+03  0.26306439788E+03  0.12499933189E+03 0.  0.
          5    1    3    3  501    0  0.33345993076E+02  0.16248192224E+02 -0.11612104579E+02  0.38869139141E+02  0.10000000000E+00 0.  1.
         -5    1    3    3    0  501 -0.80018601138E+02  0.82006021183E+02 -0.19270583801E+03  0.22419525874E+03  0.10000000000E+00 0.  1.
         21    1    1    2  504  503  0.46672608062E+02 -0.98254213407E+02  0.75941581388E+02  0.13266252892E+03  0.00000000000E+00 0.  1.
<mgrwt>
<rscale>  1 0.16570171E+03</rscale>
<asrwt>0</asrwt>
<pdfrwt beam="1">  1       21 0.20565428E-01 0.16570171E+03</pdfrwt>
<pdfrwt beam="2">  1       21 0.40315637E-01 0.16570171E+03</pdfrwt>
<totfact> 0.13113261E+05</totfact>
</mgrwt>
</event>
<event>
 6    1  0.4216855E-002  0.1390958E+03  0.7546771E-02  0.1214551E+00
         21   -1    0    0  504  502  0.00000000000E+00  0.00000000000E+00  0.13839813192E+04  0.13839813192E+04  0.00000000000E+00 0. -1.
         21   -1    0    0  502  503 -0.00000000000E+00 -0.00000000000E+00 -0.89662578509E+01  0.89662578509E+01  0.00000000000E+00 0. -1.
         25    2    1    2    0    0 -0.59968255532E+02 -0.10988679923E+02  0.61698985978E+03  0.63247459990E+03  0.12502275670E+03 0.  0.
          5    1    3    3  501    0 -0.51287160678E+02 -0.12529504058E+02  0.62067627192E+03  0.62291765575E+03  0.10000000000E+00 0.  1.
         -5    1    3    3    0  501 -0.86810948537E+01  0.15408241348E+01 -0.36864121470E+01  0.95569441450E+01  0.10000000000E+00 0.  1.
         21    1    1    2  504  503  0.59968255532E+02  0.10988679923E+02  0.75802520161E+03  0.76047297719E+03  0.00000000000E+00 0. -1.
<mgrwt>
<rscale>  1 0.13909577E+03</rscale>
<asrwt>0</asrwt>
<pdfrwt beam="1">  1       21 0.21292003E+00 0.13909577E+03</pdfrwt>
<pdfrwt beam="2">  1       21 0.13794254E-02 0.13909577E+03</pdfrwt>
<totfact> 0.25670941E+05</totfact>
</mgrwt>
</event>
<event>
 6    1  0.4216855E-002  0.1542086E+03  0.7546771E-02  0.1195395E+00
         21   -1    0    0  504  502  0.00000000000E+00  0.00000000000E+00  0.50592076899E+03  0.50592076899E+03  0.00000000000E+00 0. -1.
         21   -1    0    0  502  503 -0.00000000000E+00 -0.00000000000E+00 -0.29735999665E+02  0.29735999665E+02  0.00000000000E+00 0. -1.
         25    2    1    2    0    0  0.43813770038E+02 -0.78965004086E+02  0.27912440661E+03  0.31888983190E+03  0.12500068884E+03 0.  0.
          5    1    3    3  501    0  0.81293640591E+02 -0.80586514998E+02  0.23159242907E+03  0.25833680652E+03  0.10000000000E+00 0.  1.
         -5    1    3    3    0  501 -0.37479870553E+02  0.16215109125E+01  0.47531977534E+02  0.60553025379E+02  0.10000000000E+00 0.  1.
         21    1    1    2  504  503 -0.43813770038E+02  0.78965004086E+02  0.19706036272E+03  0.21676693675E+03  0.00000000000E+00 0. -1.
<mgrwt>
<rscale>  1 0.15420859E+03</rscale>
<asrwt>0</asrwt>
<pdfrwt beam="1">  1       21 0.77833958E-01 0.15420859E+03</pdfrwt>
<pdfrwt beam="2">  1       21 0.45747695E-02 0.15420859E+03</pdfrwt>
<totfact> 0.46090055E+05</totfact>
</mgrwt>
</event>
<event>
 6    1  0.4216855E-002  0.1361164E+03  0.7546771E-02  0.1218652E+00
         21   -1    0    0  503  502  0.00000000000E+00  0.00000000000E+00  0.11790040647E+03  0.11790040647E+03  0.00000000000E+00 0.  1.
         21   -1    0    0  504  503 -0.00000000000E+00 -0.00000000000E+00 -0.95419807532E+02  0.95419807532E+02  0.00000000000E+00 0.  1.
         25    2    1    2    0    0  0.15871512627E+01  0.53855116951E+02 -0.28586494033E+02  0.13908585097E+03  0.12499917451E+03 0.  0.
          5    1    3    3  501    0 -0.93700932156E+01 -0.39984406266E+02 -0.28527091780E+01  0.41166726139E+02  0.10000000000E+00 0. -1.
         -5    1    3    3    0  501  0.10957244478E+02  0.93839523217E+02 -0.25733784855E+02  0.97919124828E+02  0.10000000000E+00 0. -1.
         21    1    1    2  504  502 -0.15871512627E+01 -0.53855116951E+02  0.51067092975E+02  0.74234363039E+02  0.00000000000E+00 0.  1.
<mgrwt>
<rscale>  1 0.13611644E+03</rscale>
<asrwt>0</asrwt>
<pdfrwt beam="1">  1       21 0.18138524E-01 0.13611644E+03</pdfrwt>
<pdfrwt beam="2">  1       21 0.14679970E-01 0.13611644E+03</pdfrwt>
<totfact> 0.11296405E+06</totfact>
</mgrwt>
</event>
<event>
 6    1  0.4216855E-002  0.1329651E+03  0.7546771E-02  0.1223121E+00
         21   -1    0    0  504  502  0.00000000000E+00  0.00000000000E+00  0.62786812308E+02  0.62786812308E+02  0.00000000000E+00 0.  1.
         21   -1    0    0  502  503 -0.00000000000E+00 -0.00000000000E+00 -0.17526715910E+03  0.17526715910E+03  0.00000000000E+00 0.  1.
         25    2    1    2    0    0  0.40107302257E+02  0.21101102222E+02 -0.13321379631E+03  0.18821695566E+03  0.12500341860E+03 0.  0.
          5    1    3    3  501    0  0.13538130180E+02  0.48709679982E+02 -0.14040650727E+03  0.14923106639E+03  0.10000000000E+00 0.  1.
         -5    1    3    3    0  501  0.26569172077E+02 -0.27608577760E+02  0.71927109633E+01  0.38985889265E+02  0.10000000000E+00 0.  1.
         21    1    1    2  504  503 -0.40107302257E+02 -0.21101102222E+02  0.20733449522E+02  0.49837015745E+02  0.00000000000E+00 0.  1.
<mgrwt>
<rscale>  1 0.13296506E+03</rscale>
<asrwt>0</asrwt>
<pdfrwt beam="1">  1       21 0.96595097E-02 0.13296506E+03</pdfrwt>
<pdfrwt beam="2">  1       21 0.26964178E-01 0.13296506E+03</pdfrwt>
<totfact> 0.11305661E+06</totfact>
</mgrwt>
</event>
<event>
 6    1  0.4216855E-002  0.1305666E+03  0.7546771E-02  0.1226617E+00
         21   -1    0    0  503  502  0.00000000000E+00  0.00000000000E+00  0.85216562979E+02  0.85216562979E+02  0.00000000000E+00 0.  1.
         21   -1    0    0  504  503 -0.00000000000E+00 -0.00000000000E+00 -0.20058266321E+03  0.20058266321E+03  0.00000000000E+00 0.  1.
         25    2    1    2    0    0 -0.36785530748E+02 -0.84480815280E+01 -0.17310122484E+03  0.21682176634E+03  0.12499239563E+03 0.  0.
          5    1    3    3  501    0 -0.20172556462E+02 -0.64657065815E+02 -0.11968164496E+03  0.13751790551E+03  0.10000000000E+00 0.  1.
         -5    1    3    3    0  501 -0.16612974286E+02  0.56208984287E+02 -0.53419579879E+02  0.79303860837E+02  0.10000000000E+00 0.  1.
         21    1    1    2  504  502  0.36785530748E+02  0.84480815280E+01  0.57735124606E+02  0.68977459849E+02  0.00000000000E+00 0.  1.
<mgrwt>
<rscale>  1 0.13056663E+03</rscale>
<asrwt>0</asrwt>
<pdfrwt beam="1">  1       21 0.13110240E-01 0.13056663E+03</pdfrwt>
<pdfrwt beam="2">  1       21 0.30858871E-01 0.13056663E+03</pdfrwt>
<totfact> 0.50885597E+05</totfact>
</mgrwt>
</event>
<event>
 6    1  0.4216855E-002  0.1271002E+03  0.7546771E-02  0.1231823E+00
         21   -1    0    0  504  502  0.00000000000E+00  0.00000000000E+00  0.22068418945E+02  0.22068418945E+02  0.00000000000E+00 0. -1.
         21   -1    0    0  502  503 -0.00000000000E+00 -0.00000000000E+00 -0.62056820338E+03  0.62056820338E+03  0.00000000000E+00 0. -1.
         25    2    1    2    0    0 -0.20825327562E+02 -0.97357249050E+01 -0.60542890380E+03  0.61862638903E+03  0.12500389212E+03 0.  0.
          5    1    3    3  501    0 -0.59735747312E+02 -0.44612528471E+02 -0.33513931146E+03  0.34333220835E+03  0.10000000000E+00 0.  1.
         -5    1    3    3    0  501  0.38910419750E+02  0.34876803566E+02 -0.27028959234E+03  0.27529418068E+03  0.10000000000E+00 0.  1.
         21    1    1    2  504  503  0.20825327562E+02  0.97357249050E+01  0.69291193650E+01  0.24010233291E+02  0.00000000000E+00 0. -1.
<mgrwt>
<rscale>  1 0.12710016E+03</rscale>
<asrwt>0</asrwt>
<pdfrwt beam="1">  1       21 0.33951420E-02 0.12710016E+03</pdfrwt>
<pdfrwt beam="2">  1       21 0.95472013E-01 0.12710016E+03</pdfrwt>
<totfact> 0.47762169E+05</totfact>
</mgrwt>
</event>
<event>
 6    1  0.4216855E-002  0.1269554E+03  0.7546771E-02  0.1232045E+00
         21   -1    0    0  504  502  0.00000000000E+00  0.00000000000E+00  0.13668239397E+04  0.13668239397E+04  0.00000000000E+00 0. -1.
         21   -1    0    0  502  503 -0.00000000000E+00 -0.00000000000E+00 -0.50062179669E+01  0.50062179669E+01  0.00000000000E+00 0. -1.
         25    2    1    2    0    0  0.17243258477E+02  0.13956206198E+02  0.83986146524E+03  0.84940270878E+03  0.12500230094E+03 0.  0.
          5    1    3    3  501    0  0.71056519782E+02 -0.36352616300E+00  0.44634310529E+03  0.45196386890E+03  0.10000000000E+00 0. -1.
         -5    1    3    3    0  501 -0.53813261305E+02  0.14319732361E+02  0.39351835995E+03  0.39743883988E+03  0.10000000000E+00 0. -1.
         21    1    1    2  504  503 -0.17243258477E+02 -0.13956206198E+02  0.52195625645E+03  0.52242744884E+03  0.00000000000E+00 0. -1.
<mgrwt>
<rscale>  1 0.12695543E+03</rscale>
<asrwt>0</asrwt>
<pdfrwt beam="1">  1       21 0.21028031E+00 0.12695543E+03</pdfrwt>
<pdfrwt beam="2">  1       21 0.77018847E-03 0.12695543E+03</pdfrwt>
<totfact> 0.67239961E+05</totfact>
</mgrwt>
</event>
<event>
 6    1  0.4216855E-002  0.1395862E+03  0.7546771E-02  0.1213887E+00
         21   -1    0    0  503  502  0.00000000000E+00  0.00000000000E+00  0.53094133431E+02  0.53094133431E+02  0.00000000000E+00 0.  1.
         21   -1    0    0  504  503 -0.00000000000E+00 -0.00000000000E+00 -0.30562038585E+03  0.30562038585E+03  0.00000000000E+00 0.  1.
         25    2    1    2    0    0 -0.58128024675E+02 -0.21899166982E+02 -0.26104020696E+03  0.29601740460E+03  0.12500349359E+03 0.  0.
          5    1    3    3  501    0 -0.61208314635E+02  0.14239752384E+01 -0.38688123932E+02  0.72424211555E+02  0.10000000000E+00 0.  1.
         -5    1    3    3    0  501  0.30802899606E+01 -0.23323142221E+02 -0.22235208303E+03  0.22359319304E+03  0.10000000000E+00 0.  1.
         21    1    1    2  504  502  0.58128024675E+02  0.21899166982E+02  0.85139545430E+01  0.62697114679E+02  0.00000000000E+00 0.  1.
<mgrwt>
<rscale>  1 0.13958622E+03</rscale>
<asrwt>0</asrwt>
<pdfrwt beam="1">  1       21 0.81683281E-02 0.13958622E+03</pdfrwt>
<pdfrwt beam="2">  1       21 0.47018521E-01 0.13958622E+03</pdfrwt>
<totfact> 0.50481654E+05</totfact>
</mgrwt>
</event>
<event>
 6    1  0.4216855E-002  0.1279688E+03  0.7546771E-02  0.1230501E+00
         21   -1    0    0  504  502  0.00000000000E+00  0.00000000000E+00  0.25624838163E+03  0.25624838163E+03  0.00000000000E+00 0. -1.
         21   -1    0    0  502  503 -0.00000000000E+00 -0.00000000000E+00 -0.29076965962E+02  0.29076965962E+02  0.00000000000E+00 0. -1.
         25    2    1    2    0    0  0.73623620693E+01  0.26402609221E+02  0.12259361050E+03  0.17721512845E+03  0.12499882506E+03 0.  0.
          5    1    3    3  501    0 -0.52409883655E+02  0.34280154678E+02  0.87023944267E+02  0.10721521247E+03  0.10000000000E+00 0.  1.
         -5    1    3    3    0  501  0.59772245724E+02 -0.78775454570E+01  0.35569666233E+02  0.69999915980E+02  0.10000000000E+00 0.  1.
         21    1    1    2  504  503 -0.73623620693E+01 -0.26402609221E+02  0.10457780517E+03  0.10811021914E+03  0.00000000000E+00 0. -1.
<mgrwt>
<rscale>  1 0.12796878E+03</rscale>
<asrwt>0</asrwt>
<pdfrwt beam="1">  1       21 0.39422826E-01 0.12796878E+03</pdfrwt>
<pdfrwt beam="2">  1       21 0.44733796E-02 0.12796878E+03</pdfrwt>
<totfact> 0.20035320E+06</totfact>
</mgrwt>
</event>
<event>
 6    1  0.4216855E-002  0.1265309E+03  0.7546771E-02  0.1232696E+00
         21   -1    0    0  503  502  0.00000000000E+00  0.00000000000E+00  0.75754865256E+02  0.75754865256E+02  0.00000000000E+00 0.  1.
         21   -1    0    0  504  503 -0.00000000000E+00 -0.00000000000E+00 -0.71449391570E+02  0.71449391570E+02  0.00000000000E+00 0.  1.
         25    2    1    2    0    0 -0.86248091431E+01 -0.17630073232E+02 -0.21317004459E+01  0.12654889370E+03  0.12499948614E+03 0.  0.
          5    1    3    3  501    0  0.30562603083E+02 -0.56877642733E+01 -0.52872461583E+02  0.61334578856E+02  0.10000000000E+00 0. -1.
         -5    1    3    3    0  501 -0.39187412226E+02 -0.11942308958E+02  0.50740761137E+02  0.65214314847E+02  0.10000000000E+00 0. -1.
         21    1    1    2  504  502  0.86248091431E+01  0.17630073232E+02  0.64371741318E+01  0.20655363122E+02  0.00000000000E+00 0.  1.
<mgrwt>
<rscale>  1 0.12653094E+03</rscale>
<asrwt>0</asrwt>
<pdfrwt beam="1">  1       21 0.11654595E-01 0.12653094E+03</pdfrwt>
<pdfrwt beam="2">  1       21 0.10992214E-01 0.12653094E+03</pdfrwt>
<totfact> 0.41820595E+06</totfact>
</mgrwt>
</event>
<event>
 6    1  0.4216855E-002  0.1273593E+03  0.7546771E-02  0.1231428E+00
         21   -1    0    0  503  502  0.00000000000E+00  0.00000000000E+00  0.87298966050E+02  0.87298966050E+02  0.00000000000E+00 0.  1.
         21   -1    0    0  504  503 -0.00000000000E+00 -0.00000000000E+00 -0.90879922993E+02  0.90879922993E+02  0.00000000000E+00 0.  1.
         25    2    1    2    0    0  0.75631542717E+01  0.23221719943E+02 -0.40736553875E+02  0.13371555625E+03  0.12499573425E+03 0.  0.
          5    1    3    3  501    0  0.52239752758E+02 -0.85603716264E+01  0.15515634832E+02  0.55163544618E+02  0.10000000000E+00 0.  1.
         -5    1    3    3    0  501 -0.44676598486E+02  0.31782091570E+02 -0.56252188708E+02  0.78552011631E+02  0.10000000000E+00 0.  1.
         21    1    1    2  504  502 -0.75631542717E+01 -0.23221719943E+02  0.37155596933E+02  0.44463332794E+02  0.00000000000E+00 0.  1.
<mgrwt>
<rscale>  1 0.12735927E+03</rscale>
<asrwt>0</asrwt>
<pdfrwt beam="1">  1       21 0.13430610E-01 0.12735927E+03</pdfrwt>
<pdfrwt beam="2">  1       21 0.13981527E-01 0.12735927E+03</pdfrwt>
<totfact> 0.21212872E+06</totfact>
</mgrwt>
</event>
<event>
 6    1  0.4216855E-002  0.1297783E+03  0.7546771E-02  0.1227785E+00
         21   -1    0    0  503  502  0.00000000000E+00  0.00000000000E+00  0.47920011986E+01  0.47920011986E+01  0.00000000000E+00 0.  1.
         21   -1    0    0  504  503 -0.00000000000E+00 -0.00000000000E+00 -0.16038307614E+04  0.16038307614E+04  0.00000000000E+00 0.  1.
         25    2    1    2    0    0 -0.20513707297E+02 -0.28266565296E+02 -0.97385856524E+03  0.98246776016E+03  0.12499033471E+03 0.  0.
          5    1    3    3  501    0  0.51550321988E+02 -0.20484939952E+02 -0.34264106109E+03  0.34710225468E+03  0.10000000000E+00 0.  1.
         -5    1    3    3    0  501 -0.72064029285E+02 -0.77816253437E+01 -0.63121750415E+03  0.63536550548E+03  0.10000000000E+00 0.  1.
         21    1    1    2  504  502  0.20513707297E+02  0.28266565296E+02 -0.62518019497E+03  0.62615500244E+03  0.00000000000E+00 0.  1.
<mgrwt>
<rscale>  1 0.12977825E+03</rscale>
<asrwt>0</asrwt>
<pdfrwt beam="1">  1       21 0.73723115E-03 0.12977825E+03</pdfrwt>
<pdfrwt beam="2">  1       21 0.24674313E+00 0.12977825E+03</pdfrwt>
<totfact> 0.43737813E+05</totfact>
</mgrwt>
</event>
<event>
 6    1  0.4216855E-002  0.1259081E+03  0.7546771E-02  0.1233657E+00
         21   -1    0    0  503  502  0.00000000000E+00  0.00000000000E+00  0.46211561752E+03  0.46211561752E+03  0.00000000000E+00 0. -1.
         21   -1    0    0  504  503 -0.00000000000E+00 -0.00000000000E+00 -0.11355742552E+02  0.11355742552E+02  0.00000000000E+00 0. -1.
         25    2    1    2    0    0  0.14172302504E+02 -0.51327597719E+01  0.35801647870E+03  0.37951106563E+03  0.12500260209E+03 0.  0.
          5    1    3    3  501    0  0.59522880579E+02 -0.34055944055E+02  0.24382674250E+03  0.25328693412E+03  0.10000000000E+00 0.  1.
         -5    1    3    3    0  501 -0.45350578075E+02  0.28923184283E+02  0.11418973620E+03  0.12622413151E+03  0.10000000000E+00 0.  1.
         21    1    1    2  504  502 -0.14172302504E+02  0.51327597719E+01  0.92743396263E+02  0.93960294442E+02  0.00000000000E+00 0. -1.
<mgrwt>
<rscale>  1 0.12590810E+03</rscale>
<asrwt>0</asrwt>
<pdfrwt beam="1">  1       21 0.71094696E-01 0.12590810E+03</pdfrwt>
<pdfrwt beam="2">  1       21 0.17470377E-02 0.12590810E+03</pdfrwt>
<totfact> 0.27277320E+06</totfact>
</mgrwt>
</event>
<event>
 6    1  0.4216855E-002  0.1388956E+03  0.7546771E-02  0.1214823E+00
         21   -1    0    0  504  502  0.00000000000E+00  0.00000000000E+00  0.13481610795E+03  0.13481610795E+03  0.00000000000E+00 0. -1.
         21   -1    0    0  502  503 -0.00000000000E+00 -0.00000000000E+00 -0.88753568948E+02  0.88753568948E+02  0.00000000000E+00 0. -1.
         25    2    1    2    0    0 -0.34450293693E+02 -0.49772591312E+02 -0.12357942777E+02  0.13944425700E+03  0.12501139340E+03 0.  0.
          5    1    3    3  501    0  0.27478683564E+02 -0.50859383391E+01 -0.47708790746E+02  0.55290899194E+02  0.10000000000E+00 0.  1.
         -5    1    3    3    0  501 -0.61928977257E+02 -0.44686652973E+02  0.35350847969E+02  0.84153357807E+02  0.10000000000E+00 0.  1.
         21    1    1    2  504  503  0.34450293693E+02  0.49772591312E+02  0.58420481782E+02  0.84125419899E+02  0.00000000000E+00 0. -1.
<mgrwt>
<rscale>  1 0.13889558E+03</rscale>
<asrwt>0</asrwt>
<pdfrwt beam="1">  1       21 0.20740940E-01 0.13889558E+03</pdfrwt>
<pdfrwt beam="2">  1       21 0.13654395E-01 0.13889558E+03</pdfrwt>
<totfact> 0.10046493E+06</totfact>
</mgrwt>
</event>
<event>
 6    1  0.4216855E-002  0.1281983E+03  0.7546771E-02  0.1230154E+00
         21   -1    0    0  504  502  0.00000000000E+00  0.00000000000E+00  0.29280654993E+01  0.29280654993E+01  0.00000000000E+00 0. -1.
         21   -1    0    0  502  503 -0.00000000000E+00 -0.00000000000E+00 -0.21961723332E+04  0.21961723332E+04  0.00000000000E+00 0. -1.
         25    2    1    2    0    0 -0.72801823524E+01  0.27505036439E+02 -0.19474151027E+04  0.19516301854E+04  0.12500108168E+03 0.  0.
          5    1    3    3  501    0  0.32583745274E+02 -0.81613443378E+00 -0.14782032776E+03  0.15137115257E+03  0.10000000000E+00 0.  1.
         -5    1    3    3    0  501 -0.39863927626E+02  0.28321170872E+02 -0.17995947749E+04  0.18002590328E+04  0.10000000000E+00 0.  1.
         21    1    1    2  504  503  0.72801823524E+01 -0.27505036439E+02 -0.24582916505E+03  0.24747021331E+03  0.00000000000E+00 0. -1.
<mgrwt>
<rscale>  1 0.12819828E+03</rscale>
<asrwt>0</asrwt>
<pdfrwt beam="1">  1       21 0.45047208E-03 0.12819828E+03</pdfrwt>
<pdfrwt beam="2">  1       21 0.33787232E+00 0.12819828E+03</pdfrwt>
<totfact> 0.28699228E+05</totfact>
</mgrwt>
</event>
<event>
 6    1  0.4216855E-002  0.1280386E+03  0.7546771E-02  0.1230395E+00
         21   -1    0    0  503  502  0.00000000000E+00  0.00000000000E+00  0.17995839628E+03  0.17995839628E+03  0.00000000000E+00 0.  1.
         21   -1    0    0  504  503 -0.00000000000E+00 -0.00000000000E+00 -0.36807386154E+02  0.36807386154E+02  0.00000000000E+00 0.  1.
         25    2    1    2    0    0  0.27548973845E+02 -0.35714417043E+01  0.89085685894E+02  0.15598124131E+03  0.12498874770E+03 0.  0.
          5    1    3    3  501    0  0.27695566762E+02  0.54676751397E+02  0.73464218877E+02  0.95674411505E+02  0.10000000000E+00 0. -1.
         -5    1    3    3    0  501 -0.14659291695E+00 -0.58248193101E+02  0.15621467017E+02  0.60306829802E+02  0.10000000000E+00 0. -1.
         21    1    1    2  504  502 -0.27548973845E+02  0.35714417043E+01  0.54065324227E+02  0.60784541122E+02  0.00000000000E+00 0. -1.
<mgrwt>
<rscale>  1 0.12803862E+03</rscale>
<asrwt>0</asrwt>
<pdfrwt beam="1">  1       21 0.27685907E-01 0.12803862E+03</pdfrwt>
<pdfrwt beam="2">  1       21 0.56626749E-02 0.12803862E+03</pdfrwt>
<totfact> 0.26870226E+06</totfact>
</mgrwt>
</event>
<event>
 6    1  0.4216855E-002  0.1981009E+03  0.7546771E-02  0.1151351E+00
         21   -1    0    0  504  502  0.00000000000E+00  0.00000000000E+00  0.11943424803E+04  0.11943424803E+04  0.00000000000E+00 0. -1.
         21   -1    0    0  502  503 -0.00000000000E+00 -0.00000000000E+00 -0.38016512527E+02  0.38016512527E+02  0.00000000000E+00 0. -1.
         25    2    1    2    0    0  0.14936274145E+03  0.36191697317E+02  0.28199108193E+03  0.34461997707E+03  0.12499956328E+03 0.  0.
          5    1    3    3  501    0  0.15699570864E+03  0.59098316922E+02  0.21052846525E+03  0.26918861097E+03  0.10000000000E+00 0.  1.
         -5    1    3    3    0  501 -0.76329671858E+01 -0.22906619604E+02  0.71462616684E+02  0.75431366109E+02  0.10000000000E+00 0.  1.
         21    1    1    2  504  503 -0.14936274145E+03 -0.36191697317E+02  0.87433488584E+03  0.88773901575E+03  0.00000000000E+00 0. -1.
<mgrwt>
<rscale>  1 0.19810088E+03</rscale>
<asrwt>0</asrwt>
<pdfrwt beam="1">  1       21 0.18374497E+00 0.19810088E+03</pdfrwt>
<pdfrwt beam="2">  1       21 0.58486952E-02 0.19810088E+03</pdfrwt>
<totfact> 0.35229781E+04</totfact>
</mgrwt>
</event>
<event>
 6    1  0.4216855E-002  0.1285086E+03  0.7546771E-02  0.1229686E+00
         21   -1    0    0  503  502  0.00000000000E+00  0.00000000000E+00  0.11985500428E+02  0.11985500428E+02  0.00000000000E+00 0. -1.
         21   -1    0    0  504  503 -0.00000000000E+00 -0.00000000000E+00 -0.52441686930E+03  0.52441686930E+03  0.00000000000E+00 0. -1.
         25    2    1    2    0    0 -0.88864060823E+01 -0.28422781773E+02 -0.40316999649E+03  0.42315542614E+03  0.12501058302E+03 0.  0.
          5    1    3    3  501    0  0.13024161207E+02 -0.72556814233E+02 -0.17806497893E+03  0.19272069631E+03  0.10000000000E+00 0. -1.
         -5    1    3    3    0  501 -0.21910567289E+02  0.44134032459E+02 -0.22510501756E+03  0.23043472983E+03  0.10000000000E+00 0. -1.
         21    1    1    2  504  502  0.88864060823E+01  0.28422781773E+02 -0.10926137238E+03  0.11324694359E+03  0.00000000000E+00 0. -1.
<mgrwt>
<rscale>  1 0.12850863E+03</rscale>
<asrwt>0</asrwt>
<pdfrwt beam="1">  1       21 0.18439230E-02 0.12850863E+03</pdfrwt>
<pdfrwt beam="2">  1       21 0.80679526E-01 0.12850863E+03</pdfrwt>
<totfact> 0.18919751E+06</totfact>
</mgrwt>
</event>
<event>
 6    1  0.4216855E-002  0.1357915E+03  0.7546771E-02  0.1219107E+00
         21   -1    0    0  504  502  0.00000000000E+00  0.00000000000E+00  0.10406848138E+04  0.10406848138E+04  0.00000000000E+00 0.  1.
         21   -1    0    0  502  503 -0.00000000000E+00 -0.00000000000E+00 -0.35494974680E+03  0.35494974680E+03  0.00000000000E+00 0. -1.
         25    2    1    2    0    0  0.47517108216E+02 -0.23570590594E+02 -0.34125295731E+03  0.36727769143E+03  0.12500349367E+03 0.  0.
          5    1    3    3  501    0 -0.34733664630E+02 -0.29447579215E+02 -0.18590352432E+03  0.19139936712E+03  0.10000000000E+00 0. -1.
         -5    1    3    3    0  501  0.82250772846E+02  0.58769886205E+01 -0.15534943300E+03  0.17587832431E+03  0.10000000000E+00 0. -1.
         21    1    1    2  504  503 -0.47517108216E+02  0.23570590594E+02  0.10269880243E+04  0.10283568692E+04  0.00000000000E+00 0.  1.
<mgrwt>
<rscale>  1 0.13579146E+03</rscale>
<asrwt>0</asrwt>
<pdfrwt beam="1">  1       21 0.16010535E+00 0.13579146E+03</pdfrwt>
<pdfrwt beam="2">  1       21 0.54607654E-01 0.13579146E+03</pdfrwt>
<totfact> 0.85407177E+02</totfact>
</mgrwt>
</event>
<event>
 6    1  0.4216855E-002  0.1263657E+03  0.7546771E-02  0.1232950E+00
         21   -1    0    0  504  502  0.00000000000E+00  0.00000000000E+00  0.14416908313E+02  0.14416908313E+02  0.00000000000E+00 0. -1.
         21   -1    0    0  502  503 -0.00000000000E+00 -0.00000000000E+00 -0.45005085118E+03  0.45005085118E+03  0.00000000000E+00 0. -1.
         25    2    1    2    0    0 -0.17919075825E+02 -0.47485387082E+01 -0.42435119161E+03  0.44276655274E+03  0.12499857805E+03 0.  0.
          5    1    3    3  501    0 -0.53572733850E+02  0.40963057177E+02 -0.25503749460E+03  0.26380322878E+03  0.10000000000E+00 0.  1.
         -5    1    3    3    0  501  0.35653658025E+02 -0.45711595885E+02 -0.16931369701E+03  0.17896332396E+03  0.10000000000E+00 0.  1.
         21    1    1    2  504  503  0.17919075825E+02  0.47485387082E+01 -0.11282751260E+02  0.21701206747E+02  0.00000000000E+00 0. -1.
<mgrwt>
<rscale>  1 0.12636569E+03</rscale>
<asrwt>0</asrwt>
<pdfrwt beam="1">  1       21 0.22179859E-02 0.12636569E+03</pdfrwt>
<pdfrwt beam="2">  1       21 0.69238591E-01 0.12636569E+03</pdfrwt>
<totfact> 0.19670244E+06</totfact>
</mgrwt>
</event>
<event>
 6    1  0.4216855E-002  0.1859431E+03  0.7546771E-02  0.1162172E+00
         21   -1    0    0  503  502  0.00000000000E+00  0.00000000000E+00  0.37637523970E+03  0.37637523970E+03  0.00000000000E+00 0.  1.
         21   -1    0    0  504  503 -0.00000000000E+00 -0.00000000000E+00 -0.87619000810E+02  0.87619000810E+02  0.00000000000E+00 0.  1.
         25    2    1    2    0    0 -0.11189820102E+02  0.13721279237E+03  0.57089931192E+02  0.19450984284E+03  0.12498902453E+03 0.  0.
          5    1    3    3  501    0  0.12461111597E+02  0.42752780472E+02  0.82607387894E+02  0.93845991257E+02  0.10000000000E+00 0. -1.
         -5    1    3    3    0  501 -0.23650931698E+02  0.94460011902E+02 -0.25517456702E+02  0.10066385158E+03  0.10000000000E+00 0. -1.
         21    1    1    2  504  502  0.11189820102E+02 -0.13721279237E+03  0.23166630769E+03  0.26948439767E+03  0.00000000000E+00 0.  1.
<mgrwt>
<rscale>  1 0.18594305E+03</rscale>
<asrwt>0</asrwt>
<pdfrwt beam="1">  1       21 0.57903882E-01 0.18594305E+03</pdfrwt>
<pdfrwt beam="2">  1       21 0.13479846E-01 0.18594305E+03</pdfrwt>
<totfact> 0.13344715E+05</totfact>
</mgrwt>
</event>
<event>
 6    1  0.4216855E-002  0.1281762E+03  0.7546771E-02  0.1230187E+00
         21   -1    0    0  504  502  0.00000000000E+00  0.00000000000E+00  0.64769414027E+02  0.64769414027E+02  0.00000000000E+00 0. -1.
         21   -1    0    0  502  503 -0.00000000000E+00 -0.00000000000E+00 -0.10577024876E+03  0.10577024876E+03  0.00000000000E+00 0. -1.
         25    2    1    2    0    0  0.51386908812E+00 -0.28364178877E+02 -0.54305740412E+02  0.13920579581E+03  0.12499739773E+03 0.  0.
          5    1    3    3  501    0  0.12992879906E+02  0.19822204311E+02  0.31852214161E+02  0.39702748758E+02  0.10000000000E+00 0. -1.
         -5    1    3    3    0  501 -0.12479010818E+02 -0.48186383188E+02 -0.86157954573E+02  0.99503047048E+02  0.10000000000E+00 0. -1.
         21    1    1    2  504  503 -0.51386908812E+00  0.28364178877E+02  0.13304905680E+02  0.31333866980E+02  0.00000000000E+00 0. -1.
<mgrwt>
<rscale>  1 0.12817621E+03</rscale>
<asrwt>0</asrwt>
<pdfrwt beam="1">  1       21 0.99645254E-02 0.12817621E+03</pdfrwt>
<pdfrwt beam="2">  1       21 0.16272346E-01 0.12817621E+03</pdfrwt>
<totfact> 0.27347645E+06</totfact>
</mgrwt>
</event>
<event>
 6    1  0.4216855E-002  0.1273823E+03  0.7546771E-02  0.1231392E+00
         21   -1    0    0  503  502  0.00000000000E+00  0.00000000000E+00  0.81173154651E+01  0.81173154651E+01  0.00000000000E+00 0.  1.
         21   -1    0    0  504  503 -0.00000000000E+00 -0.00000000000E+00 -0.71224259333E+03  0.71224259333E+03  0.00000000000E+00 0.  1.
         25    2    1    2    0    0  0.24405775195E+02  0.26127082274E+01 -0.57833979237E+03  0.59220197315E+03  0.12499517374E+03 0.  0.
          5    1    3    3  501    0 -0.48223895678E+02 -0.18575523751E+02 -0.24267047325E+03  0.24811199645E+03  0.10000000000E+00 0.  1.
         -5    1    3    3    0  501  0.72629670873E+02  0.21188231979E+02 -0.33566931912E+03  0.34408997670E+03  0.10000000000E+00 0.  1.
         21    1    1    2  504  502 -0.24405775195E+02 -0.26127082274E+01 -0.12578548550E+03  0.12815793565E+03  0.00000000000E+00 0.  1.
<mgrwt>
<rscale>  1 0.12738234E+03</rscale>
<asrwt>0</asrwt>
<pdfrwt beam="1">  1       21 0.12488175E-02 0.12738234E+03</pdfrwt>
<pdfrwt beam="2">  1       21 0.10957581E+00 0.12738234E+03</pdfrwt>
<totfact> 0.17380449E+06</totfact>
</mgrwt>
</event>
<event>
 6    1  0.4216855E-002  0.1277368E+03  0.7546771E-02  0.1230853E+00
         21   -1    0    0  503  502  0.00000000000E+00  0.00000000000E+00  0.13410780554E+03  0.13410780554E+03  0.00000000000E+00 0.  1.
         21   -1    0    0  504  503 -0.00000000000E+00 -0.00000000000E+00 -0.45465780046E+02  0.45465780046E+02  0.00000000000E+00 0.  1.
         25    2    1    2    0    0  0.23782548646E+02  0.11230726065E+02  0.61470683764E+02  0.14175797189E+03  0.12499975521E+03 0.  0.
          5    1    3    3  501    0  0.68787105730E+02  0.18947421104E+02  0.85473715062E+01  0.71859155582E+02  0.10000000000E+00 0.  1.
         -5    1    3    3    0  501 -0.45004557084E+02 -0.77166950399E+01  0.52923312257E+02  0.69898816306E+02  0.10000000000E+00 0.  1.
         21    1    1    2  504  502 -0.23782548646E+02 -0.11230726065E+02  0.27171341735E+02  0.37815613702E+02  0.00000000000E+00 0.  1.
<mgrwt>
<rscale>  1 0.12773675E+03</rscale>
<asrwt>0</asrwt>
<pdfrwt beam="1">  1       21 0.20631970E-01 0.12773675E+03</pdfrwt>
<pdfrwt beam="2">  1       21 0.69947354E-02 0.12773675E+03</pdfrwt>
<totfact> 0.32622424E+06</totfact>
</mgrwt>
</event>
<event>
 6    1  0.4216855E-002  0.1286512E+03  0.7546771E-02  0.1229471E+00
         21   -1    0    0  504  502  0.00000000000E+00  0.00000000000E+00  0.74311294694E+02  0.74311294694E+02  0.00000000000E+00 0.  1.
         21   -1    0    0  502  503 -0.00000000000E+00 -0.00000000000E+00 -0.91213748384E+02  0.91213748384E+02  0.00000000000E+00 0.  1.
         25    2    1    2    0    0  0.27634186777E+02 -0.12750040854E+02  0.38171004641E+01  0.12870776799E+03  0.12499962986E+03 0.  0.
          5    1    3    3  501    0  0.18316949080E+02  0.36894469665E+02 -0.43207061026E+02  0.59695666827E+02  0.10000000000E+00 0. -1.
         -5    1    3    3    0  501  0.93172376967E+01 -0.49644510519E+02  0.47024161490E+02  0.69012101162E+02  0.10000000000E+00 0. -1.
         21    1    1    2  504  503 -0.27634186777E+02  0.12750040854E+02 -0.20719554154E+02  0.36817275089E+02  0.00000000000E+00 0.  1.
<mgrwt>
<rscale>  1 0.12865115E+03</rscale>
<asrwt>0</asrwt>
<pdfrwt beam="1">  1       21 0.11432507E-01 0.12865115E+03</pdfrwt>
<pdfrwt beam="2">  1       21 0.14032884E-01 0.12865115E+03</pdfrwt>
<totfact> 0.28060902E+06</totfact>
</mgrwt>
</event>
<event>
 6    1  0.4216855E-002  0.1275139E+03  0.7546771E-02  0.1231192E+00
         21   -1    0    0  504  502  0.00000000000E+00  0.00000000000E+00  0.17304488562E+02  0.17304488562E+02  0.00000000000E+00 0.  1.
         21   -1    0    0  502  503 -0.00000000000E+00 -0.00000000000E+00 -0.38800280455E+03  0.38800280455E+03  0.00000000000E+00 0.  1.
         25    2    1    2    0    0  0.16745039319E+02  0.18805183503E+02 -0.35066674163E+03  0.37313128902E+03  0.12500305551E+03 0.  0.
          5    1    3    3  501    0  0.53231960500E+02  0.18780139912E+02 -0.69169184273E+02  0.89278896313E+02  0.10000000000E+00 0. -1.
         -5    1    3    3    0  501 -0.36486921181E+02  0.25043590354E-01 -0.28149755736E+03  0.28385239270E+03  0.10000000000E+00 0. -1.
         21    1    1    2  504  503 -0.16745039319E+02 -0.18805183503E+02 -0.20031574353E+02  0.32176004094E+02  0.00000000000E+00 0.  1.
<mgrwt>
<rscale>  1 0.12751390E+03</rscale>
<asrwt>0</asrwt>
<pdfrwt beam="1">  1       21 0.26622291E-02 0.12751390E+03</pdfrwt>
<pdfrwt beam="2">  1       21 0.59692738E-01 0.12751390E+03</pdfrwt>
<totfact> 0.20109740E+06</totfact>
</mgrwt>
</event>
<event>
 6    1  0.4216855E-002  0.1450290E+03  0.7546771E-02  0.1206718E+00
         21   -1    0    0  503  502  0.00000000000E+00  0.00000000000E+00  0.11515306615E+03  0.11515306615E+03  0.00000000000E+00 0. -1.
         21   -1    0    0  504  503 -0.00000000000E+00 -0.00000000000E+00 -0.11136401697E+03  0.11136401697E+03  0.00000000000E+00 0. -1.
         25    2    1    2    0    0 -0.83230707419E+01 -0.73069622030E+02 -0.25689821927E+02  0.14728674163E+03  0.12499989656E+03 0.  0.
          5    1    3    3  501    0 -0.39815781110E+02 -0.53803584320E+02 -0.65040014021E+02  0.93329178368E+02  0.10000000000E+00 0. -1.
         -5    1    3    3    0  501  0.31492710368E+02 -0.19266037710E+02  0.39350192094E+02  0.53957563263E+02  0.10000000000E+00 0. -1.
         21    1    1    2  504  502  0.83230707419E+01  0.73069622030E+02  0.29478871116E+02  0.79230341489E+02  0.00000000000E+00 0. -1.
<mgrwt>
<rscale>  1 0.14502902E+03</rscale>
<asrwt>0</asrwt>
<pdfrwt beam="1">  1       21 0.17715856E-01 0.14502902E+03</pdfrwt>
<pdfrwt beam="2">  1       21 0.17132926E-01 0.14502902E+03</pdfrwt>
<totfact> 0.89141073E+05</totfact>
</mgrwt>
</event>
<event>
 6    1  0.4216855E-002  0.1434562E+03  0.7546771E-02  0.1208753E+00
         21   -1    0    0  503  502  0.00000000000E+00  0.00000000000E+00  0.73813180681E+03  0.73813180681E+03  0.00000000000E+00 0.  1.
         21   -1    0    0  504  503 -0.00000000000E+00 -0.00000000000E+00 -0.19475250639E+02  0.19475250639E+02  0.00000000000E+00 0.  1.
         25    2    1    2    0    0  0.21386397217E+02 -0.67064959166E+02  0.29373509234E+03  0.32689446516E+03  0.12499840057E+03 0.  0.
          5    1    3    3  501    0  0.46846306345E+02  0.10067697906E+02  0.46942359644E+02  0.67078536718E+02  0.10000000000E+00 0.  1.
         -5    1    3    3    0  501 -0.25459909128E+02 -0.77132657071E+02  0.24679273269E+03  0.25981592844E+03  0.10000000000E+00 0.  1.
         21    1    1    2  504  502 -0.21386397217E+02  0.67064959166E+02  0.42492146383E+03  0.43071259229E+03  0.00000000000E+00 0.  1.
<mgrwt>
<rscale>  1 0.14345622E+03</rscale>
<asrwt>0</asrwt>
<pdfrwt beam="1">  1       21 0.11355872E+00 0.14345622E+03</pdfrwt>
<pdfrwt beam="2">  1       21 0.29961930E-02 0.14345622E+03</pdfrwt>
<totfact> 0.38805142E+05</totfact>
</mgrwt>
</event>
<event>
 6    1  0.4216855E-002  0.1263474E+03  0.7546771E-02  0.1232978E+00
         21   -1    0    0  503  502  0.00000000000E+00  0.00000000000E+00  0.20176996952E+03  0.20176996952E+03  0.00000000000E+00 0. -1.
         21   -1    0    0  504  503 -0.00000000000E+00 -0.00000000000E+00 -0.25991050041E+02  0.25991050041E+02  0.00000000000E+00 0. -1.
         25    2    1    2    0    0 -0.38619114268E+00 -0.18421779730E+02  0.15115365475E+03  0.19700529205E+03  0.12499658651E+03 0.  0.
          5    1    3    3  501    0  0.10117322575E+02 -0.28902588166E+02  0.17015949898E+03  0.17289298687E+03  0.10000000000E+00 0. -1.
         -5    1    3    3    0  501 -0.10503513718E+02  0.10480808436E+02 -0.19005844227E+02  0.24112305171E+02  0.10000000000E+00 0. -1.
         21    1    1    2  504  502  0.38619114268E+00  0.18421779730E+02  0.24625264730E+02  0.30755727516E+02  0.00000000000E+00 0.  1.
<mgrwt>
<rscale>  1 0.12634737E+03</rscale>
<asrwt>0</asrwt>
<pdfrwt beam="1">  1       21 0.31041533E-01 0.12634737E+03</pdfrwt>
<pdfrwt beam="2">  1       21 0.39986232E-02 0.12634737E+03</pdfrwt>
<totfact> 0.38600288E+06</totfact>
</mgrwt>
</event>
<event>
 6    1  0.4216855E-002  0.1274037E+03  0.7546771E-02  0.1231360E+00
         21   -1    0    0  504  502  0.00000000000E+00  0.00000000000E+00  0.17695946952E+02  0.17695946952E+02  0.00000000000E+00 0. -1.
         21   -1    0    0  502  503 -0.00000000000E+00 -0.00000000000E+00 -0.46790496683E+03  0.46790496683E+03  0.00000000000E+00 0. -1.
         25    2    1    2    0    0 -0.22383783876E+02 -0.10315678152E+02 -0.44141391523E+03  0.45943221373E+03  0.12499706981E+03 0.  0.
          5    1    3    3  501    0 -0.35998031708E+02  0.60373979066E+01 -0.43593375674E+03  0.43745920808E+03  0.10000000000E+00 0. -1.
         -5    1    3    3    0  501  0.13614247832E+02 -0.16353076059E+02 -0.54801584836E+01  0.21973005657E+02  0.10000000000E+00 0. -1.
         21    1    1    2  504  503  0.22383783876E+02  0.10315678152E+02 -0.87951046445E+01  0.26168700045E+02  0.00000000000E+00 0. -1.
<mgrwt>
<rscale>  1 0.12740375E+03</rscale>
<asrwt>0</asrwt>
<pdfrwt beam="1">  1       21 0.27224539E-02 0.12740375E+03</pdfrwt>
<pdfrwt beam="2">  1       21 0.71985367E-01 0.12740375E+03</pdfrwt>
<totfact> 0.12950313E+06</totfact>
</mgrwt>
</event>
<event>
 6    1  0.4216855E-002  0.1266254E+03  0.7546771E-02  0.1232551E+00
         21   -1    0    0  504  502  0.00000000000E+00  0.00000000000E+00  0.36063934049E+02  0.36063934049E+02  0.00000000000E+00 0. -1.
         21   -1    0    0  502  503 -0.00000000000E+00 -0.00000000000E+00 -0.15301368912E+03  0.15301368912E+03  0.00000000000E+00 0. -1.
         25    2    1    2    0    0  0.67161991135E-01  0.20215493953E+02 -0.89832013494E+02  0.15525392416E+03  0.12500127844E+03 0.  0.
          5    1    3    3  501    0 -0.18307046274E+02 -0.45037362135E+02 -0.68861959549E+02  0.84294076923E+02  0.10000000000E+00 0. -1.
         -5    1    3    3    0  501  0.18374208265E+02  0.65252856088E+02 -0.20970053945E+02  0.70959847234E+02  0.10000000000E+00 0. -1.
         21    1    1    2  504  503 -0.67161991135E-01 -0.20215493953E+02 -0.27117741573E+02  0.33823699007E+02  0.00000000000E+00 0. -1.
<mgrwt>
<rscale>  1 0.12662539E+03</rscale>
<asrwt>0</asrwt>
<pdfrwt beam="1">  1       21 0.55482975E-02 0.12662539E+03</pdfrwt>
<pdfrwt beam="2">  1       21 0.23540568E-01 0.12662539E+03</pdfrwt>
<totfact> 0.37794156E+06</totfact>
</mgrwt>
</event>
<event>
 6    1  0.4216855E-002  0.1270391E+03  0.7546771E-02  0.1231917E+00
         21   -1    0    0  503  502  0.00000000000E+00  0.00000000000E+00  0.29154718724E+03  0.29154718724E+03  0.00000000000E+00 0.  1.
         21   -1    0    0  504  503 -0.00000000000E+00 -0.00000000000E+00 -0.19227937978E+02  0.19227937978E+02  0.00000000000E+00 0.  1.
         25    2    1    2    0    0  0.12028861089E+02  0.19222029267E+02  0.23326085390E+03  0.26561166481E+03  0.12499900244E+03 0.  0.
          5    1    3    3  501    0 -0.34319090339E+02 -0.37600729706E+02  0.69192059631E+02  0.85902071874E+02  0.10000000000E+00 0.  1.
         -5    1    3    3    0  501  0.46347951428E+02  0.56822758973E+02  0.16406879427E+03  0.17970959294E+03  0.10000000000E+00 0.  1.
         21    1    1    2  504  502 -0.12028861089E+02 -0.19222029267E+02  0.39058395357E+02  0.45163460409E+02  0.00000000000E+00 0.  1.
<mgrwt>
<rscale>  1 0.12703909E+03</rscale>
<asrwt>0</asrwt>
<pdfrwt beam="1">  1       21 0.44853410E-01 0.12703909E+03</pdfrwt>
<pdfrwt beam="2">  1       21 0.29581445E-02 0.12703909E+03</pdfrwt>
<totfact> 0.30615444E+06</totfact>
</mgrwt>
</event>
<event>
 6    1  0.4216855E-002  0.1259868E+03  0.7546771E-02  0.1233535E+00
         21   -1    0    0  503  502  0.00000000000E+00  0.00000000000E+00  0.62177835419E+01  0.62177835419E+01  0.00000000000E+00 0.  1.
         21   -1    0    0  504  503 -0.00000000000E+00 -0.00000000000E+00 -0.10807711153E+04  0.10807711153E+04  0.00000000000E+00 0.  1.
         25    2    1    2    0    0 -0.28788774989E+01  0.15468290378E+02 -0.10518397397E+04  0.10593580608E+04  0.12500042867E+03 0.  0.
          5    1    3    3  501    0 -0.10361912495E+02 -0.24725577223E+02 -0.50422574528E+02  0.57106649539E+02  0.10000000000E+00 0. -1.
         -5    1    3    3    0  501  0.74830349962E+01  0.40193867601E+02 -0.10014171652E+04  0.10022514113E+04  0.10000000000E+00 0. -1.
         21    1    1    2  504  502  0.28788774989E+01 -0.15468290378E+02 -0.22713592038E+02  0.27630837955E+02  0.00000000000E+00 0.  1.
<mgrwt>
<rscale>  1 0.12598676E+03</rscale>
<asrwt>0</asrwt>
<pdfrwt beam="1">  1       21 0.95658304E-03 0.12598676E+03</pdfrwt>
<pdfrwt beam="2">  1       21 0.16627231E+00 0.12598676E+03</pdfrwt>
<totfact> 0.92656243E+05</totfact>
</mgrwt>
</event>
<event>
 6    1  0.4216855E-002  0.1272189E+03  0.7546771E-02  0.1231642E+00
         21   -1    0    0  504  502  0.00000000000E+00  0.00000000000E+00  0.43341603640E+02  0.43341603640E+02  0.00000000000E+00 0. -1.
         21   -1    0    0  502  503 -0.00000000000E+00 -0.00000000000E+00 -0.17392404879E+03  0.17392404879E+03  0.00000000000E+00 0. -1.
         25    2    1    2    0    0 -0.63911930375E+01 -0.22776635130E+02 -0.14229124660E+03  0.19087022693E+03  0.12500008885E+03 0.  0.
          5    1    3    3  501    0  0.56415445724E+02 -0.66578952313E+01 -0.38975387625E+02  0.68892096250E+02  0.10000000000E+00 0.  1.
         -5    1    3    3    0  501 -0.62806638761E+02 -0.16118739899E+02 -0.10331585898E+03  0.12197813068E+03  0.10000000000E+00 0.  1.
         21    1    1    2  504  503  0.63911930375E+01  0.22776635130E+02  0.11708801446E+02  0.26395425505E+02  0.00000000000E+00 0. -1.
<mgrwt>
<rscale>  1 0.12721888E+03</rscale>
<asrwt>0</asrwt>
<pdfrwt beam="1">  1       21 0.66679391E-02 0.12721888E+03</pdfrwt>
<pdfrwt beam="2">  1       21 0.26757546E-01 0.12721888E+03</pdfrwt>
<totfact> 0.21724592E+06</totfact>
</mgrwt>
</event>
<event>
 6    1  0.4216855E-002  0.1274563E+03  0.7546771E-02  0.1231280E+00
         21   -1    0    0  504  502  0.00000000000E+00  0.00000000000E+00  0.49129575130E+03  0.49129575130E+03  0.00000000000E+00 0.  1.
         21   -1    0    0  502  503 -0.00000000000E+00 -0.00000000000E+00 -0.23227532909E+02  0.23227532909E+02  0.00000000000E+00 0.  1.
         25    2    1    2    0    0 -0.51177694365E+00 -0.24895158540E+02  0.15592951478E+03  0.20139295810E+03  0.12500031664E+03 0.  0.
          5    1    3    3  501    0  0.68714172695E+01 -0.33389354020E+02 -0.96520462727E+01  0.35429328732E+02  0.10000000000E+00 0. -1.
         -5    1    3    3    0  501 -0.73831942131E+01  0.84941954796E+01  0.16558156105E+03  0.16596362937E+03  0.10000000000E+00 0. -1.
         21    1    1    2  504  503  0.51177694365E+00  0.24895158540E+02  0.31213870361E+03  0.31313032611E+03  0.00000000000E+00 0.  1.
<mgrwt>
<rscale>  1 0.12745631E+03</rscale>
<asrwt>0</asrwt>
<pdfrwt beam="1">  1       21 0.75583954E-01 0.12745631E+03</pdfrwt>
<pdfrwt beam="2">  1       21 0.35734670E-02 0.12745631E+03</pdfrwt>
<totfact> 0.74415354E+05</totfact>
</mgrwt>
</event>
<event>
 6    1  0.4216855E-002  0.1391416E+03  0.7546771E-02  0.1214489E+00
         21   -1    0    0  503  502  0.00000000000E+00  0.00000000000E+00  0.13178760526E+03  0.13178760526E+03  0.00000000000E+00 0.  1.
         21   -1    0    0  504  503 -0.00000000000E+00 -0.00000000000E+00 -0.22689420253E+03  0.22689420253E+03  0.00000000000E+00 0. -1.
         25    2    1    2    0    0 -0.19142224477E+02 -0.58033030437E+02 -0.19621429643E+03  0.24054195757E+03  0.12500450331E+03 0.  0.
          5    1    3    3  501    0 -0.52793529919E+02 -0.76576253729E+02 -0.98154914929E+02  0.13522380250E+03  0.10000000000E+00 0.  1.
         -5    1    3    3    0  501  0.33651305442E+02  0.18543223292E+02 -0.98059381502E+02  0.10531815508E+03  0.10000000000E+00 0.  1.
         21    1    1    2  504  502  0.19142224477E+02  0.58033030437E+02  0.10110769917E+03  0.11813985022E+03  0.00000000000E+00 0.  1.
<mgrwt>
<rscale>  1 0.13914159E+03</rscale>
<asrwt>0</asrwt>
<pdfrwt beam="1">  1       21 0.20275017E-01 0.13914159E+03</pdfrwt>
<pdfrwt beam="2">  1       21 0.34906800E-01 0.13914159E+03</pdfrwt>
<totfact> 0.18080681E+05</totfact>
</mgrwt>
</event>
<event>
 6    1  0.4216855E-002  0.1265826E+03  0.7546771E-02  0.1232616E+00
         21   -1    0    0  504  502  0.00000000000E+00  0.00000000000E+00  0.72591217644E+02  0.72591217644E+02  0.00000000000E+00 0. -1.
         21   -1    0    0  502  503 -0.00000000000E+00 -0.00000000000E+00 -0.79991572874E+02  0.79991572874E+02  0.00000000000E+00 0. -1.
         25    2    1    2    0    0  0.97614480685E+00  0.19922292322E+02 -0.21176355933E+02  0.12834173474E+03  0.12500124893E+03 0.  0.
          5    1    3    3  501    0  0.14741759883E+02  0.71437633762E+02 -0.16707813141E+02  0.74831918470E+02  0.10000000000E+00 0. -1.
         -5    1    3    3    0  501 -0.13765615076E+02 -0.51515341439E+02 -0.44685427926E+01  0.53509816265E+02  0.10000000000E+00 0. -1.
         21    1    1    2  504  503 -0.97614480685E+00 -0.19922292322E+02  0.13776000704E+02  0.24241055782E+02  0.00000000000E+00 0. -1.
<mgrwt>
<rscale>  1 0.12658263E+03</rscale>
<asrwt>0</asrwt>
<pdfrwt beam="1">  1       21 0.11167880E-01 0.12658263E+03</pdfrwt>
<pdfrwt beam="2">  1       21 0.12306396E-01 0.12658263E+03</pdfrwt>
<totfact> 0.36934747E+06</totfact>
</mgrwt>
</event>
<event>
 6    1  0.4216855E-002  0.1308096E+03  0.7546771E-02  0.1226259E+00
         21   -1    0    0  504  502  0.00000000000E+00  0.00000000000E+00  0.77768605247E+02  0.77768605247E+02  0.00000000000E+00 0.  1.
         21   -1    0    0  502  503 -0.00000000000E+00 -0.00000000000E+00 -0.12709215310E+03  0.12709215310E+03  0.00000000000E+00 0.  1.
         25    2    1    2    0    0  0.38406820780E+02 -0.33833035059E+01 -0.81944381111E+02  0.15435680418E+03  0.12499844309E+03 0.  0.
          5    1    3    3  501    0 -0.17647790537E+02 -0.41144362499E+02 -0.73749571933E+02  0.86274633796E+02  0.10000000000E+00 0.  1.
         -5    1    3    3    0  501  0.56054611317E+02  0.37761058993E+02 -0.81948091778E+01  0.68082170380E+02  0.10000000000E+00 0.  1.
         21    1    1    2  504  503 -0.38406820780E+02  0.33833035059E+01  0.32620833255E+02  0.50503954175E+02  0.00000000000E+00 0.  1.
<mgrwt>
<rscale>  1 0.13080956E+03</rscale>
<asrwt>0</asrwt>
<pdfrwt beam="1">  1       21 0.11964401E-01 0.13080956E+03</pdfrwt>
<pdfrwt beam="2">  1       21 0.19552639E-01 0.13080956E+03</pdfrwt>
<totfact> 0.14172563E+06</totfact>
</mgrwt>
</event>
<event>
 6    1  0.4216855E-002  0.1355380E+03  0.7546771E-02  0.1219462E+00
         21   -1    0    0  504  502  0.00000000000E+00  0.00000000000E+00  0.39995801140E+03  0.39995801140E+03  0.00000000000E+00 0.  1.
         21   -1    0    0  502  503 -0.00000000000E+00 -0.00000000000E+00 -0.22154191393E+02  0.22154191393E+02  0.00000000000E+00 0.  1.
         25    2    1    2    0    0  0.36087662264E+02  0.37995922030E+02  0.28325905457E+03  0.31401630958E+03  0.12499816489E+03 0.  0.
          5    1    3    3  501    0 -0.11335237663E+02  0.70680491237E+02  0.20283449275E+03  0.21509546928E+03  0.10000000000E+00 0.  1.
         -5    1    3    3    0  501  0.47422899927E+02 -0.32684569207E+02  0.80424561822E+02  0.98920840302E+02  0.10000000000E+00 0.  1.
         21    1    1    2  504  503 -0.36087662264E+02 -0.37995922030E+02  0.94544765435E+02  0.10809589321E+03  0.00000000000E+00 0.  1.
<mgrwt>
<rscale>  1 0.13553800E+03</rscale>
<asrwt>0</asrwt>
<pdfrwt beam="1">  1       21 0.61531997E-01 0.13553800E+03</pdfrwt>
<pdfrwt beam="2">  1       21 0.34083374E-02 0.13553800E+03</pdfrwt>
<totfact> 0.12579637E+06</totfact>
</mgrwt>
</event>
<event>
 6    1  0.4216855E-002  0.1577878E+03  0.7546771E-02  0.1191217E+00
         21   -1    0    0  504  502  0.00000000000E+00  0.00000000000E+00  0.87050383748E+02  0.87050383748E+02  0.00000000000E+00 0.  1.
         21   -1    0    0  502  503 -0.00000000000E+00 -0.00000000000E+00 -0.38491499867E+03  0.38491499867E+03  0.00000000000E+00 0.  1.
         25    2    1    2    0    0 -0.74910174037E+02 -0.60496683173E+02 -0.33378053686E+03  0.36919702007E+03  0.12500243995E+03 0.  0.
          5    1    3    3  501    0 -0.97411587011E+02 -0.27724059851E+02 -0.30128242841E+03  0.31785020441E+03  0.10000000000E+00 0. -1.
         -5    1    3    3    0  501  0.22501412974E+02 -0.32772623322E+02 -0.32498108457E+02  0.51346815661E+02  0.10000000000E+00 0. -1.
         21    1    1    2  504  503  0.74910174037E+02  0.60496683173E+02  0.35915921945E+02  0.10276836234E+03  0.00000000000E+00 0.  1.
<mgrwt>
<rscale>  1 0.15778781E+03</rscale>
<asrwt>0</asrwt>
<pdfrwt beam="1">  1       21 0.13392366E-01 0.15778781E+03</pdfrwt>
<pdfrwt beam="2">  1       21 0.59217693E-01 0.15778781E+03</pdfrwt>
<totfact> 0.13003155E+05</totfact>
</mgrwt>
</event>
<event>
 6    1  0.4216855E-002  0.1271153E+03  0.7546771E-02  0.1231800E+00
         21   -1    0    0  504  502  0.00000000000E+00  0.00000000000E+00  0.72186067371E+02  0.72186067371E+02  0.00000000000E+00 0. -1.
         21   -1    0    0  502  503 -0.00000000000E+00 -0.00000000000E+00 -0.10015020117E+03  0.10015020117E+03  0.00000000000E+00 0. -1.
         25    2    1    2    0    0  0.89692277826E+01  0.21298677101E+02 -0.53482827269E+02  0.13790830883E+03  0.12499683252E+03 0.  0.
          5    1    3    3  501    0 -0.55359889230E+02 -0.37998649707E+01 -0.37670807788E+02  0.67069039570E+02  0.10000000000E+00 0.  1.
         -5    1    3    3    0  501  0.64329117013E+02  0.25098542071E+02 -0.15812019480E+02  0.70839269264E+02  0.10000000000E+00 0.  1.
         21    1    1    2  504  503 -0.89692277826E+01 -0.21298677101E+02  0.25518693469E+02  0.34427959707E+02  0.00000000000E+00 0. -1.
<mgrwt>
<rscale>  1 0.12711526E+03</rscale>
<asrwt>0</asrwt>
<pdfrwt beam="1">  1       21 0.11105549E-01 0.12711526E+03</pdfrwt>
<pdfrwt beam="2">  1       21 0.15407723E-01 0.12711526E+03</pdfrwt>
<totfact> 0.24950970E+06</totfact>
</mgrwt>
</event>
<event>
 6    1  0.4216855E-002  0.1304502E+03  0.7546771E-02  0.1226789E+00
         21   -1    0    0  503  502  0.00000000000E+00  0.00000000000E+00  0.16525378247E+02  0.16525378247E+02  0.00000000000E+00 0. -1.
         21   -1    0    0  504  503 -0.00000000000E+00 -0.00000000000E+00 -0.43504687419E+03  0.43504687419E+03  0.00000000000E+00 0. -1.
         25    2    1    2    0    0  0.30325245001E+02 -0.21758104987E+02 -0.35042059926E+03  0.37391423452E+03  0.12499689107E+03 0.  0.
          5    1    3    3  501    0  0.42746251114E+01 -0.24672317111E+02 -0.34650678576E+03  0.34741036000E+03  0.10000000000E+00 0.  1.
         -5    1    3    3    0  501  0.26050619890E+02  0.29142121237E+01 -0.39138134954E+01  0.26503874528E+02  0.10000000000E+00 0.  1.
         21    1    1    2  504  502 -0.30325245001E+02  0.21758104987E+02 -0.68100896682E+02  0.77658017911E+02  0.00000000000E+00 0. -1.
<mgrwt>
<rscale>  1 0.13045021E+03</rscale>
<asrwt>0</asrwt>
<pdfrwt beam="1">  1       21 0.25423661E-02 0.13045021E+03</pdfrwt>
<pdfrwt beam="2">  1       21 0.66930284E-01 0.13045021E+03</pdfrwt>
<totfact> 0.16971916E+06</totfact>
</mgrwt>
</event>
<event>
 6    1  0.4216855E-002  0.1389827E+03  0.7546771E-02  0.1214704E+00
         21   -1    0    0  504  502  0.00000000000E+00  0.00000000000E+00  0.20045765104E+02  0.20045765104E+02  0.00000000000E+00 0.  1.
         21   -1    0    0  502  503 -0.00000000000E+00 -0.00000000000E+00 -0.18581785163E+04  0.18581785163E+04  0.00000000000E+00 0.  1.
         25    2    1    2    0    0  0.36363190750E+02 -0.48622661150E+02 -0.18024474394E+04  0.18077978212E+04  0.12501898194E+03 0.  0.
          5    1    3    3  501    0 -0.18809261603E+02 -0.18147421811E+02 -0.14162198377E+04  0.14164609970E+04  0.10000000000E+00 0. -1.
         -5    1    3    3    0  501  0.55172452353E+02 -0.30475239338E+02 -0.38622760165E+03  0.39133682422E+03  0.10000000000E+00 0. -1.
         21    1    1    2  504  503 -0.36363190750E+02  0.48622661150E+02 -0.35685311866E+02  0.70426460239E+02  0.00000000000E+00 0.  1.
<mgrwt>
<rscale>  1 0.13898270E+03</rscale>
<asrwt>0</asrwt>
<pdfrwt beam="1">  1       21 0.30839641E-02 0.13898270E+03</pdfrwt>
<pdfrwt beam="2">  1       21 0.28587360E+00 0.13898270E+03</pdfrwt>
<totfact> 0.26318034E+04</totfact>
</mgrwt>
</event>
<event>
 6    1  0.4216855E-002  0.1266737E+03  0.7546771E-02  0.1232477E+00
         21   -1    0    0  504  502  0.00000000000E+00  0.00000000000E+00  0.79903124572E+01  0.79903124572E+01  0.00000000000E+00 0. -1.
         21   -1    0    0  502  503 -0.00000000000E+00 -0.00000000000E+00 -0.74571945358E+03  0.74571945358E+03  0.00000000000E+00 0. -1.
         25    2    1    2    0    0 -0.17804841002E+02 -0.10199231197E+02 -0.69321847482E+03  0.70469715445E+03  0.12500075590E+03 0.  0.
          5    1    3    3  501    0 -0.63015873848E+02  0.25135392005E+02 -0.32195572248E+03  0.32902626875E+03  0.10000000000E+00 0. -1.
         -5    1    3    3    0  501  0.45211032846E+02 -0.35334623202E+02 -0.37126275234E+03  0.37567088570E+03  0.10000000000E+00 0. -1.
         21    1    1    2  504  503  0.17804841002E+02  0.10199231197E+02 -0.44510666300E+02  0.49012611587E+02  0.00000000000E+00 0. -1.
<mgrwt>
<rscale>  1 0.12667370E+03</rscale>
<asrwt>0</asrwt>
<pdfrwt beam="1">  1       21 0.12292790E-02 0.12667370E+03</pdfrwt>
<pdfrwt beam="2">  1       21 0.11472605E+00 0.12667370E+03</pdfrwt>
<totfact> 0.15964070E+06</totfact>
</mgrwt>
</event>
<event>
 6    1  0.4216855E-002  0.2104587E+03  0.7546771E-02  0.1141203E+00
         21   -1    0    0  504  502  0.00000000000E+00  0.00000000000E+00  0.26866377863E+03  0.26866377863E+03  0.00000000000E+00 0. -1.
         21   -1    0    0  502  503 -0.00000000000E+00 -0.00000000000E+00 -0.14112399936E+03  0.14112399936E+03  0.00000000000E+00 0. -1.
         25    2    1    2    0    0  0.15078329389E+03 -0.77024224012E+02  0.25242778528E+02  0.21196712901E+03  0.12499813244E+03 0.  0.
          5    1    3    3  501    0  0.15004023861E+02 -0.20287125060E+02 -0.42922051460E+02  0.49789563934E+02  0.10000000000E+00 0. -1.
         -5    1    3    3    0  501  0.13577927003E+03 -0.56737098953E+02  0.68164829988E+02  0.16217756508E+03  0.10000000000E+00 0. -1.
         21    1    1    2  504  503 -0.15078329389E+03  0.77024224012E+02  0.10229700075E+03  0.19782064898E+03  0.00000000000E+00 0. -1.
<mgrwt>
<rscale>  1 0.21045870E+03</rscale>
<asrwt>0</asrwt>
<pdfrwt beam="1">  1       21 0.41332889E-01 0.21045870E+03</pdfrwt>
<pdfrwt beam="2">  1       21 0.21711385E-01 0.21045870E+03</pdfrwt>
<totfact> 0.11077828E+05</totfact>
</mgrwt>
</event>
<event>
 6    1  0.4216855E-002  0.1294277E+03  0.7546771E-02  0.1228307E+00
         21   -1    0    0  504  502  0.00000000000E+00  0.00000000000E+00  0.33305679225E+02  0.33305679225E+02  0.00000000000E+00 0.  1.
         21   -1    0    0  502  503 -0.00000000000E+00 -0.00000000000E+00 -0.19936013258E+03  0.19936013258E+03  0.00000000000E+00 0.  1.
         25    2    1    2    0    0 -0.18887598545E+02  0.27552143925E+02 -0.12803796603E+03  0.18205834870E+03  0.12504263102E+03 0.  0.
          5    1    3    3  501    0 -0.67372906222E+02  0.12937359666E+02 -0.37154826587E+02  0.78019067584E+02  0.10000000000E+00 0.  1.
         -5    1    3    3    0  501  0.48485307677E+02  0.14614784259E+02 -0.90883139443E+02  0.10403928111E+03  0.10000000000E+00 0.  1.
         21    1    1    2  504  503  0.18887598545E+02 -0.27552143925E+02 -0.38016487326E+02  0.50607463108E+02  0.00000000000E+00 0.  1.
<mgrwt>
<rscale>  1 0.12942767E+03</rscale>
<asrwt>0</asrwt>
<pdfrwt beam="1">  1       21 0.51239506E-02 0.12942767E+03</pdfrwt>
<pdfrwt beam="2">  1       21 0.30670790E-01 0.12942767E+03</pdfrwt>
<totfact> 0.26129852E+06</totfact>
</mgrwt>
</event>
<event>
 6    1  0.4216855E-002  0.1360721E+03  0.7546771E-02  0.1218714E+00
         21   -1    0    0  503  502  0.00000000000E+00  0.00000000000E+00  0.15677525349E+03  0.15677525349E+03  0.00000000000E+00 0. -1.
         21   -1    0    0  504  503 -0.00000000000E+00 -0.00000000000E+00 -0.66593225191E+02  0.66593225191E+02  0.00000000000E+00 0. -1.
         25    2    1    2    0    0  0.52433478582E+02 -0.11912653838E+02  0.24125532862E+02  0.13819429488E+03  0.12499776319E+03 0.  0.
          5    1    3    3  501    0  0.31533701377E+02  0.41787052906E+02  0.52346103035E+02  0.74031456936E+02  0.10000000000E+00 0. -1.
         -5    1    3    3    0  501  0.20899777205E+02 -0.53699706744E+02 -0.28220570172E+02  0.64162837940E+02  0.10000000000E+00 0. -1.
         21    1    1    2  504  502 -0.52433478582E+02  0.11912653838E+02  0.66056495438E+02  0.85174183807E+02  0.00000000000E+00 0. -1.
<mgrwt>
<rscale>  1 0.13607212E+03</rscale>
<asrwt>0</asrwt>
<pdfrwt beam="1">  1       21 0.24119270E-01 0.13607212E+03</pdfrwt>
<pdfrwt beam="2">  1       21 0.10245112E-01 0.13607212E+03</pdfrwt>
<totfact> 0.12602114E+06</totfact>
</mgrwt>
</event>
<event>
 6    1  0.4216855E-002  0.1265441E+03  0.7546771E-02  0.1232676E+00
         21   -1    0    0  503  502  0.00000000000E+00  0.00000000000E+00  0.39319752939E+03  0.39319752939E+03  0.00000000000E+00 0.  1.
         21   -1    0    0  504  503 -0.00000000000E+00 -0.00000000000E+00 -0.13594878271E+02  0.13594878271E+02  0.00000000000E+00 0.  1.
         25    2    1    2    0    0 -0.19675220364E+02  0.46189911658E+00  0.32895833199E+03  0.35245848909E+03  0.12500429872E+03 0.  0.
          5    1    3    3  501    0 -0.63542249915E+02  0.23610070092E+02  0.25154288522E+03  0.26051657537E+03  0.10000000000E+00 0.  1.
         -5    1    3    3    0  501  0.43867029551E+02 -0.23148170976E+02  0.77415446765E+02  0.91941913722E+02  0.10000000000E+00 0.  1.
         21    1    1    2  504  502  0.19675220364E+02 -0.46189911658E+00  0.50644319133E+02  0.54333918574E+02  0.00000000000E+00 0.  1.
<mgrwt>
<rscale>  1 0.12654407E+03</rscale>
<asrwt>0</asrwt>
<pdfrwt beam="1">  1       21 0.60491919E-01 0.12654407E+03</pdfrwt>
<pdfrwt beam="2">  1       21 0.20915200E-02 0.12654407E+03</pdfrwt>
<totfact> 0.28917227E+06</totfact>
</mgrwt>
</event>
<event>
 6    1  0.4216855E-002  0.1678876E+03  0.7546771E-02  0.1180069E+00
         21   -1    0    0  504  502  0.00000000000E+00  0.00000000000E+00  0.11548412146E+04  0.11548412146E+04  0.00000000000E+00 0.  1.
         21   -1    0    0  502  503 -0.00000000000E+00 -0.00000000000E+00 -0.32654377794E+03  0.32654377794E+03  0.00000000000E+00 0.  1.
         25    2    1    2    0    0  0.18286087146E+02  0.11057108315E+03 -0.30200856141E+03  0.34553641342E+03  0.12500358565E+03 0.  0.
          5    1    3    3  501    0 -0.49703481319E+02  0.19133988103E+02 -0.11116854164E+03  0.12326800155E+03  0.10000000000E+00 0.  1.
         -5    1    3    3    0  501  0.67989568465E+02  0.91437095045E+02 -0.19084001978E+03  0.22226841188E+03  0.10000000000E+00 0.  1.
         21    1    1    2  504  503 -0.18286087146E+02 -0.11057108315E+03  0.11303059980E+04  0.11358485791E+04  0.00000000000E+00 0.  1.
<mgrwt>
<rscale>  1 0.16788759E+03</rscale>
<asrwt>0</asrwt>
<pdfrwt beam="1">  1       21 0.17766788E+00 0.16788759E+03</pdfrwt>
<pdfrwt beam="2">  1       21 0.50237505E-01 0.16788759E+03</pdfrwt>
<totfact> 0.73369733E+02</totfact>
</mgrwt>
</event>
<event>
 6    1  0.4216855E-002  0.1275333E+03  0.7546771E-02  0.1231162E+00
         21   -1    0    0  503  502  0.00000000000E+00  0.00000000000E+00  0.11523963145E+03  0.11523963145E+03  0.00000000000E+00 0. -1.
         21   -1    0    0  504  503 -0.00000000000E+00 -0.00000000000E+00 -0.54588863581E+02  0.54588863581E+02  0.00000000000E+00 0. -1.
         25    2    1    2    0    0 -0.20959795453E+02 -0.14141377700E+02  0.31744881735E+02  0.13142482539E+03  0.12500182248E+03 0.  0.
          5    1    3    3  501    0 -0.24175623945E+02 -0.50989470044E+02  0.61856532985E+02  0.83729490154E+02  0.10000000000E+00 0. -1.
         -5    1    3    3    0  501  0.32158284920E+01  0.36848092344E+02 -0.30111651249E+02  0.47695335236E+02  0.10000000000E+00 0. -1.
         21    1    1    2  504  502  0.20959795453E+02  0.14141377700E+02  0.28905886135E+02  0.38403669642E+02  0.00000000000E+00 0.  1.
<mgrwt>
<rscale>  1 0.12753332E+03</rscale>
<asrwt>0</asrwt>
<pdfrwt beam="1">  1       21 0.17729174E-01 0.12753332E+03</pdfrwt>
<pdfrwt beam="2">  1       21 0.83982867E-02 0.12753332E+03</pdfrwt>
<totfact> 0.31488477E+06</totfact>
</mgrwt>
</event>
<event>
 6    1  0.4216855E-002  0.1306849E+03  0.7546771E-02  0.1226443E+00
         21   -1    0    0  504  502  0.00000000000E+00  0.00000000000E+00  0.15335756910E+03  0.15335756910E+03  0.00000000000E+00 0.  1.
         21   -1    0    0  502  503 -0.00000000000E+00 -0.00000000000E+00 -0.65098218475E+02  0.65098218475E+02  0.00000000000E+00 0.  1.
         25    2    1    2    0    0 -0.37816773117E+02 -0.44964644544E+01  0.95694694810E+01  0.13103482947E+03  0.12501290040E+03 0.  0.
          5    1    3    3  501    0 -0.52868414240E+02 -0.37177778906E+02  0.46386982796E+02  0.79555129574E+02  0.10000000000E+00 0. -1.
         -5    1    3    3    0  501  0.15051641123E+02  0.32681314451E+02 -0.36817513315E+02  0.51479699897E+02  0.10000000000E+00 0. -1.
         21    1    1    2  504  503  0.37816773117E+02  0.44964644544E+01  0.78689881145E+02  0.87420958106E+02  0.00000000000E+00 0.  1.
<mgrwt>
<rscale>  1 0.13068493E+03</rscale>
<asrwt>0</asrwt>
<pdfrwt beam="1">  1       21 0.23593472E-01 0.13068493E+03</pdfrwt>
<pdfrwt beam="2">  1       21 0.10015111E-01 0.13068493E+03</pdfrwt>
<totfact> 0.13661470E+06</totfact>
</mgrwt>
</event>
<event>
 6    1  0.4216855E-002  0.1341919E+03  0.7546771E-02  0.1221365E+00
         21   -1    0    0  504  502  0.00000000000E+00  0.00000000000E+00  0.10115344468E+04  0.10115344468E+04  0.00000000000E+00 0. -1.
         21   -1    0    0  502  503 -0.00000000000E+00 -0.00000000000E+00 -0.24770150005E+02  0.24770150005E+02  0.00000000000E+00 0. -1.
         25    2    1    2    0    0 -0.38923245424E+02 -0.29312232659E+02  0.16313662637E+03  0.21123686291E+03  0.12503290516E+03 0.  0.
          5    1    3    3  501    0 -0.26207842326E+02 -0.20190745846E+02 -0.12156658685E+02  0.35246440495E+02  0.10000000000E+00 0.  1.
         -5    1    3    3    0  501 -0.12715403099E+02 -0.91214868131E+01  0.17529328505E+03  0.17599042242E+03  0.10000000000E+00 0.  1.
         21    1    1    2  504  503  0.38923245424E+02  0.29312232659E+02  0.82362767043E+03  0.82506773390E+03  0.00000000000E+00 0. -1.
<mgrwt>
<rscale>  1 0.13419185E+03</rscale>
<asrwt>0</asrwt>
<pdfrwt beam="1">  1       21 0.15562065E+00 0.13419185E+03</pdfrwt>
<pdfrwt beam="2">  1       21 0.38107931E-02 0.13419185E+03</pdfrwt>
<totfact> 0.11854576E+05</totfact>
</mgrwt>
</event>
<event>
 6    1  0.4216855E-002  0.1272249E+03  0.7546771E-02  0.1231633E+00
         21   -1    0    0  504  502  0.00000000000E+00  0.00000000000E+00  0.11636300497E+03  0.11636300497E+03  0.00000000000E+00 0.  1.
         21   -1    0    0  502  503 -0.00000000000E+00 -0.00000000000E+00 -0.57946091984E+02  0.57946091984E+02  0.00000000000E+00 0.  1.
         25    2    1    2    0    0  0.86201662708E+01  0.22171076061E+02  0.19518239141E+02  0.12871336572E+03  0.12498121849E+03 0.  0.
          5    1    3    3  501    0  0.43158970064E+02 -0.35335154284E+02 -0.77245779325E+01  0.56311179437E+02  0.10000000000E+00 0.  1.
         -5    1    3    3    0  501 -0.34538803794E+02  0.57506230346E+02  0.27242817074E+02  0.72402186280E+02  0.10000000000E+00 0.  1.
         21    1    1    2  504  503 -0.86201662708E+01 -0.22171076061E+02  0.38898673849E+02  0.45595731242E+02  0.00000000000E+00 0.  1.
<mgrwt>
<rscale>  1 0.12722488E+03</rscale>
<asrwt>0</asrwt>
<pdfrwt beam="1">  1       21 0.17902001E-01 0.12722488E+03</pdfrwt>
<pdfrwt beam="2">  1       21 0.89147834E-02 0.12722488E+03</pdfrwt>
<totfact> 0.27894612E+06</totfact>
</mgrwt>
</event>
<event>
 6    1  0.4216855E-002  0.1262141E+03  0.7546771E-02  0.1233184E+00
         21   -1    0    0  504  502  0.00000000000E+00  0.00000000000E+00  0.28882087259E+02  0.28882087259E+02  0.00000000000E+00 0.  1.
         21   -1    0    0  502  503 -0.00000000000E+00 -0.00000000000E+00 -0.19237367120E+03  0.19237367120E+03  0.00000000000E+00 0.  1.
         25    2    1    2    0    0 -0.11817348503E+02  0.12850893086E+02 -0.15941073568E+03  0.20332677351E+03  0.12500079599E+03 0.  0.
          5    1    3    3  501    0 -0.14422223536E+02 -0.48726380423E+02 -0.11961844965E+03  0.12996478053E+03  0.10000000000E+00 0. -1.
         -5    1    3    3    0  501  0.26048750332E+01  0.61577273509E+02 -0.39792286028E+02  0.73361992980E+02  0.10000000000E+00 0. -1.
         21    1    1    2  504  503  0.11817348503E+02 -0.12850893086E+02 -0.40808482601E+01  0.17928984948E+02  0.00000000000E+00 0. -1.
<mgrwt>
<rscale>  1 0.12621408E+03</rscale>
<asrwt>0</asrwt>
<pdfrwt beam="1">  1       21 0.44433981E-02 0.12621408E+03</pdfrwt>
<pdfrwt beam="2">  1       21 0.29595949E-01 0.12621408E+03</pdfrwt>
<totfact> 0.35506062E+06</totfact>
</mgrwt>
</event>
<event>
 6    1  0.4216855E-002  0.1417667E+03  0.7546771E-02  0.1210971E+00
         21   -1    0    0  503  502  0.00000000000E+00  0.00000000000E+00  0.88795193869E+03  0.88795193869E+03  0.00000000000E+00 0.  1.
         21   -1    0    0  504  503 -0.00000000000E+00 -0.00000000000E+00 -0.38778282373E+02  0.38778282373E+02  0.00000000000E+00 0.  1.
         25    2    1    2    0    0  0.45398447103E+02  0.49109421742E+02  0.97432475241E+02  0.17201997360E+03  0.12500011913E+03 0.  0.
          5    1    3    3  501    0  0.34209858360E+02  0.91564894392E+02  0.70402149025E+02  0.12046126714E+03  0.10000000000E+00 0. -1.
         -5    1    3    3    0  501  0.11188588743E+02 -0.42455472651E+02  0.27030326217E+02  0.51558706456E+02  0.10000000000E+00 0. -1.
         21    1    1    2  504  502 -0.45398447103E+02 -0.49109421742E+02  0.75174118107E+03  0.75471024746E+03  0.00000000000E+00 0.  1.
<mgrwt>
<rscale>  1 0.14176665E+03</rscale>
<asrwt>0</asrwt>
<pdfrwt beam="1">  1       21 0.13660798E+00 0.14176665E+03</pdfrwt>
<pdfrwt beam="2">  1       21 0.59658902E-02 0.14176665E+03</pdfrwt>
<totfact> 0.77869915E+04</totfact>
</mgrwt>
</event>
<event>
 6    1  0.4216855E-002  0.1279138E+03  0.7546771E-02  0.1230584E+00
         21   -1    0    0  504  502  0.00000000000E+00  0.00000000000E+00  0.51947716134E+02  0.51947716134E+02  0.00000000000E+00 0.  1.
         21   -1    0    0  502  503 -0.00000000000E+00 -0.00000000000E+00 -0.19400976544E+03  0.19400976544E+03  0.00000000000E+00 0. -1.
         25    2    1    2    0    0 -0.25810485520E+02 -0.84546998113E+01 -0.16612923198E+03  0.20966846955E+03  0.12499712915E+03 0.  0.
          5    1    3    3  501    0  0.16788259974E+02 -0.55823145068E+02 -0.11119446835E+03  0.12554795494E+03  0.10000000000E+00 0. -1.
         -5    1    3    3    0  501 -0.42598745494E+02  0.47368445257E+02 -0.54934763622E+02  0.84120514608E+02  0.10000000000E+00 0. -1.
         21    1    1    2  504  503  0.25810485520E+02  0.84546998113E+01  0.24067182672E+02  0.36289012021E+02  0.00000000000E+00 0.  1.
<mgrwt>
<rscale>  1 0.12791382E+03</rscale>
<asrwt>0</asrwt>
<pdfrwt beam="1">  1       21 0.79919564E-02 0.12791382E+03</pdfrwt>
<pdfrwt beam="2">  1       21 0.29847656E-01 0.12791382E+03</pdfrwt>
<totfact> 0.12919463E+06</totfact>
</mgrwt>
</event>
<event>
 6    1  0.4216855E-002  0.1270095E+03  0.7546771E-02  0.1231962E+00
         21   -1    0    0  504  502  0.00000000000E+00  0.00000000000E+00  0.74365173335E+02  0.74365173335E+02  0.00000000000E+00 0. -1.
         21   -1    0    0  502  503 -0.00000000000E+00 -0.00000000000E+00 -0.16549488128E+03  0.16549488128E+03  0.00000000000E+00 0.  1.
         25    2    1    2    0    0  0.10409906728E+02 -0.19980098620E+02 -0.13818634089E+03  0.18768824995E+03  0.12499537535E+03 0.  0.
          5    1    3    3  501    0  0.26912604015E+02  0.27973882385E+02 -0.13080049098E+03  0.13643901492E+03  0.10000000000E+00 0.  1.
         -5    1    3    3    0  501 -0.16502697287E+02 -0.47953981005E+02 -0.73858499087E+01  0.51249235027E+02  0.10000000000E+00 0.  1.
         21    1    1    2  504  503 -0.10409906728E+02  0.19980098620E+02  0.47056632942E+02  0.52171804673E+02  0.00000000000E+00 0. -1.
<mgrwt>
<rscale>  1 0.12700950E+03</rscale>
<asrwt>0</asrwt>
<pdfrwt beam="1">  1       21 0.11440796E-01 0.12700950E+03</pdfrwt>
<pdfrwt beam="2">  1       21 0.25460751E-01 0.12700950E+03</pdfrwt>
<totfact> 0.93620824E+05</totfact>
</mgrwt>
</event>
<event>
 6    1  0.4216855E-002  0.1289265E+03  0.7546771E-02  0.1229057E+00
         21   -1    0    0  503  502  0.00000000000E+00  0.00000000000E+00  0.16426858618E+02  0.16426858618E+02  0.00000000000E+00 0.  1.
         21   -1    0    0  504  503 -0.00000000000E+00 -0.00000000000E+00 -0.49174745854E+03  0.49174745854E+03  0.00000000000E+00 0.  1.
         25    2    1    2    0    0 -0.14992760011E+02 -0.27753336455E+02 -0.44883694276E+03  0.46698676280E+03  0.12500801938E+03 0.  0.
          5    1    3    3  501    0 -0.46690106242E+02 -0.35007980920E+02 -0.93852895283E+02  0.11051651778E+03  0.10000000000E+00 0.  1.
         -5    1    3    3    0  501  0.31697346231E+02  0.72546444655E+01 -0.35498404747E+03  0.35647024502E+03  0.10000000000E+00 0.  1.
         21    1    1    2  504  502  0.14992760011E+02  0.27753336455E+02 -0.26483657162E+02  0.41187554356E+02  0.00000000000E+00 0.  1.
<mgrwt>
<rscale>  1 0.12892647E+03</rscale>
<asrwt>0</asrwt>
<pdfrwt beam="1">  1       21 0.25272093E-02 0.12892647E+03</pdfrwt>
<pdfrwt beam="2">  1       21 0.75653446E-01 0.12892647E+03</pdfrwt>
<totfact> 0.13107628E+06</totfact>
</mgrwt>
</event>
<event>
 6    1  0.4216855E-002  0.1269683E+03  0.7546771E-02  0.1232025E+00
         21   -1    0    0  503  502  0.00000000000E+00  0.00000000000E+00  0.31967036773E+02  0.31967036773E+02  0.00000000000E+00 0.  1.
         21   -1    0    0  504  503 -0.00000000000E+00 -0.00000000000E+00 -0.17750598618E+03  0.17750598618E+03  0.00000000000E+00 0.  1.
         25    2    1    2    0    0 -0.21417671942E+02  0.61284859661E+01 -0.11257969298E+03  0.16969127342E+03  0.12499866396E+03 0.  0.
          5    1    3    3  501    0 -0.11057401275E+02 -0.25850279212E+02  0.18968314722E+02  0.33916220627E+02  0.10000000000E+00 0. -1.
         -5    1    3    3    0  501 -0.10360270668E+02  0.31978765178E+02 -0.13154800770E+03  0.13577505279E+03  0.10000000000E+00 0. -1.
         21    1    1    2  504  502  0.21417671942E+02 -0.61284859661E+01 -0.32959256424E+02  0.39781749530E+02  0.00000000000E+00 0.  1.
<mgrwt>
<rscale>  1 0.12696827E+03</rscale>
<asrwt>0</asrwt>
<pdfrwt beam="1">  1       21 0.49180057E-02 0.12696827E+03</pdfrwt>
<pdfrwt beam="2">  1       21 0.27308613E-01 0.12696827E+03</pdfrwt>
<totfact> 0.34962815E+06</totfact>
</mgrwt>
</event>
<event>
 6    1  0.4216855E-002  0.1261703E+03  0.7546771E-02  0.1233252E+00
         21   -1    0    0  503  502  0.00000000000E+00  0.00000000000E+00  0.17889346049E+02  0.17889346049E+02  0.00000000000E+00 0. -1.
         21   -1    0    0  504  503 -0.00000000000E+00 -0.00000000000E+00 -0.49564019544E+03  0.49564019544E+03  0.00000000000E+00 0. -1.
         25    2    1    2    0    0 -0.11893674360E+01 -0.17116014414E+02 -0.47992710150E+03  0.49623478455E+03  0.12499826437E+03 0.  0.
          5    1    3    3  501    0  0.68441858345E+01  0.27931968809E+02 -0.41926187888E+03  0.42024703549E+03  0.10000000000E+00 0. -1.
         -5    1    3    3    0  501 -0.80335532706E+01 -0.45047983223E+02 -0.60665222628E+02  0.75987749059E+02  0.10000000000E+00 0. -1.
         21    1    1    2  504  502  0.11893674360E+01  0.17116014414E+02  0.21762521128E+01  0.17294756939E+02  0.00000000000E+00 0. -1.
<mgrwt>
<rscale>  1 0.12617028E+03</rscale>
<asrwt>0</asrwt>
<pdfrwt beam="1">  1       21 0.27522070E-02 0.12617028E+03</pdfrwt>
<pdfrwt beam="2">  1       21 0.76252341E-01 0.12617028E+03</pdfrwt>
<totfact> 0.11206865E+06</totfact>
</mgrwt>
</event>
<event>
 6    1  0.4216855E-002  0.1258921E+03  0.7546771E-02  0.1233682E+00
         21   -1    0    0  504  502  0.00000000000E+00  0.00000000000E+00  0.73596692604E+02  0.73596692604E+02  0.00000000000E+00 0. -1.
         21   -1    0    0  502  503 -0.00000000000E+00 -0.00000000000E+00 -0.98989966981E+02  0.98989966981E+02  0.00000000000E+00 0. -1.
         25    2    1    2    0    0  0.14179856452E+02  0.51144731719E+01 -0.56523395144E+02  0.13799893656E+03  0.12498634377E+03 0.  0.
          5    1    3    3  501    0 -0.23893825805E+02  0.32819590714E+02  0.22198698622E+02  0.46269132980E+02  0.10000000000E+00 0.  1.
         -5    1    3    3    0  501  0.38073682256E+02 -0.27705117542E+02 -0.78722093766E+02  0.91729803584E+02  0.10000000000E+00 0.  1.
         21    1    1    2  504  503 -0.14179856452E+02 -0.51144731719E+01  0.31130120767E+02  0.34587723021E+02  0.00000000000E+00 0. -1.
<mgrwt>
<rscale>  1 0.12589207E+03</rscale>
<asrwt>0</asrwt>
<pdfrwt beam="1">  1       21 0.11322568E-01 0.12589207E+03</pdfrwt>
<pdfrwt beam="2">  1       21 0.15229226E-01 0.12589207E+03</pdfrwt>
<totfact> 0.24618752E+06</totfact>
</mgrwt>
</event>
<event>
 6    1  0.4216855E-002  0.2342747E+03  0.7546771E-02  0.1123667E+00
         21   -1    0    0  504  502  0.00000000000E+00  0.00000000000E+00  0.89934300979E+03  0.89934300979E+03  0.00000000000E+00 0. -1.
         21   -1    0    0  502  503 -0.00000000000E+00 -0.00000000000E+00 -0.94249589538E+02  0.94249589538E+02  0.00000000000E+00 0. -1.
         25    2    1    2    0    0 -0.13052676467E+03  0.14907803836E+03  0.89031953866E+02  0.25062185868E+03  0.12499251747E+03 0.  0.
          5    1    3    3  501    0 -0.48729119362E+02  0.11868738032E+03  0.10000719120E+03  0.16267350618E+03  0.10000000000E+00 0. -1.
         -5    1    3    3    0  501 -0.81797645306E+02  0.30390658041E+02 -0.10975237329E+02  0.87948352504E+02  0.10000000000E+00 0. -1.
         21    1    1    2  504  503  0.13052676467E+03 -0.14907803836E+03  0.71606146639E+03  0.74297074065E+03  0.00000000000E+00 0. -1.
<mgrwt>
<rscale>  1 0.23427468E+03</rscale>
<asrwt>0</asrwt>
<pdfrwt beam="1">  1       21 0.13836046E+00 0.23427468E+03</pdfrwt>
<pdfrwt beam="2">  1       21 0.14499937E-01 0.23427468E+03</pdfrwt>
<totfact> 0.14978928E+04</totfact>
</mgrwt>
</event>
<event>
 6    1  0.4216855E-002  0.1327499E+03  0.7546771E-02  0.1223431E+00
         21   -1    0    0  503  502  0.00000000000E+00  0.00000000000E+00  0.24843503631E+03  0.24843503631E+03  0.00000000000E+00 0.  1.
         21   -1    0    0  504  503 -0.00000000000E+00 -0.00000000000E+00 -0.45888125081E+02  0.45888125081E+02  0.00000000000E+00 0.  1.
         25    2    1    2    0    0  0.44591775270E+02 -0.38060559568E+01  0.61420190797E+02  0.14627025293E+03  0.12497853644E+03 0.  0.
          5    1    3    3  501    0 -0.30249397476E+02  0.16111964617E+02 -0.15050817784E+02  0.37432052675E+02  0.10000000000E+00 0.  1.
         -5    1    3    3    0  501  0.74841172747E+02 -0.19918020573E+02  0.76471008581E+02  0.10883820026E+03  0.10000000000E+00 0.  1.
         21    1    1    2  504  502 -0.44591775270E+02  0.38060559568E+01  0.14112672043E+03  0.14805290846E+03  0.00000000000E+00 0.  1.
<mgrwt>
<rscale>  1 0.13274994E+03</rscale>
<asrwt>0</asrwt>
<pdfrwt beam="1">  1       21 0.38220774E-01 0.13274994E+03</pdfrwt>
<pdfrwt beam="2">  1       21 0.70597117E-02 0.13274994E+03</pdfrwt>
<totfact> 0.98593244E+05</totfact>
</mgrwt>
</event>
<event>
 6    1  0.4216855E-002  0.1679099E+03  0.7546771E-02  0.1180045E+00
         21   -1    0    0  503  502  0.00000000000E+00  0.00000000000E+00  0.48014130992E+03  0.48014130992E+03  0.00000000000E+00 0. -1.
         21   -1    0    0  504  503 -0.00000000000E+00 -0.00000000000E+00 -0.14835280065E+03  0.14835280065E+03  0.00000000000E+00 0.  1.
         25    2    1    2    0    0  0.11210840947E+03 -0.71347649494E+00 -0.91076409679E+02  0.19102006083E+03  0.12499978687E+03 0.  0.
          5    1    3    3  501    0  0.10934198192E+02 -0.51063899365E+02 -0.45151668427E+02  0.69034496233E+02  0.10000000000E+00 0.  1.
         -5    1    3    3    0  501  0.10117421127E+03  0.50350422870E+02 -0.45924741253E+02  0.12198556459E+03  0.10000000000E+00 0.  1.
         21    1    1    2  504  502 -0.11210840947E+03  0.71347649494E+00  0.42286491894E+03  0.43747404974E+03  0.00000000000E+00 0. -1.
<mgrwt>
<rscale>  1 0.16790995E+03</rscale>
<asrwt>0</asrwt>
<pdfrwt beam="1">  1       21 0.73867893E-01 0.16790995E+03</pdfrwt>
<pdfrwt beam="2">  1       21 0.22823508E-01 0.16790995E+03</pdfrwt>
<totfact> 0.30037063E+04</totfact>
</mgrwt>
</event>
<event>
 6    1  0.4216855E-002  0.1511913E+03  0.7546771E-02  0.1199017E+00
         21   -1    0    0  503  502  0.00000000000E+00  0.00000000000E+00  0.58833507955E+02  0.58833507955E+02  0.00000000000E+00 0.  1.
         21   -1    0    0  504  503 -0.00000000000E+00 -0.00000000000E+00 -0.23749040742E+03  0.23749040742E+03  0.00000000000E+00 0.  1.
         25    2    1    2    0    0  0.70214054233E+02  0.47994043457E+02 -0.11967668096E+03  0.19282460236E+03  0.12500151076E+03 0.  0.
          5    1    3    3  501    0  0.68857619289E+02  0.83958247248E+02 -0.62564057200E+02  0.12531811628E+03  0.10000000000E+00 0. -1.
         -5    1    3    3    0  501  0.13564349441E+01 -0.35964203790E+02 -0.57112623764E+02  0.67506486083E+02  0.10000000000E+00 0. -1.
         21    1    1    2  504  502 -0.70214054233E+02 -0.47994043457E+02 -0.58980218501E+02  0.10349931301E+03  0.00000000000E+00 0.  1.
<mgrwt>
<rscale>  1 0.15119133E+03</rscale>
<asrwt>0</asrwt>
<pdfrwt beam="1">  1       21 0.90513088E-02 0.15119133E+03</pdfrwt>
<pdfrwt beam="2">  1       21 0.36536986E-01 0.15119133E+03</pdfrwt>
<totfact> 0.70171472E+05</totfact>
</mgrwt>
</event>
<event>
 6    1  0.4216855E-002  0.1476579E+03  0.7546771E-02  0.1203381E+00
         21   -1    0    0  503  502  0.00000000000E+00  0.00000000000E+00  0.46532942333E+03  0.46532942333E+03  0.00000000000E+00 0.  1.
         21   -1    0    0  504  503 -0.00000000000E+00 -0.00000000000E+00 -0.76722405534E+02  0.76722405534E+02  0.00000000000E+00 0. -1.
         25    2    1    2    0    0  0.56318537180E+02 -0.54832158618E+02  0.21410045969E+01  0.14767342858E+03  0.12499805743E+03 0.  0.
          5    1    3    3  501    0  0.87109229336E+02 -0.27976214725E+01 -0.45916641755E+00  0.87155409213E+02  0.10000000000E+00 0.  1.
         -5    1    3    3    0  501 -0.30790692156E+02 -0.52034537145E+02  0.26001710145E+01  0.60518019372E+02  0.10000000000E+00 0.  1.
         21    1    1    2  504  502 -0.56318537180E+02  0.54832158618E+02  0.38646601320E+03  0.39437840028E+03  0.00000000000E+00 0.  1.
<mgrwt>
<rscale>  1 0.14765791E+03</rscale>
<asrwt>0</asrwt>
<pdfrwt beam="1">  1       21 0.71589140E-01 0.14765791E+03</pdfrwt>
<pdfrwt beam="2">  1       21 0.11803447E-01 0.14765791E+03</pdfrwt>
<totfact> 0.10843798E+05</totfact>
</mgrwt>
</event>
<event>
 6    1  0.4216855E-002  0.1315650E+03  0.7546771E-02  0.1225152E+00
         21   -1    0    0  503  502  0.00000000000E+00  0.00000000000E+00  0.63106554184E+02  0.63106554184E+02  0.00000000000E+00 0. -1.
         21   -1    0    0  504  503 -0.00000000000E+00 -0.00000000000E+00 -0.14492942860E+03  0.14492942860E+03  0.00000000000E+00 0. -1.
         25    2    1    2    0    0 -0.30090496604E+01  0.40992783368E+02 -0.97803504621E+02  0.16393560626E+03  0.12497957760E+03 0.  0.
          5    1    3    3  501    0  0.17223902710E+02  0.72323243496E+01 -0.11815735440E+03  0.11962499630E+03  0.10000000000E+00 0.  1.
         -5    1    3    3    0  501 -0.20232952370E+02  0.33760459018E+02  0.20353849779E+02  0.44310609966E+02  0.10000000000E+00 0.  1.
         21    1    1    2  504  502  0.30090496604E+01 -0.40992783368E+02  0.15980630201E+02  0.44100376526E+02  0.00000000000E+00 0. -1.
<mgrwt>
<rscale>  1 0.13156503E+03</rscale>
<asrwt>0</asrwt>
<pdfrwt beam="1">  1       21 0.97087007E-02 0.13156503E+03</pdfrwt>
<pdfrwt beam="2">  1       21 0.22296835E-01 0.13156503E+03</pdfrwt>
<totfact> 0.16038425E+06</totfact>
</mgrwt>
</event>
<event>
 6    1  0.4216855E-002  0.1260858E+03  0.7546771E-02  0.1233382E+00
         21   -1    0    0  504  502  0.00000000000E+00  0.00000000000E+00  0.27742639893E+02  0.27742639893E+02  0.00000000000E+00 0.  1.
         21   -1    0    0  502  503 -0.00000000000E+00 -0.00000000000E+00 -0.18356718642E+03  0.18356718642E+03  0.00000000000E+00 0.  1.
         25    2    1    2    0    0 -0.57000424282E+01  0.15501713006E+02 -0.14048620652E+03  0.18876967849E+03  0.12499929481E+03 0.  0.
          5    1    3    3  501    0 -0.48276594365E+02 -0.18549568887E+02 -0.18106722541E+02  0.54795797928E+02  0.10000000000E+00 0.  1.
         -5    1    3    3    0  501  0.42576551937E+02  0.34051281893E+02 -0.12237948398E+03  0.13397388056E+03  0.10000000000E+00 0.  1.
         21    1    1    2  504  503  0.57000424282E+01 -0.15501713006E+02 -0.15338340010E+02  0.22540147827E+02  0.00000000000E+00 0.  1.
<mgrwt>
<rscale>  1 0.12608575E+03</rscale>
<asrwt>0</asrwt>
<pdfrwt beam="1">  1       21 0.42680984E-02 0.12608575E+03</pdfrwt>
<pdfrwt beam="2">  1       21 0.28241106E-01 0.12608575E+03</pdfrwt>
<totfact> 0.41542917E+06</totfact>
</mgrwt>
</event>
<event>
 6    1  0.4216855E-002  0.1434104E+03  0.7546771E-02  0.1208812E+00
         21   -1    0    0  503  502  0.00000000000E+00  0.00000000000E+00  0.27130096822E+03  0.27130096822E+03  0.00000000000E+00 0. -1.
         21   -1    0    0  504  503 -0.00000000000E+00 -0.00000000000E+00 -0.55592056848E+02  0.55592056848E+02  0.00000000000E+00 0. -1.
         25    2    1    2    0    0 -0.67640624977E+02  0.19119712104E+02  0.21270933233E+03  0.25653810333E+03  0.12500288343E+03 0.  0.
          5    1    3    3  501    0 -0.53009239351E+01  0.54317169405E+02  0.34700589665E+02  0.64672989802E+02  0.10000000000E+00 0.  1.
         -5    1    3    3    0  501 -0.62339701042E+02 -0.35197457301E+02  0.17800874266E+03  0.19186511353E+03  0.10000000000E+00 0.  1.
         21    1    1    2  504  502  0.67640624977E+02 -0.19119712104E+02  0.29995790482E+01  0.70354921738E+02  0.00000000000E+00 0. -1.
<mgrwt>
<rscale>  1 0.14341038E+03</rscale>
<asrwt>0</asrwt>
<pdfrwt beam="1">  1       21 0.41738610E-01 0.14341038E+03</pdfrwt>
<pdfrwt beam="2">  1       21 0.85526243E-02 0.14341038E+03</pdfrwt>
<totfact> 0.59369108E+05</totfact>
</mgrwt>
</event>
<event>
 6    1  0.4216855E-002  0.1270664E+03  0.7546771E-02  0.1231875E+00
         21   -1    0    0  503  502  0.00000000000E+00  0.00000000000E+00  0.86071170548E+02  0.86071170548E+02  0.00000000000E+00 0.  1.
         21   -1    0    0  504  503 -0.00000000000E+00 -0.00000000000E+00 -0.36763342324E+03  0.36763342324E+03  0.00000000000E+00 0. -1.
         25    2    1    2    0    0  0.21043427051E+02 -0.87849852692E+01 -0.35486941798E+03  0.37693257889E+03  0.12500345366E+03 0.  0.
          5    1    3    3  501    0  0.50787774231E+02 -0.37075641887E+02 -0.30918574643E+03  0.31551519303E+03  0.10000000000E+00 0.  1.
         -5    1    3    3    0  501 -0.29744347180E+02  0.28290656618E+02 -0.45683671541E+02  0.61417385866E+02  0.10000000000E+00 0.  1.
         21    1    1    2  504  502 -0.21043427051E+02  0.87849852692E+01  0.73307165286E+02  0.76772014892E+02  0.00000000000E+00 0.  1.
<mgrwt>
<rscale>  1 0.12706638E+03</rscale>
<asrwt>0</asrwt>
<pdfrwt beam="1">  1       21 0.13241719E-01 0.12706638E+03</pdfrwt>
<pdfrwt beam="2">  1       21 0.56558988E-01 0.12706638E+03</pdfrwt>
<totfact> 0.14771447E+05</totfact>
</mgrwt>
</event>
<event>
 6    1  0.4216855E-002  0.1261151E+03  0.7546771E-02  0.1233337E+00
         21   -1    0    0  503  502  0.00000000000E+00  0.00000000000E+00  0.22518932589E+03  0.22518932589E+03  0.00000000000E+00 0. -1.
         21   -1    0    0  504  503 -0.00000000000E+00 -0.00000000000E+00 -0.23872226227E+02  0.23872226227E+02  0.00000000000E+00 0. -1.
         25    2    1    2    0    0 -0.16660619334E+02  0.15910567728E+01  0.19253106632E+03  0.23015911629E+03  0.12499959846E+03 0.  0.
          5    1    3    3  501    0 -0.56818618680E+02 -0.37255728269E+02  0.12708294846E+03  0.14410562274E+03  0.10000000000E+00 0.  1.
         -5    1    3    3    0  501  0.40157999347E+02  0.38846785042E+02  0.65448117863E+02  0.86053493546E+02  0.10000000000E+00 0.  1.
         21    1    1    2  504  502  0.16660619334E+02 -0.15910567728E+01  0.87860333387E+01  0.18902435824E+02  0.00000000000E+00 0.  1.
<mgrwt>
<rscale>  1 0.12611506E+03</rscale>
<asrwt>0</asrwt>
<pdfrwt beam="1">  1       21 0.34644510E-01 0.12611506E+03</pdfrwt>
<pdfrwt beam="2">  1       21 0.36726503E-02 0.12611506E+03</pdfrwt>
<totfact> 0.35879789E+06</totfact>
</mgrwt>
</event>
<event>
 6    1  0.4216855E-002  0.1347872E+03  0.7546771E-02  0.1220520E+00
         21   -1    0    0  504  502  0.00000000000E+00  0.00000000000E+00  0.18072535326E+03  0.18072535326E+03  0.00000000000E+00 0.  1.
         21   -1    0    0  502  503 -0.00000000000E+00 -0.00000000000E+00 -0.35520859481E+03  0.35520859481E+03  0.00000000000E+00 0. -1.
         25    2    1    2    0    0 -0.44544375817E+02 -0.23697001641E+02 -0.33849121120E+03  0.36434034850E+03  0.12498736010E+03 0.  0.
          5    1    3    3  501    0 -0.49122232054E+02  0.21791740735E+02 -0.53943426395E+02  0.76143134277E+02  0.10000000000E+00 0. -1.
         -5    1    3    3    0  501  0.45778562373E+01 -0.45488742376E+02 -0.28454778480E+03  0.28819721423E+03  0.10000000000E+00 0. -1.
         21    1    1    2  504  503  0.44544375817E+02  0.23697001641E+02  0.16400796965E+03  0.17159359957E+03  0.00000000000E+00 0.  1.
<mgrwt>
<rscale>  1 0.13478720E+03</rscale>
<asrwt>0</asrwt>
<pdfrwt beam="1">  1       21 0.27803901E-01 0.13478720E+03</pdfrwt>
<pdfrwt beam="2">  1       21 0.54647475E-01 0.13478720E+03</pdfrwt>
<totfact> 0.40269461E+04</totfact>
</mgrwt>
</event>
<event>
 6    1  0.4216855E-002  0.1326113E+03  0.7546771E-02  0.1223632E+00
         21   -1    0    0  503  502  0.00000000000E+00  0.00000000000E+00  0.63957648244E+02  0.63957648244E+02  0.00000000000E+00 0. -1.
         21   -1    0    0  504  503 -0.00000000000E+00 -0.00000000000E+00 -0.15429197762E+03  0.15429197762E+03  0.00000000000E+00 0. -1.
         25    2    1    2    0    0 -0.40375761017E+01 -0.44056623069E+02 -0.10758527013E+03  0.17076401737E+03  0.12501388412E+03 0.  0.
          5    1    3    3  501    0  0.18068431128E+02  0.14734483138E+02 -0.10536629512E+03  0.10791496348E+03  0.10000000000E+00 0.  1.
         -5    1    3    3    0  501 -0.22106007230E+02 -0.58791106208E+02 -0.22189750113E+01  0.62849053890E+02  0.10000000000E+00 0.  1.
         21    1    1    2  504  502  0.40375761017E+01  0.44056623069E+02  0.17250940752E+02  0.47485608492E+02  0.00000000000E+00 0. -1.
<mgrwt>
<rscale>  1 0.13261131E+03</rscale>
<asrwt>0</asrwt>
<pdfrwt beam="1">  1       21 0.98396384E-02 0.13261131E+03</pdfrwt>
<pdfrwt beam="2">  1       21 0.23737227E-01 0.13261131E+03</pdfrwt>
<totfact> 0.13934263E+06</totfact>
</mgrwt>
</event>
<event>
 6    1  0.4216855E-002  0.1515102E+03  0.7546771E-02  0.1198629E+00
         21   -1    0    0  503  502  0.00000000000E+00  0.00000000000E+00  0.74425353894E+02  0.74425353894E+02  0.00000000000E+00 0. -1.
         21   -1    0    0  504  503 -0.00000000000E+00 -0.00000000000E+00 -0.11164429926E+04  0.11164429926E+04  0.00000000000E+00 0. -1.
         25    2    1    2    0    0  0.11623699686E+02  0.84841023473E+02 -0.10846699432E+04  0.10952005425E+04  0.12498893164E+03 0.  0.
          5    1    3    3  501    0  0.16716204440E+02  0.50052983971E+02 -0.13599852381E+03  0.14587782962E+03  0.10000000000E+00 0.  1.
         -5    1    3    3    0  501 -0.50925047545E+01  0.34788039502E+02 -0.94867141934E+03  0.94932271287E+03  0.10000000000E+00 0.  1.
         21    1    1    2  504  502 -0.11623699686E+02 -0.84841023473E+02  0.42652304412E+02  0.95667804041E+02  0.00000000000E+00 0. -1.
<mgrwt>
<rscale>  1 0.15151021E+03</rscale>
<asrwt>0</asrwt>
<pdfrwt beam="1">  1       21 0.11450055E-01 0.15151021E+03</pdfrwt>
<pdfrwt beam="2">  1       21 0.17176045E+00 0.15151021E+03</pdfrwt>
<totfact> 0.13682042E+04</totfact>
</mgrwt>
</event>
<event>
 6    1  0.4216855E-002  0.1259637E+03  0.7546771E-02  0.1233571E+00
         21   -1    0    0  503  502  0.00000000000E+00  0.00000000000E+00  0.64226537521E+02  0.64226537521E+02  0.00000000000E+00 0.  1.
         21   -1    0    0  504  503 -0.00000000000E+00 -0.00000000000E+00 -0.96945032665E+02  0.96945032665E+02  0.00000000000E+00 0.  1.
         25    2    1    2    0    0 -0.14113486921E+02 -0.65396899540E+01 -0.52105955870E+02  0.13631534981E+03  0.12499954360E+03 0.  0.
          5    1    3    3  501    0  0.12836248182E+02 -0.44590144526E+02 -0.71971157072E+02  0.85632398696E+02  0.10000000000E+00 0. -1.
         -5    1    3    3    0  501 -0.26949735103E+02  0.38050454572E+02  0.19865201202E+02  0.50682951118E+02  0.10000000000E+00 0. -1.
         21    1    1    2  504  502  0.14113486921E+02  0.65396899540E+01  0.19387460725E+02  0.24856220371E+02  0.00000000000E+00 0.  1.
<mgrwt>
<rscale>  1 0.12596366E+03</rscale>
<asrwt>0</asrwt>
<pdfrwt beam="1">  1       21 0.98810058E-02 0.12596366E+03</pdfrwt>
<pdfrwt beam="2">  1       21 0.14914620E-01 0.12596366E+03</pdfrwt>
<totfact> 0.32464365E+06</totfact>
</mgrwt>
</event>
<event>
 6    1  0.4216855E-002  0.1260444E+03  0.7546771E-02  0.1233446E+00
         21   -1    0    0  503  502  0.00000000000E+00  0.00000000000E+00  0.46740233996E+02  0.46740233996E+02  0.00000000000E+00 0.  1.
         21   -1    0    0  504  503 -0.00000000000E+00 -0.00000000000E+00 -0.29569877341E+03  0.29569877341E+03  0.00000000000E+00 0.  1.
         25    2    1    2    0    0  0.13563596011E+02  0.86381886568E+01 -0.28023179833E+03  0.30727359595E+03  0.12501444930E+03 0.  0.
          5    1    3    3  501    0  0.65303927449E+02  0.26545273338E+02 -0.14035814358E+03  0.15706582361E+03  0.10000000000E+00 0. -1.
         -5    1    3    3    0  501 -0.51740331438E+02 -0.17907084681E+02 -0.13987365474E+03  0.15020777234E+03  0.10000000000E+00 0. -1.
         21    1    1    2  504  502 -0.13563596011E+02 -0.86381886568E+01  0.31273258912E+02  0.35165411458E+02  0.00000000000E+00 0.  1.
<mgrwt>
<rscale>  1 0.12604444E+03</rscale>
<asrwt>0</asrwt>
<pdfrwt beam="1">  1       21 0.71908052E-02 0.12604444E+03</pdfrwt>
<pdfrwt beam="2">  1       21 0.45492119E-01 0.12604444E+03</pdfrwt>
<totfact> 0.67298674E+05</totfact>
</mgrwt>
</event>
<event>
 6    1  0.4216855E-002  0.1271612E+03  0.7546771E-02  0.1231730E+00
         21   -1    0    0  504  502  0.00000000000E+00  0.00000000000E+00  0.54477123120E+02  0.54477123120E+02  0.00000000000E+00 0. -1.
         21   -1    0    0  502  503 -0.00000000000E+00 -0.00000000000E+00 -0.13346574365E+03  0.13346574365E+03  0.00000000000E+00 0. -1.
         25    2    1    2    0    0 -0.23185340722E+02 -0.28680192510E+01 -0.95759067185E+02  0.15918467768E+03  0.12499670836E+03 0.  0.
          5    1    3    3  501    0 -0.36690968741E+02 -0.50483110758E+02 -0.89767641580E+02  0.10932982728E+03  0.10000000000E+00 0. -1.
         -5    1    3    3    0  501  0.13505628019E+02  0.47615091507E+02 -0.59914256045E+01  0.49854850398E+02  0.10000000000E+00 0. -1.
         21    1    1    2  504  503  0.23185340722E+02  0.28680192510E+01  0.16770446652E+02  0.28758189090E+02  0.00000000000E+00 0. -1.
<mgrwt>
<rscale>  1 0.12716117E+03</rscale>
<asrwt>0</asrwt>
<pdfrwt beam="1">  1       21 0.83810959E-02 0.12716117E+03</pdfrwt>
<pdfrwt beam="2">  1       21 0.20533191E-01 0.12716117E+03</pdfrwt>
<totfact> 0.24116036E+06</totfact>
</mgrwt>
</event>
<event>
 6    1  0.4216855E-002  0.1261306E+03  0.7546771E-02  0.1233313E+00
         21   -1    0    0  503  502  0.00000000000E+00  0.00000000000E+00  0.89600404948E+01  0.89600404948E+01  0.00000000000E+00 0. -1.
         21   -1    0    0  504  503 -0.00000000000E+00 -0.00000000000E+00 -0.57468627029E+03  0.57468627029E+03  0.00000000000E+00 0. -1.
         25    2    1    2    0    0 -0.16849563570E+02 -0.25945765001E+00 -0.51374704808E+03  0.52900374090E+03  0.12499981350E+03 0.  0.
          5    1    3    3  501    0  0.52164727629E+01 -0.50772649192E+02 -0.10712868586E+03  0.11866608120E+03  0.10000000000E+00 0. -1.
         -5    1    3    3    0  501 -0.22066036332E+02  0.50513191542E+02 -0.40661836221E+03  0.41033765970E+03  0.10000000000E+00 0. -1.
         21    1    1    2  504  502  0.16849563570E+02  0.25945765001E+00 -0.51979181716E+02  0.54642569875E+02  0.00000000000E+00 0. -1.
<mgrwt>
<rscale>  1 0.12613060E+03</rscale>
<asrwt>0</asrwt>
<pdfrwt beam="1">  1       21 0.13784678E-02 0.12613060E+03</pdfrwt>
<pdfrwt beam="2">  1       21 0.88413273E-01 0.12613060E+03</pdfrwt>
<totfact> 0.24501205E+06</totfact>
</mgrwt>
</event>
<event>
 6    1  0.4216855E-002  0.1267241E+03  0.7546771E-02  0.1232399E+00
         21   -1    0    0  503  502  0.00000000000E+00  0.00000000000E+00  0.75440497888E+03  0.75440497888E+03  0.00000000000E+00 0. -1.
         21   -1    0    0  504  503 -0.00000000000E+00 -0.00000000000E+00 -0.96638975192E+01  0.96638975192E+01  0.00000000000E+00 0. -1.
         25    2    1    2    0    0  0.20650210540E+02  0.30062319584E+01  0.42107479694E+03  0.43973057725E+03  0.12499410915E+03 0.  0.
          5    1    3    3  501    0 -0.48800643115E+02 -0.16177094582E+02  0.22602005473E+03  0.23179360712E+03  0.10000000000E+00 0. -1.
         -5    1    3    3    0  501  0.69450853655E+02  0.19183326541E+02  0.19505474221E+03  0.20793697013E+03  0.10000000000E+00 0. -1.
         21    1    1    2  504  502 -0.20650210540E+02 -0.30062319584E+01  0.32366628442E+03  0.32433829916E+03  0.00000000000E+00 0. -1.
<mgrwt>
<rscale>  1 0.12672409E+03</rscale>
<asrwt>0</asrwt>
<pdfrwt beam="1">  1       21 0.11606226E+00 0.12672409E+03</pdfrwt>
<pdfrwt beam="2">  1       21 0.14867541E-02 0.12672409E+03</pdfrwt>
<totfact> 0.11473105E+06</totfact>
</mgrwt>
</event>
<event>
 6    1  0.4216855E-002  0.1259490E+03  0.7546771E-02  0.1233594E+00
         21   -1    0    0  503  502  0.00000000000E+00  0.00000000000E+00  0.21474806577E+04  0.21474806577E+04  0.00000000000E+00 0. -1.
         21   -1    0    0  504  503 -0.00000000000E+00 -0.00000000000E+00 -0.38930211270E+01  0.38930211270E+01  0.00000000000E+00 0. -1.
         25    2    1    2    0    0 -0.15339658715E+02 -0.14876056748E+01  0.10289853973E+04  0.10366648963E+04  0.12500256484E+03 0.  0.
          5    1    3    3  501    0  0.46053896440E+02  0.98085124092E+01  0.71414520513E+03  0.71569585182E+03  0.10000000000E+00 0. -1.
         -5    1    3    3    0  501 -0.61393555155E+02 -0.11296118084E+02  0.31484019214E+03  0.32096904444E+03  0.10000000000E+00 0. -1.
         21    1    1    2  504  502  0.15339658715E+02  0.14876056748E+01  0.11146022393E+04  0.11147087826E+04  0.00000000000E+00 0. -1.
<mgrwt>
<rscale>  1 0.12594903E+03</rscale>
<asrwt>0</asrwt>
<pdfrwt beam="1">  1       21 0.33038069E+00 0.12594903E+03</pdfrwt>
<pdfrwt beam="2">  1       21 0.59892804E-03 0.12594903E+03</pdfrwt>
<totfact> 0.20436683E+05</totfact>
</mgrwt>
</event>
<event>
 6    1  0.4216855E-002  0.1266345E+03  0.7546771E-02  0.1232537E+00
         21   -1    0    0  503  502  0.00000000000E+00  0.00000000000E+00  0.19136308324E+03  0.19136308324E+03  0.00000000000E+00 0.  1.
         21   -1    0    0  504  503 -0.00000000000E+00 -0.00000000000E+00 -0.32824005573E+02  0.32824005573E+02  0.00000000000E+00 0.  1.
         25    2    1    2    0    0  0.70684682599E+01  0.19003195061E+02  0.97357519189E+02  0.15973347942E+03  0.12500085295E+03 0.  0.
          5    1    3    3  501    0 -0.44113490381E+02 -0.12725344641E+02  0.77883945792E+00  0.45918961451E+02  0.10000000000E+00 0. -1.
         -5    1    3    3    0  501  0.51181958641E+02  0.31728539702E+02  0.96578679731E+02  0.11381451797E+03  0.10000000000E+00 0. -1.
         21    1    1    2  504  502 -0.70684682599E+01 -0.19003195061E+02  0.61181558481E+02  0.64453609396E+02  0.00000000000E+00 0.  1.
<mgrwt>
<rscale>  1 0.12663451E+03</rscale>
<asrwt>0</asrwt>
<pdfrwt beam="1">  1       21 0.29440474E-01 0.12663451E+03</pdfrwt>
<pdfrwt beam="2">  1       21 0.50498471E-02 0.12663451E+03</pdfrwt>
<totfact> 0.28955675E+06</totfact>
</mgrwt>
</event>
<event>
 6    1  0.4216855E-002  0.1265353E+03  0.7546771E-02  0.1232689E+00
         21   -1    0    0  504  502  0.00000000000E+00  0.00000000000E+00  0.43521453543E+01  0.43521453543E+01  0.00000000000E+00 0.  1.
         21   -1    0    0  502  503 -0.00000000000E+00 -0.00000000000E+00 -0.12280870194E+04  0.12280870194E+04  0.00000000000E+00 0.  1.
         25    2    1    2    0    0 -0.13454586952E+02 -0.14306905176E+02 -0.10490431211E+04  0.10566468953E+04  0.12500191205E+03 0.  0.
          5    1    3    3  501    0  0.46106693319E+02 -0.55160394586E+01 -0.19373115354E+03  0.19921853255E+03  0.10000000000E+00 0.  1.
         -5    1    3    3    0  501 -0.59561280272E+02 -0.87908657177E+01 -0.85531196755E+03  0.85742836275E+03  0.10000000000E+00 0.  1.
         21    1    1    2  504  503  0.13454586952E+02  0.14306905176E+02 -0.17469175300E+03  0.17579226949E+03  0.00000000000E+00 0. -1.
<mgrwt>
<rscale>  1 0.12653534E+03</rscale>
<asrwt>0</asrwt>
<pdfrwt beam="1">  1       21 0.66956134E-03 0.12653534E+03</pdfrwt>
<pdfrwt beam="2">  1       21 0.18893632E+00 0.12653534E+03</pdfrwt>
<totfact> 0.11396799E+06</totfact>
</mgrwt>
</event>
<event>
 6    1  0.4216855E-002  0.1330263E+03  0.7546771E-02  0.1223033E+00
         21   -1    0    0  503  502  0.00000000000E+00  0.00000000000E+00  0.16331074334E+02  0.16331074334E+02  0.00000000000E+00 0.  1.
         21   -1    0    0  504  503 -0.00000000000E+00 -0.00000000000E+00 -0.52684534142E+03  0.52684534142E+03  0.00000000000E+00 0.  1.
         25    2    1    2    0    0  0.38308217624E+02 -0.24514189267E+02 -0.43635676309E+03  0.45618331021E+03  0.12501009083E+03 0.  0.
          5    1    3    3  501    0  0.14822835175E+02  0.30025761577E+02 -0.28340695058E+02  0.43868756505E+02  0.10000000000E+00 0. -1.
         -5    1    3    3    0  501  0.23485382450E+02 -0.54539950844E+02 -0.40801606803E+03  0.41231455370E+03  0.10000000000E+00 0. -1.
         21    1    1    2  504  502 -0.38308217624E+02  0.24514189267E+02 -0.74157503999E+02  0.86993105545E+02  0.00000000000E+00 0.  1.
<mgrwt>
<rscale>  1 0.13302627E+03</rscale>
<asrwt>0</asrwt>
<pdfrwt beam="1">  1       21 0.25124728E-02 0.13302627E+03</pdfrwt>
<pdfrwt beam="2">  1       21 0.81053134E-01 0.13302627E+03</pdfrwt>
<totfact> 0.11352484E+06</totfact>
</mgrwt>
</event>
<event>
 6    1  0.4216855E-002  0.1263031E+03  0.7546771E-02  0.1233047E+00
         21   -1    0    0  503  502  0.00000000000E+00  0.00000000000E+00  0.17504239067E+04  0.17504239067E+04  0.00000000000E+00 0.  1.
         21   -1    0    0  504  503 -0.00000000000E+00 -0.00000000000E+00 -0.33725099378E+01  0.33725099378E+01  0.00000000000E+00 0.  1.
         25    2    1    2    0    0  0.18131439123E+02  0.32391884091E+00  0.12388931231E+04  0.12453146715E+04  0.12499442658E+03 0.  0.
          5    1    3    3  501    0 -0.25037377500E+02 -0.49705000605E+02  0.73556578204E+03  0.73766827712E+03  0.10000000000E+00 0.  1.
         -5    1    3    3    0  501  0.43168816623E+02  0.50028919446E+02  0.50332734101E+03  0.50764639437E+03  0.10000000000E+00 0.  1.
         21    1    1    2  504  502 -0.18131439123E+02 -0.32391884091E+00  0.50815827371E+03  0.50848174515E+03  0.00000000000E+00 0.  1.
<mgrwt>
<rscale>  1 0.12630305E+03</rscale>
<asrwt>0</asrwt>
<pdfrwt beam="1">  1       21 0.26929526E+00 0.12630305E+03</pdfrwt>
<pdfrwt beam="2">  1       21 0.51884908E-03 0.12630305E+03</pdfrwt>
<totfact> 0.56282332E+05</totfact>
</mgrwt>
</event>
<event>
 6    1  0.4216855E-002  0.1269855E+03  0.7546771E-02  0.1231999E+00
         21   -1    0    0  503  502  0.00000000000E+00  0.00000000000E+00  0.88484386265E+01  0.88484386265E+01  0.00000000000E+00 0. -1.
         21   -1    0    0  504  503 -0.00000000000E+00 -0.00000000000E+00 -0.63817515351E+03  0.63817515351E+03  0.00000000000E+00 0. -1.
         25    2    1    2    0    0 -0.14917755141E+02  0.16542183452E+02 -0.50526270768E+03  0.52097573957E+03  0.12501653572E+03 0.  0.
          5    1    3    3  501    0  0.49800636567E+02 -0.11279672213E+02 -0.29053029079E+03  0.29498337966E+03  0.10000000000E+00 0.  1.
         -5    1    3    3    0  501 -0.64718391708E+02  0.27821855665E+02 -0.21473241689E+03  0.22599235992E+03  0.10000000000E+00 0.  1.
         21    1    1    2  504  502  0.14917755141E+02 -0.16542183452E+02 -0.12406400721E+03  0.12604785256E+03  0.00000000000E+00 0. -1.
<mgrwt>
<rscale>  1 0.12698550E+03</rscale>
<asrwt>0</asrwt>
<pdfrwt beam="1">  1       21 0.13612981E-02 0.12698550E+03</pdfrwt>
<pdfrwt beam="2">  1       21 0.98180804E-01 0.12698550E+03</pdfrwt>
<totfact> 0.19640500E+06</totfact>
</mgrwt>
</event>
<event>
 6    1  0.4216855E-002  0.1477246E+03  0.7546771E-02  0.1203297E+00
         21   -1    0    0  504  502  0.00000000000E+00  0.00000000000E+00  0.16554875622E+03  0.16554875622E+03  0.00000000000E+00 0. -1.
         21   -1    0    0  502  503 -0.00000000000E+00 -0.00000000000E+00 -0.80601346051E+02  0.80601346051E+02  0.00000000000E+00 0. -1.
         25    2    1    2    0    0 -0.75462105489E+02  0.22533809716E+02  0.31710557341E+02  0.15108978224E+03  0.12498104219E+03 0.  0.
          5    1    3    3  501    0 -0.56054273303E+02  0.51331331342E+02 -0.28834641283E+02  0.81292273131E+02  0.10000000000E+00 0. -1.
         -5    1    3    3    0  501 -0.19407832186E+02 -0.28797521626E+02  0.60545198624E+02  0.69797509113E+02  0.10000000000E+00 0. -1.
         21    1    1    2  504  503  0.75462105489E+02 -0.22533809716E+02  0.53236852833E+02  0.95060320032E+02  0.00000000000E+00 0. -1.
<mgrwt>
<rscale>  1 0.14772462E+03</rscale>
<asrwt>0</asrwt>
<pdfrwt beam="1">  1       21 0.25469039E-01 0.14772462E+03</pdfrwt>
<pdfrwt beam="2">  1       21 0.12400207E-01 0.14772462E+03</pdfrwt>
<totfact> 0.81150951E+05</totfact>
</mgrwt>
</event>
<event>
 6    1  0.4216855E-002  0.1602776E+03  0.7546771E-02  0.1188384E+00
         21   -1    0    0  503  502  0.00000000000E+00  0.00000000000E+00  0.20030827876E+03  0.20030827876E+03  0.00000000000E+00 0. -1.
         21   -1    0    0  504  503 -0.00000000000E+00 -0.00000000000E+00 -0.87139170454E+02  0.87139170454E+02  0.00000000000E+00 0. -1.
         25    2    1    2    0    0  0.81681650791E+02  0.58242781158E+02  0.92384858022E+02  0.18499697975E+03  0.12499922757E+03 0.  0.
          5    1    3    3  501    0  0.10810602620E+03  0.28859202111E+02  0.92968682811E+02  0.14547492028E+03  0.10000000000E+00 0.  1.
         -5    1    3    3    0  501 -0.26424375408E+02  0.29383579047E+02 -0.58382478887E+00  0.39522059470E+02  0.10000000000E+00 0.  1.
         21    1    1    2  504  502 -0.81681650791E+02 -0.58242781158E+02  0.20784250281E+02  0.10245046946E+03  0.00000000000E+00 0. -1.
<mgrwt>
<rscale>  1 0.16027764E+03</rscale>
<asrwt>0</asrwt>
<pdfrwt beam="1">  1       21 0.30816658E-01 0.16027764E+03</pdfrwt>
<pdfrwt beam="2">  1       21 0.13406026E-01 0.16027764E+03</pdfrwt>
<totfact> 0.48897599E+05</totfact>
</mgrwt>
</event>
<event>
 6    1  0.4216855E-002  0.1263893E+03  0.7546771E-02  0.1232914E+00
         21   -1    0    0  504  502  0.00000000000E+00  0.00000000000E+00  0.11350676302E+03  0.11350676302E+03  0.00000000000E+00 0.  1.
         21   -1    0    0  502  503 -0.00000000000E+00 -0.00000000000E+00 -0.26470195167E+03  0.26470195167E+03  0.00000000000E+00 0.  1.
         25    2    1    2    0    0  0.15832912349E+02 -0.99458752249E+01 -0.24867561731E+03  0.27895129422E+03  0.12499864142E+03 0.  0.
          5    1    3    3  501    0  0.88471817438E+01  0.13092396273E+02  0.10297982628E+02  0.18861121684E+02  0.10000000000E+00 0. -1.
         -5    1    3    3    0  501  0.69857306056E+01 -0.23038271498E+02 -0.25897359994E+03  0.26009017254E+03  0.10000000000E+00 0. -1.
         21    1    1    2  504  503 -0.15832912349E+02  0.99458752249E+01  0.97480428658E+02  0.99257420473E+02  0.00000000000E+00 0.  1.
<mgrwt>
<rscale>  1 0.12638933E+03</rscale>
<asrwt>0</asrwt>
<pdfrwt beam="1">  1       21 0.17462579E-01 0.12638933E+03</pdfrwt>
<pdfrwt beam="2">  1       21 0.40723377E-01 0.12638933E+03</pdfrwt>
<totfact> 0.17589283E+05</totfact>
</mgrwt>
</event>
<event>
 6    1  0.4216855E-002  0.1781460E+03  0.7546771E-02  0.1169610E+00
         21   -1    0    0  504  502  0.00000000000E+00  0.00000000000E+00  0.22000533155E+02  0.22000533155E+02  0.00000000000E+00 0. -1.
         21   -1    0    0  502  503 -0.00000000000E+00 -0.00000000000E+00 -0.10910572462E+04  0.10910572462E+04  0.00000000000E+00 0. -1.
         25    2    1    2    0    0 -0.12478535901E+03  0.23265633350E+02 -0.52545071185E+03  0.55482829245E+03  0.12499323181E+03 0.  0.
          5    1    3    3  501    0 -0.98102241104E+02  0.64740522920E+01 -0.15843374220E+03  0.18645971074E+03  0.10000000000E+00 0. -1.
         -5    1    3    3    0  501 -0.26683117902E+02  0.16791581058E+02 -0.36701696966E+03  0.36836858171E+03  0.10000000000E+00 0. -1.
         21    1    1    2  504  503  0.12478535901E+03 -0.23265633350E+02 -0.54360600117E+03  0.55822948689E+03  0.00000000000E+00 0. -1.
<mgrwt>
<rscale>  1 0.17814596E+03</rscale>
<asrwt>0</asrwt>
<pdfrwt beam="1">  1       21 0.33846973E-02 0.17814596E+03</pdfrwt>
<pdfrwt beam="2">  1       21 0.16785496E+00 0.17814596E+03</pdfrwt>
<totfact> 0.11526017E+05</totfact>
</mgrwt>
</event>
<event>
 6    1  0.4216855E-002  0.1272614E+03  0.7546771E-02  0.1231577E+00
         21   -1    0    0  504  502  0.00000000000E+00  0.00000000000E+00  0.24679278309E+03  0.24679278309E+03  0.00000000000E+00 0. -1.
         21   -1    0    0  502  503 -0.00000000000E+00 -0.00000000000E+00 -0.26404799266E+02  0.26404799266E+02  0.00000000000E+00 0. -1.
         25    2    1    2    0    0  0.79070243263E+01  0.22525320749E+02  0.13934997812E+03  0.18871640412E+03  0.12500221467E+03 0.  0.
          5    1    3    3  501    0  0.58826582160E+02  0.41634894305E+02  0.68805595289E+02  0.99640609871E+02  0.10000000000E+00 0. -1.
         -5    1    3    3    0  501 -0.50919557833E+02 -0.19109573556E+02  0.70544382833E+02  0.89075794247E+02  0.10000000000E+00 0. -1.
         21    1    1    2  504  503 -0.79070243263E+01 -0.22525320749E+02  0.81038005706E+02  0.84481178243E+02  0.00000000000E+00 0. -1.
<mgrwt>
<rscale>  1 0.12726140E+03</rscale>
<asrwt>0</asrwt>
<pdfrwt beam="1">  1       21 0.37968119E-01 0.12726140E+03</pdfrwt>
<pdfrwt beam="2">  1       21 0.40622770E-02 0.12726140E+03</pdfrwt>
<totfact> 0.25348066E+06</totfact>
</mgrwt>
</event>
<event>
 6    1  0.4216855E-002  0.1331127E+03  0.7546771E-02  0.1222909E+00
         21   -1    0    0  504  502  0.00000000000E+00  0.00000000000E+00  0.49988967714E+03  0.49988967714E+03  0.00000000000E+00 0. -1.
         21   -1    0    0  502  503 -0.00000000000E+00 -0.00000000000E+00 -0.22731234511E+02  0.22731234511E+02  0.00000000000E+00 0. -1.
         25    2    1    2    0    0  0.44560521994E+02  0.10410561225E+02  0.19089353679E+03  0.23272159082E+03  0.12499990616E+03 0.  0.
          5    1    3    3  501    0  0.75035976494E+00 -0.39976644627E+01  0.18633355956E+03  0.18637797557E+03  0.10000000000E+00 0. -1.
         -5    1    3    3    0  501  0.43810162229E+02  0.14408225688E+02  0.45599772370E+01  0.46343615250E+02  0.10000000000E+00 0. -1.
         21    1    1    2  504  503 -0.44560521994E+02 -0.10410561225E+02  0.28626490584E+03  0.28989932083E+03  0.00000000000E+00 0. -1.
<mgrwt>
<rscale>  1 0.13311272E+03</rscale>
<asrwt>0</asrwt>
<pdfrwt beam="1">  1       21 0.76906096E-01 0.13311272E+03</pdfrwt>
<pdfrwt beam="2">  1       21 0.34971134E-02 0.13311272E+03</pdfrwt>
<totfact> 0.74197325E+05</totfact>
</mgrwt>
</event>
<event>
 6    1  0.4216855E-002  0.1261440E+03  0.7546771E-02  0.1233292E+00
         21   -1    0    0  503  502  0.00000000000E+00  0.00000000000E+00  0.65946612269E+03  0.65946612269E+03  0.00000000000E+00 0.  1.
         21   -1    0    0  504  503 -0.00000000000E+00 -0.00000000000E+00 -0.10703743481E+02  0.10703743481E+02  0.00000000000E+00 0.  1.
         25    2    1    2    0    0  0.17255098186E+01  0.16860534079E+02  0.37037666948E+03  0.39126870379E+03  0.12500026512E+03 0.  0.
          5    1    3    3  501    0 -0.20130629296E+02 -0.25280754528E+02  0.20685576547E+02  0.38370064666E+02  0.10000000000E+00 0. -1.
         -5    1    3    3    0  501  0.21856139114E+02  0.42141288607E+02  0.34969109293E+03  0.35289863913E+03  0.10000000000E+00 0. -1.
         21    1    1    2  504  502 -0.17255098186E+01 -0.16860534079E+02  0.27838570973E+03  0.27890116238E+03  0.00000000000E+00 0.  1.
<mgrwt>
<rscale>  1 0.12614405E+03</rscale>
<asrwt>0</asrwt>
<pdfrwt beam="1">  1       21 0.10145629E+00 0.12614405E+03</pdfrwt>
<pdfrwt beam="2">  1       21 0.16467303E-02 0.12614405E+03</pdfrwt>
<totfact> 0.13422051E+06</totfact>
</mgrwt>
</event>
<event>
 6    1  0.4216855E-002  0.1469066E+03  0.7546771E-02  0.1204326E+00
         21   -1    0    0  504  502  0.00000000000E+00  0.00000000000E+00  0.45726277892E+02  0.45726277892E+02  0.00000000000E+00 0. -1.
         21   -1    0    0  502  503 -0.00000000000E+00 -0.00000000000E+00 -0.34937371364E+03  0.34937371364E+03  0.00000000000E+00 0. -1.
         25    2    1    2    0    0 -0.12494592852E+02 -0.76168529186E+02 -0.27681649289E+03  0.31338304602E+03  0.12499521235E+03 0.  0.
          5    1    3    3  501    0 -0.87906609828E+01 -0.37414742867E+02 -0.49590680627E+01  0.38752303937E+02  0.10000000000E+00 0.  1.
         -5    1    3    3    0  501 -0.37039318695E+01 -0.38753786319E+02 -0.27185742483E+03  0.27463074209E+03  0.10000000000E+00 0.  1.
         21    1    1    2  504  503  0.12494592852E+02  0.76168529186E+02 -0.26830942862E+02  0.81716945512E+02  0.00000000000E+00 0. -1.
<mgrwt>
<rscale>  1 0.14690665E+03</rscale>
<asrwt>0</asrwt>
<pdfrwt beam="1">  1       21 0.70348121E-02 0.14690665E+03</pdfrwt>
<pdfrwt beam="2">  1       21 0.53749801E-01 0.14690665E+03</pdfrwt>
<totfact> 0.49463495E+05</totfact>
</mgrwt>
</event>
<event>
 6    1  0.4216855E-002  0.1301661E+03  0.7546771E-02  0.1227209E+00
         21   -1    0    0  503  502  0.00000000000E+00  0.00000000000E+00  0.11203589854E+04  0.11203589854E+04  0.00000000000E+00 0. -1.
         21   -1    0    0  504  503 -0.00000000000E+00 -0.00000000000E+00 -0.74328556022E+01  0.74328556022E+01  0.00000000000E+00 0. -1.
         25    2    1    2    0    0 -0.14226375419E+02  0.33414235347E+02  0.61929580350E+03  0.63282739791E+03  0.12499728971E+03 0.  0.
          5    1    3    3  501    0  0.43085322987E+01 -0.15983987813E+02  0.52103118915E+03  0.52129412176E+03  0.10000000000E+00 0.  1.
         -5    1    3    3    0  501 -0.18534907718E+02  0.49398223160E+02  0.98264614345E+02  0.11153327615E+03  0.10000000000E+00 0.  1.
         21    1    1    2  504  502  0.14226375419E+02 -0.33414235347E+02  0.49363032628E+03  0.49496444307E+03  0.00000000000E+00 0. -1.
<mgrwt>
<rscale>  1 0.13016614E+03</rscale>
<asrwt>0</asrwt>
<pdfrwt beam="1">  1       21 0.17236279E+00 0.13016614E+03</pdfrwt>
<pdfrwt beam="2">  1       21 0.11435171E-02 0.13016614E+03</pdfrwt>
<totfact> 0.63383143E+05</totfact>
</mgrwt>
</event>
<event>
 6    1  0.4216855E-002  0.1260107E+03  0.7546771E-02  0.1233498E+00
         21   -1    0    0  504  502  0.00000000000E+00  0.00000000000E+00  0.35964850350E+02  0.35964850350E+02  0.00000000000E+00 0.  1.
         21   -1    0    0  502  503 -0.00000000000E+00 -0.00000000000E+00 -0.16442009019E+03  0.16442009019E+03  0.00000000000E+00 0.  1.
         25    2    1    2    0    0  0.15821295269E+02  0.24046759195E+01 -0.13352666419E+03  0.18359758830E+03  0.12499043376E+03 0.  0.
          5    1    3    3  501    0  0.15764770873E+02 -0.60791950315E+02 -0.67775317302E+02  0.92399636683E+02  0.10000000000E+00 0.  1.
         -5    1    3    3    0  501  0.56524395637E-01  0.63196626235E+02 -0.65751346884E+02  0.91197951620E+02  0.10000000000E+00 0.  1.
         21    1    1    2  504  503 -0.15821295269E+02 -0.24046759195E+01  0.50714243455E+01  0.16787352238E+02  0.00000000000E+00 0.  1.
<mgrwt>
<rscale>  1 0.12601073E+03</rscale>
<asrwt>0</asrwt>
<pdfrwt beam="1">  1       21 0.55330540E-02 0.12601073E+03</pdfrwt>
<pdfrwt beam="2">  1       21 0.25295398E-01 0.12601073E+03</pdfrwt>
<totfact> 0.33153131E+06</totfact>
</mgrwt>
</event>
<event>
 6    1  0.4216855E-002  0.1260080E+03  0.7546771E-02  0.1233502E+00
         21   -1    0    0  503  502  0.00000000000E+00  0.00000000000E+00  0.37630653951E+02  0.37630653951E+02  0.00000000000E+00 0.  1.
         21   -1    0    0  504  503 -0.00000000000E+00 -0.00000000000E+00 -0.13382510553E+03  0.13382510553E+03  0.00000000000E+00 0.  1.
         25    2    1    2    0    0  0.15777711418E+02  0.20456937379E+01 -0.86071824611E+02  0.15259870199E+03  0.12499953527E+03 0.  0.
          5    1    3    3  501    0 -0.36713390518E+02 -0.36913144786E+02 -0.66313895836E+02  0.84308932399E+02  0.10000000000E+00 0. -1.
         -5    1    3    3    0  501  0.52491101936E+02  0.38958838524E+02 -0.19757928775E+02  0.68289769593E+02  0.10000000000E+00 0. -1.
         21    1    1    2  504  502 -0.15777711418E+02 -0.20456937379E+01 -0.10122626969E+02  0.18857057490E+02  0.00000000000E+00 0.  1.
<mgrwt>
<rscale>  1 0.12600796E+03</rscale>
<asrwt>0</asrwt>
<pdfrwt beam="1">  1       21 0.57893315E-02 0.12600796E+03</pdfrwt>
<pdfrwt beam="2">  1       21 0.20588477E-01 0.12600796E+03</pdfrwt>
<totfact> 0.45149036E+06</totfact>
</mgrwt>
</event>
<event>
 6    1  0.4216855E-002  0.1355583E+03  0.7546771E-02  0.1219434E+00
         21   -1    0    0  504  502  0.00000000000E+00  0.00000000000E+00  0.85967907728E+03  0.85967907728E+03  0.00000000000E+00 0.  1.
         21   -1    0    0  502  503 -0.00000000000E+00 -0.00000000000E+00 -0.27961409725E+02  0.27961409725E+02  0.00000000000E+00 0.  1.
         25    2    1    2    0    0  0.33287676188E+02 -0.40557754160E+02  0.14341977899E+03  0.19734563391E+03  0.12499226139E+03 0.  0.
          5    1    3    3  501    0 -0.46371109147E+01 -0.61474807282E+02  0.14109150895E+03  0.15397233072E+03  0.10000000000E+00 0.  1.
         -5    1    3    3    0  501  0.37924787103E+02  0.20917053122E+02  0.23282700349E+01  0.43373303188E+02  0.10000000000E+00 0.  1.
         21    1    1    2  504  503 -0.33287676188E+02  0.40557754160E+02  0.68829788857E+03  0.69029485310E+03  0.00000000000E+00 0.  1.
<mgrwt>
<rscale>  1 0.13555835E+03</rscale>
<asrwt>0</asrwt>
<pdfrwt beam="1">  1       21 0.13225830E+00 0.13555835E+03</pdfrwt>
<pdfrwt beam="2">  1       21 0.43017560E-02 0.13555835E+03</pdfrwt>
<totfact> 0.14691587E+05</totfact>
</mgrwt>
</event>
<event>
 6    1  0.4216855E-002  0.1332239E+03  0.7546771E-02  0.1222749E+00
         21   -1    0    0  503  502  0.00000000000E+00  0.00000000000E+00  0.54736287385E+03  0.54736287385E+03  0.00000000000E+00 0.  1.
         21   -1    0    0  504  503 -0.00000000000E+00 -0.00000000000E+00 -0.47941050448E+02  0.47941050448E+02  0.00000000000E+00 0.  1.
         25    2    1    2    0    0  0.28728386682E+02  0.36039166869E+02  0.48109510359E+02  0.14164442021E+03  0.12499790014E+03 0.  0.
          5    1    3    3  501    0 -0.24888277179E+02  0.34243094693E+01 -0.31488152968E+02  0.40282328801E+02  0.10000000000E+00 0. -1.
         -5    1    3    3    0  501  0.53616663861E+02  0.32614857399E+02  0.79597663328E+02  0.10136209140E+03  0.10000000000E+00 0. -1.
         21    1    1    2  504  502 -0.28728386682E+02 -0.36039166869E+02  0.45131231304E+03  0.45365950409E+03  0.00000000000E+00 0.  1.
<mgrwt>
<rscale>  1 0.13322393E+03</rscale>
<asrwt>0</asrwt>
<pdfrwt beam="1">  1       21 0.84209669E-01 0.13322393E+03</pdfrwt>
<pdfrwt beam="2">  1       21 0.73755466E-02 0.13322393E+03</pdfrwt>
<totfact> 0.17247344E+05</totfact>
</mgrwt>
</event>
<event>
 6    1  0.4216855E-002  0.2033074E+03  0.7546771E-02  0.1146978E+00
         21   -1    0    0  504  502  0.00000000000E+00  0.00000000000E+00  0.76713671919E+03  0.76713671919E+03  0.00000000000E+00 0. -1.
         21   -1    0    0  502  503 -0.00000000000E+00 -0.00000000000E+00 -0.12566192448E+03  0.12566192448E+03  0.00000000000E+00 0.  1.
         25    2    1    2    0    0 -0.43032996813E+02  0.15445988560E+03 -0.27244669774E+02  0.20512472584E+03  0.12499674414E+03 0.  0.
          5    1    3    3  501    0  0.13774190264E+02  0.53263198260E+02  0.42685289679E+02  0.69632898556E+02  0.10000000000E+00 0. -1.
         -5    1    3    3    0  501 -0.56807187078E+02  0.10119668734E+03 -0.69929959453E+02  0.13549182728E+03  0.10000000000E+00 0. -1.
         21    1    1    2  504  503  0.43032996813E+02 -0.15445988560E+03  0.66871946449E+03  0.68767391783E+03  0.00000000000E+00 0. -1.
<mgrwt>
<rscale>  1 0.20330736E+03</rscale>
<asrwt>0</asrwt>
<pdfrwt beam="1">  1       21 0.11802103E+00 0.20330736E+03</pdfrwt>
<pdfrwt beam="2">  1       21 0.19332604E-01 0.20330736E+03</pdfrwt>
<totfact> 0.13433478E+04</totfact>
</mgrwt>
</event>
<event>
 6    1  0.4216855E-002  0.1259445E+03  0.7546771E-02  0.1233601E+00
         21   -1    0    0  504  502  0.00000000000E+00  0.00000000000E+00  0.10930609204E+02  0.10930609204E+02  0.00000000000E+00 0.  1.
         21   -1    0    0  502  503 -0.00000000000E+00 -0.00000000000E+00 -0.16099212542E+04  0.16099212542E+04  0.00000000000E+00 0.  1.
         25    2    1    2    0    0 -0.54630432499E+01  0.14374737409E+02 -0.16004565010E+04  0.16054043183E+04  0.12500214266E+03 0.  0.
          5    1    3    3  501    0 -0.59906090067E+02 -0.15572056116E+02 -0.65940964631E+03  0.66230832715E+03  0.10000000000E+00 0.  1.
         -5    1    3    3    0  501  0.54443046818E+02  0.29946793524E+02 -0.94104685469E+03  0.94309599115E+03  0.10000000000E+00 0.  1.
         21    1    1    2  504  503  0.54630432499E+01 -0.14374737409E+02  0.14658559797E+01  0.15447545141E+02  0.00000000000E+00 0.  1.
<mgrwt>
<rscale>  1 0.12594449E+03</rscale>
<asrwt>0</asrwt>
<pdfrwt beam="1">  1       21 0.16816325E-02 0.12594449E+03</pdfrwt>
<pdfrwt beam="2">  1       21 0.24768014E+00 0.12594449E+03</pdfrwt>
<totfact> 0.11761166E+05</totfact>
</mgrwt>
</event>
<event>
 6    1  0.4216855E-002  0.1263454E+03  0.7546771E-02  0.1232982E+00
         21   -1    0    0  504  502  0.00000000000E+00  0.00000000000E+00  0.51094947447E+02  0.51094947447E+02  0.00000000000E+00 0.  1.
         21   -1    0    0  502  503 -0.00000000000E+00 -0.00000000000E+00 -0.11563636987E+03  0.11563636987E+03  0.00000000000E+00 0.  1.
         25    2    1    2    0    0  0.17431040818E+02  0.58395803800E+01 -0.73619049932E+02  0.14622899540E+03  0.12500085080E+03 0.  0.
          5    1    3    3  501    0 -0.17398208417E+01  0.63530800878E+02 -0.50547982929E+02  0.81205284403E+02  0.10000000000E+00 0.  1.
         -5    1    3    3    0  501  0.19170861660E+02 -0.57691220498E+02 -0.23071067003E+02  0.65023710998E+02  0.10000000000E+00 0.  1.
         21    1    1    2  504  503 -0.17431040818E+02 -0.58395803800E+01  0.90776275047E+01  0.20502321920E+02  0.00000000000E+00 0.  1.
<mgrwt>
<rscale>  1 0.12634538E+03</rscale>
<asrwt>0</asrwt>
<pdfrwt beam="1">  1       21 0.78607611E-02 0.12634538E+03</pdfrwt>
<pdfrwt beam="2">  1       21 0.17790211E-01 0.12634538E+03</pdfrwt>
<totfact> 0.35059514E+06</totfact>
</mgrwt>
</event>
<event>
 6    1  0.4216855E-002  0.1264461E+03  0.7546771E-02  0.1232826E+00
         21   -1    0    0  504  502  0.00000000000E+00  0.00000000000E+00  0.15359639480E+04  0.15359639480E+04  0.00000000000E+00 0.  1.
         21   -1    0    0  502  503 -0.00000000000E+00 -0.00000000000E+00 -0.42346574905E+01  0.42346574905E+01  0.00000000000E+00 0.  1.
         25    2    1    2    0    0 -0.51410518490E+01 -0.18344460337E+02  0.97781541967E+03  0.98595720867E+03  0.12500269096E+03 0.  0.
          5    1    3    3  501    0  0.57298401264E+02 -0.55445463923E+01  0.32702633073E+03  0.33205433256E+03  0.10000000000E+00 0. -1.
         -5    1    3    3    0  501 -0.62439453113E+02 -0.12799913945E+02  0.65078908894E+03  0.65390287611E+03  0.10000000000E+00 0. -1.
         21    1    1    2  504  503  0.51410518490E+01  0.18344460337E+02  0.55391387087E+03  0.55424139685E+03  0.00000000000E+00 0. -1.
<mgrwt>
<rscale>  1 0.12644612E+03</rscale>
<asrwt>0</asrwt>
<pdfrwt beam="1">  1       21 0.23630170E+00 0.12644612E+03</pdfrwt>
<pdfrwt beam="2">  1       21 0.65148699E-03 0.12644612E+03</pdfrwt>
<totfact> 0.61077091E+05</totfact>
</mgrwt>
</event>
<event>
 6    1  0.4216855E-002  0.1321950E+03  0.7546771E-02  0.1224235E+00
         21   -1    0    0  504  502  0.00000000000E+00  0.00000000000E+00  0.89870328036E+02  0.89870328036E+02  0.00000000000E+00 0. -1.
         21   -1    0    0  502  503 -0.00000000000E+00 -0.00000000000E+00 -0.15899965695E+03  0.15899965695E+03  0.00000000000E+00 0.  1.
         25    2    1    2    0    0 -0.40543735047E+01  0.42799785091E+02 -0.12257580913E+03  0.18027854387E+03  0.12500905906E+03 0.  0.
          5    1    3    3  501    0 -0.53406625818E+02  0.29767274222E+02 -0.17719570013E+02  0.63658082419E+02  0.10000000000E+00 0.  1.
         -5    1    3    3    0  501  0.49352252313E+02  0.13032510869E+02 -0.10485623911E+03  0.11662046145E+03  0.10000000000E+00 0.  1.
         21    1    1    2  504  503  0.40543735047E+01 -0.42799785091E+02  0.53446480208E+02  0.68591441120E+02  0.00000000000E+00 0. -1.
<mgrwt>
<rscale>  1 0.13219502E+03</rscale>
<asrwt>0</asrwt>
<pdfrwt beam="1">  1       21 0.13826205E-01 0.13219502E+03</pdfrwt>
<pdfrwt beam="2">  1       21 0.24461485E-01 0.13219502E+03</pdfrwt>
<totfact> 0.72121535E+05</totfact>
</mgrwt>
</event>
<event>
 6    1  0.4216855E-002  0.1306597E+03  0.7546771E-02  0.1226480E+00
         21   -1    0    0  503  502  0.00000000000E+00  0.00000000000E+00  0.44449364057E+03  0.44449364057E+03  0.00000000000E+00 0. -1.
         21   -1    0    0  504  503 -0.00000000000E+00 -0.00000000000E+00 -0.25443976443E+02  0.25443976443E+02  0.00000000000E+00 0. -1.
         25    2    1    2    0    0 -0.22008093266E+02 -0.31041463982E+02  0.15307942857E+03  0.20125919425E+03  0.12499609259E+03 0.  0.
          5    1    3    3  501    0 -0.31281108176E+02  0.33712857530E+02  0.14842055897E+02  0.48325574128E+02  0.10000000000E+00 0. -1.
         -5    1    3    3    0  501  0.92730149101E+01 -0.64754321513E+02  0.13823737267E+03  0.15293362012E+03  0.10000000000E+00 0. -1.
         21    1    1    2  504  502  0.22008093266E+02  0.31041463982E+02  0.26597023555E+03  0.26867842276E+03  0.00000000000E+00 0.  1.
<mgrwt>
<rscale>  1 0.13065968E+03</rscale>
<asrwt>0</asrwt>
<pdfrwt beam="1">  1       21 0.68383631E-01 0.13065968E+03</pdfrwt>
<pdfrwt beam="2">  1       21 0.39144583E-02 0.13065968E+03</pdfrwt>
<totfact> 0.79677332E+05</totfact>
</mgrwt>
</event>
<event>
 6    1  0.4216855E-002  0.1374275E+03  0.7546771E-02  0.1216833E+00
         21   -1    0    0  504  502  0.00000000000E+00  0.00000000000E+00  0.12171794295E+02  0.12171794295E+02  0.00000000000E+00 0. -1.
         21   -1    0    0  502  503 -0.00000000000E+00 -0.00000000000E+00 -0.86226497921E+03  0.86226497921E+03  0.00000000000E+00 0. -1.
         25    2    1    2    0    0  0.38601122815E+02  0.42085221745E+02 -0.70951938078E+03  0.72270606804E+03  0.12500038603E+03 0.  0.
          5    1    3    3  501    0 -0.28441346791E+02  0.56899232398E+02 -0.24423121387E+03  0.25237933490E+03  0.10000000000E+00 0. -1.
         -5    1    3    3    0  501  0.67042469606E+02 -0.14814010653E+02 -0.46528816691E+03  0.47032673315E+03  0.10000000000E+00 0. -1.
         21    1    1    2  504  503 -0.38601122815E+02 -0.42085221745E+02 -0.14057380414E+03  0.15173070547E+03  0.00000000000E+00 0. -1.
<mgrwt>
<rscale>  1 0.13742747E+03</rscale>
<asrwt>0</asrwt>
<pdfrwt beam="1">  1       21 0.18725836E-02 0.13742747E+03</pdfrwt>
<pdfrwt beam="2">  1       21 0.13265616E+00 0.13742747E+03</pdfrwt>
<totfact> 0.56960748E+05</totfact>
</mgrwt>
</event>
<event>
 6    1  0.4216855E-002  0.1473562E+03  0.7546771E-02  0.1203760E+00
         21   -1    0    0  503  502  0.00000000000E+00  0.00000000000E+00  0.18149454300E+03  0.18149454300E+03  0.00000000000E+00 0.  1.
         21   -1    0    0  504  503 -0.00000000000E+00 -0.00000000000E+00 -0.25120731024E+03  0.25120731024E+03  0.00000000000E+00 0. -1.
         25    2    1    2    0    0 -0.73755805205E+02  0.25491466961E+02 -0.21916835337E+03  0.26409964116E+03  0.12499647856E+03 0.  0.
          5    1    3    3  501    0 -0.13868576994E+02 -0.48381962548E+02 -0.97005888237E+02  0.10928542483E+03  0.10000000000E+00 0. -1.
         -5    1    3    3    0  501 -0.59887228211E+02  0.73873429509E+02 -0.12216246514E+03  0.15481421633E+03  0.10000000000E+00 0. -1.
         21    1    1    2  504  502  0.73755805205E+02 -0.25491466961E+02  0.14945558613E+03  0.16860221207E+03  0.00000000000E+00 0.  1.
<mgrwt>
<rscale>  1 0.14735621E+03</rscale>
<asrwt>0</asrwt>
<pdfrwt beam="1">  1       21 0.27922237E-01 0.14735621E+03</pdfrwt>
<pdfrwt beam="2">  1       21 0.38647279E-01 0.14735621E+03</pdfrwt>
<totfact> 0.80584124E+04</totfact>
</mgrwt>
</event>
<event>
 6    1  0.4216855E-002  0.1458069E+03  0.7546771E-02  0.1205722E+00
         21   -1    0    0  503  502  0.00000000000E+00  0.00000000000E+00  0.52266724275E+02  0.52266724275E+02  0.00000000000E+00 0.  1.
         21   -1    0    0  504  503 -0.00000000000E+00 -0.00000000000E+00 -0.70385359176E+03  0.70385359176E+03  0.00000000000E+00 0.  1.
         25    2    1    2    0    0  0.21179429130E+02 -0.72014992478E+02 -0.66418907927E+03  0.68000498839E+03  0.12499969543E+03 0.  0.
          5    1    3    3  501    0 -0.38272930448E+02 -0.56637666654E+02 -0.19131568592E+03  0.20316088247E+03  0.10000000000E+00 0. -1.
         -5    1    3    3    0  501  0.59452359578E+02 -0.15377325824E+02 -0.47287339335E+03  0.47684410592E+03  0.10000000000E+00 0. -1.
         21    1    1    2  504  502 -0.21179429130E+02  0.72014992478E+02  0.12602211787E+02  0.76115327640E+02  0.00000000000E+00 0.  1.
<mgrwt>
<rscale>  1 0.14580690E+03</rscale>
<asrwt>0</asrwt>
<pdfrwt beam="1">  1       21 0.80410351E-02 0.14580690E+03</pdfrwt>
<pdfrwt beam="2">  1       21 0.10828516E+00 0.14580690E+03</pdfrwt>
<totfact> 0.82434272E+04</totfact>
</mgrwt>
</event>
<event>
 6    1  0.4216855E-002  0.1275485E+03  0.7546771E-02  0.1231139E+00
         21   -1    0    0  504  502  0.00000000000E+00  0.00000000000E+00  0.11069180179E+03  0.11069180179E+03  0.00000000000E+00 0.  1.
         21   -1    0    0  502  503 -0.00000000000E+00 -0.00000000000E+00 -0.13106583044E+03  0.13106583044E+03  0.00000000000E+00 0.  1.
         25    2    1    2    0    0 -0.13153544675E+02  0.21698194033E+02 -0.97512478750E+02  0.16055315055E+03  0.12499921311E+03 0.  0.
          5    1    3    3  501    0  0.60499240959E+00  0.63506320644E+02 -0.12363781741E+02  0.64701560078E+02  0.10000000000E+00 0.  1.
         -5    1    3    3    0  501 -0.13758537085E+02 -0.41808126611E+02 -0.85148697009E+02  0.95851590471E+02  0.10000000000E+00 0.  1.
         21    1    1    2  504  503  0.13153544675E+02 -0.21698194033E+02  0.77138450098E+02  0.81204481683E+02  0.00000000000E+00 0.  1.
<mgrwt>
<rscale>  1 0.12754854E+03</rscale>
<asrwt>0</asrwt>
<pdfrwt beam="1">  1       21 0.17029508E-01 0.12754854E+03</pdfrwt>
<pdfrwt beam="2">  1       21 0.20163974E-01 0.12754854E+03</pdfrwt>
<totfact> 0.71005395E+05</totfact>
</mgrwt>
</event>
<event>
 6    1  0.4216855E-002  0.1263648E+03  0.7546771E-02  0.1232952E+00
         21   -1    0    0  504  502  0.00000000000E+00  0.00000000000E+00  0.35533403271E+03  0.35533403271E+03  0.00000000000E+00 0. -1.
         21   -1    0    0  502  503 -0.00000000000E+00 -0.00000000000E+00 -0.50973911432E+02  0.50973911432E+02  0.00000000000E+00 0. -1.
         25    2    1    2    0    0 -0.16607365608E+02 -0.82088823036E+01  0.28130850688E+02  0.12945816489E+03  0.12499952542E+03 0.  0.
          5    1    3    3  501    0  0.46825372854E+02 -0.32458253983E+02  0.22702629798E+02  0.61331665510E+02  0.10000000000E+00 0.  1.
         -5    1    3    3    0  501 -0.63432738461E+02  0.24249371679E+02  0.54282208891E+01  0.68126499378E+02  0.10000000000E+00 0.  1.
         21    1    1    2  504  503  0.16607365608E+02  0.82088823036E+01  0.27622927059E+03  0.27684977925E+03  0.00000000000E+00 0. -1.
<mgrwt>
<rscale>  1 0.12636484E+03</rscale>
<asrwt>0</asrwt>
<pdfrwt beam="1">  1       21 0.54666773E-01 0.12636484E+03</pdfrwt>
<pdfrwt beam="2">  1       21 0.78421404E-02 0.12636484E+03</pdfrwt>
<totfact> 0.39709260E+05</totfact>
</mgrwt>
</event>
<event>
 6    1  0.4216855E-002  0.1300945E+03  0.7546771E-02  0.1227316E+00
         21   -1    0    0  503  502  0.00000000000E+00  0.00000000000E+00  0.80888674685E+01  0.80888674685E+01  0.00000000000E+00 0.  1.
         21   -1    0    0  504  503 -0.00000000000E+00 -0.00000000000E+00 -0.19104000192E+04  0.19104000192E+04  0.00000000000E+00 0. -1.
         25    2    1    2    0    0  0.32632512320E+02  0.15319915746E+02 -0.18521719880E+04  0.18567352113E+04  0.12499996460E+03 0.  0.
          5    1    3    3  501    0  0.17941550914E+02 -0.39110578560E+02 -0.14491805404E+04  0.14498192250E+04  0.10000000000E+00 0.  1.
         -5    1    3    3    0  501  0.14690961407E+02  0.54430494306E+02 -0.40299144758E+03  0.40691598627E+03  0.10000000000E+00 0.  1.
         21    1    1    2  504  502 -0.32632512320E+02 -0.15319915746E+02 -0.50139163716E+02  0.61753675331E+02  0.00000000000E+00 0.  1.
<mgrwt>
<rscale>  1 0.13009447E+03</rscale>
<asrwt>0</asrwt>
<pdfrwt beam="1">  1       21 0.12444410E-02 0.13009447E+03</pdfrwt>
<pdfrwt beam="2">  1       21 0.29390772E+00 0.13009447E+03</pdfrwt>
<totfact> 0.10366633E+05</totfact>
</mgrwt>
</event>
<event>
 6    1  0.4216855E-002  0.1267210E+03  0.7546771E-02  0.1232404E+00
         21   -1    0    0  503  502  0.00000000000E+00  0.00000000000E+00  0.56298397823E+01  0.56298397823E+01  0.00000000000E+00 0. -1.
         21   -1    0    0  504  503 -0.00000000000E+00 -0.00000000000E+00 -0.97071252424E+03  0.97071252424E+03  0.00000000000E+00 0. -1.
         25    2    1    2    0    0  0.40266805608E+01  0.20419325635E+02 -0.80515619486E+03  0.81506730367E+03  0.12500019352E+03 0.  0.
          5    1    3    3  501    0  0.31712575447E+02 -0.43651025368E+02 -0.26640441332E+03  0.27181320956E+03  0.10000000000E+00 0. -1.
         -5    1    3    3    0  501 -0.27685894886E+02  0.64070351003E+02 -0.53875178154E+03  0.54325409411E+03  0.10000000000E+00 0. -1.
         21    1    1    2  504  502 -0.40266805608E+01 -0.20419325635E+02 -0.15992648960E+03  0.16127506035E+03  0.00000000000E+00 0. -1.
<mgrwt>
<rscale>  1 0.12672100E+03</rscale>
<asrwt>0</asrwt>
<pdfrwt beam="1">  1       21 0.86612950E-03 0.12672100E+03</pdfrwt>
<pdfrwt beam="2">  1       21 0.14934034E+00 0.12672100E+03</pdfrwt>
<totfact> 0.14366444E+06</totfact>
</mgrwt>
</event>
<event>
 6    1  0.4216855E-002  0.1315294E+03  0.7546771E-02  0.1225204E+00
         21   -1    0    0  503  502  0.00000000000E+00  0.00000000000E+00  0.10542735227E+04  0.10542735227E+04  0.00000000000E+00 0. -1.
         21   -1    0    0  504  503 -0.00000000000E+00 -0.00000000000E+00 -0.35029795014E+02  0.35029795014E+02  0.00000000000E+00 0. -1.
         25    2    1    2    0    0 -0.26221358380E+02 -0.31462939142E+02  0.90499222794E+02  0.15965616339E+03  0.12499001963E+03 0.  0.
          5    1    3    3  501    0 -0.14701036841E+01 -0.67349010874E+01 -0.31754623411E+02  0.32494402680E+02  0.10000000000E+00 0. -1.
         -5    1    3    3    0  501 -0.24751254696E+02 -0.24728038054E+02  0.12225384621E+03  0.12716176071E+03  0.10000000000E+00 0. -1.
         21    1    1    2  504  502  0.26221358380E+02  0.31462939142E+02  0.92874450487E+03  0.92964715430E+03  0.00000000000E+00 0. -1.
<mgrwt>
<rscale>  1 0.13152939E+03</rscale>
<asrwt>0</asrwt>
<pdfrwt beam="1">  1       21 0.16219590E+00 0.13152939E+03</pdfrwt>
<pdfrwt beam="2">  1       21 0.53892000E-02 0.13152939E+03</pdfrwt>
<totfact> 0.59596325E+04</totfact>
</mgrwt>
</event>
<event>
 6    1  0.4216855E-002  0.1441687E+03  0.7546771E-02  0.1207827E+00
         21   -1    0    0  503  502  0.00000000000E+00  0.00000000000E+00  0.12705876338E+03  0.12705876338E+03  0.00000000000E+00 0.  1.
         21   -1    0    0  504  503 -0.00000000000E+00 -0.00000000000E+00 -0.18367187121E+04  0.18367187121E+04  0.00000000000E+00 0.  1.
         25    2    1    2    0    0  0.52945889056E+02 -0.48550837150E+02 -0.18234873418E+04  0.18291776004E+04  0.12499662851E+03 0.  0.
          5    1    3    3  501    0  0.44491623774E+02  0.19661234957E+02 -0.13341588302E+04  0.13350452663E+04  0.10000000000E+00 0. -1.
         -5    1    3    3    0  501  0.84542652819E+01 -0.68212072106E+02 -0.48932851157E+03  0.49413233411E+03  0.10000000000E+00 0. -1.
         21    1    1    2  504  502 -0.52945889056E+02  0.48550837150E+02  0.11382739308E+03  0.13459987508E+03  0.00000000000E+00 0.  1.
<mgrwt>
<rscale>  1 0.14416868E+03</rscale>
<asrwt>0</asrwt>
<pdfrwt beam="1">  1       21 0.19547503E-01 0.14416868E+03</pdfrwt>
<pdfrwt beam="2">  1       21 0.28257210E+00 0.14416868E+03</pdfrwt>
<totfact> 0.11128519E+03</totfact>
</mgrwt>
</event>
<event>
 6    1  0.4216855E-002  0.1306935E+03  0.7546771E-02  0.1226430E+00
         21   -1    0    0  503  502  0.00000000000E+00  0.00000000000E+00  0.15569191083E+03  0.15569191083E+03  0.00000000000E+00 0. -1.
         21   -1    0    0  504  503 -0.00000000000E+00 -0.00000000000E+00 -0.16700878779E+03  0.16700878779E+03  0.00000000000E+00 0. -1.
         25    2    1    2    0    0  0.34898639125E+02 -0.15408154452E+02 -0.13819776415E+03  0.19020886577E+03  0.12500185745E+03 0.  0.
          5    1    3    3  501    0  0.30783632947E+02  0.12054121142E+02 -0.15450724485E+03  0.15800453349E+03  0.10000000000E+00 0. -1.
         -5    1    3    3    0  501  0.41150061779E+01 -0.27462275595E+02  0.16309480698E+02  0.32204332276E+02  0.10000000000E+00 0. -1.
         21    1    1    2  504  502 -0.34898639125E+02  0.15408154452E+02  0.12688088719E+03  0.13249183285E+03  0.00000000000E+00 0. -1.
<mgrwt>
<rscale>  1 0.13069350E+03</rscale>
<asrwt>0</asrwt>
<pdfrwt beam="1">  1       21 0.23952601E-01 0.13069350E+03</pdfrwt>
<pdfrwt beam="2">  1       21 0.25693660E-01 0.13069350E+03</pdfrwt>
<totfact> 0.23981994E+05</totfact>
</mgrwt>
</event>
<event>
 6    1  0.4216855E-002  0.1262481E+03  0.7546771E-02  0.1233132E+00
         21   -1    0    0  503  502  0.00000000000E+00  0.00000000000E+00  0.20751264781E+03  0.20751264781E+03  0.00000000000E+00 0.  1.
         21   -1    0    0  504  503 -0.00000000000E+00 -0.00000000000E+00 -0.87206346371E+02  0.87206346371E+02  0.00000000000E+00 0.  1.
         25    2    1    2    0    0 -0.17572675801E+02  0.29133468466E+01 -0.40764557374E+02  0.13266620006E+03  0.12498513902E+03 0.  0.
          5    1    3    3  501    0 -0.55873802997E+01 -0.46701150938E+02  0.21868146164E+02  0.51869472084E+02  0.10000000000E+00 0.  1.
         -5    1    3    3    0  501 -0.11985295501E+02  0.49614497785E+02 -0.62632703539E+02  0.80796727974E+02  0.10000000000E+00 0.  1.
         21    1    1    2  504  502  0.17572675801E+02 -0.29133468466E+01  0.16107085881E+03  0.16205279413E+03  0.00000000000E+00 0.  1.
<mgrwt>
<rscale>  1 0.12624806E+03</rscale>
<asrwt>0</asrwt>
<pdfrwt beam="1">  1       21 0.31925023E-01 0.12624806E+03</pdfrwt>
<pdfrwt beam="2">  1       21 0.13416361E-01 0.12624806E+03</pdfrwt>
<totfact> 0.45733819E+05</totfact>
</mgrwt>
</event>
<event>
 6    1  0.4216855E-002  0.1269571E+03  0.7546771E-02  0.1232042E+00
         21   -1    0    0  503  502  0.00000000000E+00  0.00000000000E+00  0.85494006424E+02  0.85494006424E+02  0.00000000000E+00 0. -1.
         21   -1    0    0  504  503 -0.00000000000E+00 -0.00000000000E+00 -0.77045914944E+02  0.77045914944E+02  0.00000000000E+00 0. -1.
         25    2    1    2    0    0  0.21759164241E+02  0.46308359394E+01 -0.17726401325E+02  0.12818864856E+03  0.12499279357E+03 0.  0.
          5    1    3    3  501    0 -0.33515859036E+02 -0.35820332143E+02  0.16319235103E+02  0.51698514834E+02  0.10000000000E+00 0.  1.
         -5    1    3    3    0  501  0.55275023277E+02  0.40451168082E+02 -0.34045636428E+02  0.76490133725E+02  0.10000000000E+00 0.  1.
         21    1    1    2  504  502 -0.21759164241E+02 -0.46308359394E+01  0.26174492805E+02  0.34351272809E+02  0.00000000000E+00 0.  1.
<mgrwt>
<rscale>  1 0.12695710E+03</rscale>
<asrwt>0</asrwt>
<pdfrwt beam="1">  1       21 0.13152924E-01 0.12695710E+03</pdfrwt>
<pdfrwt beam="2">  1       21 0.11853218E-01 0.12695710E+03</pdfrwt>
<totfact> 0.29542166E+06</totfact>
</mgrwt>
</event>
<event>
 6    1  0.4216855E-002  0.1862811E+03  0.7546771E-02  0.1161859E+00
         21   -1    0    0  503  502  0.00000000000E+00  0.00000000000E+00  0.17081787500E+03  0.17081787500E+03  0.00000000000E+00 0. -1.
         21   -1    0    0  504  503 -0.00000000000E+00 -0.00000000000E+00 -0.16485161185E+03  0.16485161185E+03  0.00000000000E+00 0.  1.
         25    2    1    2    0    0  0.13810659082E+03 -0.14552371023E+01  0.45987403113E+02  0.19187366011E+03  0.12500044823E+03 0.  0.
          5    1    3    3  501    0  0.16030632670E+03 -0.10374623251E+02  0.30893070738E+02  0.16358527747E+03  0.10000000000E+00 0. -1.
         -5    1    3    3    0  501 -0.22199735878E+02  0.89193861490E+01  0.15094332375E+02  0.28288382636E+02  0.10000000000E+00 0. -1.
         21    1    1    2  504  502 -0.13810659082E+03  0.14552371023E+01 -0.40021139965E+02  0.14379582674E+03  0.00000000000E+00 0.  1.
<mgrwt>
<rscale>  1 0.18628113E+03</rscale>
<asrwt>0</asrwt>
<pdfrwt beam="1">  1       21 0.26279673E-01 0.18628113E+03</pdfrwt>
<pdfrwt beam="2">  1       21 0.25361786E-01 0.18628113E+03</pdfrwt>
<totfact> 0.20323310E+05</totfact>
</mgrwt>
</event>
<event>
 6    1  0.4216855E-002  0.1327116E+03  0.7546771E-02  0.1223487E+00
         21   -1    0    0  504  502  0.00000000000E+00  0.00000000000E+00  0.41972132500E+03  0.41972132500E+03  0.00000000000E+00 0.  1.
         21   -1    0    0  502  503 -0.00000000000E+00 -0.00000000000E+00 -0.21127123813E+02  0.21127123813E+02  0.00000000000E+00 0.  1.
         25    2    1    2    0    0 -0.70065420124E+01  0.44020670103E+02  0.22135414714E+03  0.25808918698E+03  0.12500183579E+03 0.  0.
          5    1    3    3  501    0 -0.65811206368E+02  0.19532951666E+02  0.12432611785E+03  0.14201987419E+03  0.10000000000E+00 0.  1.
         -5    1    3    3    0  501  0.58804664355E+02  0.24487718437E+02  0.97028029287E+02  0.11606931279E+03  0.10000000000E+00 0.  1.
         21    1    1    2  504  503  0.70065420124E+01 -0.44020670103E+02  0.17724005405E+03  0.18275926184E+03  0.00000000000E+00 0.  1.
<mgrwt>
<rscale>  1 0.13271160E+03</rscale>
<asrwt>0</asrwt>
<pdfrwt beam="1">  1       21 0.64572505E-01 0.13271160E+03</pdfrwt>
<pdfrwt beam="2">  1       21 0.32503270E-02 0.13271160E+03</pdfrwt>
<totfact> 0.12265892E+06</totfact>
</mgrwt>
</event>
<event>
 6    1  0.4216855E-002  0.1328162E+03  0.7546771E-02  0.1223336E+00
         21   -1    0    0  504  502  0.00000000000E+00  0.00000000000E+00  0.16034137405E+03  0.16034137405E+03  0.00000000000E+00 0.  1.
         21   -1    0    0  502  503 -0.00000000000E+00 -0.00000000000E+00 -0.62506507528E+02  0.62506507528E+02  0.00000000000E+00 0.  1.
         25    2    1    2    0    0 -0.82130287114E+01 -0.44119818184E+02  0.21852390381E+02  0.13460192486E+03  0.12500455597E+03 0.  0.
          5    1    3    3  501    0 -0.19704059799E+02 -0.85229632205E+02  0.19375951001E+01  0.87499168299E+02  0.10000000000E+00 0. -1.
         -5    1    3    3    0  501  0.11491031087E+02  0.41109814021E+02  0.19914795281E+02  0.47102756558E+02  0.10000000000E+00 0. -1.
         21    1    1    2  504  503  0.82130287114E+01  0.44119818184E+02  0.75982476143E+02  0.88245956724E+02  0.00000000000E+00 0.  1.
<mgrwt>
<rscale>  1 0.13281623E+03</rscale>
<asrwt>0</asrwt>
<pdfrwt beam="1">  1       21 0.24667904E-01 0.13281623E+03</pdfrwt>
<pdfrwt beam="2">  1       21 0.96163858E-02 0.13281623E+03</pdfrwt>
<totfact> 0.13490518E+06</totfact>
</mgrwt>
</event>
<event>
 6    1  0.4216855E-002  0.1259767E+03  0.7546771E-02  0.1233551E+00
         21   -1    0    0  503  502  0.00000000000E+00  0.00000000000E+00  0.21266324547E+03  0.21266324547E+03  0.00000000000E+00 0.  1.
         21   -1    0    0  504  503 -0.00000000000E+00 -0.00000000000E+00 -0.41605020191E+02  0.41605020191E+02  0.00000000000E+00 0.  1.
         25    2    1    2    0    0 -0.38657649252E+01  0.15162997490E+02  0.55508487244E+02  0.13766379494E+03  0.12500107060E+03 0.  0.
          5    1    3    3  501    0  0.16316586434E+02  0.18652953368E+02  0.92292421037E+02  0.95561836750E+02  0.10000000000E+00 0.  1.
         -5    1    3    3    0  501 -0.20182351359E+02 -0.34899558778E+01 -0.36783933793E+02  0.42101958193E+02  0.10000000000E+00 0.  1.
         21    1    1    2  504  502  0.38657649252E+01 -0.15162997490E+02  0.11554973804E+03  0.11660447072E+03  0.00000000000E+00 0.  1.
<mgrwt>
<rscale>  1 0.12597670E+03</rscale>
<asrwt>0</asrwt>
<pdfrwt beam="1">  1       21 0.32717422E-01 0.12597670E+03</pdfrwt>
<pdfrwt beam="2">  1       21 0.64007725E-02 0.12597670E+03</pdfrwt>
<totfact> 0.15811604E+06</totfact>
</mgrwt>
</event>
<event>
 6    1  0.4216855E-002  0.1262383E+03  0.7546771E-02  0.1233147E+00
         21   -1    0    0  504  502  0.00000000000E+00  0.00000000000E+00  0.21359377835E+02  0.21359377835E+02  0.00000000000E+00 0. -1.
         21   -1    0    0  502  503 -0.00000000000E+00 -0.00000000000E+00 -0.26223281872E+03  0.26223281872E+03  0.00000000000E+00 0. -1.
         25    2    1    2    0    0 -0.79445550625E+01 -0.15621390325E+02 -0.23158614608E+03  0.26375794246E+03  0.12501586044E+03 0.  0.
          5    1    3    3  501    0 -0.26374813881E+02 -0.18677194447E+02 -0.24077778685E+03  0.24293707218E+03  0.10000000000E+00 0.  1.
         -5    1    3    3    0  501  0.18430258818E+02  0.30558041219E+01  0.91916407694E+01  0.20820870274E+02  0.10000000000E+00 0.  1.
         21    1    1    2  504  503  0.79445550625E+01  0.15621390325E+02 -0.92872947998E+01  0.19834254095E+02  0.00000000000E+00 0. -1.
<mgrwt>
<rscale>  1 0.12623830E+03</rscale>
<asrwt>0</asrwt>
<pdfrwt beam="1">  1       21 0.32860581E-02 0.12623830E+03</pdfrwt>
<pdfrwt beam="2">  1       21 0.40343511E-01 0.12623830E+03</pdfrwt>
<totfact> 0.31886926E+06</totfact>
</mgrwt>
</event>
<event>
 6    1  0.4216855E-002  0.1314300E+03  0.7546771E-02  0.1225349E+00
         21   -1    0    0  503  502  0.00000000000E+00  0.00000000000E+00  0.45263674120E+02  0.45263674120E+02  0.00000000000E+00 0.  1.
         21   -1    0    0  504  503 -0.00000000000E+00 -0.00000000000E+00 -0.17711034570E+03  0.17711034570E+03  0.00000000000E+00 0.  1.
         25    2    1    2    0    0  0.31508801525E+02  0.25592210675E+02 -0.12466750681E+03  0.18115137765E+03  0.12500427412E+03 0.  0.
          5    1    3    3  501    0 -0.19473393041E+02  0.49496135373E+02 -0.11019101858E+02  0.54318606933E+02  0.10000000000E+00 0. -1.
         -5    1    3    3    0  501  0.50982194566E+02 -0.23903924698E+02 -0.11364840496E+03  0.12683277072E+03  0.10000000000E+00 0. -1.
         21    1    1    2  504  502 -0.31508801525E+02 -0.25592210675E+02 -0.71791647667E+01  0.41222642171E+02  0.00000000000E+00 0.  1.
<mgrwt>
<rscale>  1 0.13142996E+03</rscale>
<asrwt>0</asrwt>
<pdfrwt beam="1">  1       21 0.69636422E-02 0.13142996E+03</pdfrwt>
<pdfrwt beam="2">  1       21 0.27247745E-01 0.13142996E+03</pdfrwt>
<totfact> 0.19504700E+06</totfact>
</mgrwt>
</event>
<event>
 6    1  0.4216855E-002  0.1452019E+03  0.7546771E-02  0.1206496E+00
         21   -1    0    0  503  502  0.00000000000E+00  0.00000000000E+00  0.19015939536E+03  0.19015939536E+03  0.00000000000E+00 0. -1.
         21   -1    0    0  504  503 -0.00000000000E+00 -0.00000000000E+00 -0.66939033021E+02  0.66939033021E+02  0.00000000000E+00 0. -1.
         25    2    1    2    0    0 -0.72471607998E+02 -0.14358702703E+02  0.10972002845E+03  0.18199473124E+03  0.12500116498E+03 0.  0.
          5    1    3    3  501    0 -0.43085685156E+02 -0.11730624733E+02  0.13559116809E+03  0.14275489024E+03  0.10000000000E+00 0.  1.
         -5    1    3    3    0  501 -0.29385922842E+02 -0.26280779699E+01 -0.25871139646E+02  0.39239841000E+02  0.10000000000E+00 0.  1.
         21    1    1    2  504  502  0.72471607998E+02  0.14358702703E+02  0.13500333890E+02  0.75103697141E+02  0.00000000000E+00 0. -1.
<mgrwt>
<rscale>  1 0.14520192E+03</rscale>
<asrwt>0</asrwt>
<pdfrwt beam="1">  1       21 0.29255291E-01 0.14520192E+03</pdfrwt>
<pdfrwt beam="2">  1       21 0.10298313E-01 0.14520192E+03</pdfrwt>
<totfact> 0.86456663E+05</totfact>
</mgrwt>
</event>
<event>
 6    1  0.4216855E-002  0.1398151E+03  0.7546771E-02  0.1213578E+00
         21   -1    0    0  504  502  0.00000000000E+00  0.00000000000E+00  0.17349662958E+03  0.17349662958E+03  0.00000000000E+00 0. -1.
         21   -1    0    0  502  503 -0.00000000000E+00 -0.00000000000E+00 -0.28794146204E+03  0.28794146204E+03  0.00000000000E+00 0. -1.
         25    2    1    2    0    0 -0.39365645312E+02 -0.48706519213E+02 -0.26431129365E+03  0.29901292351E+03  0.12500515760E+03 0.  0.
          5    1    3    3  501    0  0.24366118564E+02 -0.58762158010E+02 -0.71547818072E+02  0.95738180569E+02  0.10000000000E+00 0.  1.
         -5    1    3    3    0  501 -0.63731763876E+02  0.10055638797E+02 -0.19276347558E+03  0.20327474294E+03  0.10000000000E+00 0.  1.
         21    1    1    2  504  503  0.39365645312E+02  0.48706519213E+02  0.14986646119E+03  0.16242516811E+03  0.00000000000E+00 0. -1.
<mgrwt>
<rscale>  1 0.13981512E+03</rscale>
<asrwt>0</asrwt>
<pdfrwt beam="1">  1       21 0.26691789E-01 0.13981512E+03</pdfrwt>
<pdfrwt beam="2">  1       21 0.44298686E-01 0.13981512E+03</pdfrwt>
<totfact> 0.66946612E+04</totfact>
</mgrwt>
</event>
<event>
 6    1  0.4216855E-002  0.1273505E+03  0.7546771E-02  0.1231441E+00
         21   -1    0    0  504  502  0.00000000000E+00  0.00000000000E+00  0.76638406647E+02  0.76638406647E+02  0.00000000000E+00 0.  1.
         21   -1    0    0  502  503 -0.00000000000E+00 -0.00000000000E+00 -0.79668571200E+02  0.79668571200E+02  0.00000000000E+00 0.  1.
         25    2    1    2    0    0 -0.23325559773E+02  0.70695503322E+01  0.11603561333E+02  0.12787800998E+03  0.12499633003E+03 0.  0.
          5    1    3    3  501    0  0.39049381429E+02  0.37807171510E+01  0.42799005830E+02  0.58059563486E+02  0.10000000000E+00 0.  1.
         -5    1    3    3    0  501 -0.62374941202E+02  0.32888331812E+01 -0.31195444497E+02  0.69818446495E+02  0.10000000000E+00 0.  1.
         21    1    1    2  504  503  0.23325559773E+02 -0.70695503322E+01 -0.14633725886E+02  0.28428967866E+02  0.00000000000E+00 0. -1.
<mgrwt>
<rscale>  1 0.12735047E+03</rscale>
<asrwt>0</asrwt>
<pdfrwt beam="1">  1       21 0.11790524E-01 0.12735047E+03</pdfrwt>
<pdfrwt beam="2">  1       21 0.12256703E-01 0.12735047E+03</pdfrwt>
<totfact> 0.33812392E+06</totfact>
</mgrwt>
</event>
<event>
 6    1  0.4216855E-002  0.1258540E+03  0.7546771E-02  0.1233741E+00
         21   -1    0    0  503  502  0.00000000000E+00  0.00000000000E+00  0.93378611646E+01  0.93378611646E+01  0.00000000000E+00 0. -1.
         21   -1    0    0  504  503 -0.00000000000E+00 -0.00000000000E+00 -0.54164847219E+03  0.54164847219E+03  0.00000000000E+00 0. -1.
         25    2    1    2    0    0 -0.12548059323E+02 -0.83754904675E+01 -0.49481626707E+03  0.51057063762E+03  0.12494652939E+03 0.  0.
          5    1    3    3  501    0 -0.62802155338E+02  0.27463312573E+01 -0.16148477984E+03  0.17328876816E+03  0.10000000000E+00 0. -1.
         -5    1    3    3    0  501  0.50254096015E+02 -0.11121821725E+02 -0.33333148723E+03  0.33728186946E+03  0.10000000000E+00 0. -1.
         21    1    1    2  504  502  0.12548059323E+02  0.83754904675E+01 -0.37494343950E+02  0.40415695733E+02  0.00000000000E+00 0. -1.
<mgrwt>
<rscale>  1 0.12585403E+03</rscale>
<asrwt>0</asrwt>
<pdfrwt beam="1">  1       21 0.14365940E-02 0.12585403E+03</pdfrwt>
<pdfrwt beam="2">  1       21 0.83330535E-01 0.12585403E+03</pdfrwt>
<totfact> 0.26229718E+06</totfact>
</mgrwt>
</event>
<event>
 6    1  0.4216855E-002  0.1282201E+03  0.7546771E-02  0.1230121E+00
         21   -1    0    0  504  502  0.00000000000E+00  0.00000000000E+00  0.24221864386E+02  0.24221864386E+02  0.00000000000E+00 0. -1.
         21   -1    0    0  502  503 -0.00000000000E+00 -0.00000000000E+00 -0.25632501552E+03  0.25632501552E+03  0.00000000000E+00 0. -1.
         25    2    1    2    0    0 -0.26950589056E+02 -0.96056438133E+01 -0.19970633672E+03  0.23732470704E+03  0.12498717134E+03 0.  0.
          5    1    3    3  501    0  0.24751186730E+02 -0.54427086302E+02 -0.92212707560E+02  0.10990051139E+03  0.10000000000E+00 0.  1.
         -5    1    3    3    0  501 -0.51701775786E+02  0.44821442489E+02 -0.10749362916E+03  0.12742419565E+03  0.10000000000E+00 0.  1.
         21    1    1    2  504  503  0.26950589056E+02  0.96056438133E+01 -0.32396814415E+02  0.43222172872E+02  0.00000000000E+00 0. -1.
<mgrwt>
<rscale>  1 0.12822011E+03</rscale>
<asrwt>0</asrwt>
<pdfrwt beam="1">  1       21 0.37264407E-02 0.12822011E+03</pdfrwt>
<pdfrwt beam="2">  1       21 0.39434618E-01 0.12822011E+03</pdfrwt>
<totfact> 0.27131318E+06</totfact>
</mgrwt>
</event>
<event>
 6    1  0.4216855E-002  0.1282855E+03  0.7546771E-02  0.1230022E+00
         21   -1    0    0  504  502  0.00000000000E+00  0.00000000000E+00  0.10961945593E+04  0.10961945593E+04  0.00000000000E+00 0.  1.
         21   -1    0    0  502  503 -0.00000000000E+00 -0.00000000000E+00 -0.57128624014E+01  0.57128624014E+01  0.00000000000E+00 0.  1.
         25    2    1    2    0    0 -0.26883831395E+02 -0.10372832791E+02  0.83337549766E+03  0.84319148919E+03  0.12500732493E+03 0.  0.
          5    1    3    3  501    0 -0.45261953223E+02 -0.58548823292E+02  0.57304231471E+03  0.57780110208E+03  0.10000000000E+00 0.  1.
         -5    1    3    3    0  501  0.18378121828E+02  0.48175990500E+02  0.26033318295E+03  0.26539038711E+03  0.10000000000E+00 0.  1.
         21    1    1    2  504  503  0.26883831395E+02  0.10372832791E+02  0.25710619928E+03  0.25871593256E+03  0.00000000000E+00 0.  1.
<mgrwt>
<rscale>  1 0.12828549E+03</rscale>
<asrwt>0</asrwt>
<pdfrwt beam="1">  1       21 0.16864515E+00 0.12828549E+03</pdfrwt>
<pdfrwt beam="2">  1       21 0.87890278E-03 0.12828549E+03</pdfrwt>
<totfact> 0.10184193E+06</totfact>
</mgrwt>
</event>
<event>
 6    1  0.4216855E-002  0.1529966E+03  0.7546771E-02  0.1196838E+00
         21   -1    0    0  503  502  0.00000000000E+00  0.00000000000E+00  0.89715265887E+01  0.89715265887E+01  0.00000000000E+00 0.  1.
         21   -1    0    0  504  503 -0.00000000000E+00 -0.00000000000E+00 -0.16962385157E+04  0.16962385157E+04  0.00000000000E+00 0.  1.
         25    2    1    2    0    0  0.80062550536E+02  0.37062264647E+02 -0.12329158714E+04  0.12423725313E+04  0.12499734796E+03 0.  0.
          5    1    3    3  501    0  0.48202264031E+02  0.56245361145E+02 -0.11383372974E+04  0.11407448494E+04  0.10000000000E+00 0. -1.
         -5    1    3    3    0  501  0.31860286505E+02 -0.19183096498E+02 -0.94578574027E+02  0.10162768182E+03  0.10000000000E+00 0. -1.
         21    1    1    2  504  502 -0.80062550536E+02 -0.37062264647E+02 -0.45435111774E+03  0.46283751107E+03  0.00000000000E+00 0.  1.
<mgrwt>
<rscale>  1 0.15299660E+03</rscale>
<asrwt>0</asrwt>
<pdfrwt beam="1">  1       21 0.13802358E-02 0.15299660E+03</pdfrwt>
<pdfrwt beam="2">  1       21 0.26095959E+00 0.15299660E+03</pdfrwt>
<totfact> 0.13242378E+05</totfact>
</mgrwt>
</event>
<event>
 6    1  0.4216855E-002  0.1311323E+03  0.7546771E-02  0.1225785E+00
         21   -1    0    0  503  502  0.00000000000E+00  0.00000000000E+00  0.17719883723E+03  0.17719883723E+03  0.00000000000E+00 0.  1.
         21   -1    0    0  504  503 -0.00000000000E+00 -0.00000000000E+00 -0.87299716983E+02  0.87299716983E+02  0.00000000000E+00 0. -1.
         25    2    1    2    0    0 -0.31842480805E+02  0.23520207082E+02 -0.33133884616E+02  0.13525357748E+03  0.12501412795E+03 0.  0.
          5    1    3    3  501    0 -0.78131235762E+02  0.34685352603E+01 -0.32798226091E+02  0.84807159917E+02  0.10000000000E+00 0.  1.
         -5    1    3    3    0  501  0.46288754957E+02  0.20051671822E+02 -0.33565852433E+00  0.50446417563E+02  0.10000000000E+00 0.  1.
         21    1    1    2  504  502  0.31842480805E+02 -0.23520207082E+02  0.12303300487E+03  0.12924497673E+03  0.00000000000E+00 0.  1.
<mgrwt>
<rscale>  1 0.13113228E+03</rscale>
<asrwt>0</asrwt>
<pdfrwt beam="1">  1       21 0.27261359E-01 0.13113228E+03</pdfrwt>
<pdfrwt beam="2">  1       21 0.13430726E-01 0.13113228E+03</pdfrwt>
<totfact> 0.61849527E+05</totfact>
</mgrwt>
</event>
<event>
 6    1  0.4216855E-002  0.1346426E+03  0.7546771E-02  0.1220725E+00
         21   -1    0    0  504  502  0.00000000000E+00  0.00000000000E+00  0.62710843280E+03  0.62710843280E+03  0.00000000000E+00 0. -1.
         21   -1    0    0  502  503 -0.00000000000E+00 -0.00000000000E+00 -0.24016105200E+02  0.24016105200E+02  0.00000000000E+00 0. -1.
         25    2    1    2    0    0 -0.14597326200E+02 -0.47852126755E+02  0.17845628801E+03  0.22355153360E+03  0.12500293389E+03 0.  0.
          5    1    3    3  501    0  0.37948214671E+02 -0.32497514906E+02  0.15699292907E+03  0.16475116160E+03  0.10000000000E+00 0.  1.
         -5    1    3    3    0  501 -0.52545540871E+02 -0.15354611849E+02  0.21463358937E+02  0.58800372000E+02  0.10000000000E+00 0.  1.
         21    1    1    2  504  503  0.14597326200E+02  0.47852126755E+02  0.42463603959E+03  0.42757300439E+03  0.00000000000E+00 0. -1.
<mgrwt>
<rscale>  1 0.13464264E+03</rscale>
<asrwt>0</asrwt>
<pdfrwt beam="1">  1       21 0.96478208E-01 0.13464264E+03</pdfrwt>
<pdfrwt beam="2">  1       21 0.36947859E-02 0.13464264E+03</pdfrwt>
<totfact> 0.40484405E+05</totfact>
</mgrwt>
</event>
<event>
 6    1  0.4216855E-002  0.1262966E+03  0.7546771E-02  0.1233057E+00
         21   -1    0    0  503  502  0.00000000000E+00  0.00000000000E+00  0.84257593856E+03  0.84257593856E+03  0.00000000000E+00 0.  1.
         21   -1    0    0  504  503 -0.00000000000E+00 -0.00000000000E+00 -0.27589582855E+02  0.27589582855E+02  0.00000000000E+00 0.  1.
         25    2    1    2    0    0  0.97984822563E+01 -0.15170948601E+02  0.11767929097E+03  0.17262461905E+03  0.12499870257E+03 0.  0.
          5    1    3    3  501    0 -0.50493436286E+02 -0.27677090063E+02  0.85679274414E+02  0.10323059860E+03  0.10000000000E+00 0. -1.
         -5    1    3    3    0  501  0.60291918542E+02  0.12506141462E+02  0.32000016554E+02  0.69394020457E+02  0.10000000000E+00 0. -1.
         21    1    1    2  504  502 -0.97984822563E+01  0.15170948601E+02  0.69730706474E+03  0.69754090237E+03  0.00000000000E+00 0.  1.
<mgrwt>
<rscale>  1 0.12629665E+03</rscale>
<asrwt>0</asrwt>
<pdfrwt beam="1">  1       21 0.12962705E+00 0.12629665E+03</pdfrwt>
<pdfrwt beam="2">  1       21 0.42445518E-02 0.12629665E+03</pdfrwt>
<totfact> 0.15856421E+05</totfact>
</mgrwt>
</event>
<event>
 6    1  0.4216855E-002  0.1274040E+03  0.7546771E-02  0.1231359E+00
         21   -1    0    0  503  502  0.00000000000E+00  0.00000000000E+00  0.33202460212E+03  0.33202460212E+03  0.00000000000E+00 0.  1.
         21   -1    0    0  504  503 -0.00000000000E+00 -0.00000000000E+00 -0.30635319135E+02  0.30635319135E+02  0.00000000000E+00 0. -1.
         25    2    1    2    0    0  0.13835376511E+02 -0.20367193955E+02  0.10602460851E+03  0.16574979895E+03  0.12500215202E+03 0.  0.
          5    1    3    3  501    0 -0.27699927546E+00 -0.72102746506E+02  0.73851404760E+02  0.10321299709E+03  0.10000000000E+00 0.  1.
         -5    1    3    3    0  501  0.14112375786E+02  0.51735552551E+02  0.32173203748E+02  0.62536801865E+02  0.10000000000E+00 0.  1.
         21    1    1    2  504  502 -0.13835376511E+02  0.20367193955E+02  0.19536467448E+03  0.19691012230E+03  0.00000000000E+00 0.  1.
<mgrwt>
<rscale>  1 0.12740400E+03</rscale>
<asrwt>0</asrwt>
<pdfrwt beam="1">  1       21 0.51080705E-01 0.12740400E+03</pdfrwt>
<pdfrwt beam="2">  1       21 0.47131263E-02 0.12740400E+03</pdfrwt>
<totfact> 0.10847661E+06</totfact>
</mgrwt>
</event>
<event>
 6    1  0.4216855E-002  0.1288939E+03  0.7546771E-02  0.1229106E+00
         21   -1    0    0  504  502  0.00000000000E+00  0.00000000000E+00  0.45553658776E+02  0.45553658776E+02  0.00000000000E+00 0.  1.
         21   -1    0    0  502  503 -0.00000000000E+00 -0.00000000000E+00 -0.45755757638E+03  0.45755757638E+03  0.00000000000E+00 0.  1.
         25    2    1    2    0    0 -0.53933458252E+01 -0.30977220000E+02 -0.44154156571E+03  0.45997019907E+03  0.12499981377E+03 0.  0.
          5    1    3    3  501    0 -0.55184570465E+02 -0.48001015135E+02 -0.20530619903E+03  0.21794512986E+03  0.10000000000E+00 0. -1.
         -5    1    3    3    0  501  0.49791224639E+02  0.17023795136E+02 -0.23623536669E+03  0.24202506921E+03  0.10000000000E+00 0. -1.
         21    1    1    2  504  503  0.53933458252E+01  0.30977220000E+02  0.29537648114E+02  0.43141036082E+02  0.00000000000E+00 0.  1.
<mgrwt>
<rscale>  1 0.12889387E+03</rscale>
<asrwt>0</asrwt>
<pdfrwt beam="1">  1       21 0.70082552E-02 0.12889387E+03</pdfrwt>
<pdfrwt beam="2">  1       21 0.70393473E-01 0.12889387E+03</pdfrwt>
<totfact> 0.28054520E+05</totfact>
</mgrwt>
</event>
<event>
 6    1  0.4216855E-002  0.1261608E+03  0.7546771E-02  0.1233266E+00
         21   -1    0    0  503  502  0.00000000000E+00  0.00000000000E+00  0.10484573084E+03  0.10484573084E+03  0.00000000000E+00 0. -1.
         21   -1    0    0  504  503 -0.00000000000E+00 -0.00000000000E+00 -0.19725497254E+04  0.19725497254E+04  0.00000000000E+00 0.  1.
         25    2    1    2    0    0 -0.92977346152E+00 -0.16945419756E+02 -0.19698315259E+04  0.19738674679E+04  0.12501411500E+03 0.  0.
          5    1    3    3  501    0 -0.49224181935E+02  0.72197880056E+00 -0.15661648537E+04  0.15669383843E+04  0.10000000000E+00 0.  1.
         -5    1    3    3    0  501  0.48294408474E+02 -0.17667398557E+02 -0.40366667219E+03  0.40692908362E+03  0.10000000000E+00 0.  1.
         21    1    1    2  504  502  0.92977346152E+00  0.16945419756E+02  0.10212753126E+03  0.10352798835E+03  0.00000000000E+00 0. -1.
<mgrwt>
<rscale>  1 0.12616077E+03</rscale>
<asrwt>0</asrwt>
<pdfrwt beam="1">  1       21 0.16130113E-01 0.12616077E+03</pdfrwt>
<pdfrwt beam="2">  1       21 0.30346918E+00 0.12616077E+03</pdfrwt>
<totfact> 0.12465715E+03</totfact>
</mgrwt>
</event>
<event>
 6    1  0.4216855E-002  0.1280686E+03  0.7546771E-02  0.1230350E+00
         21   -1    0    0  504  502  0.00000000000E+00  0.00000000000E+00  0.31332169669E+02  0.31332169669E+02  0.00000000000E+00 0.  1.
         21   -1    0    0  502  503 -0.00000000000E+00 -0.00000000000E+00 -0.32052041085E+03  0.32052041085E+03  0.00000000000E+00 0.  1.
         25    2    1    2    0    0  0.26532239864E+02 -0.84626726517E+01 -0.29657079701E+03  0.32304149391E+03  0.12500397021E+03 0.  0.
          5    1    3    3  501    0 -0.28855952638E+02 -0.27002350262E+02 -0.28609826263E+02  0.48788575313E+02  0.10000000000E+00 0.  1.
         -5    1    3    3    0  501  0.55388192502E+02  0.18539677610E+02 -0.26796097075E+03  0.27425291860E+03  0.10000000000E+00 0.  1.
         21    1    1    2  504  503 -0.26532239864E+02  0.84626726517E+01  0.73825558349E+01  0.28811086604E+02  0.00000000000E+00 0.  1.
<mgrwt>
<rscale>  1 0.12806861E+03</rscale>
<asrwt>0</asrwt>
<pdfrwt beam="1">  1       21 0.48203337E-02 0.12806861E+03</pdfrwt>
<pdfrwt beam="2">  1       21 0.49310834E-01 0.12806861E+03</pdfrwt>
<totfact> 0.11235625E+06</totfact>
</mgrwt>
</event>
<event>
 6    1  0.4216855E-002  0.1329587E+03  0.7546771E-02  0.1223130E+00
         21   -1    0    0  503  502  0.00000000000E+00  0.00000000000E+00  0.10554531550E+03  0.10554531550E+03  0.00000000000E+00 0.  1.
         21   -1    0    0  504  503 -0.00000000000E+00 -0.00000000000E+00 -0.11097717086E+03  0.11097717086E+03  0.00000000000E+00 0.  1.
         25    2    1    2    0    0  0.28845310935E+02 -0.34941395476E+02 -0.59767352701E+02  0.14577434608E+03  0.12500028178E+03 0.  0.
          5    1    3    3  501    0  0.88493757157E+01 -0.53308426236E+02 -0.90101480683E+02  0.10506372628E+03  0.10000000000E+00 0. -1.
         -5    1    3    3    0  501  0.19995935219E+02  0.18367030760E+02  0.30334127982E+02  0.40710619802E+02  0.10000000000E+00 0. -1.
         21    1    1    2  504  502 -0.28845310935E+02  0.34941395476E+02  0.54335497347E+02  0.70748140277E+02  0.00000000000E+00 0.  1.
<mgrwt>
<rscale>  1 0.13295873E+03</rscale>
<asrwt>0</asrwt>
<pdfrwt beam="1">  1       21 0.16237741E-01 0.13295873E+03</pdfrwt>
<pdfrwt beam="2">  1       21 0.17073411E-01 0.13295873E+03</pdfrwt>
<totfact> 0.10512178E+06</totfact>
</mgrwt>
</event>
<event>
 6    1  0.4216855E-002  0.1268479E+03  0.7546771E-02  0.1232209E+00
         21   -1    0    0  504  502  0.00000000000E+00  0.00000000000E+00  0.87298050618E+02  0.87298050618E+02  0.00000000000E+00 0. -1.
         21   -1    0    0  502  503 -0.00000000000E+00 -0.00000000000E+00 -0.67071071410E+02  0.67071071410E+02  0.00000000000E+00 0. -1.
         25    2    1    2    0    0  0.21092955640E+02 -0.45040613774E+01  0.31975084251E+01  0.12688817915E+03  0.12500074640E+03 0.  0.
          5    1    3    3  501    0 -0.29056117795E+02  0.32985324133E+02  0.35436442295E+02  0.56462740210E+02  0.10000000000E+00 0. -1.
         -5    1    3    3    0  501  0.50149073435E+02 -0.37489385510E+02 -0.32238933870E+02  0.70425438937E+02  0.10000000000E+00 0. -1.
         21    1    1    2  504  503 -0.21092955640E+02  0.45040613774E+01  0.17029470783E+02  0.27480942882E+02  0.00000000000E+00 0. -1.
<mgrwt>
<rscale>  1 0.12684789E+03</rscale>
<asrwt>0</asrwt>
<pdfrwt beam="1">  1       21 0.13430469E-01 0.12684789E+03</pdfrwt>
<pdfrwt beam="2">  1       21 0.10318626E-01 0.12684789E+03</pdfrwt>
<totfact> 0.36329031E+06</totfact>
</mgrwt>
</event>
<event>
 6    1  0.4216855E-002  0.1272733E+03  0.7546771E-02  0.1231559E+00
         21   -1    0    0  504  502  0.00000000000E+00  0.00000000000E+00  0.19249907512E+03  0.19249907512E+03  0.00000000000E+00 0. -1.
         21   -1    0    0  502  503 -0.00000000000E+00 -0.00000000000E+00 -0.22352829349E+03  0.22352829349E+03  0.00000000000E+00 0. -1.
         25    2    1    2    0    0 -0.23963738210E+02 -0.40194720202E+00 -0.20452062925E+03  0.24088830397E+03  0.12499625952E+03 0.  0.
          5    1    3    3  501    0 -0.15021100124E+02  0.61690532757E+02 -0.11828306151E+03  0.13424696616E+03  0.10000000000E+00 0. -1.
         -5    1    3    3    0  501 -0.89426380855E+01 -0.62092479959E+02 -0.86237567733E+02  0.10664133782E+03  0.10000000000E+00 0. -1.
         21    1    1    2  504  503  0.23963738210E+02  0.40194720202E+00  0.17349141088E+03  0.17513906463E+03  0.00000000000E+00 0. -1.
<mgrwt>
<rscale>  1 0.12727328E+03</rscale>
<asrwt>0</asrwt>
<pdfrwt beam="1">  1       21 0.29615242E-01 0.12727328E+03</pdfrwt>
<pdfrwt beam="2">  1       21 0.34388968E-01 0.12727328E+03</pdfrwt>
<totfact> 0.91412514E+04</totfact>
</mgrwt>
</event>
<event>
 6    1  0.4216855E-002  0.1273412E+03  0.7546771E-02  0.1231455E+00
         21   -1    0    0  503  502  0.00000000000E+00  0.00000000000E+00  0.23102062402E+03  0.23102062402E+03  0.00000000000E+00 0. -1.
         21   -1    0    0  504  503 -0.00000000000E+00 -0.00000000000E+00 -0.26536646779E+02  0.26536646779E+02  0.00000000000E+00 0. -1.
         25    2    1    2    0    0 -0.15249285886E+02  0.18851414284E+02  0.14308505121E+03  0.19154405502E+03  0.12501150584E+03 0.  0.
          5    1    3    3  501    0 -0.14626457186E+02  0.12858283174E+02  0.16636283661E+03  0.16749887194E+03  0.10000000000E+00 0. -1.
         -5    1    3    3    0  501 -0.62282870020E+00  0.59931311104E+01 -0.23277785399E+02  0.24045183076E+02  0.10000000000E+00 0. -1.
         21    1    1    2  504  502  0.15249285886E+02 -0.18851414284E+02  0.61398926021E+02  0.66013215776E+02  0.00000000000E+00 0. -1.
<mgrwt>
<rscale>  1 0.12734125E+03</rscale>
<asrwt>0</asrwt>
<pdfrwt beam="1">  1       21 0.35541633E-01 0.12734125E+03</pdfrwt>
<pdfrwt beam="2">  1       21 0.40825612E-02 0.12734125E+03</pdfrwt>
<totfact> 0.28643094E+06</totfact>
</mgrwt>
</event>
<event>
 6    1  0.4216855E-002  0.1263120E+03  0.7546771E-02  0.1233033E+00
         21   -1    0    0  503  502  0.00000000000E+00  0.00000000000E+00  0.36802651321E+02  0.36802651321E+02  0.00000000000E+00 0.  1.
         21   -1    0    0  504  503 -0.00000000000E+00 -0.00000000000E+00 -0.20615403081E+03  0.20615403081E+03  0.00000000000E+00 0.  1.
         25    2    1    2    0    0  0.15948182762E+02 -0.87303918118E+01 -0.18147337003E+03  0.22110475020E+03  0.12499664898E+03 0.  0.
          5    1    3    3  501    0  0.23983958084E+02  0.52043433665E+02 -0.50037517122E+02  0.76075701461E+02  0.10000000000E+00 0. -1.
         -5    1    3    3    0  501 -0.80357753221E+01 -0.60773825477E+02 -0.13143585291E+03  0.14502904874E+03  0.10000000000E+00 0. -1.
         21    1    1    2  504  502 -0.15948182762E+02  0.87303918118E+01  0.12121990540E+02  0.21851931934E+02  0.00000000000E+00 0.  1.
<mgrwt>
<rscale>  1 0.12631202E+03</rscale>
<asrwt>0</asrwt>
<pdfrwt beam="1">  1       21 0.56619463E-02 0.12631202E+03</pdfrwt>
<pdfrwt beam="2">  1       21 0.31716005E-01 0.12631202E+03</pdfrwt>
<totfact> 0.20679241E+06</totfact>
</mgrwt>
</event>
<event>
 6    1  0.4216855E-002  0.1306900E+03  0.7546771E-02  0.1226435E+00
         21   -1    0    0  504  502  0.00000000000E+00  0.00000000000E+00  0.47831083941E+03  0.47831083941E+03  0.00000000000E+00 0.  1.
         21   -1    0    0  502  503 -0.00000000000E+00 -0.00000000000E+00 -0.46929665610E+02  0.46929665610E+02  0.00000000000E+00 0.  1.
         25    2    1    2    0    0 -0.79591334565E+01 -0.37303766137E+02  0.46867623978E+02  0.13883969140E+03  0.12499986782E+03 0.  0.
          5    1    3    3  501    0  0.25985698946E+02  0.74563289053E+01  0.72289569971E+02  0.77179306275E+02  0.10000000000E+00 0. -1.
         -5    1    3    3    0  501 -0.33944832403E+02 -0.44760095042E+02 -0.25421945993E+02  0.61660385120E+02  0.10000000000E+00 0. -1.
         21    1    1    2  504  503  0.79591334565E+01  0.37303766137E+02  0.38451354982E+03  0.38640081362E+03  0.00000000000E+00 0.  1.
<mgrwt>
<rscale>  1 0.13069004E+03</rscale>
<asrwt>0</asrwt>
<pdfrwt beam="1">  1       21 0.73586280E-01 0.13069004E+03</pdfrwt>
<pdfrwt beam="2">  1       21 0.72199489E-02 0.13069004E+03</pdfrwt>
<totfact> 0.24180934E+05</totfact>
</mgrwt>
</event>
<event>
 6    1  0.4216855E-002  0.1668811E+03  0.7546771E-02  0.1181140E+00
         21   -1    0    0  503  502  0.00000000000E+00  0.00000000000E+00  0.52963848755E+03  0.52963848755E+03  0.00000000000E+00 0. -1.
         21   -1    0    0  504  503 -0.00000000000E+00 -0.00000000000E+00 -0.21088947706E+03  0.21088947706E+03  0.00000000000E+00 0.  1.
         25    2    1    2    0    0  0.60635755940E+01  0.11039663693E+03 -0.17071504400E+03  0.23873194526E+03  0.12500052419E+03 0.  0.
          5    1    3    3  501    0 -0.52906135772E+02  0.25190385193E+02 -0.35993367279E+02  0.68768795224E+02  0.10000000000E+00 0. -1.
         -5    1    3    3    0  501  0.58969711366E+02  0.85206251732E+02 -0.13472167672E+03  0.16996315004E+03  0.10000000000E+00 0. -1.
         21    1    1    2  504  502 -0.60635755940E+01 -0.11039663693E+03  0.48946405449E+03  0.50179601935E+03  0.00000000000E+00 0. -1.
<mgrwt>
<rscale>  1 0.16688114E+03</rscale>
<asrwt>0</asrwt>
<pdfrwt beam="1">  1       21 0.81482844E-01 0.16688114E+03</pdfrwt>
<pdfrwt beam="2">  1       21 0.32444535E-01 0.16688114E+03</pdfrwt>
<totfact> 0.12277855E+04</totfact>
</mgrwt>
</event>
<event>
 6    1  0.4216855E-002  0.1267675E+03  0.7546771E-02  0.1232333E+00
         21   -1    0    0  504  502  0.00000000000E+00  0.00000000000E+00  0.32188055646E+03  0.32188055646E+03  0.00000000000E+00 0. -1.
         21   -1    0    0  502  503 -0.00000000000E+00 -0.00000000000E+00 -0.38594390882E+02  0.38594390882E+02  0.00000000000E+00 0. -1.
         25    2    1    2    0    0 -0.38697693349E+01  0.20649913620E+02  0.67404822818E+02  0.14357370668E+03  0.12501441943E+03 0.  0.
          5    1    3    3  501    0  0.56943220693E+02 -0.70898730936E+01  0.45506495217E+02  0.73236929143E+02  0.10000000000E+00 0. -1.
         -5    1    3    3    0  501 -0.60812990028E+02  0.27739786714E+02  0.21898327601E+02  0.70336777540E+02  0.10000000000E+00 0. -1.
         21    1    1    2  504  503  0.38697693349E+01 -0.20649913620E+02  0.21588134276E+03  0.21690124066E+03  0.00000000000E+00 0. -1.
<mgrwt>
<rscale>  1 0.12676750E+03</rscale>
<asrwt>0</asrwt>
<pdfrwt beam="1">  1       21 0.49520084E-01 0.12676750E+03</pdfrwt>
<pdfrwt beam="2">  1       21 0.59375988E-02 0.12676750E+03</pdfrwt>
<totfact> 0.78388338E+05</totfact>
</mgrwt>
</event>
<event>
 6    1  0.4216855E-002  0.1261062E+03  0.7546771E-02  0.1233351E+00
         21   -1    0    0  504  502  0.00000000000E+00  0.00000000000E+00  0.14818627211E+02  0.14818627211E+02  0.00000000000E+00 0.  1.
         21   -1    0    0  502  503 -0.00000000000E+00 -0.00000000000E+00 -0.89678047669E+03  0.89678047669E+03  0.00000000000E+00 0.  1.
         25    2    1    2    0    0 -0.16460912407E+02 -0.29025740708E+01 -0.88556622354E+03  0.89450003709E+03  0.12499357390E+03 0.  0.
          5    1    3    3  501    0 -0.70550039560E+02 -0.48159365148E+01 -0.56318853913E+03  0.56761064290E+03  0.10000000000E+00 0. -1.
         -5    1    3    3    0  501  0.54089127153E+02  0.19133624440E+01 -0.32237768441E+03  0.32688939420E+03  0.10000000000E+00 0. -1.
         21    1    1    2  504  503  0.16460912407E+02  0.29025740708E+01  0.36043740541E+01  0.17099066812E+02  0.00000000000E+00 0.  1.
<mgrwt>
<rscale>  1 0.12610623E+03</rscale>
<asrwt>0</asrwt>
<pdfrwt beam="1">  1       21 0.22797883E-02 0.12610623E+03</pdfrwt>
<pdfrwt beam="2">  1       21 0.13796626E+00 0.12610623E+03</pdfrwt>
<totfact> 0.37648658E+05</totfact>
</mgrwt>
</event>
<event>
 6    1  0.4216855E-002  0.2029296E+03  0.7546771E-02  0.1147291E+00
         21   -1    0    0  503  502  0.00000000000E+00  0.00000000000E+00  0.14703931258E+03  0.14703931258E+03  0.00000000000E+00 0.  1.
         21   -1    0    0  504  503 -0.00000000000E+00 -0.00000000000E+00 -0.24894074687E+03  0.24894074687E+03  0.00000000000E+00 0. -1.
         25    2    1    2    0    0 -0.11343115045E+03 -0.11264492302E+03  0.61583239759E+01  0.20302302814E+03  0.12499968170E+03 0.  0.
          5    1    3    3  501    0 -0.68679133244E+01  0.13559278829E+02  0.32387733607E+02  0.35777053596E+02  0.10000000000E+00 0. -1.
         -5    1    3    3    0  501 -0.10656323712E+03 -0.12620420185E+03 -0.26229409631E+02  0.16724597454E+03  0.10000000000E+00 0. -1.
         21    1    1    2  504  502  0.11343115045E+03  0.11264492302E+03 -0.10805975827E+03  0.19295703131E+03  0.00000000000E+00 0. -1.
<mgrwt>
<rscale>  1 0.20292961E+03</rscale>
<asrwt>0</asrwt>
<pdfrwt beam="1">  1       21 0.22621433E-01 0.20292961E+03</pdfrwt>
<pdfrwt beam="2">  1       21 0.38298576E-01 0.20292961E+03</pdfrwt>
<totfact> 0.11993853E+05</totfact>
</mgrwt>
</event>
<event>
 6    1  0.4216855E-002  0.1270640E+03  0.7546771E-02  0.1231878E+00
         21   -1    0    0  504  502  0.00000000000E+00  0.00000000000E+00  0.34064176427E+03  0.34064176427E+03  0.00000000000E+00 0. -1.
         21   -1    0    0  502  503 -0.00000000000E+00 -0.00000000000E+00 -0.16519349004E+02  0.16519349004E+02  0.00000000000E+00 0. -1.
         25    2    1    2    0    0  0.22715330326E+02 -0.19353417064E+01  0.26849827604E+03  0.29704641753E+03  0.12500207260E+03 0.  0.
          5    1    3    3  501    0 -0.13645405762E+02 -0.51312144523E+02  0.61961070940E+02  0.81598514606E+02  0.10000000000E+00 0. -1.
         -5    1    3    3    0  501  0.36360736087E+02  0.49376802816E+02  0.20653720510E+03  0.21544790292E+03  0.10000000000E+00 0. -1.
         21    1    1    2  504  503 -0.22715330326E+02  0.19353417064E+01  0.55624139231E+02  0.60114695745E+02  0.00000000000E+00 0. -1.
<mgrwt>
<rscale>  1 0.12706396E+03</rscale>
<asrwt>0</asrwt>
<pdfrwt beam="1">  1       21 0.52406420E-01 0.12706396E+03</pdfrwt>
<pdfrwt beam="2">  1       21 0.25414386E-02 0.12706396E+03</pdfrwt>
<totfact> 0.28501275E+06</totfact>
</mgrwt>
</event>
<event>
 6    1  0.4216855E-002  0.1288798E+03  0.7546771E-02  0.1229127E+00
         21   -1    0    0  504  502  0.00000000000E+00  0.00000000000E+00  0.21158141988E+02  0.21158141988E+02  0.00000000000E+00 0. -1.
         21   -1    0    0  502  503 -0.00000000000E+00 -0.00000000000E+00 -0.37121759949E+03  0.37121759949E+03  0.00000000000E+00 0. -1.
         25    2    1    2    0    0  0.30464430348E+02 -0.76120835060E+01 -0.33203278120E+03  0.35616819544E+03  0.12499596121E+03 0.  0.
          5    1    3    3  501    0 -0.29049062957E+02  0.38216700874E+02 -0.18412957507E+03  0.19028419456E+03  0.10000000000E+00 0. -1.
         -5    1    3    3    0  501  0.59513493305E+02 -0.45828784380E+02 -0.14790320613E+03  0.16588400088E+03  0.10000000000E+00 0. -1.
         21    1    1    2  504  503 -0.30464430348E+02  0.76120835060E+01 -0.18026676301E+02  0.36207546039E+02  0.00000000000E+00 0. -1.
<mgrwt>
<rscale>  1 0.12887985E+03</rscale>
<asrwt>0</asrwt>
<pdfrwt beam="1">  1       21 0.32550992E-02 0.12887985E+03</pdfrwt>
<pdfrwt beam="2">  1       21 0.57110393E-01 0.12887985E+03</pdfrwt>
<totfact> 0.15886687E+06</totfact>
</mgrwt>
</event>
<event>
 6    1  0.4216855E-002  0.1278192E+03  0.7546771E-02  0.1230728E+00
         21   -1    0    0  504  502  0.00000000000E+00  0.00000000000E+00  0.24524027135E+02  0.24524027135E+02  0.00000000000E+00 0.  1.
         21   -1    0    0  502  503 -0.00000000000E+00 -0.00000000000E+00 -0.10744697570E+04  0.10744697570E+04  0.00000000000E+00 0.  1.
         25    2    1    2    0    0  0.25145165744E+02  0.90084204378E+01 -0.10620179848E+04  0.10696821765E+04  0.12499731142E+03 0.  0.
          5    1    3    3  501    0  0.29221045583E+02 -0.55613634824E+02 -0.55614582104E+03  0.55968288356E+03  0.10000000000E+00 0.  1.
         -5    1    3    3    0  501 -0.40758798396E+01  0.64622055262E+02 -0.50587216371E+03  0.50999929298E+03  0.10000000000E+00 0.  1.
         21    1    1    2  504  503 -0.25145165744E+02 -0.90084204378E+01  0.12072254922E+02  0.29311607564E+02  0.00000000000E+00 0.  1.
<mgrwt>
<rscale>  1 0.12781924E+03</rscale>
<asrwt>0</asrwt>
<pdfrwt beam="1">  1       21 0.37729276E-02 0.12781924E+03</pdfrwt>
<pdfrwt beam="2">  1       21 0.16530303E+00 0.12781924E+03</pdfrwt>
<totfact> 0.10304336E+05</totfact>
</mgrwt>
</event>
<event>
 6    1  0.4216855E-002  0.1323815E+03  0.7546771E-02  0.1223964E+00
         21   -1    0    0  504  502  0.00000000000E+00  0.00000000000E+00  0.30964376657E+03  0.30964376657E+03  0.00000000000E+00 0. -1.
         21   -1    0    0  502  503 -0.00000000000E+00 -0.00000000000E+00 -0.43157776370E+02  0.43157776370E+02  0.00000000000E+00 0. -1.
         25    2    1    2    0    0  0.92460126194E+01  0.42443404769E+02  0.66487404313E+02  0.14813995467E+03  0.12505174880E+03 0.  0.
          5    1    3    3  501    0 -0.50997276863E+02  0.12229236357E+02 -0.14243969476E+01  0.52462514007E+02  0.10000000000E+00 0.  1.
         -5    1    3    3    0  501  0.60243289483E+02  0.30214168412E+02  0.67911801261E+02  0.95677440659E+02  0.10000000000E+00 0.  1.
         21    1    1    2  504  503 -0.92460126194E+01 -0.42443404769E+02  0.19999858589E+03  0.20466158827E+03  0.00000000000E+00 0. -1.
<mgrwt>
<rscale>  1 0.13238154E+03</rscale>
<asrwt>0</asrwt>
<pdfrwt beam="1">  1       21 0.47637501E-01 0.13238154E+03</pdfrwt>
<pdfrwt beam="2">  1       21 0.66396581E-02 0.13238154E+03</pdfrwt>
<totfact> 0.70194806E+05</totfact>
</mgrwt>
</event>
<event>
 6    1  0.4216855E-002  0.1467318E+03  0.7546771E-02  0.1204547E+00
         21   -1    0    0  504  502  0.00000000000E+00  0.00000000000E+00  0.31445146011E+03  0.31445146011E+03  0.00000000000E+00 0. -1.
         21   -1    0    0  502  503 -0.00000000000E+00 -0.00000000000E+00 -0.19820150491E+03  0.19820150491E+03  0.00000000000E+00 0. -1.
         25    2    1    2    0    0  0.60958866648E+02  0.46874243216E+02 -0.16516022646E+03  0.22092557782E+03  0.12496812566E+03 0.  0.
          5    1    3    3  501    0  0.30935759608E+02  0.14534997067E+02 -0.17279453702E+03  0.17614269609E+03  0.10000000000E+00 0.  1.
         -5    1    3    3    0  501  0.30023107040E+02  0.32339246149E+02  0.76343105649E+01  0.44782881725E+02  0.10000000000E+00 0.  1.
         21    1    1    2  504  503 -0.60958866648E+02 -0.46874243216E+02  0.28141018166E+03  0.29172738720E+03  0.00000000000E+00 0. -1.
<mgrwt>
<rscale>  1 0.14673176E+03</rscale>
<asrwt>0</asrwt>
<pdfrwt beam="1">  1       21 0.48377148E-01 0.14673176E+03</pdfrwt>
<pdfrwt beam="2">  1       21 0.30492539E-01 0.14673176E+03</pdfrwt>
<totfact> 0.43132032E+04</totfact>
</mgrwt>
</event>
<event>
 6    1  0.4216855E-002  0.1279787E+03  0.7546771E-02  0.1230486E+00
         21   -1    0    0  503  502  0.00000000000E+00  0.00000000000E+00  0.11740176109E+02  0.11740176109E+02  0.00000000000E+00 0.  1.
         21   -1    0    0  504  503 -0.00000000000E+00 -0.00000000000E+00 -0.54039884404E+03  0.54039884404E+03  0.00000000000E+00 0.  1.
         25    2    1    2    0    0 -0.16695812820E+02  0.21797462892E+02 -0.47398021247E+03  0.49095394806E+03  0.12499863101E+03 0.  0.
          5    1    3    3  501    0  0.12549560921E+02  0.69333346028E+02 -0.22405916565E+03  0.23487682743E+03  0.10000000000E+00 0.  1.
         -5    1    3    3    0  501 -0.29245373741E+02 -0.47535883137E+02 -0.24992104682E+03  0.25607712064E+03  0.10000000000E+00 0.  1.
         21    1    1    2  504  502  0.16695812820E+02 -0.21797462892E+02 -0.54678455467E+02  0.61185072088E+02  0.00000000000E+00 0.  1.
<mgrwt>
<rscale>  1 0.12797866E+03</rscale>
<asrwt>0</asrwt>
<pdfrwt beam="1">  1       21 0.18061813E-02 0.12797866E+03</pdfrwt>
<pdfrwt beam="2">  1       21 0.83138268E-01 0.12797866E+03</pdfrwt>
<totfact> 0.18284060E+06</totfact>
</mgrwt>
</event>
<event>
 6    1  0.4216855E-002  0.1813071E+03  0.7546771E-02  0.1166544E+00
         21   -1    0    0  503  502  0.00000000000E+00  0.00000000000E+00  0.43712852753E+03  0.43712852753E+03  0.00000000000E+00 0. -1.
         21   -1    0    0  504  503 -0.00000000000E+00 -0.00000000000E+00 -0.56343740693E+02  0.56343740693E+02  0.00000000000E+00 0.  1.
         25    2    1    2    0    0 -0.13067472170E+03 -0.13100544912E+02  0.19896915221E+03  0.26918577250E+03  0.12499899767E+03 0.  0.
          5    1    3    3  501    0 -0.41425301903E+02 -0.32841246312E+01 -0.91265990642E+01  0.42545809698E+02  0.10000000000E+00 0. -1.
         -5    1    3    3    0  501 -0.89249419795E+02 -0.98164202806E+01  0.20809575128E+03  0.22663996281E+03  0.10000000000E+00 0. -1.
         21    1    1    2  504  502  0.13067472170E+03  0.13100544912E+02  0.18181563462E+03  0.22428649572E+03  0.00000000000E+00 0. -1.
<mgrwt>
<rscale>  1 0.18130708E+03</rscale>
<asrwt>0</asrwt>
<pdfrwt beam="1">  1       21 0.67250540E-01 0.18130708E+03</pdfrwt>
<pdfrwt beam="2">  1       21 0.86682681E-02 0.18130708E+03</pdfrwt>
<totfact> 0.21178913E+05</totfact>
</mgrwt>
</event>
<event>
 6    1  0.4216855E-002  0.1303885E+03  0.7546771E-02  0.1226880E+00
         21   -1    0    0  503  502  0.00000000000E+00  0.00000000000E+00  0.21178072292E+02  0.21178072292E+02  0.00000000000E+00 0.  1.
         21   -1    0    0  504  503 -0.00000000000E+00 -0.00000000000E+00 -0.42027018260E+03  0.42027018260E+03  0.00000000000E+00 0.  1.
         25    2    1    2    0    0 -0.29769098203E+02  0.22613368185E+02 -0.37488056245E+03  0.39690880408E+03  0.12491436680E+03 0.  0.
          5    1    3    3  501    0 -0.53068469833E+02  0.62996488068E+02 -0.21042817910E+03  0.22597532733E+03  0.10000000000E+00 0. -1.
         -5    1    3    3    0  501  0.23299371630E+02 -0.40383119884E+02 -0.16445238334E+03  0.17093347676E+03  0.10000000000E+00 0. -1.
         21    1    1    2  504  502  0.29769098203E+02 -0.22613368185E+02 -0.24211547866E+02  0.44539450811E+02  0.00000000000E+00 0.  1.
<mgrwt>
<rscale>  1 0.13038851E+03</rscale>
<asrwt>0</asrwt>
<pdfrwt beam="1">  1       21 0.32581652E-02 0.13038851E+03</pdfrwt>
<pdfrwt beam="2">  1       21 0.64656947E-01 0.13038851E+03</pdfrwt>
<totfact> 0.12181086E+06</totfact>
</mgrwt>
</event>
<event>
 6    1  0.4216855E-002  0.1262226E+03  0.7546771E-02  0.1233171E+00
         21   -1    0    0  504  502  0.00000000000E+00  0.00000000000E+00  0.25256326891E+03  0.25256326891E+03  0.00000000000E+00 0.  1.
         21   -1    0    0  502  503 -0.00000000000E+00 -0.00000000000E+00 -0.46106132742E+02  0.46106132742E+02  0.00000000000E+00 0.  1.
         25    2    1    2    0    0 -0.13830054092E+01 -0.17485335271E+02  0.41628335942E+02  0.13290998853E+03  0.12499798816E+03 0.  0.
          5    1    3    3  501    0 -0.17357226076E+02 -0.48361848358E+01 -0.42598969885E+02  0.46253045479E+02  0.10000000000E+00 0.  1.
         -5    1    3    3    0  501  0.15974220666E+02 -0.12649150435E+02  0.84227305827E+02  0.86656943054E+02  0.10000000000E+00 0.  1.
         21    1    1    2  504  503  0.13830054092E+01  0.17485335271E+02  0.16482880023E+03  0.16575941312E+03  0.00000000000E+00 0.  1.
<mgrwt>
<rscale>  1 0.12622261E+03</rscale>
<asrwt>0</asrwt>
<pdfrwt beam="1">  1       21 0.38855887E-01 0.12622261E+03</pdfrwt>
<pdfrwt beam="2">  1       21 0.70932513E-02 0.12622261E+03</pdfrwt>
<totfact> 0.94607381E+05</totfact>
</mgrwt>
</event>
<event>
 6    1  0.4216855E-002  0.1458141E+03  0.7546771E-02  0.1205713E+00
         21   -1    0    0  503  502  0.00000000000E+00  0.00000000000E+00  0.28686829510E+02  0.28686829510E+02  0.00000000000E+00 0.  1.
         21   -1    0    0  504  503 -0.00000000000E+00 -0.00000000000E+00 -0.63742477425E+03  0.63742477425E+03  0.00000000000E+00 0.  1.
         25    2    1    2    0    0 -0.72102362810E+02 -0.20908788015E+02 -0.55487681184E+03  0.57371598819E+03  0.12500332257E+03 0.  0.
          5    1    3    3  501    0 -0.19014811247E+02  0.72993238316E+01 -0.55514613522E+01  0.21110942620E+02  0.10000000000E+00 0. -1.
         -5    1    3    3    0  501 -0.53087551562E+02 -0.28208111846E+02 -0.54932535048E+03  0.55260504557E+03  0.10000000000E+00 0. -1.
         21    1    1    2  504  502  0.72102362810E+02  0.20908788015E+02 -0.53861132906E+02  0.92395615572E+02  0.00000000000E+00 0.  1.
<mgrwt>
<rscale>  1 0.14581412E+03</rscale>
<asrwt>0</asrwt>
<pdfrwt beam="1">  1       21 0.44133588E-02 0.14581412E+03</pdfrwt>
<pdfrwt beam="2">  1       21 0.98065341E-01 0.14581412E+03</pdfrwt>
<totfact> 0.28921716E+05</totfact>
</mgrwt>
</event>
<event>
 6    1  0.4216855E-002  0.1277554E+03  0.7546771E-02  0.1230825E+00
         21   -1    0    0  503  502  0.00000000000E+00  0.00000000000E+00  0.31885061452E+02  0.31885061452E+02  0.00000000000E+00 0.  1.
         21   -1    0    0  504  503 -0.00000000000E+00 -0.00000000000E+00 -0.47431593740E+03  0.47431593740E+03  0.00000000000E+00 0.  1.
         25    2    1    2    0    0 -0.25636452065E+02 -0.59761731483E+01 -0.45809042581E+03  0.47557153882E+03  0.12501403119E+03 0.  0.
          5    1    3    3  501    0 -0.62338006924E+02  0.24872088108E+01 -0.40882380223E+03  0.41355667639E+03  0.10000000000E+00 0. -1.
         -5    1    3    3    0  501  0.36701554859E+02 -0.84633819591E+01 -0.49266623580E+02  0.62014862430E+02  0.10000000000E+00 0. -1.
         21    1    1    2  504  502  0.25636452065E+02  0.59761731483E+01  0.15659549863E+02  0.30629460032E+02  0.00000000000E+00 0.  1.
<mgrwt>
<rscale>  1 0.12775543E+03</rscale>
<asrwt>0</asrwt>
<pdfrwt beam="1">  1       21 0.49053940E-02 0.12775543E+03</pdfrwt>
<pdfrwt beam="2">  1       21 0.72971684E-01 0.12775543E+03</pdfrwt>
<totfact> 0.47455641E+05</totfact>
</mgrwt>
</event>
<event>
 6    1  0.4216855E-002  0.1275137E+03  0.7546771E-02  0.1231192E+00
         21   -1    0    0  504  502  0.00000000000E+00  0.00000000000E+00  0.89230853520E+02  0.89230853520E+02  0.00000000000E+00 0.  1.
         21   -1    0    0  502  503 -0.00000000000E+00 -0.00000000000E+00 -0.68078808315E+02  0.68078808315E+02  0.00000000000E+00 0.  1.
         25    2    1    2    0    0 -0.23694496671E+02  0.87699569762E+01  0.55900815378E+01  0.12763617146E+03  0.12498560691E+03 0.  0.
          5    1    3    3  501    0 -0.27923426419E+02 -0.12430794585E+02  0.60961012324E+02  0.68194555652E+02  0.10000000000E+00 0. -1.
         -5    1    3    3    0  501  0.42289297483E+01  0.21200751561E+02 -0.55370930787E+02  0.59441615807E+02  0.10000000000E+00 0. -1.
         21    1    1    2  504  503  0.23694496671E+02 -0.87699569762E+01  0.15561963667E+02  0.29673490375E+02  0.00000000000E+00 0. -1.
<mgrwt>
<rscale>  1 0.12751370E+03</rscale>
<asrwt>0</asrwt>
<pdfrwt beam="1">  1       21 0.13727824E-01 0.12751370E+03</pdfrwt>
<pdfrwt beam="2">  1       21 0.10473663E-01 0.12751370E+03</pdfrwt>
<totfact> 0.34040184E+06</totfact>
</mgrwt>
</event>
<event>
 6    1  0.4216855E-002  0.1331386E+03  0.7546771E-02  0.1222872E+00
         21   -1    0    0  504  502  0.00000000000E+00  0.00000000000E+00  0.73818755566E+02  0.73818755566E+02  0.00000000000E+00 0.  1.
         21   -1    0    0  502  503 -0.00000000000E+00 -0.00000000000E+00 -0.10966501166E+03  0.10966501166E+03  0.00000000000E+00 0.  1.
         25    2    1    2    0    0 -0.44122783508E+02 -0.12435069804E+02 -0.34881172388E+02  0.13763202384E+03  0.12499770723E+03 0.  0.
          5    1    3    3  501    0  0.39376487974E+02 -0.20179132974E+01 -0.36126335718E+02  0.53476180788E+02  0.10000000000E+00 0. -1.
         -5    1    3    3    0  501 -0.83499271482E+02 -0.10417156506E+02  0.12451633301E+01  0.84155843050E+02  0.10000000000E+00 0. -1.
         21    1    1    2  504  503  0.44122783508E+02  0.12435069804E+02 -0.96508371078E+00  0.45851743392E+02  0.00000000000E+00 0. -1.
<mgrwt>
<rscale>  1 0.13313857E+03</rscale>
<asrwt>0</asrwt>
<pdfrwt beam="1">  1       21 0.11356732E-01 0.13313857E+03</pdfrwt>
<pdfrwt beam="2">  1       21 0.16871540E-01 0.13313857E+03</pdfrwt>
<totfact> 0.20374899E+06</totfact>
</mgrwt>
</event>
<event>
 6    1  0.4216855E-002  0.1296153E+03  0.7546771E-02  0.1228028E+00
         21   -1    0    0  503  502  0.00000000000E+00  0.00000000000E+00  0.13546685756E+02  0.13546685756E+02  0.00000000000E+00 0.  1.
         21   -1    0    0  504  503 -0.00000000000E+00 -0.00000000000E+00 -0.52279638011E+03  0.52279638011E+03  0.00000000000E+00 0.  1.
         25    2    1    2    0    0 -0.32563968768E+02 -0.10715625270E+02 -0.44534785709E+03  0.46382629889E+03  0.12499954016E+03 0.  0.
          5    1    3    3  501    0 -0.39112515797E+01 -0.26855180779E+02 -0.42344589057E+03  0.42431466020E+03  0.10000000000E+00 0. -1.
         -5    1    3    3    0  501 -0.28652717189E+02  0.16139555509E+02 -0.21901966524E+02  0.39511638690E+02  0.10000000000E+00 0. -1.
         21    1    1    2  504  502  0.32563968768E+02  0.10715625270E+02 -0.63901837264E+02  0.72516766975E+02  0.00000000000E+00 0.  1.
<mgrwt>
<rscale>  1 0.12961528E+03</rscale>
<asrwt>0</asrwt>
<pdfrwt beam="1">  1       21 0.20841053E-02 0.12961528E+03</pdfrwt>
<pdfrwt beam="2">  1       21 0.80430220E-01 0.12961528E+03</pdfrwt>
<totfact> 0.15640073E+06</totfact>
</mgrwt>
</event>
<event>
 6    1  0.4216855E-002  0.1353342E+03  0.7546771E-02  0.1219749E+00
         21   -1    0    0  503  502  0.00000000000E+00  0.00000000000E+00  0.25121613420E+03  0.25121613420E+03  0.00000000000E+00 0.  1.
         21   -1    0    0  504  503 -0.00000000000E+00 -0.00000000000E+00 -0.67393065034E+02  0.67393065034E+02  0.00000000000E+00 0.  1.
         25    2    1    2    0    0  0.51906381280E+02  0.25132416571E+00  0.83185598528E+01  0.13558961457E+03  0.12498403722E+03 0.  0.
          5    1    3    3  501    0  0.32842036816E+02 -0.42560611642E+02  0.49593214436E+02  0.73140289606E+02  0.10000000000E+00 0.  1.
         -5    1    3    3    0  501  0.19064344464E+02  0.42811935807E+02 -0.41274654583E+02  0.62449324963E+02  0.10000000000E+00 0.  1.
         21    1    1    2  504  502 -0.51906381280E+02 -0.25132416571E+00  0.17550450932E+03  0.18301958467E+03  0.00000000000E+00 0.  1.
<mgrwt>
<rscale>  1 0.13533420E+03</rscale>
<asrwt>0</asrwt>
<pdfrwt beam="1">  1       21 0.38648636E-01 0.13533420E+03</pdfrwt>
<pdfrwt beam="2">  1       21 0.10368164E-01 0.13533420E+03</pdfrwt>
<totfact> 0.49527484E+05</totfact>
</mgrwt>
</event>
<event>
 6    1  0.4216855E-002  0.1260053E+03  0.7546771E-02  0.1233507E+00
         21   -1    0    0  503  502  0.00000000000E+00  0.00000000000E+00  0.18661256034E+02  0.18661256034E+02  0.00000000000E+00 0.  1.
         21   -1    0    0  504  503 -0.00000000000E+00 -0.00000000000E+00 -0.54473263475E+03  0.54473263475E+03  0.00000000000E+00 0.  1.
         25    2    1    2    0    0  0.14235878309E+02  0.71727154905E+01 -0.53174728558E+03  0.54647277979E+03  0.12499286080E+03 0.  0.
          5    1    3    3  501    0  0.15282439808E+02 -0.34783200366E+01 -0.10941713296E+01  0.15711743623E+02  0.10000000000E+00 0.  1.
         -5    1    3    3    0  501 -0.10465614990E+01  0.10651035527E+02 -0.53065311425E+03  0.53076103617E+03  0.10000000000E+00 0.  1.
         21    1    1    2  504  502 -0.14235878309E+02 -0.71727154905E+01  0.56759068606E+01  0.16921110999E+02  0.00000000000E+00 0.  1.
<mgrwt>
<rscale>  1 0.12600525E+03</rscale>
<asrwt>0</asrwt>
<pdfrwt beam="1">  1       21 0.28709620E-02 0.12600525E+03</pdfrwt>
<pdfrwt beam="2">  1       21 0.83805033E-01 0.12600525E+03</pdfrwt>
<totfact> 0.84709551E+05</totfact>
</mgrwt>
</event>
<event>
 6    1  0.4216855E-002  0.2077879E+03  0.7546771E-02  0.1143330E+00
         21   -1    0    0  503  502  0.00000000000E+00  0.00000000000E+00  0.30266419231E+03  0.30266419231E+03  0.00000000000E+00 0.  1.
         21   -1    0    0  504  503 -0.00000000000E+00 -0.00000000000E+00 -0.30108974773E+03  0.30108974773E+03  0.00000000000E+00 0.  1.
         25    2    1    2    0    0 -0.84152193948E+02 -0.14306837706E+03 -0.23568262418E+03  0.31420071706E+03  0.12500255599E+03 0.  0.
          5    1    3    3  501    0 -0.94367454200E+02 -0.45611312764E+02 -0.15580233608E+03  0.18777642608E+03  0.10000000000E+00 0. -1.
         -5    1    3    3    0  501  0.10215260252E+02 -0.97457064297E+02 -0.79880288096E+02  0.12642429098E+03  0.10000000000E+00 0. -1.
         21    1    1    2  504  502  0.84152193948E+02  0.14306837706E+03  0.23725706876E+03  0.28955322298E+03  0.00000000000E+00 0.  1.
<mgrwt>
<rscale>  1 0.20778785E+03</rscale>
<asrwt>0</asrwt>
<pdfrwt beam="1">  1       21 0.46563722E-01 0.20778785E+03</pdfrwt>
<pdfrwt beam="2">  1       21 0.46321499E-01 0.20778785E+03</pdfrwt>
<totfact> 0.19541663E+04</totfact>
</mgrwt>
</event>
<event>
 6    1  0.4216855E-002  0.1263628E+03  0.7546771E-02  0.1232955E+00
         21   -1    0    0  503  502  0.00000000000E+00  0.00000000000E+00  0.14984300868E+03  0.14984300868E+03  0.00000000000E+00 0. -1.
         21   -1    0    0  504  503 -0.00000000000E+00 -0.00000000000E+00 -0.35966989390E+02  0.35966989390E+02  0.00000000000E+00 0. -1.
         25    2    1    2    0    0  0.15013463984E+02  0.10884534619E+02  0.10836409573E+03  0.16646423637E+03  0.12499475009E+03 0.  0.
          5    1    3    3  501    0  0.27424084961E+02 -0.46239208221E+02  0.14154643117E+02  0.55592344209E+02  0.10000000000E+00 0. -1.
         -5    1    3    3    0  501 -0.12410620977E+02  0.57123742839E+02  0.94209452613E+02  0.11087189216E+03  0.10000000000E+00 0. -1.
         21    1    1    2  504  502 -0.15013463984E+02 -0.10884534619E+02  0.55119235642E+01  0.19345761707E+02  0.00000000000E+00 0. -1.
<mgrwt>
<rscale>  1 0.12636283E+03</rscale>
<asrwt>0</asrwt>
<pdfrwt beam="1">  1       21 0.23052770E-01 0.12636283E+03</pdfrwt>
<pdfrwt beam="2">  1       21 0.55333831E-02 0.12636283E+03</pdfrwt>
<totfact> 0.39483021E+06</totfact>
</mgrwt>
</event>
<event>
 6    1  0.4216855E-002  0.1319156E+03  0.7546771E-02  0.1224641E+00
         21   -1    0    0  503  502  0.00000000000E+00  0.00000000000E+00  0.20001481372E+03  0.20001481372E+03  0.00000000000E+00 0.  1.
         21   -1    0    0  504  503 -0.00000000000E+00 -0.00000000000E+00 -0.62187619982E+02  0.62187619982E+02  0.00000000000E+00 0.  1.
         25    2    1    2    0    0  0.25037982731E+02  0.33887851957E+02  0.16561429562E+03  0.21173055915E+03  0.12500579057E+03 0.  0.
          5    1    3    3  501    0  0.22029529114E+02 -0.46207070688E+02  0.55079393050E+02  0.75194036155E+02  0.10000000000E+00 0.  1.
         -5    1    3    3    0  501  0.30084536169E+01  0.80094922645E+02  0.11053490257E+03  0.13653652300E+03  0.10000000000E+00 0.  1.
         21    1    1    2  504  502 -0.25037982731E+02 -0.33887851957E+02 -0.27787101880E+02  0.50471874548E+02  0.00000000000E+00 0.  1.
<mgrwt>
<rscale>  1 0.13191564E+03</rscale>
<asrwt>0</asrwt>
<pdfrwt beam="1">  1       21 0.30771510E-01 0.13191564E+03</pdfrwt>
<pdfrwt beam="2">  1       21 0.95673262E-02 0.13191564E+03</pdfrwt>
<totfact> 0.89191029E+05</totfact>
</mgrwt>
</event>
<event>
 6    1  0.4216855E-002  0.1349415E+03  0.7546771E-02  0.1220302E+00
         21   -1    0    0  504  502  0.00000000000E+00  0.00000000000E+00  0.93695567622E+03  0.93695567622E+03  0.00000000000E+00 0. -1.
         21   -1    0    0  502  503 -0.00000000000E+00 -0.00000000000E+00 -0.21739639444E+02  0.21739639444E+02  0.00000000000E+00 0.  1.
         25    2    1    2    0    0 -0.50650164534E+02 -0.69636821143E+00  0.19752080156E+03  0.23921468719E+03  0.12507308033E+03 0.  0.
          5    1    3    3  501    0 -0.45859837403E+02 -0.47889332972E+02  0.17412686008E+03  0.18632414310E+03  0.10000000000E+00 0. -1.
         -5    1    3    3    0  501 -0.47903271307E+01  0.47192964760E+02  0.23393941481E+02  0.52890544097E+02  0.10000000000E+00 0. -1.
         21    1    1    2  504  503  0.50650164534E+02  0.69636821143E+00  0.71769523522E+03  0.71948062848E+03  0.00000000000E+00 0. -1.
<mgrwt>
<rscale>  1 0.13494147E+03</rscale>
<asrwt>0</asrwt>
<pdfrwt beam="1">  1       21 0.14414700E+00 0.13494147E+03</pdfrwt>
<pdfrwt beam="2">  1       21 0.33445606E-02 0.13494147E+03</pdfrwt>
<totfact> 0.17937619E+05</totfact>
</mgrwt>
</event>
<event>
 6    1  0.4216855E-002  0.1310697E+03  0.7546771E-02  0.1225877E+00
         21   -1    0    0  504  502  0.00000000000E+00  0.00000000000E+00  0.38736852015E+03  0.38736852015E+03  0.00000000000E+00 0.  1.
         21   -1    0    0  502  503 -0.00000000000E+00 -0.00000000000E+00 -0.22169262356E+02  0.22169262356E+02  0.00000000000E+00 0.  1.
         25    2    1    2    0    0  0.21149740388E+02  0.33234458783E+02  0.19581313244E+03  0.23563119773E+03  0.12500975056E+03 0.  0.
          5    1    3    3  501    0 -0.14816239713E+02 -0.40751335540E+02  0.37965921899E+02  0.57633441102E+02  0.10000000000E+00 0. -1.
         -5    1    3    3    0  501  0.35965980101E+02  0.73985794324E+02  0.15784721055E+03  0.17799775662E+03  0.10000000000E+00 0. -1.
         21    1    1    2  504  503 -0.21149740388E+02 -0.33234458783E+02  0.16938612535E+03  0.17390658478E+03  0.00000000000E+00 0.  1.
<mgrwt>
<rscale>  1 0.13106975E+03</rscale>
<asrwt>0</asrwt>
<pdfrwt beam="1">  1       21 0.59595152E-01 0.13106975E+03</pdfrwt>
<pdfrwt beam="2">  1       21 0.34106560E-02 0.13106975E+03</pdfrwt>
<totfact> 0.13446887E+06</totfact>
</mgrwt>
</event>
<event>
 6    1  0.4216855E-002  0.2085449E+03  0.7546771E-02  0.1142723E+00
         21   -1    0    0  504  502  0.00000000000E+00  0.00000000000E+00  0.89574643214E+03  0.89574643214E+03  0.00000000000E+00 0.  1.
         21   -1    0    0  502  503 -0.00000000000E+00 -0.00000000000E+00 -0.24561789121E+03  0.24561789121E+03  0.00000000000E+00 0.  1.
         25    2    1    2    0    0  0.82445274481E+02 -0.14514969017E+03 -0.19162655392E+03  0.28321672792E+03  0.12500129186E+03 0.  0.
          5    1    3    3  501    0  0.78054045996E+02 -0.16697442144E+02 -0.67465752312E+02  0.10451256578E+03  0.10000000000E+00 0. -1.
         -5    1    3    3    0  501  0.43912284849E+01 -0.12845224803E+03 -0.12416080161E+03  0.17870416214E+03  0.10000000000E+00 0. -1.
         21    1    1    2  504  503 -0.82445274481E+02  0.14514969017E+03  0.84175509484E+03  0.85814759543E+03  0.00000000000E+00 0.  1.
<mgrwt>
<rscale>  1 0.20854491E+03</rscale>
<asrwt>0</asrwt>
<pdfrwt beam="1">  1       21 0.13780714E+00 0.20854491E+03</pdfrwt>
<pdfrwt beam="2">  1       21 0.37787368E-01 0.20854491E+03</pdfrwt>
<totfact> 0.24815618E+03</totfact>
</mgrwt>
</event>
<event>
 6    1  0.4216855E-002  0.2086766E+03  0.7546771E-02  0.1142618E+00
         21   -1    0    0  504  502  0.00000000000E+00  0.00000000000E+00  0.65949362418E+03  0.65949362418E+03  0.00000000000E+00 0.  1.
         21   -1    0    0  502  503 -0.00000000000E+00 -0.00000000000E+00 -0.14956011579E+03  0.14956011579E+03  0.00000000000E+00 0. -1.
         25    2    1    2    0    0 -0.16431308120E+03  0.30333499275E+02 -0.58377800496E+02  0.21668843575E+03  0.12500800279E+03 0.  0.
          5    1    3    3  501    0  0.10979757688E+02 -0.21927290141E+02 -0.14831202218E+02  0.28658954815E+02  0.10000000000E+00 0. -1.
         -5    1    3    3    0  501 -0.17529283889E+03  0.52260789417E+02 -0.43546598277E+02  0.18802948093E+03  0.10000000000E+00 0. -1.
         21    1    1    2  504  503  0.16431308120E+03 -0.30333499275E+02  0.56831130889E+03  0.59236530422E+03  0.00000000000E+00 0.  1.
<mgrwt>
<rscale>  1 0.20867657E+03</rscale>
<asrwt>0</asrwt>
<pdfrwt beam="1">  1       21 0.10146056E+00 0.20867657E+03</pdfrwt>
<pdfrwt beam="2">  1       21 0.23009249E-01 0.20867657E+03</pdfrwt>
<totfact> 0.13917669E+04</totfact>
</mgrwt>
</event>
<event>
 6    1  0.4216855E-002  0.1310771E+03  0.7546771E-02  0.1225866E+00
         21   -1    0    0  503  502  0.00000000000E+00  0.00000000000E+00  0.34932116104E+02  0.34932116104E+02  0.00000000000E+00 0.  1.
         21   -1    0    0  504  503 -0.00000000000E+00 -0.00000000000E+00 -0.20894921830E+03  0.20894921830E+03  0.00000000000E+00 0.  1.
         25    2    1    2    0    0  0.37312794938E+02 -0.12792868741E+02 -0.14012850726E+03  0.19187807467E+03  0.12500117933E+03 0.  0.
          5    1    3    3  501    0  0.46307537245E+02  0.24499922040E+02 -0.64273068264E+01  0.52782141475E+02  0.10000000000E+00 0.  1.
         -5    1    3    3    0  501 -0.89947423064E+01 -0.37292790780E+02 -0.13370120043E+03  0.13909593319E+03  0.10000000000E+00 0.  1.
         21    1    1    2  504  502 -0.37312794938E+02  0.12792868741E+02 -0.33888594940E+02  0.52003259741E+02  0.00000000000E+00 0. -1.
<mgrwt>
<rscale>  1 0.13107707E+03</rscale>
<asrwt>0</asrwt>
<pdfrwt beam="1">  1       21 0.53741717E-02 0.13107707E+03</pdfrwt>
<pdfrwt beam="2">  1       21 0.32146033E-01 0.13107707E+03</pdfrwt>
<totfact> 0.22022481E+06</totfact>
</mgrwt>
</event>
<event>
 6    1  0.4216855E-002  0.1266517E+03  0.7546771E-02  0.1232510E+00
         21   -1    0    0  503  502  0.00000000000E+00  0.00000000000E+00  0.93336091435E+02  0.93336091435E+02  0.00000000000E+00 0.  1.
         21   -1    0    0  504  503 -0.00000000000E+00 -0.00000000000E+00 -0.73842677835E+02  0.73842677835E+02  0.00000000000E+00 0.  1.
         25    2    1    2    0    0  0.19414524226E+02 -0.62454515860E+01 -0.14559475213E+02  0.12748583976E+03  0.12499892642E+03 0.  0.
          5    1    3    3  501    0  0.52159912964E+02 -0.48787270229E+02 -0.18119436232E+02  0.73682957502E+02  0.10000000000E+00 0.  1.
         -5    1    3    3    0  501 -0.32745388739E+02  0.42541818643E+02  0.35599610188E+01  0.53802882261E+02  0.10000000000E+00 0.  1.
         21    1    1    2  504  502 -0.19414524226E+02  0.62454515860E+01  0.34052888813E+02  0.39692929508E+02  0.00000000000E+00 0.  1.
<mgrwt>
<rscale>  1 0.12665173E+03</rscale>
<asrwt>0</asrwt>
<pdfrwt beam="1">  1       21 0.14359399E-01 0.12665173E+03</pdfrwt>
<pdfrwt beam="2">  1       21 0.11360412E-01 0.12665173E+03</pdfrwt>
<totfact> 0.27212644E+06</totfact>
</mgrwt>
</event>
<event>
 6    1  0.4216855E-002  0.1397597E+03  0.7546771E-02  0.1213653E+00
         21   -1    0    0  504  502  0.00000000000E+00  0.00000000000E+00  0.21930657323E+02  0.21930657323E+02  0.00000000000E+00 0.  1.
         21   -1    0    0  502  503 -0.00000000000E+00 -0.00000000000E+00 -0.82054633132E+03  0.82054633132E+03  0.00000000000E+00 0.  1.
         25    2    1    2    0    0  0.30274047040E+02  0.54660919494E+02 -0.75106287661E+03  0.76395563752E+03  0.12501374893E+03 0.  0.
          5    1    3    3  501    0  0.67240616508E+02  0.25536711574E+02 -0.23524099508E+03  0.24599138178E+03  0.10000000000E+00 0.  1.
         -5    1    3    3    0  501 -0.36966569468E+02  0.29124207920E+02 -0.51582188154E+03  0.51796425573E+03  0.10000000000E+00 0.  1.
         21    1    1    2  504  503 -0.30274047040E+02 -0.54660919494E+02 -0.47552797387E+02  0.78521351131E+02  0.00000000000E+00 0.  1.
<mgrwt>
<rscale>  1 0.13975969E+03</rscale>
<asrwt>0</asrwt>
<pdfrwt beam="1">  1       21 0.33739477E-02 0.13975969E+03</pdfrwt>
<pdfrwt beam="2">  1       21 0.12623788E+00 0.13975969E+03</pdfrwt>
<totfact> 0.24655679E+05</totfact>
</mgrwt>
</event>
<event>
 6    1  0.4216855E-002  0.1358493E+03  0.7546771E-02  0.1219026E+00
         21   -1    0    0  504  502  0.00000000000E+00  0.00000000000E+00  0.46140144129E+01  0.46140144129E+01  0.00000000000E+00 0. -1.
         21   -1    0    0  502  503 -0.00000000000E+00 -0.00000000000E+00 -0.22819602041E+04  0.22819602041E+04  0.00000000000E+00 0. -1.
         25    2    1    2    0    0 -0.53018013645E+02  0.58513201381E+01 -0.19663340869E+04  0.19710212502E+04  0.12493950456E+03 0.  0.
          5    1    3    3  501    0 -0.27288483744E+02  0.37129092428E+02 -0.25010083320E+03  0.25431017993E+03  0.10000000000E+00 0.  1.
         -5    1    3    3    0  501 -0.25729529901E+02 -0.31277772290E+02 -0.17162332537E+04  0.17167110703E+04  0.10000000000E+00 0.  1.
         21    1    1    2  504  503  0.53018013645E+02 -0.58513201381E+01 -0.31101210284E+03  0.31555296834E+03  0.00000000000E+00 0. -1.
<mgrwt>
<rscale>  1 0.13584928E+03</rscale>
<asrwt>0</asrwt>
<pdfrwt beam="1">  1       21 0.70984827E-03 0.13584928E+03</pdfrwt>
<pdfrwt beam="2">  1       21 0.35107085E+00 0.13584928E+03</pdfrwt>
<totfact> 0.11798927E+05</totfact>
</mgrwt>
</event>
<event>
 6    1  0.4216855E-002  0.1525909E+03  0.7546771E-02  0.1197325E+00
         21   -1    0    0  503  502  0.00000000000E+00  0.00000000000E+00  0.90680930934E+03  0.90680930934E+03  0.00000000000E+00 0. -1.
         21   -1    0    0  504  503 -0.00000000000E+00 -0.00000000000E+00 -0.79941627519E+02  0.79941627519E+02  0.00000000000E+00 0. -1.
         25    2    1    2    0    0  0.51475652887E+02 -0.70777609234E+02 -0.26653071519E+01  0.15261414196E+03  0.12499903862E+03 0.  0.
          5    1    3    3  501    0  0.17326381375E+02 -0.59553561877E+02  0.56162947718E+02  0.83672677261E+02  0.10000000000E+00 0. -1.
         -5    1    3    3    0  501  0.34149271511E+02 -0.11224047357E+02 -0.58828254870E+02  0.68941464699E+02  0.10000000000E+00 0. -1.
         21    1    1    2  504  502 -0.51475652887E+02  0.70777609234E+02  0.82953298897E+03  0.83413679490E+03  0.00000000000E+00 0. -1.
<mgrwt>
<rscale>  1 0.15259087E+03</rscale>
<asrwt>0</asrwt>
<pdfrwt beam="1">  1       21 0.13950912E+00 0.15259087E+03</pdfrwt>
<pdfrwt beam="2">  1       21 0.12298713E-01 0.15259087E+03</pdfrwt>
<totfact> 0.20846158E+04</totfact>
</mgrwt>
</event>
<event>
 6    1  0.4216855E-002  0.1271469E+03  0.7546771E-02  0.1231752E+00
         21   -1    0    0  504  502  0.00000000000E+00  0.00000000000E+00  0.57168413637E+03  0.57168413637E+03  0.00000000000E+00 0.  1.
         21   -1    0    0  502  503 -0.00000000000E+00 -0.00000000000E+00 -0.14439796459E+02  0.14439796459E+02  0.00000000000E+00 0.  1.
         25    2    1    2    0    0  0.48866473720E+01 -0.22743424677E+02  0.27554388230E+03  0.30346461402E+03  0.12500079281E+03 0.  0.
          5    1    3    3  501    0 -0.29262936333E+02 -0.54811000177E+02  0.74375787952E+02  0.96914049635E+02  0.10000000000E+00 0. -1.
         -5    1    3    3    0  501  0.34149583705E+02  0.32067575500E+02  0.20116809435E+03  0.20655056439E+03  0.10000000000E+00 0. -1.
         21    1    1    2  504  503 -0.48866473720E+01  0.22743424677E+02  0.28170045761E+03  0.28265931880E+03  0.00000000000E+00 0.  1.
<mgrwt>
<rscale>  1 0.12714693E+03</rscale>
<asrwt>0</asrwt>
<pdfrwt beam="1">  1       21 0.87951388E-01 0.12714693E+03</pdfrwt>
<pdfrwt beam="2">  1       21 0.22215076E-02 0.12714693E+03</pdfrwt>
<totfact> 0.11527520E+06</totfact>
</mgrwt>
</event>
<event>
 6    1  0.4216855E-002  0.1279141E+03  0.7546771E-02  0.1230584E+00
         21   -1    0    0  503  502  0.00000000000E+00  0.00000000000E+00  0.51050977557E+03  0.51050977557E+03  0.00000000000E+00 0.  1.
         21   -1    0    0  504  503 -0.00000000000E+00 -0.00000000000E+00 -0.11960951071E+02  0.11960951071E+02  0.00000000000E+00 0.  1.
         25    2    1    2    0    0  0.23549339546E+02  0.13428397072E+02  0.38345327288E+03  0.40422572995E+03  0.12500853981E+03 0.  0.
          5    1    3    3  501    0  0.90694058311E+01 -0.55625007268E+02  0.14555763812E+03  0.15608789694E+03  0.10000000000E+00 0.  1.
         -5    1    3    3    0  501  0.14479933715E+02  0.69053404340E+02  0.23789563476E+03  0.24813783301E+03  0.10000000000E+00 0.  1.
         21    1    1    2  504  502 -0.23549339546E+02 -0.13428397072E+02  0.11509555161E+03  0.11824499669E+03  0.00000000000E+00 0.  1.
<mgrwt>
<rscale>  1 0.12791414E+03</rscale>
<asrwt>0</asrwt>
<pdfrwt beam="1">  1       21 0.78539949E-01 0.12791414E+03</pdfrwt>
<pdfrwt beam="2">  1       21 0.18401467E-02 0.12791414E+03</pdfrwt>
<totfact> 0.20153993E+06</totfact>
</mgrwt>
</event>
<event>
 6    1  0.4216855E-002  0.1261840E+03  0.7546771E-02  0.1233230E+00
         21   -1    0    0  503  502  0.00000000000E+00  0.00000000000E+00  0.15489049655E+03  0.15489049655E+03  0.00000000000E+00 0.  1.
         21   -1    0    0  504  503 -0.00000000000E+00 -0.00000000000E+00 -0.44244048835E+03  0.44244048835E+03  0.00000000000E+00 0. -1.
         25    2    1    2    0    0  0.14566168484E+02 -0.93499671659E+01 -0.43291970223E+03  0.45093444171E+03  0.12499122765E+03 0.  0.
          5    1    3    3  501    0  0.30085609719E+01 -0.65967220353E+02 -0.27368682463E+03  0.28154078493E+03  0.10000000000E+00 0.  1.
         -5    1    3    3    0  501  0.11557607512E+02  0.56617253187E+02 -0.15923287760E+03  0.16939365678E+03  0.10000000000E+00 0.  1.
         21    1    1    2  504  502 -0.14566168484E+02  0.93499671659E+01  0.14536971042E+03  0.14639654319E+03  0.00000000000E+00 0.  1.
<mgrwt>
<rscale>  1 0.12618400E+03</rscale>
<asrwt>0</asrwt>
<pdfrwt beam="1">  1       21 0.23829307E-01 0.12618400E+03</pdfrwt>
<pdfrwt beam="2">  1       21 0.68067767E-01 0.12618400E+03</pdfrwt>
<totfact> 0.33972729E+04</totfact>
</mgrwt>
</event>
<event>
 6    1  0.4216855E-002  0.1337831E+03  0.7546771E-02  0.1221948E+00
         21   -1    0    0  504  502  0.00000000000E+00  0.00000000000E+00  0.37827493211E+02  0.37827493211E+02  0.00000000000E+00 0. -1.
         21   -1    0    0  502  503 -0.00000000000E+00 -0.00000000000E+00 -0.62977068502E+03  0.62977068502E+03  0.00000000000E+00 0. -1.
         25    2    1    2    0    0 -0.46815016035E+02  0.90042004297E+01 -0.60382404251E+03  0.61846696652E+03  0.12500077203E+03 0.  0.
          5    1    3    3  501    0 -0.90142851276E+02  0.53610362257E+01 -0.40730604919E+03  0.41719623926E+03  0.10000000000E+00 0.  1.
         -5    1    3    3    0  501  0.43327835241E+02  0.36431642040E+01 -0.19651799331E+03  0.20127072725E+03  0.10000000000E+00 0.  1.
         21    1    1    2  504  503  0.46815016035E+02 -0.90042004297E+01  0.11880850696E+02  0.49131211719E+02  0.00000000000E+00 0. -1.
<mgrwt>
<rscale>  1 0.13378309E+03</rscale>
<asrwt>0</asrwt>
<pdfrwt beam="1">  1       21 0.58196144E-02 0.13378309E+03</pdfrwt>
<pdfrwt beam="2">  1       21 0.96887796E-01 0.13378309E+03</pdfrwt>
<totfact> 0.18733414E+05</totfact>
</mgrwt>
</event>
<event>
 6    1  0.4216855E-002  0.1292219E+03  0.7546771E-02  0.1228615E+00
         21   -1    0    0  504  502  0.00000000000E+00  0.00000000000E+00  0.73026275291E+01  0.73026275291E+01  0.00000000000E+00 0.  1.
         21   -1    0    0  502  503 -0.00000000000E+00 -0.00000000000E+00 -0.91821977699E+03  0.91821977699E+03  0.00000000000E+00 0.  1.
         25    2    1    2    0    0  0.21888413811E+02 -0.24220566632E+02 -0.77776311547E+03  0.78842486524E+03  0.12503025971E+03 0.  0.
          5    1    3    3  501    0 -0.47571433327E+02 -0.30626846195E+02 -0.26764955809E+03  0.27356414407E+03  0.10000000000E+00 0. -1.
         -5    1    3    3    0  501  0.69459847138E+02  0.64062795629E+01 -0.51011355738E+03  0.51486072117E+03  0.10000000000E+00 0. -1.
         21    1    1    2  504  503 -0.21888413811E+02  0.24220566632E+02 -0.13315403400E+03  0.13709753928E+03  0.00000000000E+00 0.  1.
<mgrwt>
<rscale>  1 0.12922192E+03</rscale>
<asrwt>0</asrwt>
<pdfrwt beam="1">  1       21 0.11234812E-02 0.12922192E+03</pdfrwt>
<pdfrwt beam="2">  1       21 0.14126458E+00 0.12922192E+03</pdfrwt>
<totfact> 0.10997752E+06</totfact>
</mgrwt>
</event>
<event>
 6    1  0.4216855E-002  0.1295663E+03  0.7546771E-02  0.1228101E+00
         21   -1    0    0  504  502  0.00000000000E+00  0.00000000000E+00  0.76488264786E+02  0.76488264786E+02  0.00000000000E+00 0. -1.
         21   -1    0    0  502  503 -0.00000000000E+00 -0.00000000000E+00 -0.47936307991E+03  0.47936307991E+03  0.00000000000E+00 0.  1.
         25    2    1    2    0    0  0.14462772263E+02 -0.30871867260E+02 -0.46623405648E+03  0.48390249179E+03  0.12500072865E+03 0.  0.
          5    1    3    3  501    0 -0.47001378191E+02 -0.92358016260E+01 -0.32313528080E+03  0.32666626591E+03  0.10000000000E+00 0. -1.
         -5    1    3    3    0  501  0.61464150453E+02 -0.21636065634E+02 -0.14309877568E+03  0.15723622588E+03  0.10000000000E+00 0. -1.
         21    1    1    2  504  503 -0.14462772263E+02  0.30871867260E+02  0.63359241358E+02  0.71948852910E+02  0.00000000000E+00 0. -1.
<mgrwt>
<rscale>  1 0.12956630E+03</rscale>
<asrwt>0</asrwt>
<pdfrwt beam="1">  1       21 0.11767425E-01 0.12956630E+03</pdfrwt>
<pdfrwt beam="2">  1       21 0.73748167E-01 0.12956630E+03</pdfrwt>
<totfact> 0.10286093E+05</totfact>
</mgrwt>
</event>
<event>
 6    1  0.4216855E-002  0.1306182E+03  0.7546771E-02  0.1226541E+00
         21   -1    0    0  504  502  0.00000000000E+00  0.00000000000E+00  0.12913915708E+03  0.12913915708E+03  0.00000000000E+00 0. -1.
         21   -1    0    0  502  503 -0.00000000000E+00 -0.00000000000E+00 -0.62890708052E+02  0.62890708052E+02  0.00000000000E+00 0. -1.
         25    2    1    2    0    0  0.25641233112E+02  0.27909503829E+02  0.19847192267E+02  0.13211751358E+03  0.12499885245E+03 0.  0.
          5    1    3    3  501    0  0.66435897114E+02 -0.20481976368E+01 -0.18066215458E+02  0.68879036577E+02  0.10000000000E+00 0.  1.
         -5    1    3    3    0  501 -0.40794664002E+02  0.29957701466E+02  0.37913407725E+02  0.63238477001E+02  0.10000000000E+00 0.  1.
         21    1    1    2  504  503 -0.25641233112E+02 -0.27909503829E+02  0.46401256758E+02  0.59912351549E+02  0.00000000000E+00 0. -1.
<mgrwt>
<rscale>  1 0.13061825E+03</rscale>
<asrwt>0</asrwt>
<pdfrwt beam="1">  1       21 0.19867563E-01 0.13061825E+03</pdfrwt>
<pdfrwt beam="2">  1       21 0.96754936E-02 0.13061825E+03</pdfrwt>
<totfact> 0.19989446E+06</totfact>
</mgrwt>
</event>
<event>
 6    1  0.4216855E-002  0.1267843E+03  0.7546771E-02  0.1232307E+00
         21   -1    0    0  504  502  0.00000000000E+00  0.00000000000E+00  0.28365488996E+02  0.28365488996E+02  0.00000000000E+00 0. -1.
         21   -1    0    0  502  503 -0.00000000000E+00 -0.00000000000E+00 -0.40494103593E+03  0.40494103593E+03  0.00000000000E+00 0. -1.
         25    2    1    2    0    0 -0.15762344137E+02 -0.14054921639E+02 -0.38876940165E+03  0.40892041397E+03  0.12501305926E+03 0.  0.
          5    1    3    3  501    0 -0.30395637464E+02  0.11338253728E+02 -0.37524103222E+03  0.37664080108E+03  0.10000000000E+00 0. -1.
         -5    1    3    3    0  501  0.14633293327E+02 -0.25393175367E+02 -0.13528369428E+02  0.32279612888E+02  0.10000000000E+00 0. -1.
         21    1    1    2  504  503  0.15762344137E+02  0.14054921639E+02  0.12193854714E+02  0.24386110960E+02  0.00000000000E+00 0. -1.
<mgrwt>
<rscale>  1 0.12678429E+03</rscale>
<asrwt>0</asrwt>
<pdfrwt beam="1">  1       21 0.43639216E-02 0.12678429E+03</pdfrwt>
<pdfrwt beam="2">  1       21 0.62298617E-01 0.12678429E+03</pdfrwt>
<totfact> 0.81281373E+05</totfact>
</mgrwt>
</event>
<event>
 6    1  0.4216855E-002  0.1325969E+03  0.7546771E-02  0.1223653E+00
         21   -1    0    0  503  502  0.00000000000E+00  0.00000000000E+00  0.11086789956E+04  0.11086789956E+04  0.00000000000E+00 0.  1.
         21   -1    0    0  504  503 -0.00000000000E+00 -0.00000000000E+00 -0.78226566238E+01  0.78226566238E+01  0.00000000000E+00 0.  1.
         25    2    1    2    0    0 -0.14926662496E+02 -0.41665155766E+02  0.64414681953E+03  0.65765268403E+03  0.12499254876E+03 0.  0.
          5    1    3    3  501    0  0.48658221556E+02 -0.42105837547E+00  0.14914231380E+03  0.15687969780E+03  0.10000000000E+00 0.  1.
         -5    1    3    3    0  501 -0.63584884052E+02 -0.41244097390E+02  0.49500450572E+03  0.50077298623E+03  0.10000000000E+00 0.  1.
         21    1    1    2  504  502  0.14926662496E+02  0.41665155766E+02  0.45670951943E+03  0.45884896818E+03  0.00000000000E+00 0.  1.
<mgrwt>
<rscale>  1 0.13259686E+03</rscale>
<asrwt>0</asrwt>
<pdfrwt beam="1">  1       21 0.17056587E+00 0.13259686E+03</pdfrwt>
<pdfrwt beam="2">  1       21 0.12034865E-02 0.13259686E+03</pdfrwt>
<totfact> 0.60095742E+05</totfact>
</mgrwt>
</event>
<event>
 6    1  0.4216855E-002  0.1268969E+03  0.7546771E-02  0.1232134E+00
         21   -1    0    0  503  502  0.00000000000E+00  0.00000000000E+00  0.24584418980E+03  0.24584418980E+03  0.00000000000E+00 0. -1.
         21   -1    0    0  504  503 -0.00000000000E+00 -0.00000000000E+00 -0.22574962798E+02  0.22574962798E+02  0.00000000000E+00 0. -1.
         25    2    1    2    0    0 -0.21568237252E+02  0.33698552494E+01  0.18450026160E+03  0.22392670986E+03  0.12500512020E+03 0.  0.
          5    1    3    3  501    0  0.39687840164E+02 -0.82858683178E+01  0.14393878398E+03  0.14953984019E+03  0.10000000000E+00 0.  1.
         -5    1    3    3    0  501 -0.61256077417E+02  0.11655723567E+02  0.40561477620E+02  0.74386869669E+02  0.10000000000E+00 0.  1.
         21    1    1    2  504  502  0.21568237252E+02 -0.33698552494E+01  0.38768965399E+02  0.44492442736E+02  0.00000000000E+00 0.  1.
<mgrwt>
<rscale>  1 0.12689691E+03</rscale>
<asrwt>0</asrwt>
<pdfrwt beam="1">  1       21 0.37822181E-01 0.12689691E+03</pdfrwt>
<pdfrwt beam="2">  1       21 0.34730714E-02 0.12689691E+03</pdfrwt>
<totfact> 0.33105343E+06</totfact>
</mgrwt>
</event>
<event>
 6    1  0.4216855E-002  0.1346372E+03  0.7546771E-02  0.1220733E+00
         21   -1    0    0  504  502  0.00000000000E+00  0.00000000000E+00  0.76041250935E+02  0.76041250935E+02  0.00000000000E+00 0. -1.
         21   -1    0    0  502  503 -0.00000000000E+00 -0.00000000000E+00 -0.14660357073E+03  0.14660357073E+03  0.00000000000E+00 0. -1.
         25    2    1    2    0    0  0.21337167540E+02 -0.45450877980E+02 -0.96961374701E+02  0.16591769298E+03  0.12492443970E+03 0.  0.
          5    1    3    3  501    0 -0.91420358183E+01  0.34606577858E+02 -0.65533064750E+02  0.74671176671E+02  0.10000000000E+00 0.  1.
         -5    1    3    3    0  501  0.30479203358E+02 -0.80057455838E+02 -0.31428309951E+02  0.91246516312E+02  0.10000000000E+00 0.  1.
         21    1    1    2  504  503 -0.21337167540E+02  0.45450877980E+02  0.26399054911E+02  0.56727128677E+02  0.00000000000E+00 0. -1.
<mgrwt>
<rscale>  1 0.13463719E+03</rscale>
<asrwt>0</asrwt>
<pdfrwt beam="1">  1       21 0.11698654E-01 0.13463719E+03</pdfrwt>
<pdfrwt beam="2">  1       21 0.22554395E-01 0.13463719E+03</pdfrwt>
<totfact> 0.11313403E+06</totfact>
</mgrwt>
</event>
<event>
 6    1  0.4216855E-002  0.1259697E+03  0.7546771E-02  0.1233562E+00
         21   -1    0    0  503  502  0.00000000000E+00  0.00000000000E+00  0.12261131209E+02  0.12261131209E+02  0.00000000000E+00 0. -1.
         21   -1    0    0  504  503 -0.00000000000E+00 -0.00000000000E+00 -0.44099625339E+03  0.44099625339E+03  0.00000000000E+00 0. -1.
         25    2    1    2    0    0 -0.11084553093E+02  0.10857923593E+02 -0.41008476224E+03  0.42899635107E+03  0.12501038032E+03 0.  0.
          5    1    3    3  501    0 -0.16775182172E+02 -0.41426917626E+02 -0.59122795134E+02  0.74115525670E+02  0.10000000000E+00 0.  1.
         -5    1    3    3    0  501  0.56906290796E+01  0.52284841219E+02 -0.35096196711E+03  0.35488082540E+03  0.10000000000E+00 0.  1.
         21    1    1    2  504  502  0.11084553093E+02 -0.10857923593E+02 -0.18650359939E+02  0.24261033529E+02  0.00000000000E+00 0. -1.
<mgrwt>
<rscale>  1 0.12596967E+03</rscale>
<asrwt>0</asrwt>
<pdfrwt beam="1">  1       21 0.18863280E-02 0.12596967E+03</pdfrwt>
<pdfrwt beam="2">  1       21 0.67845574E-01 0.12596967E+03</pdfrwt>
<totfact> 0.26698079E+06</totfact>
</mgrwt>
</event>
<event>
 6    1  0.4216855E-002  0.1262913E+03  0.7546771E-02  0.1233065E+00
         21   -1    0    0  503  502  0.00000000000E+00  0.00000000000E+00  0.22935947154E+03  0.22935947154E+03  0.00000000000E+00 0. -1.
         21   -1    0    0  504  503 -0.00000000000E+00 -0.00000000000E+00 -0.70248890696E+02  0.70248890696E+02  0.00000000000E+00 0. -1.
         25    2    1    2    0    0 -0.68529801168E+01 -0.16692137836E+02 -0.12631065677E+02  0.12692140861E+03  0.12499563729E+03 0.  0.
          5    1    3    3  501    0 -0.44905383519E+01  0.45368717522E+02  0.27249662413E+02  0.53113459367E+02  0.10000000000E+00 0.  1.
         -5    1    3    3    0  501 -0.23624417649E+01 -0.62060855358E+02 -0.39880728090E+02  0.73807949246E+02  0.10000000000E+00 0.  1.
         21    1    1    2  504  502  0.68529801168E+01  0.16692137836E+02  0.17174164652E+03  0.17268695362E+03  0.00000000000E+00 0. -1.
<mgrwt>
<rscale>  1 0.12629133E+03</rscale>
<asrwt>0</asrwt>
<pdfrwt beam="1">  1       21 0.35286072E-01 0.12629133E+03</pdfrwt>
<pdfrwt beam="2">  1       21 0.10807522E-01 0.12629133E+03</pdfrwt>
<totfact> 0.55164099E+05</totfact>
</mgrwt>
</event>
<event>
 6    1  0.4216855E-002  0.1277002E+03  0.7546771E-02  0.1230909E+00
         21   -1    0    0  504  502  0.00000000000E+00  0.00000000000E+00  0.21095220843E+03  0.21095220843E+03  0.00000000000E+00 0.  1.
         21   -1    0    0  502  503 -0.00000000000E+00 -0.00000000000E+00 -0.24208894352E+03  0.24208894352E+03  0.00000000000E+00 0.  1.
         25    2    1    2    0    0 -0.71348366783E+01  0.25150435589E+02 -0.22430672545E+03  0.25811015009E+03  0.12499556870E+03 0.  0.
          5    1    3    3  501    0 -0.11320263934E+02 -0.15483098771E+02 -0.21546314136E+03  0.21631516361E+03  0.10000000000E+00 0.  1.
         -5    1    3    3    0  501  0.41854272554E+01  0.40633534360E+02 -0.88435840950E+01  0.41794986488E+02  0.10000000000E+00 0.  1.
         21    1    1    2  504  503  0.71348366783E+01 -0.25150435589E+02  0.19316999037E+03  0.19493100185E+03  0.00000000000E+00 0.  1.
<mgrwt>
<rscale>  1 0.12770021E+03</rscale>
<asrwt>0</asrwt>
<pdfrwt beam="1">  1       21 0.32454186E-01 0.12770021E+03</pdfrwt>
<pdfrwt beam="2">  1       21 0.37244453E-01 0.12770021E+03</pdfrwt>
<totfact> 0.65426205E+04</totfact>
</mgrwt>
</event>
<event>
 6    1  0.4216855E-002  0.1332113E+03  0.7546771E-02  0.1222767E+00
         21   -1    0    0  503  502  0.00000000000E+00  0.00000000000E+00  0.23298825679E+03  0.23298825679E+03  0.00000000000E+00 0.  1.
         21   -1    0    0  504  503 -0.00000000000E+00 -0.00000000000E+00 -0.44291203084E+03  0.44291203084E+03  0.00000000000E+00 0. -1.
         25    2    1    2    0    0 -0.46017814316E+02  0.15455433902E+01 -0.43046414126E+03  0.45060474504E+03  0.12500092561E+03 0.  0.
          5    1    3    3  501    0 -0.73474130981E+02 -0.39491872235E+02 -0.28735915664E+03  0.29922124056E+03  0.10000000000E+00 0. -1.
         -5    1    3    3    0  501  0.27456316665E+02  0.41037415625E+02 -0.14310498463E+03  0.15138350449E+03  0.10000000000E+00 0. -1.
         21    1    1    2  504  502  0.46017814316E+02 -0.15455433902E+01  0.22054036721E+03  0.22529554259E+03  0.00000000000E+00 0.  1.
<mgrwt>
<rscale>  1 0.13321133E+03</rscale>
<asrwt>0</asrwt>
<pdfrwt beam="1">  1       21 0.35844348E-01 0.13321133E+03</pdfrwt>
<pdfrwt beam="2">  1       21 0.68140311E-01 0.13321133E+03</pdfrwt>
<totfact> 0.15374233E+04</totfact>
</mgrwt>
</event>
<event>
 6    1  0.4216855E-002  0.1259453E+03  0.7546771E-02  0.1233599E+00
         21   -1    0    0  504  502  0.00000000000E+00  0.00000000000E+00  0.35742906263E+02  0.35742906263E+02  0.00000000000E+00 0. -1.
         21   -1    0    0  502  503 -0.00000000000E+00 -0.00000000000E+00 -0.24229576613E+03  0.24229576613E+03  0.00000000000E+00 0.  1.
         25    2    1    2    0    0 -0.10190513760E+02  0.11517662872E+02 -0.22263305680E+03  0.25578837212E+03  0.12500284078E+03 0.  0.
          5    1    3    3  501    0 -0.48620921991E+02  0.12365927383E+02 -0.20910246626E+03  0.21503665179E+03  0.10000000000E+00 0.  1.
         -5    1    3    3    0  501  0.38430408231E+02 -0.84826451080E+00 -0.13530590535E+02  0.40751720328E+02  0.10000000000E+00 0.  1.
         21    1    1    2  504  503  0.10190513760E+02 -0.11517662872E+02  0.16080196936E+02  0.22250300273E+02  0.00000000000E+00 0. -1.
<mgrwt>
<rscale>  1 0.12594528E+03</rscale>
<asrwt>0</asrwt>
<pdfrwt beam="1">  1       21 0.54989087E-02 0.12594528E+03</pdfrwt>
<pdfrwt beam="2">  1       21 0.37276271E-01 0.12594528E+03</pdfrwt>
<totfact> 0.15830258E+06</totfact>
</mgrwt>
</event>
<event>
 6    1  0.4216855E-002  0.1334786E+03  0.7546771E-02  0.1222384E+00
         21   -1    0    0  504  502  0.00000000000E+00  0.00000000000E+00  0.14164128892E+02  0.14164128892E+02  0.00000000000E+00 0. -1.
         21   -1    0    0  502  503 -0.00000000000E+00 -0.00000000000E+00 -0.68065856012E+03  0.68065856012E+03  0.00000000000E+00 0. -1.
         25    2    1    2    0    0 -0.19170422060E+02  0.42699475046E+02 -0.59186963946E+03  0.60673404163E+03  0.12500310759E+03 0.  0.
          5    1    3    3  501    0  0.25649553692E+02 -0.28239054787E+02 -0.31848125446E+03  0.32075795121E+03  0.10000000000E+00 0.  1.
         -5    1    3    3    0  501 -0.44819975752E+02  0.70938529833E+02 -0.27338838500E+03  0.28597609043E+03  0.10000000000E+00 0.  1.
         21    1    1    2  504  503  0.19170422060E+02 -0.42699475046E+02 -0.74624791769E+02  0.88088647383E+02  0.00000000000E+00 0. -1.
<mgrwt>
<rscale>  1 0.13347856E+03</rscale>
<asrwt>0</asrwt>
<pdfrwt beam="1">  1       21 0.21790969E-02 0.13347856E+03</pdfrwt>
<pdfrwt beam="2">  1       21 0.10471669E+00 0.13347856E+03</pdfrwt>
<totfact> 0.79316645E+05</totfact>
</mgrwt>
</event>
<event>
 6    1  0.4216855E-002  0.1373093E+03  0.7546771E-02  0.1216996E+00
         21   -1    0    0  503  502  0.00000000000E+00  0.00000000000E+00  0.27430288220E+03  0.27430288220E+03  0.00000000000E+00 0. -1.
         21   -1    0    0  504  503 -0.00000000000E+00 -0.00000000000E+00 -0.13507232407E+03  0.13507232407E+03  0.00000000000E+00 0.  1.
         25    2    1    2    0    0 -0.51335413068E+02  0.24444668126E+02 -0.95889894060E+02  0.16747751410E+03  0.12498391702E+03 0.  0.
          5    1    3    3  501    0 -0.42243317816E+02  0.70873566014E+02 -0.33196211659E+02  0.88935699964E+02  0.10000000000E+00 0.  1.
         -5    1    3    3    0  501 -0.90920952522E+01 -0.46428897888E+02 -0.62693682401E+02  0.78541814139E+02  0.10000000000E+00 0.  1.
         21    1    1    2  504  502  0.51335413068E+02 -0.24444668126E+02  0.23512045220E+03  0.24189769217E+03  0.00000000000E+00 0. -1.
<mgrwt>
<rscale>  1 0.13730931E+03</rscale>
<asrwt>0</asrwt>
<pdfrwt beam="1">  1       21 0.42200443E-01 0.13730931E+03</pdfrwt>
<pdfrwt beam="2">  1       21 0.20780358E-01 0.13730931E+03</pdfrwt>
<totfact> 0.11843492E+05</totfact>
</mgrwt>
</event>
<event>
 6    1  0.4216855E-002  0.1274235E+03  0.7546771E-02  0.1231330E+00
         21   -1    0    0  504  502  0.00000000000E+00  0.00000000000E+00  0.13553424293E+03  0.13553424293E+03  0.00000000000E+00 0. -1.
         21   -1    0    0  502  503 -0.00000000000E+00 -0.00000000000E+00 -0.10718810931E+03  0.10718810931E+03  0.00000000000E+00 0.  1.
         25    2    1    2    0    0  0.12417868097E+02 -0.21397660129E+02 -0.67177440607E+02  0.14404704357E+03  0.12499871571E+03 0.  0.
          5    1    3    3  501    0 -0.41306271941E+02 -0.23836902897E+02  0.11204462525E+02  0.48989346004E+02  0.10000000000E+00 0.  1.
         -5    1    3    3    0  501  0.53724140038E+02  0.24392427685E+01 -0.78381903132E+02  0.95057697567E+02  0.10000000000E+00 0.  1.
         21    1    1    2  504  503 -0.12417868097E+02  0.21397660129E+02  0.95523574224E+02  0.98675308662E+02  0.00000000000E+00 0. -1.
<mgrwt>
<rscale>  1 0.12742348E+03</rscale>
<asrwt>0</asrwt>
<pdfrwt beam="1">  1       21 0.20851422E-01 0.12742348E+03</pdfrwt>
<pdfrwt beam="2">  1       21 0.16490478E-01 0.12742348E+03</pdfrwt>
<totfact> 0.70748923E+05</totfact>
</mgrwt>
</event>
<event>
 6    1  0.4216855E-002  0.1810653E+03  0.7546771E-02  0.1166776E+00
         21   -1    0    0  503  502  0.00000000000E+00  0.00000000000E+00  0.24374937694E+03  0.24374937694E+03  0.00000000000E+00 0. -1.
         21   -1    0    0  504  503 -0.00000000000E+00 -0.00000000000E+00 -0.21079105604E+03  0.21079105604E+03  0.00000000000E+00 0.  1.
         25    2    1    2    0    0  0.99956578572E+02 -0.84654530372E+02 -0.14611903203E+03  0.23267018837E+03  0.12500775145E+03 0.  0.
          5    1    3    3  501    0  0.82756614142E+02  0.38052463508E+01 -0.35868141185E+02  0.90275526230E+02  0.10000000000E+00 0.  1.
         -5    1    3    3    0  501  0.17199964430E+02 -0.88459776722E+02 -0.11025089084E+03  0.14239466214E+03  0.10000000000E+00 0.  1.
         21    1    1    2  504  502 -0.99956578572E+02  0.84654530372E+02  0.17907735293E+03  0.22187024461E+03  0.00000000000E+00 0. -1.
<mgrwt>
<rscale>  1 0.18106531E+03</rscale>
<asrwt>0</asrwt>
<pdfrwt beam="1">  1       21 0.37499904E-01 0.18106531E+03</pdfrwt>
<pdfrwt beam="2">  1       21 0.32429393E-01 0.18106531E+03</pdfrwt>
<totfact> 0.63067999E+04</totfact>
</mgrwt>
</event>
<event>
 6    1  0.4216855E-002  0.1749063E+03  0.7546771E-02  0.1172826E+00
         21   -1    0    0  503  502  0.00000000000E+00  0.00000000000E+00  0.14961827700E+04  0.14961827700E+04  0.00000000000E+00 0.  1.
         21   -1    0    0  504  503 -0.00000000000E+00 -0.00000000000E+00 -0.14935531751E+03  0.14935531751E+03  0.00000000000E+00 0. -1.
         25    2    1    2    0    0  0.11011751778E+03 -0.53291824247E+02 -0.94653317418E+02  0.19887548127E+03  0.12500528109E+03 0.  0.
          5    1    3    3  501    0  0.40006392686E+02 -0.62081743156E+02 -0.10404586255E+03  0.12759390974E+03  0.10000000000E+00 0. -1.
         -5    1    3    3    0  501  0.70111125090E+02  0.87899189091E+01  0.93925451348E+01  0.71281571531E+02  0.10000000000E+00 0. -1.
         21    1    1    2  504  502 -0.11011751778E+03  0.53291824247E+02  0.14414807699E+04  0.14466626062E+04  0.00000000000E+00 0.  1.
<mgrwt>
<rscale>  1 0.17490628E+03</rscale>
<asrwt>0</asrwt>
<pdfrwt beam="1">  1       21 0.23018195E+00 0.17490628E+03</pdfrwt>
<pdfrwt beam="2">  1       21 0.22977742E-01 0.17490628E+03</pdfrwt>
<totfact> 0.15840287E+03</totfact>
</mgrwt>
</event>
<event>
 6    1  0.4216855E-002  0.1825920E+03  0.7546771E-02  0.1165318E+00
         21   -1    0    0  503  502  0.00000000000E+00  0.00000000000E+00  0.33264179526E+02  0.33264179526E+02  0.00000000000E+00 0. -1.
         21   -1    0    0  504  503 -0.00000000000E+00 -0.00000000000E+00 -0.90633196805E+03  0.90633196805E+03  0.00000000000E+00 0. -1.
         25    2    1    2    0    0  0.11032906507E+03  0.74450565047E+02 -0.68682616438E+03  0.71068277575E+03  0.12499775376E+03 0.  0.
          5    1    3    3  501    0 -0.23562556523E+02  0.13169741313E+02 -0.20751500783E+03  0.20926329022E+03  0.10000000000E+00 0.  1.
         -5    1    3    3    0  501  0.13389162159E+03  0.61280823734E+02 -0.47931115655E+03  0.50141948554E+03  0.10000000000E+00 0.  1.
         21    1    1    2  504  502 -0.11032906507E+03 -0.74450565047E+02 -0.18624162414E+03  0.22891337182E+03  0.00000000000E+00 0. -1.
<mgrwt>
<rscale>  1 0.18259197E+03</rscale>
<asrwt>0</asrwt>
<pdfrwt beam="1">  1       21 0.51175660E-02 0.18259197E+03</pdfrwt>
<pdfrwt beam="2">  1       21 0.13943569E+00 0.18259197E+03</pdfrwt>
<totfact> 0.93941136E+04</totfact>
</mgrwt>
</event>
<event>
 6    1  0.4216855E-002  0.1268449E+03  0.7546771E-02  0.1232214E+00
         21   -1    0    0  504  502  0.00000000000E+00  0.00000000000E+00  0.13549296225E+03  0.13549296225E+03  0.00000000000E+00 0. -1.
         21   -1    0    0  502  503 -0.00000000000E+00 -0.00000000000E+00 -0.43884190031E+02  0.43884190031E+02  0.00000000000E+00 0. -1.
         25    2    1    2    0    0  0.28579406740E+01 -0.21375052391E+02  0.58074428371E+02  0.13950720236E+03  0.12499823834E+03 0.  0.
          5    1    3    3  501    0  0.79486567767E+01 -0.33330365871E+02 -0.32963367705E+02  0.47546693304E+02  0.10000000000E+00 0. -1.
         -5    1    3    3    0  501 -0.50907161026E+01  0.11955313480E+02  0.91037796076E+02  0.91960509053E+02  0.10000000000E+00 0. -1.
         21    1    1    2  504  503 -0.28579406740E+01  0.21375052391E+02  0.33534343846E+02  0.39869949922E+02  0.00000000000E+00 0. -1.
<mgrwt>
<rscale>  1 0.12684487E+03</rscale>
<asrwt>0</asrwt>
<pdfrwt beam="1">  1       21 0.20845071E-01 0.12684487E+03</pdfrwt>
<pdfrwt beam="2">  1       21 0.67514139E-02 0.12684487E+03</pdfrwt>
<totfact> 0.33992381E+06</totfact>
</mgrwt>
</event>
<event>
 6    1  0.4216855E-002  0.1584257E+03  0.7546771E-02  0.1190486E+00
         21   -1    0    0  504  502  0.00000000000E+00  0.00000000000E+00  0.99801791280E+02  0.99801791280E+02  0.00000000000E+00 0. -1.
         21   -1    0    0  502  503 -0.00000000000E+00 -0.00000000000E+00 -0.22990870416E+03  0.22990870416E+03  0.00000000000E+00 0. -1.
         25    2    1    2    0    0 -0.43855422825E+00 -0.97354769991E+02 -0.16265501508E+03  0.22705805988E+03  0.12498225897E+03 0.  0.
          5    1    3    3  501    0  0.51493395080E+02 -0.52624242312E+02 -0.13374223973E+03  0.15266917601E+03  0.10000000000E+00 0.  1.
         -5    1    3    3    0  501 -0.51931949308E+02 -0.44730527678E+02 -0.28912775348E+02  0.74388883872E+02  0.10000000000E+00 0.  1.
         21    1    1    2  504  503  0.43855422825E+00  0.97354769991E+02  0.32548102196E+02  0.10265243556E+03  0.00000000000E+00 0. -1.
<mgrwt>
<rscale>  1 0.15842572E+03</rscale>
<asrwt>0</asrwt>
<pdfrwt beam="1">  1       21 0.15354122E-01 0.15842572E+03</pdfrwt>
<pdfrwt beam="2">  1       21 0.35370570E-01 0.15842572E+03</pdfrwt>
<totfact> 0.29211896E+05</totfact>
</mgrwt>
</event>
<event>
 6    1  0.4216855E-002  0.1284307E+03  0.7546771E-02  0.1229803E+00
         21   -1    0    0  504  502  0.00000000000E+00  0.00000000000E+00  0.62202536475E+02  0.62202536475E+02  0.00000000000E+00 0. -1.
         21   -1    0    0  502  503 -0.00000000000E+00 -0.00000000000E+00 -0.29916458327E+03  0.29916458327E+03  0.00000000000E+00 0. -1.
         25    2    1    2    0    0  0.29429077505E+02  0.19091479856E+01 -0.28065960706E+03  0.30864907519E+03  0.12499888452E+03 0.  0.
          5    1    3    3  501    0  0.24787157318E+02  0.55770025836E+02 -0.78768392105E+02  0.99645213355E+02  0.10000000000E+00 0. -1.
         -5    1    3    3    0  501  0.46419201871E+01 -0.53860877851E+02 -0.20189121495E+03  0.20900386183E+03  0.10000000000E+00 0. -1.
         21    1    1    2  504  503 -0.29429077505E+02 -0.19091479856E+01  0.43697560263E+02  0.52718044556E+02  0.00000000000E+00 0. -1.
<mgrwt>
<rscale>  1 0.12843067E+03</rscale>
<asrwt>0</asrwt>
<pdfrwt beam="1">  1       21 0.95696209E-02 0.12843067E+03</pdfrwt>
<pdfrwt beam="2">  1       21 0.46025321E-01 0.12843067E+03</pdfrwt>
<totfact> 0.40105405E+05</totfact>
</mgrwt>
</event>
<event>
 6    1  0.4216855E-002  0.1286157E+03  0.7546771E-02  0.1229524E+00
         21   -1    0    0  503  502  0.00000000000E+00  0.00000000000E+00  0.82938106230E+02  0.82938106230E+02  0.00000000000E+00 0.  1.
         21   -1    0    0  504  503 -0.00000000000E+00 -0.00000000000E+00 -0.20143085450E+03  0.20143085450E+03  0.00000000000E+00 0.  1.
         25    2    1    2    0    0  0.19023689274E+02  0.23557739684E+02 -0.17682087783E+03  0.21864956823E+03  0.12500057199E+03 0.  0.
          5    1    3    3  501    0  0.12472057185E+02 -0.46727384734E+02 -0.11522789145E+03  0.12496590600E+03  0.10000000000E+00 0. -1.
         -5    1    3    3    0  501  0.65516320896E+01  0.70285124418E+02 -0.61592986376E+02  0.93683662227E+02  0.10000000000E+00 0. -1.
         21    1    1    2  504  502 -0.19023689274E+02 -0.23557739684E+02  0.58328129559E+02  0.65719392499E+02  0.00000000000E+00 0.  1.
<mgrwt>
<rscale>  1 0.12861575E+03</rscale>
<asrwt>0</asrwt>
<pdfrwt beam="1">  1       21 0.12759709E-01 0.12861575E+03</pdfrwt>
<pdfrwt beam="2">  1       21 0.30989362E-01 0.12861575E+03</pdfrwt>
<totfact> 0.52974790E+05</totfact>
</mgrwt>
</event>
<event>
 6    1  0.4216855E-002  0.1276264E+03  0.7546771E-02  0.1231021E+00
         21   -1    0    0  503  502  0.00000000000E+00  0.00000000000E+00  0.69293789503E+03  0.69293789503E+03  0.00000000000E+00 0. -1.
         21   -1    0    0  504  503 -0.00000000000E+00 -0.00000000000E+00 -0.35589822153E+02  0.35589822153E+02  0.00000000000E+00 0. -1.
         25    2    1    2    0    0  0.92248776129E+01  0.24043756875E+02  0.80045898150E+02  0.15065143150E+03  0.12500122955E+03 0.  0.
          5    1    3    3  501    0 -0.10331468562E+02 -0.47101324015E+02  0.10698767893E+02  0.49393801241E+02  0.10000000000E+00 0.  1.
         -5    1    3    3    0  501  0.19556346175E+02  0.71145080889E+02  0.69347130258E+02  0.10125763026E+03  0.10000000000E+00 0.  1.
         21    1    1    2  504  502 -0.92248776129E+01 -0.24043756875E+02  0.57730217472E+03  0.57787628568E+03  0.00000000000E+00 0. -1.
<mgrwt>
<rscale>  1 0.12762644E+03</rscale>
<asrwt>0</asrwt>
<pdfrwt beam="1">  1       21 0.10660582E+00 0.12762644E+03</pdfrwt>
<pdfrwt beam="2">  1       21 0.54753578E-02 0.12762644E+03</pdfrwt>
<totfact> 0.16620081E+05</totfact>
</mgrwt>
</event>
<event>
 6    1  0.4216855E-002  0.1321677E+03  0.7546771E-02  0.1224274E+00
         21   -1    0    0  504  502  0.00000000000E+00  0.00000000000E+00  0.34023330038E+02  0.34023330038E+02  0.00000000000E+00 0.  1.
         21   -1    0    0  502  503 -0.00000000000E+00 -0.00000000000E+00 -0.72192124191E+03  0.72192124191E+03  0.00000000000E+00 0.  1.
         25    2    1    2    0    0  0.42409180331E+02 -0.66924800838E+01 -0.69917242488E+03  0.71155490525E+03  0.12499990241E+03 0.  0.
          5    1    3    3  501    0 -0.13952155307E+02  0.49038275933E+02 -0.21684292225E+03  0.22275609549E+03  0.10000000000E+00 0.  1.
         -5    1    3    3    0  501  0.56361335638E+02 -0.55730756017E+02 -0.48232950263E+03  0.48879880977E+03  0.10000000000E+00 0.  1.
         21    1    1    2  504  503 -0.42409180331E+02  0.66924800838E+01  0.11274513010E+02  0.44389666699E+02  0.00000000000E+00 0.  1.
<mgrwt>
<rscale>  1 0.13216771E+03</rscale>
<asrwt>0</asrwt>
<pdfrwt beam="1">  1       21 0.52343584E-02 0.13216771E+03</pdfrwt>
<pdfrwt beam="2">  1       21 0.11106481E+00 0.13216771E+03</pdfrwt>
<totfact> 0.16233728E+05</totfact>
</mgrwt>
</event>
<event>
 6    1  0.4216855E-002  0.1330587E+03  0.7546771E-02  0.1222987E+00
         21   -1    0    0  503  502  0.00000000000E+00  0.00000000000E+00  0.89199145060E+02  0.89199145060E+02  0.00000000000E+00 0.  1.
         21   -1    0    0  504  503 -0.00000000000E+00 -0.00000000000E+00 -0.11139712764E+03  0.11139712764E+03  0.00000000000E+00 0.  1.
         25    2    1    2    0    0  0.43093052451E+02  0.14866118225E+02 -0.55472155252E+02  0.14415884534E+03  0.12500639999E+03 0.  0.
          5    1    3    3  501    0  0.32738327053E+02 -0.52077201775E+02 -0.43573413168E+02  0.75382261429E+02  0.10000000000E+00 0. -1.
         -5    1    3    3    0  501  0.10354725398E+02  0.66943320000E+02 -0.11898742084E+02  0.68776583907E+02  0.10000000000E+00 0. -1.
         21    1    1    2  504  502 -0.43093052451E+02 -0.14866118225E+02  0.33274172671E+02  0.56437427365E+02  0.00000000000E+00 0.  1.
<mgrwt>
<rscale>  1 0.13305868E+03</rscale>
<asrwt>0</asrwt>
<pdfrwt beam="1">  1       21 0.13722946E-01 0.13305868E+03</pdfrwt>
<pdfrwt beam="2">  1       21 0.17138019E-01 0.13305868E+03</pdfrwt>
<totfact> 0.14141894E+06</totfact>
</mgrwt>
</event>
<event>
 6    1  0.4216855E-002  0.1568240E+03  0.7546771E-02  0.1192330E+00
         21   -1    0    0  503  502  0.00000000000E+00  0.00000000000E+00  0.14137186589E+03  0.14137186589E+03  0.00000000000E+00 0.  1.
         21   -1    0    0  504  503 -0.00000000000E+00 -0.00000000000E+00 -0.15435807888E+03  0.15435807888E+03  0.00000000000E+00 0.  1.
         25    2    1    2    0    0 -0.34640478659E+02  0.88142586179E+02 -0.83489197193E+02  0.17766323041E+03  0.12499879652E+03 0.  0.
          5    1    3    3  501    0 -0.82098009964E+02  0.54740499870E+02 -0.55852551344E+02  0.11338484492E+03  0.10000000000E+00 0. -1.
         -5    1    3    3    0  501  0.47457531305E+02  0.33402086309E+02 -0.27636645849E+02  0.64278385489E+02  0.10000000000E+00 0. -1.
         21    1    1    2  504  502  0.34640478659E+02 -0.88142586179E+02  0.70502984199E+02  0.11806671437E+03  0.00000000000E+00 0.  1.
<mgrwt>
<rscale>  1 0.15682403E+03</rscale>
<asrwt>0</asrwt>
<pdfrwt beam="1">  1       21 0.21749518E-01 0.15682403E+03</pdfrwt>
<pdfrwt beam="2">  1       21 0.23747397E-01 0.15682403E+03</pdfrwt>
<totfact> 0.33204330E+05</totfact>
</mgrwt>
</event>
<event>
 6    1  0.4216855E-002  0.1433230E+03  0.7546771E-02  0.1208926E+00
         21   -1    0    0  503  502  0.00000000000E+00  0.00000000000E+00  0.26809192751E+03  0.26809192751E+03  0.00000000000E+00 0.  1.
         21   -1    0    0  504  503 -0.00000000000E+00 -0.00000000000E+00 -0.27978823501E+03  0.27978823501E+03  0.00000000000E+00 0.  1.
         25    2    1    2    0    0 -0.52533899546E+02  0.46468133480E+02 -0.25617370984E+03  0.29354121881E+03  0.12498951756E+03 0.  0.
          5    1    3    3  501    0  0.40990174720E+02  0.77349337639E+01 -0.84779249629E+02  0.94485738562E+02  0.10000000000E+00 0.  1.
         -5    1    3    3    0  501 -0.93524074266E+02  0.38733199716E+02 -0.17139446021E+03  0.19905548025E+03  0.10000000000E+00 0.  1.
         21    1    1    2  504  502  0.52533899546E+02 -0.46468133480E+02  0.24447740234E+03  0.25433894370E+03  0.00000000000E+00 0.  1.
<mgrwt>
<rscale>  1 0.14332298E+03</rscale>
<asrwt>0</asrwt>
<pdfrwt beam="1">  1       21 0.41244912E-01 0.14332298E+03</pdfrwt>
<pdfrwt beam="2">  1       21 0.43044344E-01 0.14332298E+03</pdfrwt>
<totfact> 0.30214963E+04</totfact>
</mgrwt>
</event>
<event>
 6    1  0.4216855E-002  0.1266123E+03  0.7546771E-02  0.1232571E+00
         21   -1    0    0  503  502  0.00000000000E+00  0.00000000000E+00  0.82121216519E+02  0.82121216519E+02  0.00000000000E+00 0.  1.
         21   -1    0    0  504  503 -0.00000000000E+00 -0.00000000000E+00 -0.73074709643E+02  0.73074709643E+02  0.00000000000E+00 0.  1.
         25    2    1    2    0    0  0.17793893076E+02  0.94273660499E+01 -0.10609454936E+02  0.12705601330E+03  0.12500068847E+03 0.  0.
          5    1    3    3  501    0 -0.68411479863E+01 -0.20674175488E+02 -0.60207356981E+02  0.64024672373E+02  0.10000000000E+00 0. -1.
         -5    1    3    3    0  501  0.24635041062E+02  0.30101541537E+02  0.49597902046E+02  0.63031340922E+02  0.10000000000E+00 0. -1.
         21    1    1    2  504  502 -0.17793893076E+02 -0.94273660499E+01  0.19655961812E+02  0.28139912868E+02  0.00000000000E+00 0.  1.
<mgrwt>
<rscale>  1 0.12661228E+03</rscale>
<asrwt>0</asrwt>
<pdfrwt beam="1">  1       21 0.12634033E-01 0.12661228E+03</pdfrwt>
<pdfrwt beam="2">  1       21 0.11242263E-01 0.12661228E+03</pdfrwt>
<totfact> 0.34841634E+06</totfact>
</mgrwt>
</event>
<event>
 6    1  0.4216855E-002  0.1313538E+03  0.7546771E-02  0.1225461E+00
         21   -1    0    0  503  502  0.00000000000E+00  0.00000000000E+00  0.24431082122E+03  0.24431082122E+03  0.00000000000E+00 0.  1.
         21   -1    0    0  504  503 -0.00000000000E+00 -0.00000000000E+00 -0.10677970300E+03  0.10677970300E+03  0.00000000000E+00 0.  1.
         25    2    1    2    0    0  0.38761030735E+02  0.11254518270E+02 -0.63606038546E+02  0.14594365605E+03  0.12499896367E+03 0.  0.
          5    1    3    3  501    0 -0.70061640442E+01  0.34708734410E+02 -0.83582087398E+02  0.90773112279E+02  0.10000000000E+00 0. -1.
         -5    1    3    3    0  501  0.45767194780E+02 -0.23454216140E+02  0.19976048852E+02  0.55170543776E+02  0.10000000000E+00 0. -1.
         21    1    1    2  504  502 -0.38761030735E+02 -0.11254518270E+02  0.20113715677E+03  0.20514686816E+03  0.00000000000E+00 0.  1.
<mgrwt>
<rscale>  1 0.13135381E+03</rscale>
<asrwt>0</asrwt>
<pdfrwt beam="1">  1       21 0.37586280E-01 0.13135381E+03</pdfrwt>
<pdfrwt beam="2">  1       21 0.16427647E-01 0.13135381E+03</pdfrwt>
<totfact> 0.23034833E+05</totfact>
</mgrwt>
</event>
<event>
 6    1  0.4216855E-002  0.1632420E+03  0.7546771E-02  0.1185084E+00
         21   -1    0    0  503  502  0.00000000000E+00  0.00000000000E+00  0.35349013600E+02  0.35349013600E+02  0.00000000000E+00 0.  1.
         21   -1    0    0  504  503 -0.00000000000E+00 -0.00000000000E+00 -0.54817537251E+03  0.54817537251E+03  0.00000000000E+00 0.  1.
         25    2    1    2    0    0  0.83602187675E+02 -0.63503031979E+02 -0.38454501812E+03  0.41775930158E+03  0.12500400890E+03 0.  0.
          5    1    3    3  501    0  0.20716097948E+01 -0.61414184322E+02 -0.27148681020E+03  0.27835425579E+03  0.10000000000E+00 0. -1.
         -5    1    3    3    0  501  0.81530577880E+02 -0.20888476569E+01 -0.11305820792E+03  0.13940504579E+03  0.10000000000E+00 0. -1.
         21    1    1    2  504  502 -0.83602187675E+02  0.63503031979E+02 -0.12828134079E+03  0.16576508453E+03  0.00000000000E+00 0.  1.
<mgrwt>
<rscale>  1 0.16324204E+03</rscale>
<asrwt>0</asrwt>
<pdfrwt beam="1">  1       21 0.54383100E-02 0.16324204E+03</pdfrwt>
<pdfrwt beam="2">  1       21 0.84334669E-01 0.16324204E+03</pdfrwt>
<totfact> 0.28679977E+05</totfact>
</mgrwt>
</event>
<event>
 6    1  0.4216855E-002  0.1350346E+03  0.7546771E-02  0.1220171E+00
         21   -1    0    0  504  502  0.00000000000E+00  0.00000000000E+00  0.35576601669E+03  0.35576601669E+03  0.00000000000E+00 0. -1.
         21   -1    0    0  502  503 -0.00000000000E+00 -0.00000000000E+00 -0.11263491606E+03  0.11263491606E+03  0.00000000000E+00 0.  1.
         25    2    1    2    0    0 -0.22392981257E+02  0.45911580330E+02 -0.69329550479E+02  0.15179237742E+03  0.12500008183E+03 0.  0.
          5    1    3    3  501    0 -0.49231388057E+02 -0.38212458845E+01 -0.80258757440E+02  0.94232741847E+02  0.10000000000E+00 0. -1.
         -5    1    3    3    0  501  0.26838406801E+02  0.49732826215E+02  0.10929206962E+02  0.57559635577E+02  0.10000000000E+00 0. -1.
         21    1    1    2  504  503  0.22392981257E+02 -0.45911580330E+02  0.31246065110E+03  0.31660855533E+03  0.00000000000E+00 0. -1.
<mgrwt>
<rscale>  1 0.13503459E+03</rscale>
<asrwt>0</asrwt>
<pdfrwt beam="1">  1       21 0.54733233E-01 0.13503459E+03</pdfrwt>
<pdfrwt beam="2">  1       21 0.17328449E-01 0.13503459E+03</pdfrwt>
<totfact> 0.97088588E+04</totfact>
</mgrwt>
</event>
<event>
 6    1  0.4216855E-002  0.1259397E+03  0.7546771E-02  0.1233608E+00
         21   -1    0    0  503  502  0.00000000000E+00  0.00000000000E+00  0.18618668580E+03  0.18618668580E+03  0.00000000000E+00 0. -1.
         21   -1    0    0  504  503 -0.00000000000E+00 -0.00000000000E+00 -0.60848985594E+02  0.60848985594E+02  0.00000000000E+00 0. -1.
         25    2    1    2    0    0 -0.47832812186E+01 -0.14587261318E+02  0.53325056604E+01  0.12605255402E+03  0.12500057114E+03 0.  0.
          5    1    3    3  501    0  0.16935203288E+02 -0.47428122411E+02 -0.41222153698E+02  0.65080748776E+02  0.10000000000E+00 0. -1.
         -5    1    3    3    0  501 -0.21718484507E+02  0.32840861093E+02  0.46554659358E+02  0.60971805243E+02  0.10000000000E+00 0. -1.
         21    1    1    2  504  502  0.47832812186E+01  0.14587261318E+02  0.12000519455E+03  0.12098311738E+03  0.00000000000E+00 0. -1.
<mgrwt>
<rscale>  1 0.12593971E+03</rscale>
<asrwt>0</asrwt>
<pdfrwt beam="1">  1       21 0.28644105E-01 0.12593971E+03</pdfrwt>
<pdfrwt beam="2">  1       21 0.93613825E-02 0.12593971E+03</pdfrwt>
<totfact> 0.10630586E+06</totfact>
</mgrwt>
</event>
<event>
 6    1  0.4216855E-002  0.1361973E+03  0.7546771E-02  0.1218539E+00
         21   -1    0    0  504  502  0.00000000000E+00  0.00000000000E+00  0.10824272760E+03  0.10824272760E+03  0.00000000000E+00 0. -1.
         21   -1    0    0  502  503 -0.00000000000E+00 -0.00000000000E+00 -0.41013122123E+03  0.41013122123E+03  0.00000000000E+00 0. -1.
         25    2    1    2    0    0 -0.41380249578E+02 -0.34808710860E+02 -0.39105420249E+03  0.41409310186E+03  0.12500294523E+03 0.  0.
          5    1    3    3  501    0  0.70745822810E+01 -0.54414225896E+02 -0.70664950890E+02  0.89467887974E+02  0.10000000000E+00 0. -1.
         -5    1    3    3    0  501 -0.48454831859E+02  0.19605515035E+02 -0.32038925160E+03  0.32462521389E+03  0.10000000000E+00 0. -1.
         21    1    1    2  504  503  0.41380249578E+02  0.34808710860E+02  0.89165708859E+02  0.10428084696E+03  0.00000000000E+00 0. -1.
<mgrwt>
<rscale>  1 0.13619731E+03</rscale>
<asrwt>0</asrwt>
<pdfrwt beam="1">  1       21 0.16652727E-01 0.13619731E+03</pdfrwt>
<pdfrwt beam="2">  1       21 0.63097113E-01 0.13619731E+03</pdfrwt>
<totfact> 0.77189791E+04</totfact>
</mgrwt>
</event>
<event>
 6    1  0.4216855E-002  0.1322529E+03  0.7546771E-02  0.1224151E+00
         21   -1    0    0  504  502  0.00000000000E+00  0.00000000000E+00  0.13708511623E+03  0.13708511623E+03  0.00000000000E+00 0. -1.
         21   -1    0    0  502  503 -0.00000000000E+00 -0.00000000000E+00 -0.16200399738E+03  0.16200399738E+03  0.00000000000E+00 0.  1.
         25    2    1    2    0    0  0.43123212124E+02 -0.28504598731E+01 -0.13001244565E+03  0.18545639893E+03  0.12499241311E+03 0.  0.
          5    1    3    3  501    0  0.69537681736E+02  0.40081446732E+02 -0.93442499083E+02  0.12318085155E+03  0.10000000000E+00 0. -1.
         -5    1    3    3    0  501 -0.26414469612E+02 -0.42931906605E+02 -0.36569946569E+02  0.62275547382E+02  0.10000000000E+00 0. -1.
         21    1    1    2  504  503 -0.43123212124E+02  0.28504598731E+01  0.10509356450E+03  0.11363271468E+03  0.00000000000E+00 0. -1.
<mgrwt>
<rscale>  1 0.13225294E+03</rscale>
<asrwt>0</asrwt>
<pdfrwt beam="1">  1       21 0.21090018E-01 0.13225294E+03</pdfrwt>
<pdfrwt beam="2">  1       21 0.24923692E-01 0.13225294E+03</pdfrwt>
<totfact> 0.32224057E+05</totfact>
</mgrwt>
</event>
<event>
 6    1  0.4216855E-002  0.1276846E+03  0.7546771E-02  0.1230932E+00
         21   -1    0    0  504  502  0.00000000000E+00  0.00000000000E+00  0.12087296148E+03  0.12087296148E+03  0.00000000000E+00 0. -1.
         21   -1    0    0  502  503 -0.00000000000E+00 -0.00000000000E+00 -0.33993498707E+03  0.33993498707E+03  0.00000000000E+00 0.  1.
         25    2    1    2    0    0 -0.10935289185E+02  0.23631405241E+02 -0.32633217418E+03  0.35042267488E+03  0.12500135719E+03 0.  0.
          5    1    3    3  501    0 -0.27646316489E+02  0.30378562623E+02 -0.24038751677E+02  0.47592514796E+02  0.10000000000E+00 0.  1.
         -5    1    3    3    0  501  0.16711027303E+02 -0.67471573822E+01 -0.30229342251E+03  0.30283016009E+03  0.10000000000E+00 0.  1.
         21    1    1    2  504  503  0.10935289185E+02 -0.23631405241E+02  0.10727014859E+03  0.11038527366E+03  0.00000000000E+00 0. -1.
<mgrwt>
<rscale>  1 0.12768462E+03</rscale>
<asrwt>0</asrwt>
<pdfrwt beam="1">  1       21 0.18595840E-01 0.12768462E+03</pdfrwt>
<pdfrwt beam="2">  1       21 0.52297690E-01 0.12768462E+03</pdfrwt>
<totfact> 0.94099236E+04</totfact>
</mgrwt>
</event>
<event>
 6    1  0.4216855E-002  0.1307366E+03  0.7546771E-02  0.1226367E+00
         21   -1    0    0  504  502  0.00000000000E+00  0.00000000000E+00  0.10389813884E+03  0.10389813884E+03  0.00000000000E+00 0.  1.
         21   -1    0    0  502  503 -0.00000000000E+00 -0.00000000000E+00 -0.11749002230E+03  0.11749002230E+03  0.00000000000E+00 0. -1.
         25    2    1    2    0    0 -0.25521570322E+02  0.28603033745E+02 -0.73713181996E+02  0.15008560418E+03  0.12499028479E+03 0.  0.
          5    1    3    3  501    0  0.26544820168E+02 -0.17565206793E+02 -0.73937180367E+02  0.80497705607E+02  0.10000000000E+00 0. -1.
         -5    1    3    3    0  501 -0.52066390490E+02  0.46168240537E+02  0.22399837081E+00  0.69587898576E+02  0.10000000000E+00 0. -1.
         21    1    1    2  504  503  0.25521570322E+02 -0.28603033745E+02  0.60121298533E+02  0.71302556955E+02  0.00000000000E+00 0.  1.
<mgrwt>
<rscale>  1 0.13073659E+03</rscale>
<asrwt>0</asrwt>
<pdfrwt beam="1">  1       21 0.15984329E-01 0.13073659E+03</pdfrwt>
<pdfrwt beam="2">  1       21 0.18075388E-01 0.13073659E+03</pdfrwt>
<totfact> 0.97442658E+05</totfact>
</mgrwt>
</event>
<event>
 6    1  0.4216855E-002  0.1279824E+03  0.7546771E-02  0.1230481E+00
         21   -1    0    0  503  502  0.00000000000E+00  0.00000000000E+00  0.96125989702E+01  0.96125989702E+01  0.00000000000E+00 0.  1.
         21   -1    0    0  504  503 -0.00000000000E+00 -0.00000000000E+00 -0.91587805847E+03  0.91587805847E+03  0.00000000000E+00 0.  1.
         25    2    1    2    0    0  0.23936635502E+02 -0.13489531940E+02 -0.87306414890E+03  0.88239475257E+03  0.12499824510E+03 0.  0.
          5    1    3    3  501    0  0.98102526819E+01  0.49226918261E+02 -0.58956196058E+03  0.59169489258E+03  0.10000000000E+00 0.  1.
         -5    1    3    3    0  501  0.14126382820E+02 -0.62716450201E+02 -0.28350218832E+03  0.29069985999E+03  0.10000000000E+00 0.  1.
         21    1    1    2  504  502 -0.23936635502E+02  0.13489531940E+02 -0.33201310602E+02  0.43095904873E+02  0.00000000000E+00 0.  1.
<mgrwt>
<rscale>  1 0.12798239E+03</rscale>
<asrwt>0</asrwt>
<pdfrwt beam="1">  1       21 0.14788608E-02 0.12798239E+03</pdfrwt>
<pdfrwt beam="2">  1       21 0.14090437E+00 0.12798239E+03</pdfrwt>
<totfact> 0.71545470E+05</totfact>
</mgrwt>
</event>
<event>
 6    1  0.4216855E-002  0.1325176E+03  0.7546771E-02  0.1223767E+00
         21   -1    0    0  504  502  0.00000000000E+00  0.00000000000E+00  0.30863478524E+02  0.30863478524E+02  0.00000000000E+00 0. -1.
         21   -1    0    0  502  503 -0.00000000000E+00 -0.00000000000E+00 -0.31326063339E+03  0.31326063339E+03  0.00000000000E+00 0. -1.
         25    2    1    2    0    0 -0.34831164119E+02 -0.26882292025E+02 -0.26597781486E+03  0.29716176163E+03  0.12500018783E+03 0.  0.
          5    1    3    3  501    0 -0.65852348979E+02  0.25059299927E+02 -0.12021149944E+03  0.13933884949E+03  0.10000000000E+00 0.  1.
         -5    1    3    3    0  501  0.31021184860E+02 -0.51941591952E+02 -0.14576631543E+03  0.15782291214E+03  0.10000000000E+00 0.  1.
         21    1    1    2  504  503  0.34831164119E+02  0.26882292025E+02 -0.16419340005E+02  0.46962350288E+02  0.00000000000E+00 0. -1.
<mgrwt>
<rscale>  1 0.13251760E+03</rscale>
<asrwt>0</asrwt>
<pdfrwt beam="1">  1       21 0.47482274E-02 0.13251760E+03</pdfrwt>
<pdfrwt beam="2">  1       21 0.48193944E-01 0.13251760E+03</pdfrwt>
<totfact> 0.12083331E+06</totfact>
</mgrwt>
</event>
<event>
 6    1  0.4216855E-002  0.1268335E+03  0.7546771E-02  0.1232231E+00
         21   -1    0    0  504  502  0.00000000000E+00  0.00000000000E+00  0.73715090902E+02  0.73715090902E+02  0.00000000000E+00 0.  1.
         21   -1    0    0  502  503 -0.00000000000E+00 -0.00000000000E+00 -0.16647830160E+03  0.16647830160E+03  0.00000000000E+00 0.  1.
         25    2    1    2    0    0  0.19306874182E+02  0.94561325904E+01 -0.13962744964E+03  0.18863342037E+03  0.12499827499E+03 0.  0.
          5    1    3    3  501    0 -0.45465630721E+02  0.53364428071E+01 -0.10615945411E+03  0.11560900007E+03  0.10000000000E+00 0.  1.
         -5    1    3    3    0  501  0.64772504903E+02  0.41196897833E+01 -0.33467995529E+02  0.73024420299E+02  0.10000000000E+00 0.  1.
         21    1    1    2  504  503 -0.19306874182E+02 -0.94561325904E+01  0.46864238947E+02  0.51559972133E+02  0.00000000000E+00 0.  1.
<mgrwt>
<rscale>  1 0.12683352E+03</rscale>
<asrwt>0</asrwt>
<pdfrwt beam="1">  1       21 0.11340783E-01 0.12683352E+03</pdfrwt>
<pdfrwt beam="2">  1       21 0.25612046E-01 0.12683352E+03</pdfrwt>
<totfact> 0.94020750E+05</totfact>
</mgrwt>
</event>
<event>
 6    1  0.4216855E-002  0.1422844E+03  0.7546771E-02  0.1210288E+00
         21   -1    0    0  504  502  0.00000000000E+00  0.00000000000E+00  0.92449750118E+03  0.92449750118E+03  0.00000000000E+00 0. -1.
         21   -1    0    0  502  503 -0.00000000000E+00 -0.00000000000E+00 -0.53071637855E+02  0.53071637855E+02  0.00000000000E+00 0. -1.
         25    2    1    2    0    0 -0.22589911018E+02  0.64110796113E+02  0.46270769883E+02  0.14961900377E+03  0.12499745551E+03 0.  0.
          5    1    3    3  501    0 -0.23001230474E+01  0.10030512727E+03  0.38140256000E+02  0.10733637897E+03  0.10000000000E+00 0. -1.
         -5    1    3    3    0  501 -0.20289787971E+02 -0.36194331156E+02  0.81305138840E+01  0.42282624797E+02  0.10000000000E+00 0. -1.
         21    1    1    2  504  503  0.22589911018E+02 -0.64110796113E+02  0.82515509344E+03  0.82795013527E+03  0.00000000000E+00 0. -1.
<mgrwt>
<rscale>  1 0.14228444E+03</rscale>
<asrwt>0</asrwt>
<pdfrwt beam="1">  1       21 0.14223037E+00 0.14228444E+03</pdfrwt>
<pdfrwt beam="2">  1       21 0.81648681E-02 0.14228444E+03</pdfrwt>
<totfact> 0.41011914E+04</totfact>
</mgrwt>
</event>
<event>
 6    1  0.4216855E-002  0.1674801E+03  0.7546771E-02  0.1180501E+00
         21   -1    0    0  504  502  0.00000000000E+00  0.00000000000E+00  0.56741464639E+03  0.56741464639E+03  0.00000000000E+00 0. -1.
         21   -1    0    0  502  503 -0.00000000000E+00 -0.00000000000E+00 -0.11555080098E+03  0.11555080098E+03  0.00000000000E+00 0. -1.
         25    2    1    2    0    0  0.49493858444E+02  0.99880960837E+02 -0.45267452781E+02  0.17348985816E+03  0.12499496087E+03 0.  0.
          5    1    3    3  501    0  0.46468120063E+02 -0.17771355589E+02 -0.11758503696E+02  0.51121225248E+02  0.10000000000E+00 0. -1.
         -5    1    3    3    0  501  0.30257383815E+01  0.11765231643E+03 -0.33508949085E+02  0.12236863292E+03  0.10000000000E+00 0. -1.
         21    1    1    2  504  503 -0.49493858444E+02 -0.99880960837E+02  0.49713129819E+03  0.50947558921E+03  0.00000000000E+00 0. -1.
<mgrwt>
<rscale>  1 0.16748011E+03</rscale>
<asrwt>0</asrwt>
<pdfrwt beam="1">  1       21 0.87294560E-01 0.16748011E+03</pdfrwt>
<pdfrwt beam="2">  1       21 0.17777047E-01 0.16748011E+03</pdfrwt>
<totfact> 0.32845282E+04</totfact>
</mgrwt>
</event>
<event>
 6    1  0.4216855E-002  0.1271877E+03  0.7546771E-02  0.1231689E+00
         21   -1    0    0  503  502  0.00000000000E+00  0.00000000000E+00  0.22991468079E+02  0.22991468079E+02  0.00000000000E+00 0. -1.
         21   -1    0    0  504  503 -0.00000000000E+00 -0.00000000000E+00 -0.71391233333E+03  0.71391233333E+03  0.00000000000E+00 0. -1.
         25    2    1    2    0    0  0.21918837718E+01 -0.23413584535E+02 -0.70017451433E+03  0.71163266538E+03  0.12499479837E+03 0.  0.
          5    1    3    3  501    0  0.31650890920E+02 -0.28895972639E+01 -0.42962998359E+02  0.53441162940E+02  0.10000000000E+00 0. -1.
         -5    1    3    3    0  501 -0.29459007148E+02 -0.20523987271E+02 -0.65721151597E+03  0.65819150244E+03  0.10000000000E+00 0. -1.
         21    1    1    2  504  502 -0.21918837718E+01  0.23413584535E+02  0.92536490772E+01  0.25271136034E+02  0.00000000000E+00 0. -1.
<mgrwt>
<rscale>  1 0.12718766E+03</rscale>
<asrwt>0</asrwt>
<pdfrwt beam="1">  1       21 0.35371491E-02 0.12718766E+03</pdfrwt>
<pdfrwt beam="2">  1       21 0.10983266E+00 0.12718766E+03</pdfrwt>
<totfact> 0.32098767E+05</totfact>
</mgrwt>
</event>
<event>
 6    1  0.4216855E-002  0.1326564E+03  0.7546771E-02  0.1223566E+00
         21   -1    0    0  504  502  0.00000000000E+00  0.00000000000E+00  0.12846136118E+04  0.12846136118E+04  0.00000000000E+00 0. -1.
         21   -1    0    0  502  503 -0.00000000000E+00 -0.00000000000E+00 -0.55085451325E+02  0.55085451325E+02  0.00000000000E+00 0. -1.
         25    2    1    2    0    0 -0.31171710900E+02  0.31629430126E+02  0.25787643602E+02  0.13513967133E+03  0.12500252715E+03 0.  0.
          5    1    3    3  501    0 -0.67977211009E+02  0.48667428787E+02  0.39314574684E+02  0.92385418893E+02  0.10000000000E+00 0.  1.
         -5    1    3    3    0  501  0.36805500110E+02 -0.17037998661E+02 -0.13526931082E+02  0.42754252434E+02  0.10000000000E+00 0.  1.
         21    1    1    2  504  503  0.31171710900E+02 -0.31629430126E+02  0.12037405168E+04  0.12045593918E+04  0.00000000000E+00 0. -1.
<mgrwt>
<rscale>  1 0.13265643E+03</rscale>
<asrwt>0</asrwt>
<pdfrwt beam="1">  1       21 0.19763284E+00 0.13265643E+03</pdfrwt>
<pdfrwt beam="2">  1       21 0.84746857E-02 0.13265643E+03</pdfrwt>
<totfact> 0.15905108E+04</totfact>
</mgrwt>
</event>
<event>
 6    1  0.4216855E-002  0.1262444E+03  0.7546771E-02  0.1233137E+00
         21   -1    0    0  503  502  0.00000000000E+00  0.00000000000E+00  0.25728533324E+03  0.25728533324E+03  0.00000000000E+00 0.  1.
         21   -1    0    0  504  503 -0.00000000000E+00 -0.00000000000E+00 -0.24995012259E+03  0.24995012259E+03  0.00000000000E+00 0.  1.
         25    2    1    2    0    0 -0.84993538255E+01 -0.15511271000E+02 -0.23366450680E+03  0.26558756663E+03  0.12499926107E+03 0.  0.
          5    1    3    3  501    0  0.41088457714E+02 -0.50310885432E+02 -0.13488370601E+03  0.14970995523E+03  0.10000000000E+00 0.  1.
         -5    1    3    3    0  501 -0.49587811539E+02  0.34799614432E+02 -0.98780800796E+02  0.11587761140E+03  0.10000000000E+00 0.  1.
         21    1    1    2  504  502  0.84993538255E+01  0.15511271000E+02  0.24099971745E+03  0.24164788920E+03  0.00000000000E+00 0.  1.
<mgrwt>
<rscale>  1 0.12624442E+03</rscale>
<asrwt>0</asrwt>
<pdfrwt beam="1">  1       21 0.39582359E-01 0.12624442E+03</pdfrwt>
<pdfrwt beam="2">  1       21 0.38453865E-01 0.12624442E+03</pdfrwt>
<totfact> 0.41566431E+04</totfact>
</mgrwt>
</event>
<event>
 6    1  0.4216855E-002  0.1365878E+03  0.7546771E-02  0.1217996E+00
         21   -1    0    0  504  502  0.00000000000E+00  0.00000000000E+00  0.49874377716E+02  0.49874377716E+02  0.00000000000E+00 0.  1.
         21   -1    0    0  502  503 -0.00000000000E+00 -0.00000000000E+00 -0.28699472435E+03  0.28699472435E+03  0.00000000000E+00 0.  1.
         25    2    1    2    0    0 -0.19199335624E+02  0.51386307514E+02 -0.24592608053E+03  0.28131095201E+03  0.12508815911E+03 0.  0.
          5    1    3    3  501    0  0.21219355965E+02  0.50220499392E+02 -0.31210102296E+02  0.62820698118E+02  0.10000000000E+00 0.  1.
         -5    1    3    3    0  501 -0.40418691589E+02  0.11658081222E+01 -0.21471597823E+03  0.21849025389E+03  0.10000000000E+00 0.  1.
         21    1    1    2  504  503  0.19199335624E+02 -0.51386307514E+02  0.88057338920E+01  0.55558150056E+02  0.00000000000E+00 0.  1.
<mgrwt>
<rscale>  1 0.13658775E+03</rscale>
<asrwt>0</asrwt>
<pdfrwt beam="1">  1       21 0.76729813E-02 0.13658775E+03</pdfrwt>
<pdfrwt beam="2">  1       21 0.44153034E-01 0.13658775E+03</pdfrwt>
<totfact> 0.63946266E+05</totfact>
</mgrwt>
</event>
<event>
 6    1  0.4216855E-002  0.1264280E+03  0.7546771E-02  0.1232854E+00
         21   -1    0    0  504  502  0.00000000000E+00  0.00000000000E+00  0.83400958712E+02  0.83400958712E+02  0.00000000000E+00 0. -1.
         21   -1    0    0  502  503 -0.00000000000E+00 -0.00000000000E+00 -0.12351445887E+03  0.12351445887E+03  0.00000000000E+00 0. -1.
         25    2    1    2    0    0 -0.17694904630E+01  0.18863852534E+02 -0.88915954493E+02  0.15456414655E+03  0.12500020963E+03 0.  0.
          5    1    3    3  501    0 -0.48346303226E+01  0.40788661997E+02  0.18386462994E+02  0.45001784623E+02  0.10000000000E+00 0.  1.
         -5    1    3    3    0  501  0.30651398596E+01 -0.21924809463E+02 -0.10730241749E+03  0.10956236193E+03  0.10000000000E+00 0.  1.
         21    1    1    2  504  503  0.17694904630E+01 -0.18863852534E+02  0.48802454338E+02  0.52351271029E+02  0.00000000000E+00 0. -1.
<mgrwt>
<rscale>  1 0.12642796E+03</rscale>
<asrwt>0</asrwt>
<pdfrwt beam="1">  1       21 0.12830917E-01 0.12642796E+03</pdfrwt>
<pdfrwt beam="2">  1       21 0.19002224E-01 0.12642796E+03</pdfrwt>
<totfact> 0.13185802E+06</totfact>
</mgrwt>
</event>
<event>
 6    1  0.4216855E-002  0.1347715E+03  0.7546771E-02  0.1220543E+00
         21   -1    0    0  504  502  0.00000000000E+00  0.00000000000E+00  0.18568045480E+03  0.18568045480E+03  0.00000000000E+00 0. -1.
         21   -1    0    0  502  503 -0.00000000000E+00 -0.00000000000E+00 -0.49680509715E+02  0.49680509715E+02  0.00000000000E+00 0. -1.
         25    2    1    2    0    0 -0.44477257351E+01  0.50323523833E+02  0.68880499160E+02  0.15135346880E+03  0.12494442780E+03 0.  0.
          5    1    3    3  501    0  0.13442104103E+02 -0.42276285023E+01  0.89311636152E+02  0.90416488306E+02  0.10000000000E+00 0. -1.
         -5    1    3    3    0  501 -0.17889829838E+02  0.54551152335E+02 -0.20431136992E+02  0.60936980492E+02  0.10000000000E+00 0. -1.
         21    1    1    2  504  503  0.44477257351E+01 -0.50323523833E+02  0.67119445926E+02  0.84007495717E+02  0.00000000000E+00 0. -1.
<mgrwt>
<rscale>  1 0.13477147E+03</rscale>
<asrwt>0</asrwt>
<pdfrwt beam="1">  1       21 0.28566224E-01 0.13477147E+03</pdfrwt>
<pdfrwt beam="2">  1       21 0.76431554E-02 0.13477147E+03</pdfrwt>
<totfact> 0.15193939E+06</totfact>
</mgrwt>
</event>
<event>
 6    1  0.4216855E-002  0.1728669E+03  0.7546771E-02  0.1174891E+00
         21   -1    0    0  503  502  0.00000000000E+00  0.00000000000E+00  0.47469647830E+02  0.47469647830E+02  0.00000000000E+00 0.  1.
         21   -1    0    0  504  503 -0.00000000000E+00 -0.00000000000E+00 -0.47141115127E+03  0.47141115127E+03  0.00000000000E+00 0.  1.
         25    2    1    2    0    0 -0.11824330864E+03  0.16652631474E+02 -0.19443876438E+03  0.26017189432E+03  0.12499676527E+03 0.  0.
          5    1    3    3  501    0 -0.10002431158E+03  0.65907927662E+02 -0.14459867948E+03  0.18776982170E+03  0.10000000000E+00 0. -1.
         -5    1    3    3    0  501 -0.18218997062E+02 -0.49255296188E+02 -0.49840084906E+02  0.72402072622E+02  0.10000000000E+00 0. -1.
         21    1    1    2  504  502  0.11824330864E+03 -0.16652631474E+02 -0.22950273906E+03  0.25870890477E+03  0.00000000000E+00 0.  1.
<mgrwt>
<rscale>  1 0.17286695E+03</rscale>
<asrwt>0</asrwt>
<pdfrwt beam="1">  1       21 0.73030226E-02 0.17286695E+03</pdfrwt>
<pdfrwt beam="2">  1       21 0.72524794E-01 0.17286695E+03</pdfrwt>
<totfact> 0.24218123E+05</totfact>
</mgrwt>
</event>
<event>
 6    1  0.4216855E-002  0.1268178E+03  0.7546771E-02  0.1232255E+00
         21   -1    0    0  503  502  0.00000000000E+00  0.00000000000E+00  0.41489004404E+02  0.41489004404E+02  0.00000000000E+00 0.  1.
         21   -1    0    0  504  503 -0.00000000000E+00 -0.00000000000E+00 -0.13522194001E+03  0.13522194001E+03  0.00000000000E+00 0.  1.
         25    2    1    2    0    0  0.15129229172E+02 -0.15075894625E+02 -0.88724267840E+02  0.15477323882E+03  0.12500633414E+03 0.  0.
          5    1    3    3  501    0 -0.45661513327E+02 -0.93726398456E+01 -0.80693720310E+02  0.93189627505E+02  0.10000000000E+00 0. -1.
         -5    1    3    3    0  501  0.60790742499E+02 -0.57032547790E+01 -0.80305475296E+01  0.61583611312E+02  0.10000000000E+00 0. -1.
         21    1    1    2  504  502 -0.15129229172E+02  0.15075894625E+02 -0.50086677671E+01  0.21937705597E+02  0.00000000000E+00 0.  1.
<mgrwt>
<rscale>  1 0.12681782E+03</rscale>
<asrwt>0</asrwt>
<pdfrwt beam="1">  1       21 0.63829238E-02 0.12681782E+03</pdfrwt>
<pdfrwt beam="2">  1       21 0.20803375E-01 0.12681782E+03</pdfrwt>
<totfact> 0.37542253E+06</totfact>
</mgrwt>
</event>
<event>
 6    1  0.4216855E-002  0.1634728E+03  0.7546771E-02  0.1184831E+00
         21   -1    0    0  504  502  0.00000000000E+00  0.00000000000E+00  0.16078842793E+03  0.16078842793E+03  0.00000000000E+00 0.  1.
         21   -1    0    0  502  503 -0.00000000000E+00 -0.00000000000E+00 -0.32106503530E+03  0.32106503530E+03  0.00000000000E+00 0.  1.
         25    2    1    2    0    0 -0.97044396733E+02  0.40997484618E+02 -0.27885362792E+03  0.32323783196E+03  0.12499976610E+03 0.  0.
          5    1    3    3  501    0 -0.94956713639E+00 -0.16563271332E+02 -0.15640554445E+03  0.15728301870E+03  0.10000000000E+00 0. -1.
         -5    1    3    3    0  501 -0.96094829597E+02  0.57560755951E+02 -0.12244808347E+03  0.16595481326E+03  0.10000000000E+00 0. -1.
         21    1    1    2  504  503  0.97044396733E+02 -0.40997484618E+02  0.11857702055E+03  0.15861563128E+03  0.00000000000E+00 0.  1.
<mgrwt>
<rscale>  1 0.16347278E+03</rscale>
<asrwt>0</asrwt>
<pdfrwt beam="1">  1       21 0.24736681E-01 0.16347278E+03</pdfrwt>
<pdfrwt beam="2">  1       21 0.49394620E-01 0.16347278E+03</pdfrwt>
<totfact> 0.61227698E+04</totfact>
</mgrwt>
</event>
<event>
 6    1  0.4216855E-002  0.1283994E+03  0.7546771E-02  0.1229850E+00
         21   -1    0    0  504  502  0.00000000000E+00  0.00000000000E+00  0.29422424308E+03  0.29422424308E+03  0.00000000000E+00 0. -1.
         21   -1    0    0  502  503 -0.00000000000E+00 -0.00000000000E+00 -0.69363355110E+03  0.69363355110E+03  0.00000000000E+00 0.  1.
         25    2    1    2    0    0 -0.27961116094E+02 -0.90569418525E+01 -0.68693592999E+03  0.69883286351E+03  0.12499018761E+03 0.  0.
          5    1    3    3  501    0 -0.57342302910E+02  0.93580045085E+01 -0.15124590360E+03  0.16202174332E+03  0.10000000000E+00 0.  1.
         -5    1    3    3    0  501  0.29381186817E+02 -0.18414946361E+02 -0.53569002639E+03  0.53681112019E+03  0.10000000000E+00 0.  1.
         21    1    1    2  504  503  0.27961116094E+02  0.90569418525E+01  0.28752662197E+03  0.28902493067E+03  0.00000000000E+00 0. -1.
<mgrwt>
<rscale>  1 0.12839937E+03</rscale>
<asrwt>0</asrwt>
<pdfrwt beam="1">  1       21 0.45265269E-01 0.12839937E+03</pdfrwt>
<pdfrwt beam="2">  1       21 0.10671285E+00 0.12839937E+03</pdfrwt>
<totfact> 0.35015976E+03</totfact>
</mgrwt>
</event>
<event>
 6    1  0.4216855E-002  0.1274421E+03  0.7546771E-02  0.1231301E+00
         21   -1    0    0  503  502  0.00000000000E+00  0.00000000000E+00  0.74134067989E+02  0.74134067989E+02  0.00000000000E+00 0.  1.
         21   -1    0    0  504  503 -0.00000000000E+00 -0.00000000000E+00 -0.78878089408E+02  0.78878089408E+02  0.00000000000E+00 0.  1.
         25    2    1    2    0    0 -0.16577259606E+02  0.18467099049E+02 -0.93014465102E+01  0.12778103759E+03  0.12500254948E+03 0.  0.
          5    1    3    3  501    0 -0.60224178491E+02 -0.75348999669E+01 -0.35815625207E+02  0.70473366610E+02  0.10000000000E+00 0. -1.
         -5    1    3    3    0  501  0.43646918885E+02  0.26001999016E+02  0.26514178697E+02  0.57307670978E+02  0.10000000000E+00 0. -1.
         21    1    1    2  504  502  0.16577259606E+02 -0.18467099049E+02  0.45574250908E+01  0.25231119809E+02  0.00000000000E+00 0.  1.
<mgrwt>
<rscale>  1 0.12744205E+03</rscale>
<asrwt>0</asrwt>
<pdfrwt beam="1">  1       21 0.11405241E-01 0.12744205E+03</pdfrwt>
<pdfrwt beam="2">  1       21 0.12135091E-01 0.12744205E+03</pdfrwt>
<totfact> 0.36497006E+06</totfact>
</mgrwt>
</event>
<event>
 6    1  0.4216855E-002  0.1322082E+03  0.7546771E-02  0.1224215E+00
         21   -1    0    0  503  502  0.00000000000E+00  0.00000000000E+00  0.85730591369E+03  0.85730591369E+03  0.00000000000E+00 0.  1.
         21   -1    0    0  504  503 -0.00000000000E+00 -0.00000000000E+00 -0.18136246103E+02  0.18136246103E+02  0.00000000000E+00 0.  1.
         25    2    1    2    0    0  0.30156370697E+02  0.30734389249E+02  0.23418217914E+03  0.26892433602E+03  0.12499998440E+03 0.  0.
          5    1    3    3  501    0 -0.39046585927E+02  0.34675545715E+02  0.50692754483E+02  0.72779081474E+02  0.10000000000E+00 0.  1.
         -5    1    3    3    0  501  0.69202956624E+02 -0.39411564655E+01  0.18348942465E+03  0.19614525454E+03  0.10000000000E+00 0.  1.
         21    1    1    2  504  502 -0.30156370697E+02 -0.30734389249E+02  0.60498748845E+03  0.60651782377E+03  0.00000000000E+00 0.  1.
<mgrwt>
<rscale>  1 0.13220819E+03</rscale>
<asrwt>0</asrwt>
<pdfrwt beam="1">  1       21 0.13189319E+00 0.13220819E+03</pdfrwt>
<pdfrwt beam="2">  1       21 0.27901924E-02 0.13220819E+03</pdfrwt>
<totfact> 0.30281847E+05</totfact>
</mgrwt>
</event>
<event>
 6    1  0.4216855E-002  0.1269277E+03  0.7546771E-02  0.1232087E+00
         21   -1    0    0  504  502  0.00000000000E+00  0.00000000000E+00  0.70950813326E+03  0.70950813326E+03  0.00000000000E+00 0. -1.
         21   -1    0    0  502  503 -0.00000000000E+00 -0.00000000000E+00 -0.58210056667E+02  0.58210056667E+02  0.00000000000E+00 0. -1.
         25    2    1    2    0    0 -0.27554854225E+01 -0.21866575838E+02  0.11397764325E+02  0.12743844678E+03  0.12499963539E+03 0.  0.
          5    1    3    3  501    0  0.23597784147E+02 -0.33446281650E+02 -0.47003483902E+02  0.62328538182E+02  0.10000000000E+00 0.  1.
         -5    1    3    3    0  501 -0.26353269570E+02  0.11579705812E+02  0.58401248227E+02  0.65109908602E+02  0.10000000000E+00 0.  1.
         21    1    1    2  504  503  0.27554854225E+01  0.21866575838E+02  0.63990031227E+03  0.64027974315E+03  0.00000000000E+00 0. -1.
<mgrwt>
<rscale>  1 0.12692773E+03</rscale>
<asrwt>0</asrwt>
<pdfrwt beam="1">  1       21 0.10915509E+00 0.12692773E+03</pdfrwt>
<pdfrwt beam="2">  1       21 0.89553938E-02 0.12692773E+03</pdfrwt>
<totfact> 0.67746117E+04</totfact>
</mgrwt>
</event>
<event>
 6    1  0.4216855E-002  0.1281411E+03  0.7546771E-02  0.1230240E+00
         21   -1    0    0  504  502  0.00000000000E+00  0.00000000000E+00  0.38968632340E+02  0.38968632340E+02  0.00000000000E+00 0.  1.
         21   -1    0    0  502  503 -0.00000000000E+00 -0.00000000000E+00 -0.34212298313E+03  0.34212298313E+03  0.00000000000E+00 0.  1.
         25    2    1    2    0    0 -0.28071991699E+02  0.21388969325E+01 -0.32243788480E+03  0.34696733845E+03  0.12501013079E+03 0.  0.
          5    1    3    3  501    0  0.34419466839E+02 -0.34884332066E+02 -0.79385054677E+02  0.93293157451E+02  0.10000000000E+00 0. -1.
         -5    1    3    3    0  501 -0.62491458538E+02  0.37023228998E+02 -0.24305283012E+03  0.25367418100E+03  0.10000000000E+00 0. -1.
         21    1    1    2  504  503  0.28071991699E+02 -0.21388969325E+01  0.19283534010E+02  0.34124277018E+02  0.00000000000E+00 0.  1.
<mgrwt>
<rscale>  1 0.12814111E+03</rscale>
<asrwt>0</asrwt>
<pdfrwt beam="1">  1       21 0.59951744E-02 0.12814111E+03</pdfrwt>
<pdfrwt beam="2">  1       21 0.52634304E-01 0.12814111E+03</pdfrwt>
<totfact> 0.67975161E+05</totfact>
</mgrwt>
</event>
<event>
 6    1  0.4216855E-002  0.1376572E+03  0.7546771E-02  0.1216517E+00
         21   -1    0    0  503  502  0.00000000000E+00  0.00000000000E+00  0.14456164461E+03  0.14456164461E+03  0.00000000000E+00 0.  1.
         21   -1    0    0  504  503 -0.00000000000E+00 -0.00000000000E+00 -0.10338580040E+03  0.10338580040E+03  0.00000000000E+00 0.  1.
         25    2    1    2    0    0 -0.44463552837E+02  0.36443813746E+02 -0.44587152530E+02  0.14469798640E+03  0.12507731212E+03 0.  0.
          5    1    3    3  501    0  0.69534874579E+01  0.65772285662E+02  0.65662213664E+01  0.66464049019E+02  0.10000000000E+00 0. -1.
         -5    1    3    3    0  501 -0.51417040294E+02 -0.29328471916E+02 -0.51153373896E+02  0.78233937384E+02  0.10000000000E+00 0. -1.
         21    1    1    2  504  502  0.44463552837E+02 -0.36443813746E+02  0.85762996740E+02  0.10324945860E+03  0.00000000000E+00 0.  1.
<mgrwt>
<rscale>  1 0.13765716E+03</rscale>
<asrwt>0</asrwt>
<pdfrwt beam="1">  1       21 0.22240253E-01 0.13765716E+03</pdfrwt>
<pdfrwt beam="2">  1       21 0.15905508E-01 0.13765716E+03</pdfrwt>
<totfact> 0.66981997E+05</totfact>
</mgrwt>
</event>
<event>
 6    1  0.4216855E-002  0.1325129E+03  0.7546771E-02  0.1223774E+00
         21   -1    0    0  504  502  0.00000000000E+00  0.00000000000E+00  0.86327422250E+02  0.86327422250E+02  0.00000000000E+00 0.  1.
         21   -1    0    0  502  503 -0.00000000000E+00 -0.00000000000E+00 -0.20952418193E+03  0.20952418193E+03  0.00000000000E+00 0.  1.
         25    2    1    2    0    0  0.43287438810E+02  0.77493493454E+01 -0.18031222148E+03  0.22376810572E+03  0.12500325255E+03 0.  0.
          5    1    3    3  501    0 -0.40317266947E+02 -0.17981753200E+02 -0.48624656511E+02  0.65674901470E+02  0.10000000000E+00 0.  1.
         -5    1    3    3    0  501  0.83604705757E+02  0.25731102545E+02 -0.13168756497E+03  0.15809320425E+03  0.10000000000E+00 0.  1.
         21    1    1    2  504  503 -0.43287438810E+02 -0.77493493454E+01  0.57115461798E+02  0.72083498461E+02  0.00000000000E+00 0.  1.
<mgrwt>
<rscale>  1 0.13251290E+03</rscale>
<asrwt>0</asrwt>
<pdfrwt beam="1">  1       21 0.13281142E-01 0.13251290E+03</pdfrwt>
<pdfrwt beam="2">  1       21 0.32234489E-01 0.13251290E+03</pdfrwt>
<totfact> 0.45679710E+05</totfact>
</mgrwt>
</event>
<event>
 6    1  0.4216855E-002  0.1421807E+03  0.7546771E-02  0.1210424E+00
         21   -1    0    0  504  502  0.00000000000E+00  0.00000000000E+00  0.72259110025E+03  0.72259110025E+03  0.00000000000E+00 0. -1.
         21   -1    0    0  502  503 -0.00000000000E+00 -0.00000000000E+00 -0.17690266647E+02  0.17690266647E+02  0.00000000000E+00 0. -1.
         25    2    1    2    0    0 -0.41906112525E+02  0.53232008051E+02  0.33027187484E+03  0.35957593524E+03  0.12500229176E+03 0.  0.
          5    1    3    3  501    0 -0.52097199383E+02  0.87975257886E+02  0.20359241298E+03  0.22782371432E+03  0.10000000000E+00 0. -1.
         -5    1    3    3    0  501  0.10191086858E+02 -0.34743249835E+02  0.12667946185E+03  0.13175222091E+03  0.10000000000E+00 0. -1.
         21    1    1    2  504  503  0.41906112525E+02 -0.53232008051E+02  0.37462895877E+03  0.38070543166E+03  0.00000000000E+00 0. -1.
<mgrwt>
<rscale>  1 0.14218067E+03</rscale>
<asrwt>0</asrwt>
<pdfrwt beam="1">  1       21 0.11116784E+00 0.14218067E+03</pdfrwt>
<pdfrwt beam="2">  1       21 0.27215800E-02 0.14218067E+03</pdfrwt>
<totfact> 0.47830235E+05</totfact>
</mgrwt>
</event>
<event>
 6    1  0.4216855E-002  0.1272444E+03  0.7546771E-02  0.1231603E+00
         21   -1    0    0  504  502  0.00000000000E+00  0.00000000000E+00  0.24171562043E+02  0.24171562043E+02  0.00000000000E+00 0. -1.
         21   -1    0    0  502  503 -0.00000000000E+00 -0.00000000000E+00 -0.30394709177E+03  0.30394709177E+03  0.00000000000E+00 0. -1.
         25    2    1    2    0    0 -0.13270745077E+02 -0.19717061899E+02 -0.27617739391E+03  0.30408072989E+03  0.12500504862E+03 0.  0.
          5    1    3    3  501    0 -0.59829048871E+02  0.71645109832E+01 -0.21181351362E+03  0.22021766473E+03  0.10000000000E+00 0. -1.
         -5    1    3    3    0  501  0.46558303795E+02 -0.26881572882E+02 -0.64363880290E+02  0.83863065165E+02  0.10000000000E+00 0. -1.
         21    1    1    2  504  503  0.13270745077E+02  0.19717061899E+02 -0.35981358117E+01  0.24037923915E+02  0.00000000000E+00 0. -1.
<mgrwt>
<rscale>  1 0.12724440E+03</rscale>
<asrwt>0</asrwt>
<pdfrwt beam="1">  1       21 0.37187020E-02 0.12724440E+03</pdfrwt>
<pdfrwt beam="2">  1       21 0.46761089E-01 0.12724440E+03</pdfrwt>
<totfact> 0.19297092E+06</totfact>
</mgrwt>
</event>
<event>
 6    1  0.4216855E-002  0.1314006E+03  0.7546771E-02  0.1225392E+00
         21   -1    0    0  503  502  0.00000000000E+00  0.00000000000E+00  0.98730911476E+03  0.98730911476E+03  0.00000000000E+00 0. -1.
         21   -1    0    0  504  503 -0.00000000000E+00 -0.00000000000E+00 -0.34462761772E+02  0.34462761772E+02  0.00000000000E+00 0.  1.
         25    2    1    2    0    0  0.63769817484E+01 -0.39976743118E+02  0.93020505245E+02  0.16099356922E+03  0.12500923585E+03 0.  0.
          5    1    3    3  501    0  0.37757608796E+02  0.31347969347E+02  0.16482473773E+02  0.51768853047E+02  0.10000000000E+00 0. -1.
         -5    1    3    3    0  501 -0.31380627047E+02 -0.71324712465E+02  0.76538031472E+02  0.10922471618E+03  0.10000000000E+00 0. -1.
         21    1    1    2  504  502 -0.63769817484E+01  0.39976743118E+02  0.85982584775E+03  0.86077830731E+03  0.00000000000E+00 0. -1.
<mgrwt>
<rscale>  1 0.13140059E+03</rscale>
<asrwt>0</asrwt>
<pdfrwt beam="1">  1       21 0.15189369E+00 0.13140059E+03</pdfrwt>
<pdfrwt beam="2">  1       21 0.53019641E-02 0.13140059E+03</pdfrwt>
<totfact> 0.72822797E+04</totfact>
</mgrwt>
</event>
<event>
 6    1  0.4216855E-002  0.1319139E+03  0.7546771E-02  0.1224643E+00
         21   -1    0    0  503  502  0.00000000000E+00  0.00000000000E+00  0.34282691049E+03  0.34282691049E+03  0.00000000000E+00 0.  1.
         21   -1    0    0  504  503 -0.00000000000E+00 -0.00000000000E+00 -0.13720642198E+03  0.13720642198E+03  0.00000000000E+00 0.  1.
         25    2    1    2    0    0 -0.70954472736E+01 -0.41558088442E+02 -0.10373638244E+03  0.16781691124E+03  0.12499543420E+03 0.  0.
          5    1    3    3  501    0 -0.33242481623E+02 -0.44120168977E+02  0.54538507020E+01  0.55510416882E+02  0.10000000000E+00 0.  1.
         -5    1    3    3    0  501  0.26147034349E+02  0.25620805345E+01 -0.10919023314E+03  0.11230649436E+03  0.10000000000E+00 0.  1.
         21    1    1    2  504  502  0.70954472736E+01  0.41558088442E+02  0.30935687095E+03  0.31221642124E+03  0.00000000000E+00 0.  1.
<mgrwt>
<rscale>  1 0.13191391E+03</rscale>
<asrwt>0</asrwt>
<pdfrwt beam="1">  1       21 0.52742601E-01 0.13191391E+03</pdfrwt>
<pdfrwt beam="2">  1       21 0.21108680E-01 0.13191391E+03</pdfrwt>
<totfact> 0.73016124E+04</totfact>
</mgrwt>
</event>
<event>
 6    1  0.4216855E-002  0.1486656E+03  0.7546771E-02  0.1202122E+00
         21   -1    0    0  503  502  0.00000000000E+00  0.00000000000E+00  0.22994905393E+03  0.22994905393E+03  0.00000000000E+00 0. -1.
         21   -1    0    0  504  503 -0.00000000000E+00 -0.00000000000E+00 -0.75673444582E+03  0.75673444582E+03  0.00000000000E+00 0.  1.
         25    2    1    2    0    0 -0.78560625382E+02  0.17670241002E+02 -0.74207900165E+03  0.75682409124E+03  0.12496980082E+03 0.  0.
          5    1    3    3  501    0  0.32506740560E+02  0.50450516262E+01 -0.25321658714E+03  0.25534445506E+03  0.10000000000E+00 0.  1.
         -5    1    3    3    0  501 -0.11106736594E+03  0.12625189376E+02 -0.48886241451E+03  0.50147963618E+03  0.10000000000E+00 0.  1.
         21    1    1    2  504  502  0.78560625382E+02 -0.17670241002E+02  0.21529360976E+03  0.22985940851E+03  0.00000000000E+00 0. -1.
<mgrwt>
<rscale>  1 0.14866560E+03</rscale>
<asrwt>0</asrwt>
<pdfrwt beam="1">  1       21 0.35376779E-01 0.14866560E+03</pdfrwt>
<pdfrwt beam="2">  1       21 0.11642068E+00 0.14866560E+03</pdfrwt>
<totfact> 0.45579498E+03</totfact>
</mgrwt>
</event>
<event>
 6    1  0.4216855E-002  0.1276719E+03  0.7546771E-02  0.1230952E+00
         21   -1    0    0  504  502  0.00000000000E+00  0.00000000000E+00  0.31312139761E+03  0.31312139761E+03  0.00000000000E+00 0. -1.
         21   -1    0    0  502  503 -0.00000000000E+00 -0.00000000000E+00 -0.21988282515E+02  0.21988282515E+02  0.00000000000E+00 0. -1.
         25    2    1    2    0    0  0.21930574700E+02  0.13947364744E+02  0.17814303440E+03  0.21916901674E+03  0.12499855241E+03 0.  0.
          5    1    3    3  501    0 -0.16871076043E+02 -0.24099552765E+02  0.15877583570E+03  0.16147816463E+03  0.10000000000E+00 0.  1.
         -5    1    3    3    0  501  0.38801650743E+02  0.38046917509E+02  0.19367198704E+02  0.57690852116E+02  0.10000000000E+00 0.  1.
         21    1    1    2  504  503 -0.21930574700E+02 -0.13947364744E+02  0.11299008070E+03  0.11594066339E+03  0.00000000000E+00 0. -1.
<mgrwt>
<rscale>  1 0.12767191E+03</rscale>
<asrwt>0</asrwt>
<pdfrwt beam="1">  1       21 0.48172519E-01 0.12767191E+03</pdfrwt>
<pdfrwt beam="2">  1       21 0.33828129E-02 0.12767191E+03</pdfrwt>
<totfact> 0.21232299E+06</totfact>
</mgrwt>
</event>
<event>
 6    1  0.4216855E-002  0.1277413E+03  0.7546771E-02  0.1230846E+00
         21   -1    0    0  503  502  0.00000000000E+00  0.00000000000E+00  0.66308100101E+01  0.66308100101E+01  0.00000000000E+00 0. -1.
         21   -1    0    0  504  503 -0.00000000000E+00 -0.00000000000E+00 -0.10655323824E+04  0.10655323824E+04  0.00000000000E+00 0. -1.
         25    2    1    2    0    0  0.78505430006E+01 -0.25103162073E+02 -0.99337881723E+03  0.10015584389E+04  0.12500412906E+03 0.  0.
          5    1    3    3  501    0 -0.37472928898E+02  0.29684156630E+02 -0.59225249580E+03  0.59417875958E+03  0.10000000000E+00 0.  1.
         -5    1    3    3    0  501  0.45323471898E+02 -0.54787318703E+02 -0.40112632142E+03  0.40737967933E+03  0.10000000000E+00 0.  1.
         21    1    1    2  504  502 -0.78505430006E+01  0.25103162073E+02 -0.65522755154E+02  0.70604753483E+02  0.00000000000E+00 0. -1.
<mgrwt>
<rscale>  1 0.12774127E+03</rscale>
<asrwt>0</asrwt>
<pdfrwt beam="1">  1       21 0.10201251E-02 0.12774127E+03</pdfrwt>
<pdfrwt beam="2">  1       21 0.16392797E+00 0.12774127E+03</pdfrwt>
<totfact> 0.86942373E+05</totfact>
</mgrwt>
</event>
<event>
 6    1  0.4216855E-002  0.1262659E+03  0.7546771E-02  0.1233104E+00
         21   -1    0    0  504  502  0.00000000000E+00  0.00000000000E+00  0.97870832254E+03  0.97870832254E+03  0.00000000000E+00 0. -1.
         21   -1    0    0  502  503 -0.00000000000E+00 -0.00000000000E+00 -0.24178565696E+02  0.24178565696E+02  0.00000000000E+00 0. -1.
         25    2    1    2    0    0  0.50143311644E+01 -0.17333818394E+02  0.14145413512E+03  0.18961106084E+03  0.12496990547E+03 0.  0.
          5    1    3    3  501    0  0.18742754199E+02 -0.66268585869E+02  0.11018946840E+03  0.12994054508E+03  0.10000000000E+00 0.  1.
         -5    1    3    3    0  501 -0.13728423035E+02  0.48934767475E+02  0.31264666715E+02  0.59670515764E+02  0.10000000000E+00 0.  1.
         21    1    1    2  504  503 -0.50143311644E+01  0.17333818394E+02  0.81307562172E+03  0.81327582739E+03  0.00000000000E+00 0. -1.
<mgrwt>
<rscale>  1 0.12626592E+03</rscale>
<asrwt>0</asrwt>
<pdfrwt beam="1">  1       21 0.15057048E+00 0.12626592E+03</pdfrwt>
<pdfrwt beam="2">  1       21 0.37197801E-02 0.12626592E+03</pdfrwt>
<totfact> 0.13501283E+05</totfact>
</mgrwt>
</event>
<event>
 6    1  0.4216855E-002  0.1264770E+03  0.7546771E-02  0.1232779E+00
         21   -1    0    0  504  502  0.00000000000E+00  0.00000000000E+00  0.40788978863E+02  0.40788978863E+02  0.00000000000E+00 0. -1.
         21   -1    0    0  502  503 -0.00000000000E+00 -0.00000000000E+00 -0.26184605249E+03  0.26184605249E+03  0.00000000000E+00 0. -1.
         25    2    1    2    0    0  0.19195976008E+02 -0.15863790028E+01 -0.24269030889E+03  0.27366955257E+03  0.12500174353E+03 0.  0.
          5    1    3    3  501    0 -0.82514527341E+01  0.34993760616E+02 -0.11130754579E+02  0.37637128633E+02  0.10000000000E+00 0.  1.
         -5    1    3    3    0  501  0.27447428742E+02 -0.36580139619E+02 -0.23155955431E+03  0.23603242394E+03  0.10000000000E+00 0.  1.
         21    1    1    2  504  503 -0.19195976008E+02  0.15863790028E+01  0.21633235260E+02  0.28965478782E+02  0.00000000000E+00 0. -1.
<mgrwt>
<rscale>  1 0.12647703E+03</rscale>
<asrwt>0</asrwt>
<pdfrwt beam="1">  1       21 0.62752275E-02 0.12647703E+03</pdfrwt>
<pdfrwt beam="2">  1       21 0.40284008E-01 0.12647703E+03</pdfrwt>
<totfact> 0.10849345E+06</totfact>
</mgrwt>
</event>
<event>
 6    1  0.4216855E-002  0.1713596E+03  0.7546771E-02  0.1176437E+00
         21   -1    0    0  503  502  0.00000000000E+00  0.00000000000E+00  0.44704140712E+02  0.44704140712E+02  0.00000000000E+00 0. -1.
         21   -1    0    0  504  503 -0.00000000000E+00 -0.00000000000E+00 -0.63968511732E+03  0.63968511732E+03  0.00000000000E+00 0. -1.
         25    2    1    2    0    0 -0.80077442514E+01  0.11693949845E+03 -0.51428933784E+03  0.54208637390E+03  0.12500057395E+03 0.  0.
          5    1    3    3  501    0 -0.26775384673E+01 -0.26761745654E+02 -0.64967435736E+02  0.70314564272E+02  0.10000000000E+00 0.  1.
         -5    1    3    3    0  501 -0.53302057841E+01  0.14370124410E+03 -0.44932190211E+03  0.47177180963E+03  0.10000000000E+00 0.  1.
         21    1    1    2  504  502  0.80077442514E+01 -0.11693949845E+03 -0.80691638765E+02  0.14230288413E+03  0.00000000000E+00 0. -1.
<mgrwt>
<rscale>  1 0.17135960E+03</rscale>
<asrwt>0</asrwt>
<pdfrwt beam="1">  1       21 0.68775603E-02 0.17135960E+03</pdfrwt>
<pdfrwt beam="2">  1       21 0.98413092E-01 0.17135960E+03</pdfrwt>
<totfact> 0.13403737E+05</totfact>
</mgrwt>
</event>
<event>
 6    1  0.4216855E-002  0.1297359E+03  0.7546771E-02  0.1227848E+00
         21   -1    0    0  504  502  0.00000000000E+00  0.00000000000E+00  0.22249890310E+04  0.22249890310E+04  0.00000000000E+00 0. -1.
         21   -1    0    0  502  503 -0.00000000000E+00 -0.00000000000E+00 -0.14702605824E+02  0.14702605824E+02  0.00000000000E+00 0. -1.
         25    2    1    2    0    0  0.15825475356E+02  0.30877805135E+02  0.27470930032E+03  0.30380354843E+03  0.12501004694E+03 0.  0.
          5    1    3    3  501    0  0.49159252219E+02 -0.24546022578E+02  0.69224911988E+02  0.88381206956E+02  0.10000000000E+00 0. -1.
         -5    1    3    3    0  501 -0.33333776863E+02  0.55423827713E+02  0.20548438834E+03  0.21542234148E+03  0.10000000000E+00 0. -1.
         21    1    1    2  504  503 -0.15825475356E+02 -0.30877805135E+02  0.19355771249E+04  0.19358880884E+04  0.00000000000E+00 0. -1.
<mgrwt>
<rscale>  1 0.12973587E+03</rscale>
<asrwt>0</asrwt>
<pdfrwt beam="1">  1       21 0.34230574E+00 0.12973587E+03</pdfrwt>
<pdfrwt beam="2">  1       21 0.22619411E-02 0.12973587E+03</pdfrwt>
<totfact> 0.21178287E+04</totfact>
</mgrwt>
</event>
<event>
 6    1  0.4216855E-002  0.1268944E+03  0.7546771E-02  0.1232138E+00
         21   -1    0    0  504  502  0.00000000000E+00  0.00000000000E+00  0.58992262105E+02  0.58992262105E+02  0.00000000000E+00 0.  1.
         21   -1    0    0  502  503 -0.00000000000E+00 -0.00000000000E+00 -0.93742976725E+02  0.93742976725E+02  0.00000000000E+00 0.  1.
         25    2    1    2    0    0  0.16553473621E+02  0.14235569327E+02 -0.29348435099E+02  0.13024405062E+03  0.12500205261E+03 0.  0.
          5    1    3    3  501    0 -0.57059342095E+01 -0.34091846807E+02  0.33336417678E+02  0.48022270328E+02  0.10000000000E+00 0. -1.
         -5    1    3    3    0  501  0.22259407831E+02  0.48327416133E+02 -0.62684852777E+02  0.82221780294E+02  0.10000000000E+00 0. -1.
         21    1    1    2  504  503 -0.16553473621E+02 -0.14235569327E+02 -0.54022795206E+01  0.22491188208E+02  0.00000000000E+00 0.  1.
<mgrwt>
<rscale>  1 0.12689437E+03</rscale>
<asrwt>0</asrwt>
<pdfrwt beam="1">  1       21 0.90757326E-02 0.12689437E+03</pdfrwt>
<pdfrwt beam="2">  1       21 0.14421996E-01 0.12689437E+03</pdfrwt>
<totfact> 0.40004251E+06</totfact>
</mgrwt>
</event>
<event>
 6    1  0.4216855E-002  0.1259945E+03  0.7546771E-02  0.1233523E+00
         21   -1    0    0  503  502  0.00000000000E+00  0.00000000000E+00  0.37171416113E+02  0.37171416113E+02  0.00000000000E+00 0. -1.
         21   -1    0    0  504  503 -0.00000000000E+00 -0.00000000000E+00 -0.15822208170E+03  0.15822208170E+03  0.00000000000E+00 0. -1.
         25    2    1    2    0    0  0.11667825600E+02  0.10600617641E+02 -0.12666640415E+03  0.17865886999E+03  0.12500441048E+03 0.  0.
          5    1    3    3  501    0  0.15854742042E+02  0.35466076304E+02  0.96504529134E+01  0.40029447349E+02  0.10000000000E+00 0. -1.
         -5    1    3    3    0  501 -0.41869164421E+01 -0.24865458663E+02 -0.13631685706E+03  0.13862942264E+03  0.10000000000E+00 0. -1.
         21    1    1    2  504  502 -0.11667825600E+02 -0.10600617641E+02  0.56157385627E+01  0.16734627818E+02  0.00000000000E+00 0.  1.
<mgrwt>
<rscale>  1 0.12599450E+03</rscale>
<asrwt>0</asrwt>
<pdfrwt beam="1">  1       21 0.57186794E-02 0.12599450E+03</pdfrwt>
<pdfrwt beam="2">  1       21 0.24341859E-01 0.12599450E+03</pdfrwt>
<totfact> 0.33714224E+06</totfact>
</mgrwt>
</event>
<event>
 6    1  0.4216855E-002  0.1585445E+03  0.7546771E-02  0.1190350E+00
         21   -1    0    0  504  502  0.00000000000E+00  0.00000000000E+00  0.10721668010E+03  0.10721668010E+03  0.00000000000E+00 0. -1.
         21   -1    0    0  502  503 -0.00000000000E+00 -0.00000000000E+00 -0.17444084474E+03  0.17444084474E+03  0.00000000000E+00 0. -1.
         25    2    1    2    0    0  0.75745453347E+02  0.61448152019E+02  0.76006776184E+01  0.15872662511E+03  0.12499248830E+03 0.  0.
          5    1    3    3  501    0  0.11065929467E+03  0.44434324972E+02  0.10920100687E+02  0.11974617878E+03  0.10000000000E+00 0. -1.
         -5    1    3    3    0  501 -0.34913841326E+02  0.17013827048E+02 -0.33194230689E+01  0.38980446335E+02  0.10000000000E+00 0. -1.
         21    1    1    2  504  503 -0.75745453347E+02 -0.61448152019E+02 -0.74824842256E+02  0.12293089973E+03  0.00000000000E+00 0. -1.
<mgrwt>
<rscale>  1 0.15854454E+03</rscale>
<asrwt>0</asrwt>
<pdfrwt beam="1">  1       21 0.16494874E-01 0.15854454E+03</pdfrwt>
<pdfrwt beam="2">  1       21 0.26837053E-01 0.15854454E+03</pdfrwt>
<totfact> 0.43871185E+05</totfact>
</mgrwt>
</event>
<event>
 6    1  0.4216855E-002  0.1263570E+03  0.7546771E-02  0.1232964E+00
         21   -1    0    0  504  502  0.00000000000E+00  0.00000000000E+00  0.57659445115E+01  0.57659445115E+01  0.00000000000E+00 0. -1.
         21   -1    0    0  502  503 -0.00000000000E+00 -0.00000000000E+00 -0.91227218889E+03  0.91227218889E+03  0.00000000000E+00 0. -1.
         25    2    1    2    0    0 -0.13824432376E+02 -0.12253631925E+02 -0.77283952491E+03  0.78310089496E+03  0.12499925596E+03 0.  0.
          5    1    3    3  501    0  0.91846057213E+01 -0.19245852021E+00 -0.74487394809E+03  0.74493060252E+03  0.10000000000E+00 0.  1.
         -5    1    3    3    0  501 -0.23009038097E+02 -0.12061173405E+02 -0.27965576822E+02  0.38170292441E+02  0.10000000000E+00 0.  1.
         21    1    1    2  504  503  0.13824432376E+02  0.12253631925E+02 -0.13366671947E+03  0.13493723844E+03  0.00000000000E+00 0. -1.
<mgrwt>
<rscale>  1 0.12635696E+03</rscale>
<asrwt>0</asrwt>
<pdfrwt beam="1">  1       21 0.88706828E-03 0.12635696E+03</pdfrwt>
<pdfrwt beam="2">  1       21 0.14034958E+00 0.12635696E+03</pdfrwt>
<totfact> 0.16226294E+06</totfact>
</mgrwt>
</event>
<event>
 6    1  0.4216855E-002  0.1268630E+03  0.7546771E-02  0.1232186E+00
         21   -1    0    0  503  502  0.00000000000E+00  0.00000000000E+00  0.36716574855E+03  0.36716574855E+03  0.00000000000E+00 0.  1.
         21   -1    0    0  504  503 -0.00000000000E+00 -0.00000000000E+00 -0.23048515924E+02  0.23048515924E+02  0.00000000000E+00 0.  1.
         25    2    1    2    0    0 -0.21625683839E+02 -0.96069588677E+00  0.15700206911E+03  0.20185111109E+03  0.12500251278E+03 0.  0.
          5    1    3    3  501    0  0.19907972923E+02 -0.54730353291E+02  0.82944510811E+02  0.10134861040E+03  0.10000000000E+00 0.  1.
         -5    1    3    3    0  501 -0.41533656763E+02  0.53769657404E+02  0.74057558303E+02  0.10050250068E+03  0.10000000000E+00 0.  1.
         21    1    1    2  504  502  0.21625683839E+02  0.96069588677E+00  0.18711516352E+03  0.18836315339E+03  0.00000000000E+00 0.  1.
<mgrwt>
<rscale>  1 0.12686300E+03</rscale>
<asrwt>0</asrwt>
<pdfrwt beam="1">  1       21 0.56487034E-01 0.12686300E+03</pdfrwt>
<pdfrwt beam="2">  1       21 0.35459258E-02 0.12686300E+03</pdfrwt>
<totfact> 0.14114913E+06</totfact>
</mgrwt>
</event>
<event>
 6    1  0.4216855E-002  0.1323129E+03  0.7546771E-02  0.1224064E+00
         21   -1    0    0  503  502  0.00000000000E+00  0.00000000000E+00  0.54306270391E+02  0.54306270391E+02  0.00000000000E+00 0. -1.
         21   -1    0    0  504  503 -0.00000000000E+00 -0.00000000000E+00 -0.31490994051E+03  0.31490994051E+03  0.00000000000E+00 0. -1.
         25    2    1    2    0    0  0.31609817984E+02 -0.29723059174E+02 -0.28866458469E+03  0.31754362855E+03  0.12499629091E+03 0.  0.
          5    1    3    3  501    0 -0.31040750621E+02  0.29446251879E+02 -0.13175032624E+03  0.13852353018E+03  0.10000000000E+00 0. -1.
         -5    1    3    3    0  501  0.62650568605E+02 -0.59169311054E+02 -0.15691425845E+03  0.17902009837E+03  0.10000000000E+00 0. -1.
         21    1    1    2  504  502 -0.31609817984E+02  0.29723059174E+02  0.28060914572E+02  0.51672582346E+02  0.00000000000E+00 0. -1.
<mgrwt>
<rscale>  1 0.13231294E+03</rscale>
<asrwt>0</asrwt>
<pdfrwt beam="1">  1       21 0.83548106E-02 0.13231294E+03</pdfrwt>
<pdfrwt beam="2">  1       21 0.48447684E-01 0.13231294E+03</pdfrwt>
<totfact> 0.45691288E+05</totfact>
</mgrwt>
</event>
<event>
 6    1  0.4216855E-002  0.1452964E+03  0.7546771E-02  0.1206375E+00
         21   -1    0    0  503  502  0.00000000000E+00  0.00000000000E+00  0.33239074106E+03  0.33239074106E+03  0.00000000000E+00 0. -1.
         21   -1    0    0  504  503 -0.00000000000E+00 -0.00000000000E+00 -0.65665618679E+02  0.65665618679E+02  0.00000000000E+00 0.  1.
         25    2    1    2    0    0  0.13070172432E+02 -0.72894691573E+02  0.27819564881E+02  0.14793572710E+03  0.12500634262E+03 0.  0.
          5    1    3    3  501    0 -0.44053213404E+01 -0.44333767199E+02 -0.47734082697E+02  0.65295041321E+02  0.10000000000E+00 0. -1.
         -5    1    3    3    0  501  0.17475493772E+02 -0.28560924374E+02  0.75553647578E+02  0.82640685779E+02  0.10000000000E+00 0. -1.
         21    1    1    2  504  502 -0.13070172432E+02  0.72894691573E+02  0.23890555750E+03  0.25012063264E+03  0.00000000000E+00 0. -1.
<mgrwt>
<rscale>  1 0.14529643E+03</rscale>
<asrwt>0</asrwt>
<pdfrwt beam="1">  1       21 0.51137036E-01 0.14529643E+03</pdfrwt>
<pdfrwt beam="2">  1       21 0.10102403E-01 0.14529643E+03</pdfrwt>
<totfact> 0.29290880E+05</totfact>
</mgrwt>
</event>
<event>
 6    1  0.4216855E-002  0.1284239E+03  0.7546771E-02  0.1229813E+00
         21   -1    0    0  503  502  0.00000000000E+00  0.00000000000E+00  0.54180083910E+03  0.54180083910E+03  0.00000000000E+00 0. -1.
         21   -1    0    0  504  503 -0.00000000000E+00 -0.00000000000E+00 -0.13031139713E+02  0.13031139713E+02  0.00000000000E+00 0. -1.
         25    2    1    2    0    0  0.15289429973E+02  0.25161591685E+02  0.33380996180E+03  0.35766156611E+03  0.12500333160E+03 0.  0.
          5    1    3    3  501    0  0.30572251775E+02  0.45583890273E+02  0.55050548856E+02  0.77737549231E+02  0.10000000000E+00 0.  1.
         -5    1    3    3    0  501 -0.15282821802E+02 -0.20422298589E+02  0.27875941295E+03  0.27992401688E+03  0.10000000000E+00 0.  1.
         21    1    1    2  504  502 -0.15289429973E+02 -0.25161591685E+02  0.19495973758E+03  0.19717041269E+03  0.00000000000E+00 0. -1.
<mgrwt>
<rscale>  1 0.12842393E+03</rscale>
<asrwt>0</asrwt>
<pdfrwt beam="1">  1       21 0.83353958E-01 0.12842393E+03</pdfrwt>
<pdfrwt beam="2">  1       21 0.20047911E-02 0.12842393E+03</pdfrwt>
<totfact> 0.15367631E+06</totfact>
</mgrwt>
</event>
<event>
 6    1  0.4216855E-002  0.1285245E+03  0.7546771E-02  0.1229662E+00
         21   -1    0    0  504  502  0.00000000000E+00  0.00000000000E+00  0.90581097559E+02  0.90581097559E+02  0.00000000000E+00 0.  1.
         21   -1    0    0  502  503 -0.00000000000E+00 -0.00000000000E+00 -0.10599709066E+03  0.10599709066E+03  0.00000000000E+00 0. -1.
         25    2    1    2    0    0 -0.21393673375E+02 -0.20849920038E+02 -0.60851234087E+02  0.14220200272E+03  0.12500451377E+03 0.  0.
          5    1    3    3  501    0  0.34654734152E+02 -0.52268070475E+02 -0.41101269576E+02  0.74981505393E+02  0.10000000000E+00 0.  1.
         -5    1    3    3    0  501 -0.56048407526E+02  0.31418150437E+02 -0.19749964511E+02  0.67220497330E+02  0.10000000000E+00 0.  1.
         21    1    1    2  504  503  0.21393673375E+02  0.20849920038E+02  0.45435240984E+02  0.54376185498E+02  0.00000000000E+00 0.  1.
<mgrwt>
<rscale>  1 0.12852446E+03</rscale>
<asrwt>0</asrwt>
<pdfrwt beam="1">  1       21 0.13935553E-01 0.12852446E+03</pdfrwt>
<pdfrwt beam="2">  1       21 0.16307245E-01 0.12852446E+03</pdfrwt>
<totfact> 0.15048995E+06</totfact>
</mgrwt>
</event>
<event>
 6    1  0.4216855E-002  0.1310243E+03  0.7546771E-02  0.1225944E+00
         21   -1    0    0  504  502  0.00000000000E+00  0.00000000000E+00  0.28436389377E+02  0.28436389377E+02  0.00000000000E+00 0. -1.
         21   -1    0    0  502  503 -0.00000000000E+00 -0.00000000000E+00 -0.25931720365E+03  0.25931720365E+03  0.00000000000E+00 0. -1.
         25    2    1    2    0    0  0.39107646754E+02 -0.34815547982E+01 -0.19240914936E+03  0.23278452664E+03  0.12500330326E+03 0.  0.
          5    1    3    3  501    0 -0.41508879844E+02  0.32430403011E+01 -0.29918558129E+02  0.51270211008E+02  0.10000000000E+00 0. -1.
         -5    1    3    3    0  501  0.80616526598E+02 -0.67245950993E+01 -0.16249059123E+03  0.18151431563E+03  0.10000000000E+00 0. -1.
         21    1    1    2  504  503 -0.39107646754E+02  0.34815547982E+01 -0.38471664911E+02  0.54969066387E+02  0.00000000000E+00 0. -1.
<mgrwt>
<rscale>  1 0.13102425E+03</rscale>
<asrwt>0</asrwt>
<pdfrwt beam="1">  1       21 0.43748293E-02 0.13102425E+03</pdfrwt>
<pdfrwt beam="2">  1       21 0.39894953E-01 0.13102425E+03</pdfrwt>
<totfact> 0.20318302E+06</totfact>
</mgrwt>
</event>
<event>
 6    1  0.4216855E-002  0.1767135E+03  0.7546771E-02  0.1171022E+00
         21   -1    0    0  504  502  0.00000000000E+00  0.00000000000E+00  0.19592275179E+03  0.19592275179E+03  0.00000000000E+00 0.  1.
         21   -1    0    0  502  503 -0.00000000000E+00 -0.00000000000E+00 -0.18959088877E+03  0.18959088877E+03  0.00000000000E+00 0.  1.
         25    2    1    2    0    0 -0.11222734837E+03 -0.54856491959E+02 -0.11542869564E+03  0.21107211432E+03  0.12499376477E+03 0.  0.
          5    1    3    3  501    0 -0.80314950002E+02  0.29383103161E+02 -0.44424825319E+02  0.96371328982E+02  0.10000000000E+00 0.  1.
         -5    1    3    3    0  501 -0.31912398370E+02 -0.84239595120E+02 -0.71003870324E+02  0.11470078534E+03  0.10000000000E+00 0.  1.
         21    1    1    2  504  503  0.11222734837E+03  0.54856491959E+02  0.12176055866E+03  0.17444152624E+03  0.00000000000E+00 0.  1.
<mgrwt>
<rscale>  1 0.17671348E+03</rscale>
<asrwt>0</asrwt>
<pdfrwt beam="1">  1       21 0.30141962E-01 0.17671348E+03</pdfrwt>
<pdfrwt beam="2">  1       21 0.29167829E-01 0.17671348E+03</pdfrwt>
<totfact> 0.11951601E+05</totfact>
</mgrwt>
</event>
<event>
 6    1  0.4216855E-002  0.1276736E+03  0.7546771E-02  0.1230949E+00
         21   -1    0    0  504  502  0.00000000000E+00  0.00000000000E+00  0.74493960032E+03  0.74493960032E+03  0.00000000000E+00 0. -1.
         21   -1    0    0  502  503 -0.00000000000E+00 -0.00000000000E+00 -0.80588377031E+01  0.80588377031E+01  0.00000000000E+00 0. -1.
         25    2    1    2    0    0  0.60372952457E+01 -0.25285435049E+02  0.57155010774E+03  0.58563647220E+03  0.12499899905E+03 0.  0.
          5    1    3    3  501    0  0.63369278885E+01  0.23916412478E+02  0.19779230694E+02  0.31676164662E+02  0.10000000000E+00 0. -1.
         -5    1    3    3    0  501 -0.29963264286E+00 -0.49201847527E+02  0.55177087704E+03  0.55396030754E+03  0.10000000000E+00 0. -1.
         21    1    1    2  504  503 -0.60372952457E+01  0.25285435049E+02  0.16533065488E+03  0.16736196582E+03  0.00000000000E+00 0. -1.
<mgrwt>
<rscale>  1 0.12767361E+03</rscale>
<asrwt>0</asrwt>
<pdfrwt beam="1">  1       21 0.11460604E+00 0.12767361E+03</pdfrwt>
<pdfrwt beam="2">  1       21 0.12398218E-02 0.12767361E+03</pdfrwt>
<totfact> 0.15789554E+06</totfact>
</mgrwt>
</event>
<event>
 6    1  0.4216855E-002  0.1547704E+03  0.7546771E-02  0.1194731E+00
         21   -1    0    0  503  502  0.00000000000E+00  0.00000000000E+00  0.41192187013E+02  0.41192187013E+02  0.00000000000E+00 0.  1.
         21   -1    0    0  504  503 -0.00000000000E+00 -0.00000000000E+00 -0.36973315918E+03  0.36973315918E+03  0.00000000000E+00 0.  1.
         25    2    1    2    0    0 -0.86938375893E+02 -0.27764898087E+02 -0.22223451516E+03  0.27081741076E+03  0.12499887790E+03 0.  0.
          5    1    3    3  501    0 -0.15936340583E+02 -0.60797938104E+02 -0.15623828731E+03  0.16840655762E+03  0.10000000000E+00 0. -1.
         -5    1    3    3    0  501 -0.71002035310E+02  0.33033040018E+02 -0.65996227855E+02  0.10241085315E+03  0.10000000000E+00 0. -1.
         21    1    1    2  504  502  0.86938375893E+02  0.27764898087E+02 -0.10630645701E+03  0.14010793543E+03  0.00000000000E+00 0.  1.
<mgrwt>
<rscale>  1 0.15477044E+03</rscale>
<asrwt>0</asrwt>
<pdfrwt beam="1">  1       21 0.63372596E-02 0.15477044E+03</pdfrwt>
<pdfrwt beam="2">  1       21 0.56882024E-01 0.15477044E+03</pdfrwt>
<totfact> 0.52465909E+05</totfact>
</mgrwt>
</event>
<event>
 6    1  0.4216855E-002  0.1259795E+03  0.7546771E-02  0.1233546E+00
         21   -1    0    0  504  502  0.00000000000E+00  0.00000000000E+00  0.26802603083E+03  0.26802603083E+03  0.00000000000E+00 0.  1.
         21   -1    0    0  502  503 -0.00000000000E+00 -0.00000000000E+00 -0.19350726675E+02  0.19350726675E+02  0.00000000000E+00 0.  1.
         25    2    1    2    0    0 -0.14922782196E+02 -0.47156912871E+01  0.20117939394E+03  0.23736887152E+03  0.12500362175E+03 0.  0.
          5    1    3    3  501    0 -0.34543172949E+02 -0.50753314190E+02  0.16373576826E+03  0.17486721107E+03  0.10000000000E+00 0.  1.
         -5    1    3    3    0  501  0.19620390752E+02  0.46037622903E+02  0.37443625672E+02  0.62501660453E+02  0.10000000000E+00 0.  1.
         21    1    1    2  504  503  0.14922782196E+02  0.47156912871E+01  0.47495910213E+02  0.50007885976E+02  0.00000000000E+00 0.  1.
<mgrwt>
<rscale>  1 0.12597949E+03</rscale>
<asrwt>0</asrwt>
<pdfrwt beam="1">  1       21 0.41234771E-01 0.12597949E+03</pdfrwt>
<pdfrwt beam="2">  1       21 0.29770351E-02 0.12597949E+03</pdfrwt>
<totfact> 0.35892375E+06</totfact>
</mgrwt>
</event>
<event>
 6    1  0.4216855E-002  0.1264167E+03  0.7546771E-02  0.1232872E+00
         21   -1    0    0  504  502  0.00000000000E+00  0.00000000000E+00  0.63724630815E+02  0.63724630815E+02  0.00000000000E+00 0.  1.
         21   -1    0    0  502  503 -0.00000000000E+00 -0.00000000000E+00 -0.15271054098E+03  0.15271054098E+03  0.00000000000E+00 0. -1.
         25    2    1    2    0    0  0.18490759102E+02 -0.38323729792E+01 -0.12373018342E+03  0.17689076916E+03  0.12499836267E+03 0.  0.
          5    1    3    3  501    0 -0.52617858075E+02 -0.75417675341E+01 -0.68898034641E+02  0.87019919693E+02  0.10000000000E+00 0. -1.
         -5    1    3    3    0  501  0.71108617177E+02  0.37093945549E+01 -0.54832148780E+02  0.89870849471E+02  0.10000000000E+00 0. -1.
         21    1    1    2  504  503 -0.18490759102E+02  0.38323729792E+01  0.34744273259E+02  0.39544402627E+02  0.00000000000E+00 0.  1.
<mgrwt>
<rscale>  1 0.12641672E+03</rscale>
<asrwt>0</asrwt>
<pdfrwt beam="1">  1       21 0.98037893E-02 0.12641672E+03</pdfrwt>
<pdfrwt beam="2">  1       21 0.23493929E-01 0.12641672E+03</pdfrwt>
<totfact> 0.14284485E+06</totfact>
</mgrwt>
</event>
<event>
 6    1  0.4216855E-002  0.1263171E+03  0.7546771E-02  0.1233025E+00
         21   -1    0    0  503  502  0.00000000000E+00  0.00000000000E+00  0.13446254289E+03  0.13446254289E+03  0.00000000000E+00 0. -1.
         21   -1    0    0  504  503 -0.00000000000E+00 -0.00000000000E+00 -0.57880676680E+02  0.57880676680E+02  0.00000000000E+00 0. -1.
         25    2    1    2    0    0  0.16426252941E+02 -0.77800021106E+01  0.13900257124E+02  0.12707964369E+03  0.12500267387E+03 0.  0.
          5    1    3    3  501    0 -0.40773847312E+02 -0.89805651300E+01 -0.32906022112E+02  0.53159885872E+02  0.10000000000E+00 0.  1.
         -5    1    3    3    0  501  0.57200100253E+02  0.12005630194E+01  0.46806279236E+02  0.73919757822E+02  0.10000000000E+00 0.  1.
         21    1    1    2  504  502 -0.16426252941E+02  0.77800021106E+01  0.62681609084E+02  0.65263575874E+02  0.00000000000E+00 0. -1.
<mgrwt>
<rscale>  1 0.12631714E+03</rscale>
<asrwt>0</asrwt>
<pdfrwt beam="1">  1       21 0.20686545E-01 0.12631714E+03</pdfrwt>
<pdfrwt beam="2">  1       21 0.89047195E-02 0.12631714E+03</pdfrwt>
<totfact> 0.21411928E+06</totfact>
</mgrwt>
</event>
<event>
 6    1  0.4216855E-002  0.1288554E+03  0.7546771E-02  0.1229164E+00
         21   -1    0    0  504  502  0.00000000000E+00  0.00000000000E+00  0.67058170416E+02  0.67058170416E+02  0.00000000000E+00 0.  1.
         21   -1    0    0  502  503 -0.00000000000E+00 -0.00000000000E+00 -0.10501964795E+03  0.10501964795E+03  0.00000000000E+00 0.  1.
         25    2    1    2    0    0 -0.92699478651E+01 -0.29849192293E+02 -0.50504400385E+02  0.13839947032E+03  0.12500725064E+03 0.  0.
          5    1    3    3  501    0  0.14909536585E+02 -0.50751612724E+02  0.23429220110E+02  0.57852906844E+02  0.10000000000E+00 0. -1.
         -5    1    3    3    0  501 -0.24179484451E+02  0.20902420431E+02 -0.73933620495E+02  0.80546563475E+02  0.10000000000E+00 0. -1.
         21    1    1    2  504  503  0.92699478651E+01  0.29849192293E+02  0.12542922846E+02  0.33678348052E+02  0.00000000000E+00 0.  1.
<mgrwt>
<rscale>  1 0.12885542E+03</rscale>
<asrwt>0</asrwt>
<pdfrwt beam="1">  1       21 0.10316642E-01 0.12885542E+03</pdfrwt>
<pdfrwt beam="2">  1       21 0.16156869E-01 0.12885542E+03</pdfrwt>
<totfact> 0.26074048E+06</totfact>
</mgrwt>
</event>
<event>
 6    1  0.4216855E-002  0.1330832E+03  0.7546771E-02  0.1222951E+00
         21   -1    0    0  504  502  0.00000000000E+00  0.00000000000E+00  0.16641307285E+02  0.16641307285E+02  0.00000000000E+00 0. -1.
         21   -1    0    0  502  503 -0.00000000000E+00 -0.00000000000E+00 -0.75226711768E+03  0.75226711768E+03  0.00000000000E+00 0.  1.
         25    2    1    2    0    0  0.39088524687E+02  0.23628066205E+02 -0.69547888388E+03  0.70809745570E+03  0.12499972228E+03 0.  0.
          5    1    3    3  501    0  0.66300022955E+02  0.57043225274E+02 -0.52621552906E+03  0.53343454671E+03  0.10000000000E+00 0.  1.
         -5    1    3    3    0  501 -0.27211498268E+02 -0.33415159069E+02 -0.16926335482E+03  0.17466290899E+03  0.10000000000E+00 0.  1.
         21    1    1    2  504  503 -0.39088524687E+02 -0.23628066205E+02 -0.40146926520E+02  0.60810969272E+02  0.00000000000E+00 0. -1.
<mgrwt>
<rscale>  1 0.13308317E+03</rscale>
<asrwt>0</asrwt>
<pdfrwt beam="1">  1       21 0.25602012E-02 0.13308317E+03</pdfrwt>
<pdfrwt beam="2">  1       21 0.11573340E+00 0.13308317E+03</pdfrwt>
<totfact> 0.48054651E+05</totfact>
</mgrwt>
</event>
<event>
 6    1  0.4216855E-002  0.1492232E+03  0.7546771E-02  0.1201431E+00
         21   -1    0    0  504  502  0.00000000000E+00  0.00000000000E+00  0.29193966531E+03  0.29193966531E+03  0.00000000000E+00 0.  1.
         21   -1    0    0  502  503 -0.00000000000E+00 -0.00000000000E+00 -0.46263815950E+02  0.46263815950E+02  0.00000000000E+00 0.  1.
         25    2    1    2    0    0 -0.64665650152E+01  0.81281596423E+02  0.13898766686E+03  0.20392435904E+03  0.12497623090E+03 0.  0.
          5    1    3    3  501    0  0.61923132454E+01 -0.23197112417E+02 -0.60177883689E+01  0.24752263425E+02  0.10000000000E+00 0.  1.
         -5    1    3    3    0  501 -0.12658878261E+02  0.10447870884E+03  0.14500545523E+03  0.17917209561E+03  0.10000000000E+00 0.  1.
         21    1    1    2  504  503  0.64665650152E+01 -0.81281596423E+02  0.10668818249E+03  0.13427912222E+03  0.00000000000E+00 0.  1.
<mgrwt>
<rscale>  1 0.14922323E+03</rscale>
<asrwt>0</asrwt>
<pdfrwt beam="1">  1       21 0.44913794E-01 0.14922323E+03</pdfrwt>
<pdfrwt beam="2">  1       21 0.71175103E-02 0.14922323E+03</pdfrwt>
<totfact> 0.70245126E+05</totfact>
</mgrwt>
</event>
<event>
 6    1  0.4216855E-002  0.1260952E+03  0.7546771E-02  0.1233368E+00
         21   -1    0    0  503  502  0.00000000000E+00  0.00000000000E+00  0.19893933953E+03  0.19893933953E+03  0.00000000000E+00 0.  1.
         21   -1    0    0  504  503 -0.00000000000E+00 -0.00000000000E+00 -0.26619798952E+02  0.26619798952E+02  0.00000000000E+00 0.  1.
         25    2    1    2    0    0  0.91401011994E+01 -0.13853219840E+02  0.13507672140E+03  0.18478560871E+03  0.12499818947E+03 0.  0.
          5    1    3    3  501    0 -0.56429530459E+02 -0.20804773501E+02  0.65875851189E+02  0.89200719045E+02  0.10000000000E+00 0. -1.
         -5    1    3    3    0  501  0.65569631658E+02  0.69515536607E+01  0.69200870216E+02  0.95584889667E+02  0.10000000000E+00 0. -1.
         21    1    1    2  504  502 -0.91401011994E+01  0.13853219840E+02  0.37242819176E+02  0.40773529772E+02  0.00000000000E+00 0.  1.
<mgrwt>
<rscale>  1 0.12609520E+03</rscale>
<asrwt>0</asrwt>
<pdfrwt beam="1">  1       21 0.30606051E-01 0.12609520E+03</pdfrwt>
<pdfrwt beam="2">  1       21 0.40953538E-02 0.12609520E+03</pdfrwt>
<totfact> 0.38121975E+06</totfact>
</mgrwt>
</event>
<event>
 6    1  0.4216855E-002  0.1274088E+03  0.7546771E-02  0.1231352E+00
         21   -1    0    0  503  502  0.00000000000E+00  0.00000000000E+00  0.36998386120E+02  0.36998386120E+02  0.00000000000E+00 0.  1.
         21   -1    0    0  504  503 -0.00000000000E+00 -0.00000000000E+00 -0.30201730339E+03  0.30201730339E+03  0.00000000000E+00 0. -1.
         25    2    1    2    0    0 -0.11856418783E+02 -0.21644972190E+02 -0.28173706422E+03  0.30920669883E+03  0.12499571898E+03 0.  0.
          5    1    3    3  501    0 -0.59480068702E+02  0.15387038614E+02 -0.96541352691E+02  0.11443287250E+03  0.10000000000E+00 0.  1.
         -5    1    3    3    0  501  0.47623649919E+02 -0.37032010804E+02 -0.18519571152E+03  0.19477382633E+03  0.10000000000E+00 0.  1.
         21    1    1    2  504  502  0.11856418783E+02  0.21644972190E+02  0.16718146950E+02  0.29808990672E+02  0.00000000000E+00 0.  1.
<mgrwt>
<rscale>  1 0.12740883E+03</rscale>
<asrwt>0</asrwt>
<pdfrwt beam="1">  1       21 0.56920594E-02 0.12740883E+03</pdfrwt>
<pdfrwt beam="2">  1       21 0.46464201E-01 0.12740883E+03</pdfrwt>
<totfact> 0.95938683E+05</totfact>
</mgrwt>
</event>
<event>
 6    1  0.4216855E-002  0.1342467E+03  0.7546771E-02  0.1221287E+00
         21   -1    0    0  504  502  0.00000000000E+00  0.00000000000E+00  0.77404290231E+02  0.77404290231E+02  0.00000000000E+00 0.  1.
         21   -1    0    0  502  503 -0.00000000000E+00 -0.00000000000E+00 -0.10843937491E+03  0.10843937491E+03  0.00000000000E+00 0.  1.
         25    2    1    2    0    0  0.17639507928E+02 -0.45683004324E+02 -0.23857943571E+02  0.13635022640E+03  0.12499637453E+03 0.  0.
          5    1    3    3  501    0 -0.34621952452E+02 -0.57008430854E+02  0.17259570677E+02  0.68895163546E+02  0.10000000000E+00 0.  1.
         -5    1    3    3    0  501  0.52261460380E+02  0.11325426531E+02 -0.41117514248E+02  0.67455062858E+02  0.10000000000E+00 0.  1.
         21    1    1    2  504  503 -0.17639507928E+02  0.45683004324E+02 -0.71771411120E+01  0.49493438742E+02  0.00000000000E+00 0.  1.
<mgrwt>
<rscale>  1 0.13424672E+03</rscale>
<asrwt>0</asrwt>
<pdfrwt beam="1">  1       21 0.11908352E-01 0.13424672E+03</pdfrwt>
<pdfrwt beam="2">  1       21 0.16682981E-01 0.13424672E+03</pdfrwt>
<totfact> 0.19126023E+06</totfact>
</mgrwt>
</event>
<event>
 6    1  0.4216855E-002  0.1330717E+03  0.7546771E-02  0.1222968E+00
         21   -1    0    0  504  502  0.00000000000E+00  0.00000000000E+00  0.20283075333E+03  0.20283075333E+03  0.00000000000E+00 0. -1.
         21   -1    0    0  502  503 -0.00000000000E+00 -0.00000000000E+00 -0.40029463465E+02  0.40029463465E+02  0.00000000000E+00 0. -1.
         25    2    1    2    0    0 -0.25076758346E+02 -0.38146735355E+02  0.10693224359E+03  0.17071198356E+03  0.12499623748E+03 0.  0.
          5    1    3    3  501    0  0.45032576020E+02 -0.10982132322E+01  0.69988686478E+02  0.83231996313E+02  0.10000000000E+00 0. -1.
         -5    1    3    3    0  501 -0.70109334366E+02 -0.37048522122E+02  0.36943557108E+02  0.87479987245E+02  0.10000000000E+00 0. -1.
         21    1    1    2  504  503  0.25076758346E+02  0.38146735355E+02  0.55869046282E+02  0.72148233241E+02  0.00000000000E+00 0. -1.
<mgrwt>
<rscale>  1 0.13307170E+03</rscale>
<asrwt>0</asrwt>
<pdfrwt beam="1">  1       21 0.31204731E-01 0.13307170E+03</pdfrwt>
<pdfrwt beam="2">  1       21 0.61583791E-02 0.13307170E+03</pdfrwt>
<totfact> 0.18534209E+06</totfact>
</mgrwt>
</event>
<event>
 6    1  0.4216855E-002  0.1295096E+03  0.7546771E-02  0.1228185E+00
         21   -1    0    0  503  502  0.00000000000E+00  0.00000000000E+00  0.28321092994E+03  0.28321092994E+03  0.00000000000E+00 0. -1.
         21   -1    0    0  504  503 -0.00000000000E+00 -0.00000000000E+00 -0.28017788678E+02  0.28017788678E+02  0.00000000000E+00 0. -1.
         25    2    1    2    0    0  0.33793739060E+02 -0.22853142777E+01  0.13806049035E+03  0.18929719123E+03  0.12500195259E+03 0.  0.
          5    1    3    3  501    0 -0.11051678842E+02 -0.26895796535E+02  0.13495092229E+03  0.13804812532E+03  0.10000000000E+00 0.  1.
         -5    1    3    3    0  501  0.44845417902E+02  0.24610482257E+02  0.31095680616E+01  0.51249065916E+02  0.10000000000E+00 0.  1.
         21    1    1    2  504  502 -0.33793739060E+02  0.22853142777E+01  0.11713265091E+03  0.12193152738E+03  0.00000000000E+00 0. -1.
<mgrwt>
<rscale>  1 0.12950957E+03</rscale>
<asrwt>0</asrwt>
<pdfrwt beam="1">  1       21 0.43570910E-01 0.12950957E+03</pdfrwt>
<pdfrwt beam="2">  1       21 0.43104292E-02 0.12950957E+03</pdfrwt>
<totfact> 0.17439086E+06</totfact>
</mgrwt>
</event>
<event>
 6    1  0.4216855E-002  0.1263302E+03  0.7546771E-02  0.1233005E+00
         21   -1    0    0  504  502  0.00000000000E+00  0.00000000000E+00  0.25215025574E+02  0.25215025574E+02  0.00000000000E+00 0. -1.
         21   -1    0    0  502  503 -0.00000000000E+00 -0.00000000000E+00 -0.36607898819E+03  0.36607898819E+03  0.00000000000E+00 0. -1.
         25    2    1    2    0    0 -0.83570384443E+01 -0.16220032357E+02 -0.34911491860E+03  0.37126883422E+03  0.12500556522E+03 0.  0.
          5    1    3    3  501    0  0.23368455862E+02  0.17809358377E+02 -0.13308699502E+02  0.32255068712E+02  0.10000000000E+00 0. -1.
         -5    1    3    3    0  501 -0.31725494306E+02 -0.34029390734E+02 -0.33580621910E+03  0.33901376551E+03  0.10000000000E+00 0. -1.
         21    1    1    2  504  503  0.83570384443E+01  0.16220032357E+02  0.82509559776E+01  0.20025179544E+02  0.00000000000E+00 0. -1.
<mgrwt>
<rscale>  1 0.12633021E+03</rscale>
<asrwt>0</asrwt>
<pdfrwt beam="1">  1       21 0.38792349E-02 0.12633021E+03</pdfrwt>
<pdfrwt beam="2">  1       21 0.56319841E-01 0.12633021E+03</pdfrwt>
<totfact> 0.12240591E+06</totfact>
</mgrwt>
</event>
<event>
 6    1  0.4216855E-002  0.1381564E+03  0.7546771E-02  0.1215831E+00
         21   -1    0    0  504  502  0.00000000000E+00  0.00000000000E+00  0.36924061622E+02  0.36924061622E+02  0.00000000000E+00 0. -1.
         21   -1    0    0  502  503 -0.00000000000E+00 -0.00000000000E+00 -0.26941857534E+03  0.26941857534E+03  0.00000000000E+00 0. -1.
         25    2    1    2    0    0  0.31459201840E+02  0.49711086026E+02 -0.13974351349E+03  0.19650811826E+03  0.12500527000E+03 0.  0.
          5    1    3    3  501    0  0.61207351575E+02 -0.35169931021E+01 -0.24296959955E+02  0.65947413826E+02  0.10000000000E+00 0.  1.
         -5    1    3    3    0  501 -0.29748149735E+02  0.53228079128E+02 -0.11544655353E+03  0.13056070444E+03  0.10000000000E+00 0.  1.
         21    1    1    2  504  503 -0.31459201840E+02 -0.49711086026E+02 -0.92751000231E+02  0.10983451870E+03  0.00000000000E+00 0. -1.
<mgrwt>
<rscale>  1 0.13815640E+03</rscale>
<asrwt>0</asrwt>
<pdfrwt beam="1">  1       21 0.56806248E-02 0.13815640E+03</pdfrwt>
<pdfrwt beam="2">  1       21 0.41449012E-01 0.13815640E+03</pdfrwt>
<totfact> 0.12141124E+06</totfact>
</mgrwt>
</event>
<event>
 6    1  0.4216855E-002  0.1367766E+03  0.7546771E-02  0.1217733E+00
         21   -1    0    0  504  502  0.00000000000E+00  0.00000000000E+00  0.15408963253E+03  0.15408963253E+03  0.00000000000E+00 0. -1.
         21   -1    0    0  502  503 -0.00000000000E+00 -0.00000000000E+00 -0.19782872314E+03  0.19782872314E+03  0.00000000000E+00 0.  1.
         25    2    1    2    0    0 -0.39335137266E+02 -0.39185590614E+02 -0.16751391424E+03  0.21626080703E+03  0.12500024663E+03 0.  0.
          5    1    3    3  501    0 -0.19222355660E+02 -0.30085175549E+01 -0.17336827839E+03  0.17445664242E+03  0.10000000000E+00 0. -1.
         -5    1    3    3    0  501 -0.20112781606E+02 -0.36177073059E+02  0.58543641446E+01  0.41804164608E+02  0.10000000000E+00 0. -1.
         21    1    1    2  504  503  0.39335137266E+02  0.39185590614E+02  0.12377482363E+03  0.13565754863E+03  0.00000000000E+00 0. -1.
<mgrwt>
<rscale>  1 0.13677655E+03</rscale>
<asrwt>0</asrwt>
<pdfrwt beam="1">  1       21 0.23706097E-01 0.13677655E+03</pdfrwt>
<pdfrwt beam="2">  1       21 0.30435188E-01 0.13677655E+03</pdfrwt>
<totfact> 0.17652046E+05</totfact>
</mgrwt>
</event>
<event>
 6    1  0.4216855E-002  0.1386270E+03  0.7546771E-02  0.1215189E+00
         21   -1    0    0  504  502  0.00000000000E+00  0.00000000000E+00  0.81270714764E+02  0.81270714764E+02  0.00000000000E+00 0. -1.
         21   -1    0    0  502  503 -0.00000000000E+00 -0.00000000000E+00 -0.85244339770E+03  0.85244339770E+03  0.00000000000E+00 0. -1.
         25    2    1    2    0    0 -0.44944528378E+02 -0.39641265775E+02 -0.83484421067E+03  0.84627553959E+03  0.12500396891E+03 0.  0.
          5    1    3    3  501    0  0.39567388333E+02  0.20783976220E+01 -0.15758239659E+03  0.16248729080E+03  0.10000000000E+00 0.  1.
         -5    1    3    3    0  501 -0.84511916711E+02 -0.41719663397E+02 -0.67726181408E+03  0.68378824879E+03  0.10000000000E+00 0.  1.
         21    1    1    2  504  503  0.44944528378E+02  0.39641265775E+02  0.63671527728E+02  0.87438572876E+02  0.00000000000E+00 0. -1.
<mgrwt>
<rscale>  1 0.13862696E+03</rscale>
<asrwt>0</asrwt>
<pdfrwt beam="1">  1       21 0.12503187E-01 0.13862696E+03</pdfrwt>
<pdfrwt beam="2">  1       21 0.13114514E+00 0.13862696E+03</pdfrwt>
<totfact> 0.23901328E+04</totfact>
</mgrwt>
</event>
<event>
 6    1  0.4216855E-002  0.1264095E+03  0.7546771E-02  0.1232883E+00
         21   -1    0    0  504  502  0.00000000000E+00  0.00000000000E+00  0.56702299252E+02  0.56702299252E+02  0.00000000000E+00 0.  1.
         21   -1    0    0  502  503 -0.00000000000E+00 -0.00000000000E+00 -0.16041597620E+03  0.16041597620E+03  0.00000000000E+00 0.  1.
         25    2    1    2    0    0  0.18659473874E+02 -0.25041590079E+01 -0.13224004661E+03  0.18293932662E+03  0.12499968208E+03 0.  0.
          5    1    3    3  501    0  0.41170135837E+02 -0.47285018834E+02 -0.11304808571E+03  0.12926999952E+03  0.10000000000E+00 0. -1.
         -5    1    3    3    0  501 -0.22510661963E+02  0.44780859826E+02 -0.19191960892E+02  0.53669327103E+02  0.10000000000E+00 0. -1.
         21    1    1    2  504  503 -0.18659473874E+02  0.25041590079E+01  0.28526369657E+02  0.34178948834E+02  0.00000000000E+00 0.  1.
<mgrwt>
<rscale>  1 0.12640952E+03</rscale>
<asrwt>0</asrwt>
<pdfrwt beam="1">  1       21 0.87234308E-02 0.12640952E+03</pdfrwt>
<pdfrwt beam="2">  1       21 0.24679381E-01 0.12640952E+03</pdfrwt>
<totfact> 0.15952983E+06</totfact>
</mgrwt>
</event>
<event>
 6    1  0.4216855E-002  0.1376178E+03  0.7546771E-02  0.1216571E+00
         21   -1    0    0  504  502  0.00000000000E+00  0.00000000000E+00  0.13766109968E+03  0.13766109968E+03  0.00000000000E+00 0. -1.
         21   -1    0    0  502  503 -0.00000000000E+00 -0.00000000000E+00 -0.11408748937E+03  0.11408748937E+03  0.00000000000E+00 0.  1.
         25    2    1    2    0    0  0.38576489466E+02  0.42715101637E+02 -0.60117904718E+02  0.15017597889E+03  0.12500374683E+03 0.  0.
          5    1    3    3  501    0  0.58764411745E+02  0.77583372807E+02 -0.42352616130E+02  0.10614230974E+03  0.10000000000E+00 0. -1.
         -5    1    3    3    0  501 -0.20187922279E+02 -0.34868271170E+02 -0.17765288588E+02  0.44033669151E+02  0.10000000000E+00 0. -1.
         21    1    1    2  504  503 -0.38576489466E+02 -0.42715101637E+02  0.83691515025E+02  0.10157261016E+03  0.00000000000E+00 0. -1.
<mgrwt>
<rscale>  1 0.13761781E+03</rscale>
<asrwt>0</asrwt>
<pdfrwt beam="1">  1       21 0.21178631E-01 0.13761781E+03</pdfrwt>
<pdfrwt beam="2">  1       21 0.17551921E-01 0.13761781E+03</pdfrwt>
<totfact> 0.61330216E+05</totfact>
</mgrwt>
</event>
<event>
 6    1  0.4216855E-002  0.1636328E+03  0.7546771E-02  0.1184655E+00
         21   -1    0    0  503  502  0.00000000000E+00  0.00000000000E+00  0.20973448595E+03  0.20973448595E+03  0.00000000000E+00 0.  1.
         21   -1    0    0  504  503 -0.00000000000E+00 -0.00000000000E+00 -0.25897802865E+03  0.25897802865E+03  0.00000000000E+00 0.  1.
         25    2    1    2    0    0 -0.78163805313E+02 -0.71003405659E+02 -0.21621305168E+03  0.27115269833E+03  0.12499855206E+03 0.  0.
          5    1    3    3  501    0  0.15401258402E+02 -0.46214058899E+02 -0.20575696318E+02  0.52880121778E+02  0.10000000000E+00 0.  1.
         -5    1    3    3    0  501 -0.93565063715E+02 -0.24789346759E+02 -0.19563735536E+03  0.21827257655E+03  0.10000000000E+00 0.  1.
         21    1    1    2  504  502  0.78163805313E+02  0.71003405659E+02  0.16696950898E+03  0.19755981627E+03  0.00000000000E+00 0.  1.
<mgrwt>
<rscale>  1 0.16363283E+03</rscale>
<asrwt>0</asrwt>
<pdfrwt beam="1">  1       21 0.32266844E-01 0.16363283E+03</pdfrwt>
<pdfrwt beam="2">  1       21 0.39842774E-01 0.16363283E+03</pdfrwt>
<totfact> 0.56875479E+04</totfact>
</mgrwt>
</event>
<event>
 6    1  0.4216855E-002  0.1730187E+03  0.7546771E-02  0.1174736E+00
         21   -1    0    0  503  502  0.00000000000E+00  0.00000000000E+00  0.38660488530E+02  0.38660488530E+02  0.00000000000E+00 0. -1.
         21   -1    0    0  504  503 -0.00000000000E+00 -0.00000000000E+00 -0.93602353944E+03  0.93602353944E+03  0.00000000000E+00 0. -1.
         25    2    1    2    0    0  0.12843221879E+02 -0.11893462698E+03 -0.80545443601E+03  0.82382784700E+03  0.12500031665E+03 0.  0.
          5    1    3    3  501    0 -0.51289614807E+01  0.18847410982E+02 -0.28530208719E+02  0.34576205057E+02  0.10000000000E+00 0.  1.
         -5    1    3    3    0  501  0.17972183360E+02 -0.13778203797E+03 -0.77692422729E+03  0.78925164194E+03  0.10000000000E+00 0.  1.
         21    1    1    2  504  502 -0.12843221879E+02  0.11893462698E+03 -0.91908614903E+02  0.15085618097E+03  0.00000000000E+00 0. -1.
<mgrwt>
<rscale>  1 0.17301871E+03</rscale>
<asrwt>0</asrwt>
<pdfrwt beam="1">  1       21 0.59477679E-02 0.17301871E+03</pdfrwt>
<pdfrwt beam="2">  1       21 0.14400361E+00 0.17301871E+03</pdfrwt>
<totfact> 0.67255483E+04</totfact>
</mgrwt>
</event>
<event>
 6    1  0.4216855E-002  0.1262124E+03  0.7546771E-02  0.1233187E+00
         21   -1    0    0  504  502  0.00000000000E+00  0.00000000000E+00  0.34020124521E+03  0.34020124521E+03  0.00000000000E+00 0. -1.
         21   -1    0    0  502  503 -0.00000000000E+00 -0.00000000000E+00 -0.15912882076E+02  0.15912882076E+02  0.00000000000E+00 0. -1.
         25    2    1    2    0    0  0.82143955788E+01 -0.15435777222E+02  0.30498483385E+03  0.33006867171E+03  0.12499535853E+03 0.  0.
          5    1    3    3  501    0 -0.32783469112E+02 -0.56449477789E+02  0.12572180963E+03  0.14165903715E+03  0.10000000000E+00 0.  1.
         -5    1    3    3    0  501  0.40997864691E+02  0.41013700567E+02  0.17926302422E+03  0.18840963456E+03  0.10000000000E+00 0.  1.
         21    1    1    2  504  503 -0.82143955788E+01  0.15435777222E+02  0.19303529285E+02  0.26045455573E+02  0.00000000000E+00 0. -1.
<mgrwt>
<rscale>  1 0.12621244E+03</rscale>
<asrwt>0</asrwt>
<pdfrwt beam="1">  1       21 0.52338648E-01 0.12621244E+03</pdfrwt>
<pdfrwt beam="2">  1       21 0.24481360E-02 0.12621244E+03</pdfrwt>
<totfact> 0.30364080E+06</totfact>
</mgrwt>
</event>
<event>
 6    1  0.4216855E-002  0.1268251E+03  0.7546771E-02  0.1232244E+00
         21   -1    0    0  504  502  0.00000000000E+00  0.00000000000E+00  0.23991074228E+04  0.23991074228E+04  0.00000000000E+00 0. -1.
         21   -1    0    0  502  503 -0.00000000000E+00 -0.00000000000E+00 -0.29551873458E+01  0.29551873458E+01  0.00000000000E+00 0. -1.
         25    2    1    2    0    0  0.16334376563E+02  0.13889062658E+02  0.14139649456E+04  0.14196413206E+04  0.12499957472E+03 0.  0.
          5    1    3    3  501    0  0.63541200850E+02 -0.22103304802E+02  0.71263658894E+03  0.71580511187E+03  0.10000000000E+00 0.  1.
         -5    1    3    3    0  501 -0.47206824287E+02  0.35992367460E+02  0.70132835671E+03  0.70383620871E+03  0.10000000000E+00 0.  1.
         21    1    1    2  504  503 -0.16334376563E+02 -0.13889062658E+02  0.98218728984E+03  0.98242128959E+03  0.00000000000E+00 0. -1.
<mgrwt>
<rscale>  1 0.12682512E+03</rscale>
<asrwt>0</asrwt>
<pdfrwt beam="1">  1       21 0.36909189E+00 0.12682512E+03</pdfrwt>
<pdfrwt beam="2">  1       21 0.45464613E-03 0.12682512E+03</pdfrwt>
<totfact> 0.18693947E+05</totfact>
</mgrwt>
</event>
<event>
 6    1  0.4216855E-002  0.1392978E+03  0.7546771E-02  0.1214277E+00
         21   -1    0    0  504  502  0.00000000000E+00  0.00000000000E+00  0.29552251338E+04  0.29552251338E+04  0.00000000000E+00 0. -1.
         21   -1    0    0  502  503 -0.00000000000E+00 -0.00000000000E+00 -0.17361473316E+02  0.17361473316E+02  0.00000000000E+00 0. -1.
         25    2    1    2    0    0 -0.28506997760E+02  0.54459094387E+02  0.26821455380E+03  0.30222992782E+03  0.12500176204E+03 0.  0.
          5    1    3    3  501    0  0.72246722071E+01  0.48755283493E+01  0.22996588550E+03  0.23013101737E+03  0.10000000000E+00 0. -1.
         -5    1    3    3    0  501 -0.35731669968E+02  0.49583566038E+02  0.38248668305E+02  0.72098910441E+02  0.10000000000E+00 0. -1.
         21    1    1    2  504  503  0.28506997760E+02 -0.54459094387E+02  0.26696491067E+04  0.26703566793E+04  0.00000000000E+00 0. -1.
<mgrwt>
<rscale>  1 0.13929782E+03</rscale>
<asrwt>0</asrwt>
<pdfrwt beam="1">  1       21 0.45464962E+00 0.13929782E+03</pdfrwt>
<pdfrwt beam="2">  1       21 0.26709982E-02 0.13929782E+03</pdfrwt>
<totfact> 0.32537410E+03</totfact>
</mgrwt>
</event>
<event>
 6    1  0.4216855E-002  0.1285412E+03  0.7546771E-02  0.1229637E+00
         21   -1    0    0  504  502  0.00000000000E+00  0.00000000000E+00  0.40793919151E+03  0.40793919151E+03  0.00000000000E+00 0. -1.
         21   -1    0    0  502  503 -0.00000000000E+00 -0.00000000000E+00 -0.52135652525E+03  0.52135652525E+03  0.00000000000E+00 0.  1.
         25    2    1    2    0    0  0.23724733261E+01  0.29891596655E+02 -0.51286302170E+03  0.52872613003E+03  0.12499482137E+03 0.  0.
          5    1    3    3  501    0 -0.30779540495E+02 -0.12901875447E+02 -0.37136433287E+02  0.49929582217E+02  0.10000000000E+00 0.  1.
         -5    1    3    3    0  501  0.33152013821E+02  0.42793472102E+02 -0.47572658841E+03  0.47879654781E+03  0.10000000000E+00 0.  1.
         21    1    1    2  504  503 -0.23724733261E+01 -0.29891596655E+02  0.39944568796E+03  0.40056958673E+03  0.00000000000E+00 0. -1.
<mgrwt>
<rscale>  1 0.12854121E+03</rscale>
<asrwt>0</asrwt>
<pdfrwt beam="1">  1       21 0.62759875E-01 0.12854121E+03</pdfrwt>
<pdfrwt beam="2">  1       21 0.80208696E-01 0.12854121E+03</pdfrwt>
<totfact> 0.34191281E+03</totfact>
</mgrwt>
</event>
<event>
 6    1  0.4216855E-002  0.1266103E+03  0.7546771E-02  0.1232574E+00
         21   -1    0    0  503  502  0.00000000000E+00  0.00000000000E+00  0.47917761175E+01  0.47917761175E+01  0.00000000000E+00 0.  1.
         21   -1    0    0  504  503 -0.00000000000E+00 -0.00000000000E+00 -0.21238624789E+04  0.21238624789E+04  0.00000000000E+00 0.  1.
         25    2    1    2    0    0  0.19854774468E+01 -0.20026300023E+02 -0.20867026007E+04  0.20905400996E+04  0.12500067715E+03 0.  0.
          5    1    3    3  501    0  0.15027412256E+02 -0.71498413061E+02 -0.11202316284E+04  0.11226115791E+04  0.10000000000E+00 0.  1.
         -5    1    3    3    0  501 -0.13041934809E+02  0.51472113038E+02 -0.96647097231E+03  0.96792852050E+03  0.10000000000E+00 0.  1.
         21    1    1    2  504  502 -0.19854774468E+01  0.20026300023E+02 -0.32368102039E+02  0.38114155414E+02  0.00000000000E+00 0.  1.
<mgrwt>
<rscale>  1 0.12661028E+03</rscale>
<asrwt>0</asrwt>
<pdfrwt beam="1">  1       21 0.73719582E-03 0.12661028E+03</pdfrwt>
<pdfrwt beam="2">  1       21 0.32674830E+00 0.12661028E+03</pdfrwt>
<totfact> 0.15498526E+05</totfact>
</mgrwt>
</event>
<event>
 6    1  0.4216855E-002  0.1449873E+03  0.7546771E-02  0.1206771E+00
         21   -1    0    0  503  502  0.00000000000E+00  0.00000000000E+00  0.69702575299E+02  0.69702575299E+02  0.00000000000E+00 0.  1.
         21   -1    0    0  504  503 -0.00000000000E+00 -0.00000000000E+00 -0.17948418387E+03  0.17948418387E+03  0.00000000000E+00 0.  1.
         25    2    1    2    0    0 -0.15002125900E+02  0.71910402969E+02 -0.97467201441E+02  0.17470310687E+03  0.12500060142E+03 0.  0.
          5    1    3    3  501    0  0.36523801657E+02  0.78374497514E+01  0.10677947697E+02  0.38851541450E+02  0.10000000000E+00 0.  1.
         -5    1    3    3    0  501 -0.51525927557E+02  0.64072953217E+02 -0.10814514914E+03  0.13585156542E+03  0.10000000000E+00 0.  1.
         21    1    1    2  504  502  0.15002125900E+02 -0.71910402969E+02 -0.12314407127E+02  0.74483652297E+02  0.00000000000E+00 0.  1.
<mgrwt>
<rscale>  1 0.14498731E+03</rscale>
<asrwt>0</asrwt>
<pdfrwt beam="1">  1       21 0.10723473E-01 0.14498731E+03</pdfrwt>
<pdfrwt beam="2">  1       21 0.27612951E-01 0.14498731E+03</pdfrwt>
<totfact> 0.89975463E+05</totfact>
</mgrwt>
</event>
<event>
 6    1  0.4216855E-002  0.1517191E+03  0.7546771E-02  0.1198376E+00
         21   -1    0    0  503  502  0.00000000000E+00  0.00000000000E+00  0.20861881621E+02  0.20861881621E+02  0.00000000000E+00 0. -1.
         21   -1    0    0  504  503 -0.00000000000E+00 -0.00000000000E+00 -0.12314461114E+04  0.12314461114E+04  0.00000000000E+00 0. -1.
         25    2    1    2    0    0  0.41498511273E+02 -0.75296460558E+02 -0.11085375703E+04  0.11188718506E+04  0.12500795863E+03 0.  0.
          5    1    3    3  501    0  0.71409863832E+02 -0.22650904815E+02 -0.35034426739E+03  0.35826463381E+03  0.10000000000E+00 0. -1.
         -5    1    3    3    0  501 -0.29911352559E+02 -0.52645555742E+02 -0.75819330295E+03  0.76060721677E+03  0.10000000000E+00 0. -1.
         21    1    1    2  504  502 -0.41498511273E+02  0.75296460558E+02 -0.10204665943E+03  0.13343614245E+03  0.00000000000E+00 0. -1.
<mgrwt>
<rscale>  1 0.15171906E+03</rscale>
<asrwt>0</asrwt>
<pdfrwt beam="1">  1       21 0.32095194E-02 0.15171906E+03</pdfrwt>
<pdfrwt beam="2">  1       21 0.18945330E+00 0.15171906E+03</pdfrwt>
<totfact> 0.91140852E+04</totfact>
</mgrwt>
</event>
<event>
 6    1  0.4216855E-002  0.1298298E+03  0.7546771E-02  0.1227709E+00
         21   -1    0    0  504  502  0.00000000000E+00  0.00000000000E+00  0.41821445465E+02  0.41821445465E+02  0.00000000000E+00 0.  1.
         21   -1    0    0  502  503 -0.00000000000E+00 -0.00000000000E+00 -0.77016086729E+03  0.77016086729E+03  0.00000000000E+00 0. -1.
         25    2    1    2    0    0 -0.32551758450E+02 -0.13091996963E+02 -0.75614779010E+03  0.76721264994E+03  0.12499900958E+03 0.  0.
          5    1    3    3  501    0  0.17397155589E+02  0.17221530687E+02 -0.59987716263E+03  0.60037643390E+03  0.10000000000E+00 0. -1.
         -5    1    3    3    0  501 -0.49948914039E+02 -0.30313527650E+02 -0.15627062748E+03  0.16683621604E+03  0.10000000000E+00 0. -1.
         21    1    1    2  504  503  0.32551758450E+02  0.13091996963E+02  0.27808368273E+02  0.44769662816E+02  0.00000000000E+00 0.  1.
<mgrwt>
<rscale>  1 0.12982977E+03</rscale>
<asrwt>0</asrwt>
<pdfrwt beam="1">  1       21 0.64340683E-02 0.12982977E+03</pdfrwt>
<pdfrwt beam="2">  1       21 0.11848629E+00 0.12982977E+03</pdfrwt>
<totfact> 0.98059186E+04</totfact>
</mgrwt>
</event>
<event>
 6    1  0.4216855E-002  0.1599656E+03  0.7546771E-02  0.1188736E+00
         21   -1    0    0  504  502  0.00000000000E+00  0.00000000000E+00  0.39257432529E+03  0.39257432529E+03  0.00000000000E+00 0.  1.
         21   -1    0    0  502  503 -0.00000000000E+00 -0.00000000000E+00 -0.16896883237E+03  0.16896883237E+03  0.00000000000E+00 0.  1.
         25    2    1    2    0    0 -0.12972276727E+02  0.98992161634E+02 -0.12239987697E+03  0.20142172811E+03  0.12498501768E+03 0.  0.
          5    1    3    3  501    0 -0.26253405434E+02  0.10641767270E+03 -0.38530757180E+02  0.11618343948E+03  0.10000000000E+00 0.  1.
         -5    1    3    3    0  501  0.13281128706E+02 -0.74255110672E+01 -0.83869119790E+02  0.85238288631E+02  0.10000000000E+00 0.  1.
         21    1    1    2  504  503  0.12972276727E+02 -0.98992161634E+02  0.34600536989E+03  0.36012142955E+03  0.00000000000E+00 0.  1.
<mgrwt>
<rscale>  1 0.15996557E+03</rscale>
<asrwt>0</asrwt>
<pdfrwt beam="1">  1       21 0.60396050E-01 0.15996557E+03</pdfrwt>
<pdfrwt beam="2">  1       21 0.25995205E-01 0.15996557E+03</pdfrwt>
<totfact> 0.36556313E+04</totfact>
</mgrwt>
</event>
<event>
 6    1  0.4216855E-002  0.1269361E+03  0.7546771E-02  0.1232074E+00
         21   -1    0    0  504  502  0.00000000000E+00  0.00000000000E+00  0.65068107364E+03  0.65068107364E+03  0.00000000000E+00 0. -1.
         21   -1    0    0  502  503 -0.00000000000E+00 -0.00000000000E+00 -0.23582730066E+02  0.23582730066E+02  0.00000000000E+00 0.  1.
         25    2    1    2    0    0 -0.16817310659E+02  0.14308692397E+02  0.14935064670E+03  0.19600610907E+03  0.12500087402E+03 0.  0.
          5    1    3    3  501    0 -0.35630677603E+02  0.62330594907E+02  0.63469632603E+02  0.95828244848E+02  0.10000000000E+00 0.  1.
         -5    1    3    3    0  501  0.18813366944E+02 -0.48021902510E+02  0.85881014100E+02  0.10017786422E+03  0.10000000000E+00 0.  1.
         21    1    1    2  504  503  0.16817310659E+02 -0.14308692397E+02  0.47774769687E+03  0.47825769464E+03  0.00000000000E+00 0. -1.
<mgrwt>
<rscale>  1 0.12693612E+03</rscale>
<asrwt>0</asrwt>
<pdfrwt beam="1">  1       21 0.10010477E+00 0.12693612E+03</pdfrwt>
<pdfrwt beam="2">  1       21 0.36281128E-02 0.12693612E+03</pdfrwt>
<totfact> 0.38340870E+05</totfact>
</mgrwt>
</event>
<event>
 6    1  0.4216855E-002  0.1776894E+03  0.7546771E-02  0.1170058E+00
         21   -1    0    0  503  502  0.00000000000E+00  0.00000000000E+00  0.13917752737E+02  0.13917752737E+02  0.00000000000E+00 0. -1.
         21   -1    0    0  504  503 -0.00000000000E+00 -0.00000000000E+00 -0.23861494841E+04  0.23861494841E+04  0.00000000000E+00 0.  1.
         25    2    1    2    0    0  0.10708553463E+03 -0.66943129303E+02 -0.19811056700E+04  0.19890583681E+04  0.12499928714E+03 0.  0.
          5    1    3    3  501    0  0.18047278251E+02 -0.58245951188E+02 -0.13785161535E+04  0.13798641566E+04  0.10000000000E+00 0. -1.
         -5    1    3    3    0  501  0.89038256384E+02 -0.86971781149E+01 -0.60258951649E+03  0.60919421156E+03  0.10000000000E+00 0. -1.
         21    1    1    2  504  502 -0.10708553463E+03  0.66943129303E+02 -0.39112606138E+03  0.41100886874E+03  0.00000000000E+00 0. -1.
<mgrwt>
<rscale>  1 0.17768938E+03</rscale>
<asrwt>0</asrwt>
<pdfrwt beam="1">  1       21 0.21411901E-02 0.17768938E+03</pdfrwt>
<pdfrwt beam="2">  1       21 0.36710037E+00 0.17768938E+03</pdfrwt>
<totfact> 0.15521279E+04</totfact>
</mgrwt>
</event>
<event>
 6    1  0.4216855E-002  0.1275395E+03  0.7546771E-02  0.1231153E+00
         21   -1    0    0  503  502  0.00000000000E+00  0.00000000000E+00  0.53709445250E+01  0.53709445250E+01  0.00000000000E+00 0. -1.
         21   -1    0    0  504  503 -0.00000000000E+00 -0.00000000000E+00 -0.10876642130E+04  0.10876642130E+04  0.00000000000E+00 0. -1.
         25    2    1    2    0    0  0.17410442878E+02 -0.18386846923E+02 -0.90107712382E+03  0.91005840833E+03  0.12500049539E+03 0.  0.
          5    1    3    3  501    0  0.16491892763E+02 -0.36471958875E+02 -0.88481377220E+03  0.88571869563E+03  0.10000000000E+00 0.  1.
         -5    1    3    3    0  501  0.91855011435E+00  0.18085111952E+02 -0.16263351616E+02  0.24339712702E+02  0.10000000000E+00 0.  1.
         21    1    1    2  504  502 -0.17410442878E+02  0.18386846923E+02 -0.18121614470E+03  0.18297674924E+03  0.00000000000E+00 0. -1.
<mgrwt>
<rscale>  1 0.12753950E+03</rscale>
<asrwt>0</asrwt>
<pdfrwt beam="1">  1       21 0.82630065E-03 0.12753950E+03</pdfrwt>
<pdfrwt beam="2">  1       21 0.16733265E+00 0.12753950E+03</pdfrwt>
<totfact> 0.11458636E+06</totfact>
</mgrwt>
</event>
<event>
 6    1  0.4216855E-002  0.1314308E+03  0.7546771E-02  0.1225348E+00
         21   -1    0    0  503  502  0.00000000000E+00  0.00000000000E+00  0.10537501740E+02  0.10537501740E+02  0.00000000000E+00 0. -1.
         21   -1    0    0  504  503 -0.00000000000E+00 -0.00000000000E+00 -0.70958883228E+03  0.70958883228E+03  0.00000000000E+00 0. -1.
         25    2    1    2    0    0  0.28111779874E+02  0.29320036779E+02 -0.56320386417E+03  0.57833609866E+03  0.12499645464E+03 0.  0.
          5    1    3    3  501    0 -0.12821695365E+02  0.41092793256E+01 -0.49337488884E+03  0.49355858111E+03  0.10000000000E+00 0.  1.
         -5    1    3    3    0  501  0.40933475239E+02  0.25210757453E+02 -0.69828975332E+02  0.84777517553E+02  0.10000000000E+00 0.  1.
         21    1    1    2  504  502 -0.28111779874E+02 -0.29320036779E+02 -0.13584746637E+03  0.14179023536E+03  0.00000000000E+00 0. -1.
<mgrwt>
<rscale>  1 0.13143078E+03</rscale>
<asrwt>0</asrwt>
<pdfrwt beam="1">  1       21 0.16211538E-02 0.13143078E+03</pdfrwt>
<pdfrwt beam="2">  1       21 0.10916753E+00 0.13143078E+03</pdfrwt>
<totfact> 0.11569355E+06</totfact>
</mgrwt>
</event>
<event>
 6    1  0.4216855E-002  0.1444349E+03  0.7546771E-02  0.1207483E+00
         21   -1    0    0  504  502  0.00000000000E+00  0.00000000000E+00  0.12615586444E+03  0.12615586444E+03  0.00000000000E+00 0. -1.
         21   -1    0    0  502  503 -0.00000000000E+00 -0.00000000000E+00 -0.96979035080E+02  0.96979035080E+02  0.00000000000E+00 0. -1.
         25    2    1    2    0    0 -0.61460816678E+02 -0.38198899088E+02 -0.17337349686E+01  0.14444531402E+03  0.12499942011E+03 0.  0.
          5    1    3    3  501    0 -0.50764224760E+01 -0.65820653984E+02  0.31787443044E+02  0.73270594997E+02  0.10000000000E+00 0. -1.
         -5    1    3    3    0  501 -0.56384394202E+02  0.27621754896E+02 -0.33521178013E+02  0.71174719026E+02  0.10000000000E+00 0. -1.
         21    1    1    2  504  503  0.61460816678E+02  0.38198899088E+02  0.30910564328E+02  0.78689585495E+02  0.00000000000E+00 0. -1.
<mgrwt>
<rscale>  1 0.14443491E+03</rscale>
<asrwt>0</asrwt>
<pdfrwt beam="1">  1       21 0.19408595E-01 0.14443491E+03</pdfrwt>
<pdfrwt beam="2">  1       21 0.14919852E-01 0.14443491E+03</pdfrwt>
<totfact> 0.96889584E+05</totfact>
</mgrwt>
</event>
<event>
 6    1  0.4216855E-002  0.1335280E+03  0.7546771E-02  0.1222313E+00
         21   -1    0    0  504  502  0.00000000000E+00  0.00000000000E+00  0.57717479415E+02  0.57717479415E+02  0.00000000000E+00 0.  1.
         21   -1    0    0  502  503 -0.00000000000E+00 -0.00000000000E+00 -0.49566916274E+03  0.49566916274E+03  0.00000000000E+00 0.  1.
         25    2    1    2    0    0  0.43665814258E+02  0.17205819232E+02 -0.47511456646E+03  0.49352159866E+03  0.12500789387E+03 0.  0.
          5    1    3    3  501    0 -0.17309256712E+02  0.32468632567E+02 -0.36404425389E+03  0.36589896319E+03  0.10000000000E+00 0.  1.
         -5    1    3    3    0  501  0.60975070970E+02 -0.15262813335E+02 -0.11107031256E+03  0.12762263547E+03  0.10000000000E+00 0.  1.
         21    1    1    2  504  503 -0.43665814258E+02 -0.17205819232E+02  0.37162883134E+02  0.59865043498E+02  0.00000000000E+00 0.  1.
<mgrwt>
<rscale>  1 0.13352796E+03</rscale>
<asrwt>0</asrwt>
<pdfrwt beam="1">  1       21 0.88796121E-02 0.13352796E+03</pdfrwt>
<pdfrwt beam="2">  1       21 0.76256795E-01 0.13352796E+03</pdfrwt>
<totfact> 0.15627529E+05</totfact>
</mgrwt>
</event>
<event>
 6    1  0.4216855E-002  0.1260138E+03  0.7546771E-02  0.1233493E+00
         21   -1    0    0  503  502  0.00000000000E+00  0.00000000000E+00  0.95130054978E+01  0.95130054978E+01  0.00000000000E+00 0. -1.
         21   -1    0    0  504  503 -0.00000000000E+00 -0.00000000000E+00 -0.55952970715E+03  0.55952970715E+03  0.00000000000E+00 0. -1.
         25    2    1    2    0    0  0.14156974774E+02  0.69532888038E+01 -0.52093094734E+03  0.53595571726E+03  0.12502284114E+03 0.  0.
          5    1    3    3  501    0  0.13247836545E+02  0.23940285721E+02 -0.18031655951E+02  0.32768781941E+02  0.10000000000E+00 0.  1.
         -5    1    3    3    0  501  0.90913822852E+00 -0.16986996917E+02 -0.50289929139E+03  0.50318693532E+03  0.10000000000E+00 0.  1.
         21    1    1    2  504  502 -0.14156974774E+02 -0.69532888038E+01 -0.29085754314E+02  0.33086995390E+02  0.00000000000E+00 0.  1.
<mgrwt>
<rscale>  1 0.12601380E+03</rscale>
<asrwt>0</asrwt>
<pdfrwt beam="1">  1       21 0.14635390E-02 0.12601380E+03</pdfrwt>
<pdfrwt beam="2">  1       21 0.86081513E-01 0.12601380E+03</pdfrwt>
<totfact> 0.23664577E+06</totfact>
</mgrwt>
</event>
<event>
 6    1  0.4216855E-002  0.1277873E+03  0.7546771E-02  0.1230776E+00
         21   -1    0    0  504  502  0.00000000000E+00  0.00000000000E+00  0.11429906260E+03  0.11429906260E+03  0.00000000000E+00 0.  1.
         21   -1    0    0  502  503 -0.00000000000E+00 -0.00000000000E+00 -0.18922049234E+03  0.18922049234E+03  0.00000000000E+00 0.  1.
         25    2    1    2    0    0 -0.25698196112E+02  0.66623706008E+01 -0.16552157739E+03  0.20910996210E+03  0.12499919681E+03 0.  0.
          5    1    3    3  501    0 -0.90512263955E+01  0.63539540737E+02 -0.11284348548E+03  0.12981856628E+03  0.10000000000E+00 0.  1.
         -5    1    3    3    0  501 -0.16646969717E+02 -0.56877170136E+02 -0.52678091905E+02  0.79291395814E+02  0.10000000000E+00 0.  1.
         21    1    1    2  504  503  0.25698196112E+02 -0.66623706008E+01  0.90600147646E+02  0.94409592833E+02  0.00000000000E+00 0.  1.
<mgrwt>
<rscale>  1 0.12778726E+03</rscale>
<asrwt>0</asrwt>
<pdfrwt beam="1">  1       21 0.17584471E-01 0.12778726E+03</pdfrwt>
<pdfrwt beam="2">  1       21 0.29110845E-01 0.12778726E+03</pdfrwt>
<totfact> 0.33528769E+05</totfact>
</mgrwt>
</event>
<event>
 6    1  0.4216855E-002  0.1273647E+03  0.7546771E-02  0.1231419E+00
         21   -1    0    0  503  502  0.00000000000E+00  0.00000000000E+00  0.56740891469E+02  0.56740891469E+02  0.00000000000E+00 0. -1.
         21   -1    0    0  504  503 -0.00000000000E+00 -0.00000000000E+00 -0.34768092329E+03  0.34768092329E+03  0.00000000000E+00 0. -1.
         25    2    1    2    0    0  0.89857138552E+01 -0.22795784554E+02 -0.33256537649E+03  0.35612005325E+03  0.12498548650E+03 0.  0.
          5    1    3    3  501    0  0.10258517106E+02 -0.59026039202E+02 -0.30432449929E+03  0.31016563534E+03  0.10000000000E+00 0. -1.
         -5    1    3    3    0  501 -0.12728032506E+01  0.36230254648E+02 -0.28240877199E+02  0.45954417904E+02  0.10000000000E+00 0. -1.
         21    1    1    2  504  502 -0.89857138552E+01  0.22795784554E+02  0.41625344668E+02  0.48301761517E+02  0.00000000000E+00 0. -1.
<mgrwt>
<rscale>  1 0.12736468E+03</rscale>
<asrwt>0</asrwt>
<pdfrwt beam="1">  1       21 0.87293677E-02 0.12736468E+03</pdfrwt>
<pdfrwt beam="2">  1       21 0.53489374E-01 0.12736468E+03</pdfrwt>
<totfact> 0.34528431E+05</totfact>
</mgrwt>
</event>
<event>
 6    1  0.4216855E-002  0.1455961E+03  0.7546771E-02  0.1205991E+00
         21   -1    0    0  504  502  0.00000000000E+00  0.00000000000E+00  0.60044243842E+02  0.60044243842E+02  0.00000000000E+00 0.  1.
         21   -1    0    0  502  503 -0.00000000000E+00 -0.00000000000E+00 -0.10777802647E+04  0.10777802647E+04  0.00000000000E+00 0.  1.
         25    2    1    2    0    0  0.59173899346E+02  0.45507686529E+02 -0.10474193586E+04  0.10574902043E+04  0.12500287831E+03 0.  0.
          5    1    3    3  501    0  0.23599933788E+02 -0.27335466333E+02 -0.69206093625E+03  0.69300254983E+03  0.10000000000E+00 0.  1.
         -5    1    3    3    0  501  0.35573965557E+02  0.72843152862E+02 -0.35535842237E+03  0.36448765451E+03  0.10000000000E+00 0.  1.
         21    1    1    2  504  503 -0.59173899346E+02 -0.45507686529E+02  0.29683337727E+02  0.80334304227E+02  0.00000000000E+00 0.  1.
<mgrwt>
<rscale>  1 0.14559608E+03</rscale>
<asrwt>0</asrwt>
<pdfrwt beam="1">  1       21 0.92375759E-02 0.14559608E+03</pdfrwt>
<pdfrwt beam="2">  1       21 0.16581235E+00 0.14559608E+03</pdfrwt>
<totfact> 0.22069807E+04</totfact>
</mgrwt>
</event>
<event>
 6    1  0.4216855E-002  0.1291080E+03  0.7546771E-02  0.1228785E+00
         21   -1    0    0  503  502  0.00000000000E+00  0.00000000000E+00  0.36517092205E+02  0.36517092205E+02  0.00000000000E+00 0.  1.
         21   -1    0    0  504  503 -0.00000000000E+00 -0.00000000000E+00 -0.18926987166E+03  0.18926987166E+03  0.00000000000E+00 0.  1.
         25    2    1    2    0    0  0.68453118937E+01 -0.31567513161E+02 -0.14157918975E+03  0.19160779932E+03  0.12500206242E+03 0.  0.
          5    1    3    3  501    0 -0.40500616141E+02 -0.42662269068E+02 -0.12838658746E+03  0.14122143941E+03  0.10000000000E+00 0. -1.
         -5    1    3    3    0  501  0.47345928035E+02  0.11094755907E+02 -0.13192602288E+02  0.50386359913E+02  0.10000000000E+00 0. -1.
         21    1    1    2  504  502 -0.68453118937E+01  0.31567513161E+02 -0.11173589713E+02  0.34179164547E+02  0.00000000000E+00 0.  1.
<mgrwt>
<rscale>  1 0.12910802E+03</rscale>
<asrwt>0</asrwt>
<pdfrwt beam="1">  1       21 0.56180143E-02 0.12910802E+03</pdfrwt>
<pdfrwt beam="2">  1       21 0.29118441E-01 0.12910802E+03</pdfrwt>
<totfact> 0.24729039E+06</totfact>
</mgrwt>
</event>
<event>
 6    1  0.4216855E-002  0.1410508E+03  0.7546771E-02  0.1211922E+00
         21   -1    0    0  503  502  0.00000000000E+00  0.00000000000E+00  0.11338989858E+02  0.11338989858E+02  0.00000000000E+00 0. -1.
         21   -1    0    0  504  503 -0.00000000000E+00 -0.00000000000E+00 -0.12409410834E+04  0.12409410834E+04  0.00000000000E+00 0. -1.
         25    2    1    2    0    0  0.13204683299E+02  0.63929500427E+02 -0.10784386721E+04  0.10876236896E+04  0.12503589920E+03 0.  0.
          5    1    3    3  501    0  0.63266115474E+02  0.65098126401E+02 -0.66694194678E+03  0.67309132946E+03  0.10000000000E+00 0. -1.
         -5    1    3    3    0  501 -0.50061432176E+02 -0.11686259743E+01 -0.41149672533E+03  0.41453236018E+03  0.10000000000E+00 0. -1.
         21    1    1    2  504  502 -0.13204683299E+02 -0.63929500427E+02 -0.15116342146E+03  0.16465638364E+03  0.00000000000E+00 0. -1.
<mgrwt>
<rscale>  1 0.14105077E+03</rscale>
<asrwt>0</asrwt>
<pdfrwt beam="1">  1       21 0.17444588E-02 0.14105077E+03</pdfrwt>
<pdfrwt beam="2">  1       21 0.19091414E+00 0.14105077E+03</pdfrwt>
<totfact> 0.24212899E+05</totfact>
</mgrwt>
</event>
<event>
 6    1  0.4216855E-002  0.1259806E+03  0.7546771E-02  0.1233545E+00
         21   -1    0    0  504  502  0.00000000000E+00  0.00000000000E+00  0.30037864976E+02  0.30037864976E+02  0.00000000000E+00 0. -1.
         21   -1    0    0  502  503 -0.00000000000E+00 -0.00000000000E+00 -0.16946924138E+03  0.16946924138E+03  0.00000000000E+00 0. -1.
         25    2    1    2    0    0 -0.80698660083E+01 -0.13451821895E+02 -0.13079680380E+03  0.18160095954E+03  0.12500012149E+03 0.  0.
          5    1    3    3  501    0  0.25367140902E+01 -0.55969570051E+02 -0.12552876543E+03  0.13746457231E+03  0.10000000000E+00 0.  1.
         -5    1    3    3    0  501 -0.10606580098E+02  0.42517748156E+02 -0.52680383736E+01  0.44136387233E+02  0.10000000000E+00 0.  1.
         21    1    1    2  504  503  0.80698660083E+01  0.13451821895E+02 -0.86345725998E+01  0.17906146812E+02  0.00000000000E+00 0. -1.
<mgrwt>
<rscale>  1 0.12598057E+03</rscale>
<asrwt>0</asrwt>
<pdfrwt beam="1">  1       21 0.46212100E-02 0.12598057E+03</pdfrwt>
<pdfrwt beam="2">  1       21 0.26072191E-01 0.12598057E+03</pdfrwt>
<totfact> 0.42364354E+06</totfact>
</mgrwt>
</event>
<event>
 6    1  0.4216855E-002  0.1391479E+03  0.7546771E-02  0.1214480E+00
         21   -1    0    0  503  502  0.00000000000E+00  0.00000000000E+00  0.26053638036E+02  0.26053638036E+02  0.00000000000E+00 0.  1.
         21   -1    0    0  504  503 -0.00000000000E+00 -0.00000000000E+00 -0.73451640764E+03  0.73451640764E+03  0.00000000000E+00 0.  1.
         25    2    1    2    0    0 -0.10194510830E+02  0.60270667841E+02 -0.17481724124E+03  0.22343502410E+03  0.12500264281E+03 0.  0.
          5    1    3    3  501    0 -0.48115143692E+02 -0.18555326267E+02 -0.60664071803E+02  0.79621019794E+02  0.10000000000E+00 0. -1.
         -5    1    3    3    0  501  0.37920632863E+02  0.78825994107E+02 -0.11415316944E+03  0.14381400431E+03  0.10000000000E+00 0. -1.
         21    1    1    2  504  502  0.10194510830E+02 -0.60270667841E+02 -0.53364552837E+03  0.53713502157E+03  0.00000000000E+00 0.  1.
<mgrwt>
<rscale>  1 0.13914791E+03</rscale>
<asrwt>0</asrwt>
<pdfrwt beam="1">  1       21 0.40082520E-02 0.13914791E+03</pdfrwt>
<pdfrwt beam="2">  1       21 0.11300252E+00 0.13914791E+03</pdfrwt>
<totfact> 0.24291365E+05</totfact>
</mgrwt>
</event>
<event>
 6    1  0.4216855E-002  0.1270000E+03  0.7546771E-02  0.1231976E+00
         21   -1    0    0  503  502  0.00000000000E+00  0.00000000000E+00  0.41796468290E+03  0.41796468290E+03  0.00000000000E+00 0.  1.
         21   -1    0    0  504  503 -0.00000000000E+00 -0.00000000000E+00 -0.26341298526E+02  0.26341298526E+02  0.00000000000E+00 0.  1.
         25    2    1    2    0    0  0.19639163039E+02  0.10905123039E+02  0.13006719241E+03  0.18178691547E+03  0.12499755863E+03 0.  0.
          5    1    3    3  501    0  0.48898851417E+01  0.38700648669E+02 -0.83043582094E+01  0.39882622148E+02  0.10000000000E+00 0. -1.
         -5    1    3    3    0  501  0.14749277897E+02 -0.27795525631E+02  0.13837155062E+03  0.14190429332E+03  0.10000000000E+00 0. -1.
         21    1    1    2  504  502 -0.19639163039E+02 -0.10905123039E+02  0.26155619196E+03  0.26251906595E+03  0.00000000000E+00 0.  1.
<mgrwt>
<rscale>  1 0.12700003E+03</rscale>
<asrwt>0</asrwt>
<pdfrwt beam="1">  1       21 0.64302254E-01 0.12700003E+03</pdfrwt>
<pdfrwt beam="2">  1       21 0.40525078E-02 0.12700003E+03</pdfrwt>
<totfact> 0.85914106E+05</totfact>
</mgrwt>
</event>
<event>
 6    1  0.4216855E-002  0.1293400E+03  0.7546771E-02  0.1228438E+00
         21   -1    0    0  504  502  0.00000000000E+00  0.00000000000E+00  0.56220769413E+03  0.56220769413E+03  0.00000000000E+00 0. -1.
         21   -1    0    0  502  503 -0.00000000000E+00 -0.00000000000E+00 -0.12719599386E+02  0.12719599386E+02  0.00000000000E+00 0. -1.
         25    2    1    2    0    0  0.26139986700E+02 -0.20513822164E+02  0.49005620657E+03  0.50683716841E+03  0.12499885553E+03 0.  0.
          5    1    3    3  501    0  0.76636699949E+02 -0.12227194185E+02  0.27179376262E+03  0.28265623548E+03  0.10000000000E+00 0.  1.
         -5    1    3    3    0  501 -0.50496713249E+02 -0.82866279790E+01  0.21826244395E+03  0.22418093294E+03  0.10000000000E+00 0.  1.
         21    1    1    2  504  503 -0.26139986700E+02  0.20513822164E+02  0.59431888168E+02  0.68090125097E+02  0.00000000000E+00 0. -1.
<mgrwt>
<rscale>  1 0.12933998E+03</rscale>
<asrwt>0</asrwt>
<pdfrwt beam="1">  1       21 0.86493472E-01 0.12933998E+03</pdfrwt>
<pdfrwt beam="2">  1       21 0.19568619E-02 0.12933998E+03</pdfrwt>
<totfact> 0.14699313E+06</totfact>
</mgrwt>
</event>
<event>
 6    1  0.4216855E-002  0.1436923E+03  0.7546771E-02  0.1208445E+00
         21   -1    0    0  503  502  0.00000000000E+00  0.00000000000E+00  0.83282220165E+03  0.83282220165E+03  0.00000000000E+00 0. -1.
         21   -1    0    0  504  503 -0.00000000000E+00 -0.00000000000E+00 -0.31311883085E+02  0.31311883085E+02  0.00000000000E+00 0. -1.
         25    2    1    2    0    0  0.63232305026E+02  0.32055519578E+02  0.14617267808E+03  0.20497302417E+03  0.12498643160E+03 0.  0.
          5    1    3    3  501    0  0.58030027867E+02  0.66111628153E+02  0.14608002493E+03  0.17052159744E+03  0.10000000000E+00 0. -1.
         -5    1    3    3    0  501  0.52022771591E+01 -0.34056108575E+02  0.92653156978E-01  0.34451426727E+02  0.10000000000E+00 0. -1.
         21    1    1    2  504  502 -0.63232305026E+02 -0.32055519578E+02  0.65533764048E+03  0.65916106057E+03  0.00000000000E+00 0. -1.
<mgrwt>
<rscale>  1 0.14369234E+03</rscale>
<asrwt>0</asrwt>
<pdfrwt beam="1">  1       21 0.12812648E+00 0.14369234E+03</pdfrwt>
<pdfrwt beam="2">  1       21 0.48172134E-02 0.14369234E+03</pdfrwt>
<totfact> 0.13111530E+05</totfact>
</mgrwt>
</event>
<event>
 6    1  0.4216855E-002  0.1442234E+03  0.7546771E-02  0.1207756E+00
         21   -1    0    0  503  502  0.00000000000E+00  0.00000000000E+00  0.40456447425E+03  0.40456447425E+03  0.00000000000E+00 0. -1.
         21   -1    0    0  504  503 -0.00000000000E+00 -0.00000000000E+00 -0.85974215715E+02  0.85974215715E+02  0.00000000000E+00 0. -1.
         25    2    1    2    0    0  0.30750578921E+02 -0.65028990687E+02 -0.18910006383E+02  0.14545783487E+03  0.12500410253E+03 0.  0.
          5    1    3    3  501    0  0.40856971205E+02  0.12517870081E+02  0.30905393100E+02  0.52736538473E+02  0.10000000000E+00 0. -1.
         -5    1    3    3    0  501 -0.10106392283E+02 -0.77546860768E+02 -0.49815399483E+02  0.92721296398E+02  0.10000000000E+00 0. -1.
         21    1    1    2  504  502 -0.30750578921E+02  0.65028990687E+02  0.33750026492E+03  0.34508085509E+03  0.00000000000E+00 0. -1.
<mgrwt>
<rscale>  1 0.14422341E+03</rscale>
<asrwt>0</asrwt>
<pdfrwt beam="1">  1       21 0.62240687E-01 0.14422341E+03</pdfrwt>
<pdfrwt beam="2">  1       21 0.13226803E-01 0.14422341E+03</pdfrwt>
<totfact> 0.12007796E+05</totfact>
</mgrwt>
</event>
<event>
 6    1  0.4216855E-002  0.1289013E+03  0.7546771E-02  0.1229095E+00
         21   -1    0    0  504  502  0.00000000000E+00  0.00000000000E+00  0.16258864772E+02  0.16258864772E+02  0.00000000000E+00 0. -1.
         21   -1    0    0  502  503 -0.00000000000E+00 -0.00000000000E+00 -0.39528188300E+03  0.39528188300E+03  0.00000000000E+00 0. -1.
         25    2    1    2    0    0  0.12446975027E+02 -0.28858843239E+02 -0.30340471015E+03  0.32965125799E+03  0.12501109443E+03 0.  0.
          5    1    3    3  501    0  0.37365069930E+02 -0.69936921531E+02 -0.16320076061E+03  0.18144370948E+03  0.10000000000E+00 0. -1.
         -5    1    3    3    0  501 -0.24918094903E+02  0.41078078293E+02 -0.14020394954E+03  0.14820754851E+03  0.10000000000E+00 0. -1.
         21    1    1    2  504  503 -0.12446975027E+02  0.28858843239E+02 -0.75618308081E+02  0.81889489787E+02  0.00000000000E+00 0.  1.
<mgrwt>
<rscale>  1 0.12890126E+03</rscale>
<asrwt>0</asrwt>
<pdfrwt beam="1">  1       21 0.25013636E-02 0.12890126E+03</pdfrwt>
<pdfrwt beam="2">  1       21 0.60812603E-01 0.12890126E+03</pdfrwt>
<totfact> 0.21402565E+06</totfact>
</mgrwt>
</event>
<event>
 6    1  0.4216855E-002  0.1470702E+03  0.7546771E-02  0.1204120E+00
         21   -1    0    0  503  502  0.00000000000E+00  0.00000000000E+00  0.42419741482E+03  0.42419741482E+03  0.00000000000E+00 0.  1.
         21   -1    0    0  504  503 -0.00000000000E+00 -0.00000000000E+00 -0.38155643964E+02  0.38155643964E+02  0.00000000000E+00 0.  1.
         25    2    1    2    0    0  0.19953957144E+02 -0.74868692689E+02  0.13503633655E+03  0.19966082517E+03  0.12500460539E+03 0.  0.
          5    1    3    3  501    0 -0.44303067082E+02  0.49052235080E+01  0.43622907642E+02  0.62368189341E+02  0.10000000000E+00 0. -1.
         -5    1    3    3    0  501  0.64257024226E+02 -0.79773916197E+02  0.91413428909E+02  0.13729263583E+03  0.10000000000E+00 0. -1.
         21    1    1    2  504  502 -0.19953957144E+02  0.74868692689E+02  0.25100543430E+03  0.26269223361E+03  0.00000000000E+00 0.  1.
<mgrwt>
<rscale>  1 0.14707016E+03</rscale>
<asrwt>0</asrwt>
<pdfrwt beam="1">  1       21 0.65261138E-01 0.14707016E+03</pdfrwt>
<pdfrwt beam="2">  1       21 0.58700994E-02 0.14707016E+03</pdfrwt>
<totfact> 0.44592866E+05</totfact>
</mgrwt>
</event>
<event>
 6    1  0.4216855E-002  0.1294756E+03  0.7546771E-02  0.1228236E+00
         21   -1    0    0  504  502  0.00000000000E+00  0.00000000000E+00  0.52458017913E+02  0.52458017913E+02  0.00000000000E+00 0. -1.
         21   -1    0    0  502  503 -0.00000000000E+00 -0.00000000000E+00 -0.13713462152E+03  0.13713462152E+03  0.00000000000E+00 0. -1.
         25    2    1    2    0    0  0.29438351810E+02  0.16427933417E+02 -0.86695103004E+02  0.15582034467E+03  0.12500978112E+03 0.  0.
          5    1    3    3  501    0  0.27648332050E+02  0.13581773836E+02 -0.11921318586E+03  0.12312874778E+03  0.10000000000E+00 0. -1.
         -5    1    3    3    0  501  0.17900197603E+01  0.28461595809E+01  0.32518082857E+02  0.32691596898E+02  0.10000000000E+00 0. -1.
         21    1    1    2  504  503 -0.29438351810E+02 -0.16427933417E+02  0.20184993935E+01  0.33772294762E+02  0.00000000000E+00 0.  1.
<mgrwt>
<rscale>  1 0.12947563E+03</rscale>
<asrwt>0</asrwt>
<pdfrwt beam="1">  1       21 0.80704643E-02 0.12947563E+03</pdfrwt>
<pdfrwt beam="2">  1       21 0.21097634E-01 0.12947563E+03</pdfrwt>
<totfact> 0.24492586E+06</totfact>
</mgrwt>
</event>
<event>
 6    1  0.4216855E-002  0.1259523E+03  0.7546771E-02  0.1233588E+00
         21   -1    0    0  503  502  0.00000000000E+00  0.00000000000E+00  0.40010299160E+01  0.40010299160E+01  0.00000000000E+00 0. -1.
         21   -1    0    0  504  503 -0.00000000000E+00 -0.00000000000E+00 -0.12497297402E+04  0.12497297402E+04  0.00000000000E+00 0. -1.
         25    2    1    2    0    0 -0.53670868483E+01 -0.14465053061E+02 -0.11191666482E+04  0.11262317547E+04  0.12500374153E+03 0.  0.
          5    1    3    3  501    0  0.15135316025E+02  0.45839951965E+02 -0.24274099576E+03  0.24749460602E+03  0.10000000000E+00 0. -1.
         -5    1    3    3    0  501 -0.20502402874E+02 -0.60305005026E+02 -0.87642565247E+03  0.87873714868E+03  0.10000000000E+00 0. -1.
         21    1    1    2  504  502  0.53670868483E+01  0.14465053061E+02 -0.12656206201E+03  0.12749901538E+03  0.00000000000E+00 0. -1.
<mgrwt>
<rscale>  1 0.12595229E+03</rscale>
<asrwt>0</asrwt>
<pdfrwt beam="1">  1       21 0.61554371E-03 0.12595229E+03</pdfrwt>
<pdfrwt beam="2">  1       21 0.19226591E+00 0.12595229E+03</pdfrwt>
<totfact> 0.12364723E+06</totfact>
</mgrwt>
</event>
<event>
 6    1  0.4216855E-002  0.1308135E+03  0.7546771E-02  0.1226254E+00
         21   -1    0    0  503  502  0.00000000000E+00  0.00000000000E+00  0.29785886000E+03  0.29785886000E+03  0.00000000000E+00 0. -1.
         21   -1    0    0  504  503 -0.00000000000E+00 -0.00000000000E+00 -0.10794020083E+03  0.10794020083E+03  0.00000000000E+00 0.  1.
         25    2    1    2    0    0 -0.38070554808E+02 -0.61382587449E+01 -0.66327152903E+02  0.14666789410E+03  0.12500053834E+03 0.  0.
          5    1    3    3  501    0  0.22009669150E+02 -0.32914317945E+02  0.14759698026E+02  0.42256792918E+02  0.10000000000E+00 0. -1.
         -5    1    3    3    0  501 -0.60080223958E+02  0.26776059200E+02 -0.81086850930E+02  0.10441110119E+03  0.10000000000E+00 0. -1.
         21    1    1    2  504  502  0.38070554808E+02  0.61382587449E+01  0.25624581208E+03  0.25913116673E+03  0.00000000000E+00 0. -1.
<mgrwt>
<rscale>  1 0.13081353E+03</rscale>
<asrwt>0</asrwt>
<pdfrwt beam="1">  1       21 0.45824440E-01 0.13081353E+03</pdfrwt>
<pdfrwt beam="2">  1       21 0.16606185E-01 0.13081353E+03</pdfrwt>
<totfact> 0.15166870E+05</totfact>
</mgrwt>
</event>
<event>
 6    1  0.4216855E-002  0.1260637E+03  0.7546771E-02  0.1233416E+00
         21   -1    0    0  504  502  0.00000000000E+00  0.00000000000E+00  0.45442267979E+02  0.45442267979E+02  0.00000000000E+00 0. -1.
         21   -1    0    0  502  503 -0.00000000000E+00 -0.00000000000E+00 -0.14877162803E+03  0.14877162803E+03  0.00000000000E+00 0. -1.
         25    2    1    2    0    0  0.15331946354E+02  0.53885365266E+01 -0.11773844666E+03  0.17249462619E+03  0.12501179679E+03 0.  0.
          5    1    3    3  501    0  0.68677269022E+02  0.99958194657E+01 -0.85005115383E+02  0.10973770240E+03  0.10000000000E+00 0. -1.
         -5    1    3    3    0  501 -0.53345322668E+02 -0.46072829392E+01 -0.32733331274E+02  0.62756923785E+02  0.10000000000E+00 0. -1.
         21    1    1    2  504  503 -0.15331946354E+02 -0.53885365266E+01  0.14409086605E+02  0.21719269824E+02  0.00000000000E+00 0. -1.
<mgrwt>
<rscale>  1 0.12606369E+03</rscale>
<asrwt>0</asrwt>
<pdfrwt beam="1">  1       21 0.69911181E-02 0.12606369E+03</pdfrwt>
<pdfrwt beam="2">  1       21 0.22887943E-01 0.12606369E+03</pdfrwt>
<totfact> 0.26898800E+06</totfact>
</mgrwt>
</event>
<event>
 6    1  0.4216855E-002  0.1268080E+03  0.7546771E-02  0.1232270E+00
         21   -1    0    0  503  502  0.00000000000E+00  0.00000000000E+00  0.27080197056E+02  0.27080197056E+02  0.00000000000E+00 0.  1.
         21   -1    0    0  504  503 -0.00000000000E+00 -0.00000000000E+00 -0.38134023090E+03  0.38134023090E+03  0.00000000000E+00 0. -1.
         25    2    1    2    0    0 -0.16156890140E+02 -0.13920598322E+02 -0.36364454712E+03  0.38512027247E+03  0.12500175782E+03 0.  0.
          5    1    3    3  501    0  0.51051776833E+02  0.10346487569E+02 -0.19765898402E+03  0.20440747952E+03  0.10000000000E+00 0.  1.
         -5    1    3    3    0  501 -0.67208666973E+02 -0.24267085891E+02 -0.16598556311E+03  0.18071279294E+03  0.10000000000E+00 0.  1.
         21    1    1    2  504  502  0.16156890140E+02  0.13920598322E+02  0.93845132740E+01  0.23300155493E+02  0.00000000000E+00 0.  1.
<mgrwt>
<rscale>  1 0.12680800E+03</rscale>
<asrwt>0</asrwt>
<pdfrwt beam="1">  1       21 0.41661843E-02 0.12680800E+03</pdfrwt>
<pdfrwt beam="2">  1       21 0.58667727E-01 0.12680800E+03</pdfrwt>
<totfact> 0.99762568E+05</totfact>
</mgrwt>
</event>
<event>
 6    1  0.4216855E-002  0.1263629E+03  0.7546771E-02  0.1232955E+00
         21   -1    0    0  503  502  0.00000000000E+00  0.00000000000E+00  0.21699578841E+04  0.21699578841E+04  0.00000000000E+00 0.  1.
         21   -1    0    0  504  503 -0.00000000000E+00 -0.00000000000E+00 -0.26616544076E+01  0.26616544076E+01  0.00000000000E+00 0.  1.
         25    2    1    2    0    0 -0.26545601418E+01  0.18312801243E+02  0.15849031648E+04  0.15899325836E+04  0.12500069294E+03 0.  0.
          5    1    3    3  501    0 -0.47955977748E+02  0.18799775073E+02  0.31199265970E+03  0.31621612396E+03  0.10000000000E+00 0. -1.
         -5    1    3    3    0  501  0.45301417606E+02 -0.48697382977E+00  0.12729105051E+04  0.12737164596E+04  0.10000000000E+00 0. -1.
         21    1    1    2  504  502  0.26545601418E+01 -0.18312801243E+02  0.58239306492E+03  0.58268695493E+03  0.00000000000E+00 0. -1.
<mgrwt>
<rscale>  1 0.12636288E+03</rscale>
<asrwt>0</asrwt>
<pdfrwt beam="1">  1       21 0.33383826E+00 0.12636288E+03</pdfrwt>
<pdfrwt beam="2">  1       21 0.40948703E-03 0.12636288E+03</pdfrwt>
<totfact> 0.35111617E+05</totfact>
</mgrwt>
</event>
<event>
 6    1  0.4216855E-002  0.1273711E+03  0.7546771E-02  0.1231410E+00
         21   -1    0    0  504  502  0.00000000000E+00  0.00000000000E+00  0.52449208257E+02  0.52449208257E+02  0.00000000000E+00 0.  1.
         21   -1    0    0  502  503 -0.00000000000E+00 -0.00000000000E+00 -0.11256834743E+03  0.11256834743E+03  0.00000000000E+00 0.  1.
         25    2    1    2    0    0  0.14543948590E+02 -0.19529696660E+02 -0.59689422715E+02  0.14066349754E+03  0.12502182555E+03 0.  0.
          5    1    3    3  501    0  0.45023958659E+02  0.12426934703E+02  0.19003753980E+02  0.50425571140E+02  0.10000000000E+00 0.  1.
         -5    1    3    3    0  501 -0.30480010069E+02 -0.31956631363E+02 -0.78693176695E+02  0.90237926396E+02  0.10000000000E+00 0.  1.
         21    1    1    2  504  503 -0.14543948590E+02  0.19529696660E+02 -0.42971645800E+00  0.24354058152E+02  0.00000000000E+00 0.  1.
<mgrwt>
<rscale>  1 0.12737108E+03</rscale>
<asrwt>0</asrwt>
<pdfrwt beam="1">  1       21 0.80691089E-02 0.12737108E+03</pdfrwt>
<pdfrwt beam="2">  1       21 0.17318207E-01 0.12737108E+03</pdfrwt>
<totfact> 0.35213039E+06</totfact>
</mgrwt>
</event>
<event>
 6    1  0.4216855E-002  0.1434617E+03  0.7546771E-02  0.1208745E+00
         21   -1    0    0  503  502  0.00000000000E+00  0.00000000000E+00  0.11080999638E+04  0.11080999638E+04  0.00000000000E+00 0.  1.
         21   -1    0    0  504  503 -0.00000000000E+00 -0.00000000000E+00 -0.19886355388E+02  0.19886355388E+02  0.00000000000E+00 0.  1.
         25    2    1    2    0    0  0.51127116879E+02  0.48409665320E+02  0.26139726614E+03  0.29817746070E+03  0.12499515810E+03 0.  0.
          5    1    3    3  501    0 -0.28271471680E+01  0.74752550586E+02  0.92729072717E+02  0.11914120827E+03  0.10000000000E+00 0. -1.
         -5    1    3    3    0  501  0.53954264047E+02 -0.26342885266E+02  0.16866819342E+03  0.17903625243E+03  0.10000000000E+00 0. -1.
         21    1    1    2  504  502 -0.51127116879E+02 -0.48409665320E+02  0.82681634228E+03  0.82980885850E+03  0.00000000000E+00 0.  1.
<mgrwt>
<rscale>  1 0.14346173E+03</rscale>
<asrwt>0</asrwt>
<pdfrwt beam="1">  1       21 0.17047687E+00 0.14346173E+03</pdfrwt>
<pdfrwt beam="2">  1       21 0.30594401E-02 0.14346173E+03</pdfrwt>
<totfact> 0.13289803E+05</totfact>
</mgrwt>
</event>
<event>
 6    1  0.4216855E-002  0.1260020E+03  0.7546771E-02  0.1233512E+00
         21   -1    0    0  504  502  0.00000000000E+00  0.00000000000E+00  0.23285576195E+02  0.23285576195E+02  0.00000000000E+00 0. -1.
         21   -1    0    0  502  503 -0.00000000000E+00 -0.00000000000E+00 -0.15720970300E+04  0.15720970300E+04  0.00000000000E+00 0.  1.
         25    2    1    2    0    0 -0.14367794023E+02  0.71565780218E+01 -0.15664639607E+04  0.15715234127E+04  0.12497538366E+03 0.  0.
          5    1    3    3  501    0 -0.29273433055E+01  0.42666085359E+02 -0.14109189754E+04  0.14115669766E+04  0.10000000000E+00 0. -1.
         -5    1    3    3    0  501 -0.11440450717E+02 -0.35509507337E+02 -0.15554498526E+03  0.15995643614E+03  0.10000000000E+00 0. -1.
         21    1    1    2  504  503  0.14367794023E+02 -0.71565780218E+01  0.17652506875E+02  0.23859193470E+02  0.00000000000E+00 0. -1.
<mgrwt>
<rscale>  1 0.12600197E+03</rscale>
<asrwt>0</asrwt>
<pdfrwt beam="1">  1       21 0.35823963E-02 0.12600197E+03</pdfrwt>
<pdfrwt beam="2">  1       21 0.24186108E+00 0.12600197E+03</pdfrwt>
<totfact> 0.37143413E+04</totfact>
</mgrwt>
</event>
<event>
 6    1  0.4216855E-002  0.1286790E+03  0.7546771E-02  0.1229429E+00
         21   -1    0    0  504  502  0.00000000000E+00  0.00000000000E+00  0.69204243142E+02  0.69204243142E+02  0.00000000000E+00 0.  1.
         21   -1    0    0  502  503 -0.00000000000E+00 -0.00000000000E+00 -0.92542194453E+02  0.92542194453E+02  0.00000000000E+00 0.  1.
         25    2    1    2    0    0  0.33415577970E+01  0.30356085641E+02 -0.25305527130E+02  0.13114367140E+03  0.12500253958E+03 0.  0.
          5    1    3    3  501    0 -0.46629678899E+02  0.33320821382E+02  0.22834546566E+02  0.61693035334E+02  0.10000000000E+00 0.  1.
         -5    1    3    3    0  501  0.49971236696E+02 -0.29647357405E+01 -0.48140073696E+02  0.69450636069E+02  0.10000000000E+00 0.  1.
         21    1    1    2  504  503 -0.33415577970E+01 -0.30356085641E+02  0.19675758191E+01  0.30602766192E+02  0.00000000000E+00 0.  1.
<mgrwt>
<rscale>  1 0.12867903E+03</rscale>
<asrwt>0</asrwt>
<pdfrwt beam="1">  1       21 0.10646807E-01 0.12867903E+03</pdfrwt>
<pdfrwt beam="2">  1       21 0.14237261E-01 0.12867903E+03</pdfrwt>
<totfact> 0.30994916E+06</totfact>
</mgrwt>
</event>
<event>
 6    1  0.4216855E-002  0.1264465E+03  0.7546771E-02  0.1232826E+00
         21   -1    0    0  503  502  0.00000000000E+00  0.00000000000E+00  0.10606693143E+03  0.10606693143E+03  0.00000000000E+00 0. -1.
         21   -1    0    0  504  503 -0.00000000000E+00 -0.00000000000E+00 -0.18570609902E+03  0.18570609902E+03  0.00000000000E+00 0.  1.
         25    2    1    2    0    0  0.14062878829E+02 -0.12921549358E+02 -0.16297579030E+03  0.20627610837E+03  0.12499597459E+03 0.  0.
          5    1    3    3  501    0 -0.34357574383E+02 -0.52786149189E+02 -0.92830253919E+02  0.11217970630E+03  0.10000000000E+00 0.  1.
         -5    1    3    3    0  501  0.48420453212E+02  0.39864599831E+02 -0.70145536378E+02  0.94096402071E+02  0.10000000000E+00 0.  1.
         21    1    1    2  504  502 -0.14062878829E+02  0.12921549358E+02  0.83336622709E+02  0.85496922069E+02  0.00000000000E+00 0. -1.
<mgrwt>
<rscale>  1 0.12644653E+03</rscale>
<asrwt>0</asrwt>
<pdfrwt beam="1">  1       21 0.16317989E-01 0.12644653E+03</pdfrwt>
<pdfrwt beam="2">  1       21 0.28570169E-01 0.12644653E+03</pdfrwt>
<totfact> 0.39829939E+05</totfact>
</mgrwt>
</event>
<event>
 6    1  0.4216855E-002  0.1286971E+03  0.7546771E-02  0.1229402E+00
         21   -1    0    0  504  502  0.00000000000E+00  0.00000000000E+00  0.12750103562E+03  0.12750103562E+03  0.00000000000E+00 0.  1.
         21   -1    0    0  502  503 -0.00000000000E+00 -0.00000000000E+00 -0.21914153176E+03  0.21914153176E+03  0.00000000000E+00 0.  1.
         25    2    1    2    0    0  0.18700357987E+01  0.30563528985E+02 -0.19789592073E+03  0.23606299606E+03  0.12500126532E+03 0.  0.
          5    1    3    3  501    0  0.53057362521E+02 -0.97675891039E+01 -0.46446724164E+02  0.71188466061E+02  0.10000000000E+00 0.  1.
         -5    1    3    3    0  501 -0.51187326723E+02  0.40331118089E+02 -0.15144919657E+03  0.16487453000E+03  0.10000000000E+00 0.  1.
         21    1    1    2  504  503 -0.18700357987E+01 -0.30563528985E+02  0.10625542459E+03  0.11057957132E+03  0.00000000000E+00 0.  1.
<mgrwt>
<rscale>  1 0.12869710E+03</rscale>
<asrwt>0</asrwt>
<pdfrwt beam="1">  1       21 0.19615544E-01 0.12869710E+03</pdfrwt>
<pdfrwt beam="2">  1       21 0.33714082E-01 0.12869710E+03</pdfrwt>
<totfact> 0.20635463E+05</totfact>
</mgrwt>
</event>
<event>
 6    1  0.4216855E-002  0.1267524E+03  0.7546771E-02  0.1232356E+00
         21   -1    0    0  504  502  0.00000000000E+00  0.00000000000E+00  0.33490796875E+02  0.33490796875E+02  0.00000000000E+00 0. -1.
         21   -1    0    0  502  503 -0.00000000000E+00 -0.00000000000E+00 -0.25221728447E+03  0.25221728447E+03  0.00000000000E+00 0.  1.
         25    2    1    2    0    0  0.13547483878E+02  0.16090742873E+02 -0.22942393623E+03  0.26210973960E+03  0.12499490691E+03 0.  0.
          5    1    3    3  501    0  0.46746369520E+02 -0.20194505006E+02 -0.35571619075E+02  0.62115949477E+02  0.10000000000E+00 0.  1.
         -5    1    3    3    0  501 -0.33198885643E+02  0.36285247879E+02 -0.19385231716E+03  0.19999379013E+03  0.10000000000E+00 0.  1.
         21    1    1    2  504  503 -0.13547483878E+02 -0.16090742873E+02  0.10697448638E+02  0.23598341742E+02  0.00000000000E+00 0. -1.
<mgrwt>
<rscale>  1 0.12675241E+03</rscale>
<asrwt>0</asrwt>
<pdfrwt beam="1">  1       21 0.51524302E-02 0.12675241E+03</pdfrwt>
<pdfrwt beam="2">  1       21 0.38802660E-01 0.12675241E+03</pdfrwt>
<totfact> 0.16314224E+06</totfact>
</mgrwt>
</event>
<event>
 6    1  0.4216855E-002  0.1275983E+03  0.7546771E-02  0.1231063E+00
         21   -1    0    0  504  502  0.00000000000E+00  0.00000000000E+00  0.39894870739E+03  0.39894870739E+03  0.00000000000E+00 0. -1.
         21   -1    0    0  502  503 -0.00000000000E+00 -0.00000000000E+00 -0.39683743804E+02  0.39683743804E+02  0.00000000000E+00 0. -1.
         25    2    1    2    0    0  0.63358588405E+01  0.24836517525E+02  0.64902466831E+02  0.14315609816E+03  0.12499737009E+03 0.  0.
          5    1    3    3  501    0  0.53873206378E+02 -0.20702528030E+02  0.12589690107E+02  0.59071374872E+02  0.10000000000E+00 0. -1.
         -5    1    3    3    0  501 -0.47537347537E+02  0.45539045555E+02  0.52312776725E+02  0.84084723283E+02  0.10000000000E+00 0. -1.
         21    1    1    2  504  503 -0.63358588405E+01 -0.24836517525E+02  0.29436249675E+03  0.29547635304E+03  0.00000000000E+00 0. -1.
<mgrwt>
<rscale>  1 0.12759835E+03</rscale>
<asrwt>0</asrwt>
<pdfrwt beam="1">  1       21 0.61376721E-01 0.12759835E+03</pdfrwt>
<pdfrwt beam="2">  1       21 0.61051916E-02 0.12759835E+03</pdfrwt>
<totfact> 0.47702685E+05</totfact>
</mgrwt>
</event>
<event>
 6    1  0.4216855E-002  0.1260704E+03  0.7546771E-02  0.1233406E+00
         21   -1    0    0  503  502  0.00000000000E+00  0.00000000000E+00  0.12639291768E+03  0.12639291768E+03  0.00000000000E+00 0.  1.
         21   -1    0    0  504  503 -0.00000000000E+00 -0.00000000000E+00 -0.73161126374E+02  0.73161126374E+02  0.00000000000E+00 0.  1.
         25    2    1    2    0    0  0.16355410615E+02  0.99865821571E+00 -0.17202673856E+02  0.12723868844E+03  0.12500102029E+03 0.  0.
          5    1    3    3  501    0  0.62162360496E+01 -0.45622047412E+02  0.34012297834E+02  0.57243857352E+02  0.10000000000E+00 0. -1.
         -5    1    3    3    0  501  0.10139174565E+02  0.46620705627E+02 -0.51214971690E+02  0.69994831089E+02  0.10000000000E+00 0. -1.
         21    1    1    2  504  502 -0.16355410615E+02 -0.99865821571E+00  0.70434465162E+02  0.72315355612E+02  0.00000000000E+00 0.  1.
<mgrwt>
<rscale>  1 0.12607042E+03</rscale>
<asrwt>0</asrwt>
<pdfrwt beam="1">  1       21 0.19445064E-01 0.12607042E+03</pdfrwt>
<pdfrwt beam="2">  1       21 0.11255558E-01 0.12607042E+03</pdfrwt>
<totfact> 0.15936696E+06</totfact>
</mgrwt>
</event>
<event>
 6    1  0.4216855E-002  0.1280283E+03  0.7546771E-02  0.1230411E+00
         21   -1    0    0  503  502  0.00000000000E+00  0.00000000000E+00  0.97022228655E+02  0.97022228655E+02  0.00000000000E+00 0.  1.
         21   -1    0    0  504  503 -0.00000000000E+00 -0.00000000000E+00 -0.68596542465E+02  0.68596542465E+02  0.00000000000E+00 0.  1.
         25    2    1    2    0    0  0.27305055136E+02  0.46077607262E+01  0.30583451218E+01  0.12806481676E+03  0.12499778527E+03 0.  0.
          5    1    3    3  501    0 -0.18684977351E+02 -0.16014602512E+02  0.52175707589E+02  0.57688043255E+02  0.10000000000E+00 0.  1.
         -5    1    3    3    0  501  0.45990032487E+02  0.20622363238E+02 -0.49117362467E+02  0.70376773508E+02  0.10000000000E+00 0.  1.
         21    1    1    2  504  502 -0.27305055136E+02 -0.46077607262E+01  0.25367341069E+02  0.37553954356E+02  0.00000000000E+00 0.  1.
<mgrwt>
<rscale>  1 0.12802829E+03</rscale>
<asrwt>0</asrwt>
<pdfrwt beam="1">  1       21 0.14926497E-01 0.12802829E+03</pdfrwt>
<pdfrwt beam="2">  1       21 0.10553314E-01 0.12802829E+03</pdfrwt>
<totfact> 0.28907177E+06</totfact>
</mgrwt>
</event>
<event>
 6    1  0.4216855E-002  0.1329563E+03  0.7546771E-02  0.1223134E+00
         21   -1    0    0  504  502  0.00000000000E+00  0.00000000000E+00  0.51803827007E+03  0.51803827007E+03  0.00000000000E+00 0.  1.
         21   -1    0    0  502  503 -0.00000000000E+00 -0.00000000000E+00 -0.16101494304E+02  0.16101494304E+02  0.00000000000E+00 0.  1.
         25    2    1    2    0    0  0.41726482758E+02 -0.17707145409E+02  0.41946606103E+03  0.44003311662E+03  0.12499089970E+03 0.  0.
          5    1    3    3  501    0 -0.62611714337E+01 -0.55175000171E+02  0.96134762681E+02  0.11101975278E+03  0.10000000000E+00 0.  1.
         -5    1    3    3    0  501  0.47987654191E+02  0.37467854762E+02  0.32333129835E+03  0.32901336384E+03  0.10000000000E+00 0.  1.
         21    1    1    2  504  503 -0.41726482758E+02  0.17707145409E+02  0.82470714740E+02  0.94106647755E+02  0.00000000000E+00 0.  1.
<mgrwt>
<rscale>  1 0.13295626E+03</rscale>
<asrwt>0</asrwt>
<pdfrwt beam="1">  1       21 0.79698183E-01 0.13295626E+03</pdfrwt>
<pdfrwt beam="2">  1       21 0.24771534E-02 0.13295626E+03</pdfrwt>
<totfact> 0.12063979E+06</totfact>
</mgrwt>
</event>
<event>
 6    1  0.4216855E-002  0.1296207E+03  0.7546771E-02  0.1228020E+00
         21   -1    0    0  503  502  0.00000000000E+00  0.00000000000E+00  0.46366960156E+02  0.46366960156E+02  0.00000000000E+00 0. -1.
         21   -1    0    0  504  503 -0.00000000000E+00 -0.00000000000E+00 -0.29331711246E+03  0.29331711246E+03  0.00000000000E+00 0.  1.
         25    2    1    2    0    0 -0.11285410818E+02  0.32395955061E+02 -0.26920961932E+03  0.29878979095E+03  0.12499864656E+03 0.  0.
          5    1    3    3  501    0 -0.34498682858E+02  0.70784497384E+02 -0.12473883512E+03  0.14751403721E+03  0.10000000000E+00 0.  1.
         -5    1    3    3    0  501  0.23213272040E+02 -0.38388542323E+02 -0.14447078420E+03  0.15127575374E+03  0.10000000000E+00 0.  1.
         21    1    1    2  504  502  0.11285410818E+02 -0.32395955061E+02  0.22259467011E+02  0.40894281669E+02  0.00000000000E+00 0. -1.
<mgrwt>
<rscale>  1 0.12962068E+03</rscale>
<asrwt>0</asrwt>
<pdfrwt beam="1">  1       21 0.71333786E-02 0.12962068E+03</pdfrwt>
<pdfrwt beam="2">  1       21 0.45125709E-01 0.12962068E+03</pdfrwt>
<totfact> 0.69356774E+05</totfact>
</mgrwt>
</event>
<event>
 6    1  0.4216855E-002  0.1301984E+03  0.7546771E-02  0.1227162E+00
         21   -1    0    0  503  502  0.00000000000E+00  0.00000000000E+00  0.75205633104E+02  0.75205633104E+02  0.00000000000E+00 0. -1.
         21   -1    0    0  504  503 -0.00000000000E+00 -0.00000000000E+00 -0.12423277346E+03  0.12423277346E+03  0.00000000000E+00 0. -1.
         25    2    1    2    0    0 -0.23190613482E+02 -0.28085329708E+02 -0.78980631874E+02  0.15228120188E+03  0.12500013575E+03 0.  0.
          5    1    3    3  501    0 -0.31241691513E+02  0.34459451274E+02 -0.76057015697E+02  0.89152547398E+02  0.10000000000E+00 0. -1.
         -5    1    3    3    0  501  0.80510780308E+01 -0.62544780982E+02 -0.29236161763E+01  0.63128654485E+02  0.10000000000E+00 0. -1.
         21    1    1    2  504  502  0.23190613482E+02  0.28085329708E+02  0.29953491523E+02  0.47157204676E+02  0.00000000000E+00 0.  1.
<mgrwt>
<rscale>  1 0.13019840E+03</rscale>
<asrwt>0</asrwt>
<pdfrwt beam="1">  1       21 0.11570098E-01 0.13019840E+03</pdfrwt>
<pdfrwt beam="2">  1       21 0.19112734E-01 0.13019840E+03</pdfrwt>
<totfact> 0.15681253E+06</totfact>
</mgrwt>
</event>
<event>
 6    1  0.4216855E-002  0.1274981E+03  0.7546771E-02  0.1231216E+00
         21   -1    0    0  503  502  0.00000000000E+00  0.00000000000E+00  0.29662210949E+03  0.29662210949E+03  0.00000000000E+00 0. -1.
         21   -1    0    0  504  503 -0.00000000000E+00 -0.00000000000E+00 -0.11455261082E+03  0.11455261082E+03  0.00000000000E+00 0. -1.
         25    2    1    2    0    0  0.14837883510E+02  0.20121581086E+02 -0.78290755542E+02  0.14961688199E+03  0.12502291054E+03 0.  0.
          5    1    3    3  501    0 -0.38599337897E+02 -0.27635477948E+02 -0.60485445770E+01  0.47856278783E+02  0.10000000000E+00 0.  1.
         -5    1    3    3    0  501  0.53437221407E+02  0.47757059033E+02 -0.72242210965E+02  0.10176060320E+03  0.10000000000E+00 0.  1.
         21    1    1    2  504  502 -0.14837883510E+02 -0.20121581086E+02  0.26036025421E+03  0.26155783832E+03  0.00000000000E+00 0. -1.
<mgrwt>
<rscale>  1 0.12749811E+03</rscale>
<asrwt>0</asrwt>
<pdfrwt beam="1">  1       21 0.45634170E-01 0.12749811E+03</pdfrwt>
<pdfrwt beam="2">  1       21 0.17623479E-01 0.12749811E+03</pdfrwt>
<totfact> 0.13740065E+05</totfact>
</mgrwt>
</event>
<event>
 6    1  0.4216855E-002  0.1264880E+03  0.7546771E-02  0.1232762E+00
         21   -1    0    0  504  502  0.00000000000E+00  0.00000000000E+00  0.16616249203E+03  0.16616249203E+03  0.00000000000E+00 0.  1.
         21   -1    0    0  502  503 -0.00000000000E+00 -0.00000000000E+00 -0.32289545994E+02  0.32289545994E+02  0.00000000000E+00 0.  1.
         25    2    1    2    0    0 -0.18035995943E+02  0.71574340991E+01  0.10951856901E+03  0.16731264668E+03  0.12499071474E+03 0.  0.
          5    1    3    3  501    0 -0.93670076401E+01 -0.37610634913E+02  0.11502665385E+03  0.12138138979E+03  0.10000000000E+00 0. -1.
         -5    1    3    3    0  501 -0.86689883024E+01  0.44768069012E+02 -0.55080848448E+01  0.45931256894E+02  0.10000000000E+00 0. -1.
         21    1    1    2  504  503  0.18035995943E+02 -0.71574340991E+01  0.24354377025E+02  0.31139391336E+02  0.00000000000E+00 0.  1.
<mgrwt>
<rscale>  1 0.12648796E+03</rscale>
<asrwt>0</asrwt>
<pdfrwt beam="1">  1       21 0.25563460E-01 0.12648796E+03</pdfrwt>
<pdfrwt beam="2">  1       21 0.49676225E-02 0.12648796E+03</pdfrwt>
<totfact> 0.38968140E+06</totfact>
</mgrwt>
</event>
<event>
 6    1  0.4216855E-002  0.1297277E+03  0.7546771E-02  0.1227860E+00
         21   -1    0    0  503  502  0.00000000000E+00  0.00000000000E+00  0.18003133077E+02  0.18003133077E+02  0.00000000000E+00 0.  1.
         21   -1    0    0  504  503 -0.00000000000E+00 -0.00000000000E+00 -0.49289331186E+03  0.49289331186E+03  0.00000000000E+00 0.  1.
         25    2    1    2    0    0  0.29146928535E+02  0.18816100379E+02 -0.44966031485E+03  0.46799964890E+03  0.12500273412E+03 0.  0.
          5    1    3    3  501    0 -0.80596639948E+00 -0.50767919808E+02 -0.13194289545E+03  0.14137527692E+03  0.10000000000E+00 0. -1.
         -5    1    3    3    0  501  0.29952894934E+02  0.69584020187E+02 -0.31771741940E+03  0.32662437198E+03  0.10000000000E+00 0. -1.
         21    1    1    2  504  502 -0.29146928535E+02 -0.18816100379E+02 -0.25229863929E+02  0.42896796038E+02  0.00000000000E+00 0.  1.
<mgrwt>
<rscale>  1 0.12972769E+03</rscale>
<asrwt>0</asrwt>
<pdfrwt beam="1">  1       21 0.27697132E-02 0.12972769E+03</pdfrwt>
<pdfrwt beam="2">  1       21 0.75829730E-01 0.12972769E+03</pdfrwt>
<totfact> 0.11230304E+06</totfact>
</mgrwt>
</event>
<event>
 6    1  0.4216855E-002  0.1314579E+03  0.7546771E-02  0.1225308E+00
         21   -1    0    0  504  502  0.00000000000E+00  0.00000000000E+00  0.10410147379E+04  0.10410147379E+04  0.00000000000E+00 0. -1.
         21   -1    0    0  502  503 -0.00000000000E+00 -0.00000000000E+00 -0.78319815352E+02  0.78319815352E+02  0.00000000000E+00 0. -1.
         25    2    1    2    0    0 -0.38146704669E+02 -0.14128481109E+02 -0.22440609967E+02  0.13335950160E+03  0.12500556242E+03 0.  0.
          5    1    3    3  501    0  0.13443396610E+02  0.29600396793E+02 -0.50565582254E+02  0.60114860986E+02  0.10000000000E+00 0.  1.
         -5    1    3    3    0  501 -0.51590101279E+02 -0.43728877902E+02  0.28124972287E+02  0.73244640614E+02  0.10000000000E+00 0.  1.
         21    1    1    2  504  503  0.38146704669E+02  0.14128481109E+02  0.98513553249E+03  0.98597505163E+03  0.00000000000E+00 0. -1.
<mgrwt>
<rscale>  1 0.13145789E+03</rscale>
<asrwt>0</asrwt>
<pdfrwt beam="1">  1       21 0.16015610E+00 0.13145789E+03</pdfrwt>
<pdfrwt beam="2">  1       21 0.12049203E-01 0.13145789E+03</pdfrwt>
<totfact> 0.15357228E+04</totfact>
</mgrwt>
</event>
<event>
 6    1  0.4216855E-002  0.1396432E+03  0.7546771E-02  0.1213810E+00
         21   -1    0    0  503  502  0.00000000000E+00  0.00000000000E+00  0.27250920973E+02  0.27250920973E+02  0.00000000000E+00 0.  1.
         21   -1    0    0  504  503 -0.00000000000E+00 -0.00000000000E+00 -0.37497946657E+03  0.37497946657E+03  0.00000000000E+00 0.  1.
         25    2    1    2    0    0 -0.62254906312E+02  0.13745329029E+01 -0.23089343644E+03  0.26983701372E+03  0.12499068878E+03 0.  0.
          5    1    3    3  501    0 -0.31009790695E+02 -0.61551451140E+02 -0.10334316151E+03  0.12421758043E+03  0.10000000000E+00 0. -1.
         -5    1    3    3    0  501 -0.31245115616E+02  0.62925984042E+02 -0.12755027493E+03  0.14561943329E+03  0.10000000000E+00 0. -1.
         21    1    1    2  504  502  0.62254906312E+02 -0.13745329029E+01 -0.11683510915E+03  0.13239337382E+03  0.00000000000E+00 0.  1.
<mgrwt>
<rscale>  1 0.13964324E+03</rscale>
<asrwt>0</asrwt>
<pdfrwt beam="1">  1       21 0.41924495E-02 0.13964324E+03</pdfrwt>
<pdfrwt beam="2">  1       21 0.57689147E-01 0.13964324E+03</pdfrwt>
<totfact> 0.10233749E+06</totfact>
</mgrwt>
</event>
<event>
 6    1  0.4216855E-002  0.1264676E+03  0.7546771E-02  0.1232793E+00
         21   -1    0    0  504  502  0.00000000000E+00  0.00000000000E+00  0.78037280753E+01  0.78037280753E+01  0.00000000000E+00 0. -1.
         21   -1    0    0  502  503 -0.00000000000E+00 -0.00000000000E+00 -0.12967618747E+04  0.12967618747E+04  0.00000000000E+00 0. -1.
         25    2    1    2    0    0 -0.13279281085E+02  0.13951829133E+02 -0.12737799572E+04  0.12800427507E+04  0.12499228483E+03 0.  0.
          5    1    3    3  501    0 -0.55053728775E+02  0.35676535412E+02 -0.43260093909E+03  0.43754692404E+03  0.10000000000E+00 0.  1.
         -5    1    3    3    0  501  0.41774447691E+02 -0.21724706279E+02 -0.84117901812E+03  0.84249582662E+03  0.10000000000E+00 0.  1.
         21    1    1    2  504  503  0.13279281085E+02 -0.13951829133E+02 -0.15178189412E+02  0.24522852120E+02  0.00000000000E+00 0. -1.
<mgrwt>
<rscale>  1 0.12646764E+03</rscale>
<asrwt>0</asrwt>
<pdfrwt beam="1">  1       21 0.12005738E-02 0.12646764E+03</pdfrwt>
<pdfrwt beam="2">  1       21 0.19950179E+00 0.12646764E+03</pdfrwt>
<totfact> 0.39012978E+05</totfact>
</mgrwt>
</event>
<event>
 6    1  0.4216855E-002  0.1765036E+03  0.7546771E-02  0.1171230E+00
         21   -1    0    0  504  502  0.00000000000E+00  0.00000000000E+00  0.46136179237E+03  0.46136179237E+03  0.00000000000E+00 0. -1.
         21   -1    0    0  502  503 -0.00000000000E+00 -0.00000000000E+00 -0.17181846623E+03  0.17181846623E+03  0.00000000000E+00 0.  1.
         25    2    1    2    0    0  0.80477674854E+02 -0.95141727113E+02 -0.11447822754E+03  0.21037768030E+03  0.12499959760E+03 0.  0.
          5    1    3    3  501    0  0.99125319012E+02 -0.86759350611E+02 -0.46990682061E+02  0.13986117398E+03  0.10000000000E+00 0. -1.
         -5    1    3    3    0  501 -0.18647644158E+02 -0.83823765015E+01 -0.67487545478E+02  0.70516506316E+02  0.10000000000E+00 0. -1.
         21    1    1    2  504  503 -0.80477674854E+02  0.95141727113E+02  0.40402155367E+03  0.42280257831E+03  0.00000000000E+00 0. -1.
<mgrwt>
<rscale>  1 0.17650355E+03</rscale>
<asrwt>0</asrwt>
<pdfrwt beam="1">  1       21 0.70978737E-01 0.17650355E+03</pdfrwt>
<pdfrwt beam="2">  1       21 0.26433610E-01 0.17650355E+03</pdfrwt>
<totfact> 0.24691292E+04</totfact>
</mgrwt>
</event>
<event>
 6    1  0.4216855E-002  0.1305517E+03  0.7546771E-02  0.1226639E+00
         21   -1    0    0  503  502  0.00000000000E+00  0.00000000000E+00  0.72873840153E+02  0.72873840153E+02  0.00000000000E+00 0. -1.
         21   -1    0    0  504  503 -0.00000000000E+00 -0.00000000000E+00 -0.12680518118E+03  0.12680518118E+03  0.00000000000E+00 0. -1.
         25    2    1    2    0    0 -0.24676017426E+01  0.37594008485E+02 -0.80683827312E+02  0.15347194336E+03  0.12499743548E+03 0.  0.
          5    1    3    3  501    0  0.60587100865E+02  0.10888707391E+02 -0.31399325650E+02  0.69103461499E+02  0.10000000000E+00 0.  1.
         -5    1    3    3    0  501 -0.63054702607E+02  0.26705301094E+02 -0.49284501662E+02  0.84368481861E+02  0.10000000000E+00 0.  1.
         21    1    1    2  504  502  0.24676017426E+01 -0.37594008485E+02  0.26752486286E+02  0.46207077973E+02  0.00000000000E+00 0. -1.
<mgrwt>
<rscale>  1 0.13055174E+03</rscale>
<asrwt>0</asrwt>
<pdfrwt beam="1">  1       21 0.11211360E-01 0.13055174E+03</pdfrwt>
<pdfrwt beam="2">  1       21 0.19508489E-01 0.13055174E+03</pdfrwt>
<totfact> 0.15964187E+06</totfact>
</mgrwt>
</event>
<event>
 6    1  0.4216855E-002  0.1297631E+03  0.7546771E-02  0.1227808E+00
         21   -1    0    0  504  502  0.00000000000E+00  0.00000000000E+00  0.17748476296E+02  0.17748476296E+02  0.00000000000E+00 0. -1.
         21   -1    0    0  502  503 -0.00000000000E+00 -0.00000000000E+00 -0.17975130262E+04  0.17975130262E+04  0.00000000000E+00 0. -1.
         25    2    1    2    0    0 -0.26546985009E+01  0.34735563554E+02 -0.17754188418E+04  0.17801546374E+04  0.12499944911E+03 0.  0.
          5    1    3    3  501    0  0.24572970809E+02 -0.33913454003E+02 -0.10828089561E+04  0.10836185669E+04  0.10000000000E+00 0.  1.
         -5    1    3    3    0  501 -0.27227669310E+02  0.68649017557E+02 -0.69260988578E+03  0.69653607047E+03  0.10000000000E+00 0.  1.
         21    1    1    2  504  503  0.26546985009E+01 -0.34735563554E+02 -0.43457080773E+01  0.35106865115E+02  0.00000000000E+00 0. -1.
<mgrwt>
<rscale>  1 0.12976313E+03</rscale>
<asrwt>0</asrwt>
<pdfrwt beam="1">  1       21 0.27305334E-02 0.12976313E+03</pdfrwt>
<pdfrwt beam="2">  1       21 0.27654060E+00 0.12976313E+03</pdfrwt>
<totfact> 0.36662177E+04</totfact>
</mgrwt>
</event>
<event>
 6    1  0.4216855E-002  0.1402968E+03  0.7546771E-02  0.1212930E+00
         21   -1    0    0  503  502  0.00000000000E+00  0.00000000000E+00  0.82513787379E+02  0.82513787379E+02  0.00000000000E+00 0.  1.
         21   -1    0    0  504  503 -0.00000000000E+00 -0.00000000000E+00 -0.13703976620E+03  0.13703976620E+03  0.00000000000E+00 0.  1.
         25    2    1    2    0    0 -0.55969322541E+02 -0.30414107405E+02 -0.65638732076E+02  0.15489231109E+03  0.12500240754E+03 0.  0.
          5    1    3    3  501    0  0.87644388654E+01 -0.28711448150E+02  0.27995026389E+02  0.41047462115E+02  0.10000000000E+00 0. -1.
         -5    1    3    3    0  501 -0.64733761406E+02 -0.17026592553E+01 -0.93633758466E+02  0.11384484898E+03  0.10000000000E+00 0. -1.
         21    1    1    2  504  502  0.55969322541E+02  0.30414107405E+02  0.11112753256E+02  0.64661242486E+02  0.00000000000E+00 0.  1.
<mgrwt>
<rscale>  1 0.14029677E+03</rscale>
<asrwt>0</asrwt>
<pdfrwt beam="1">  1       21 0.12694429E-01 0.14029677E+03</pdfrwt>
<pdfrwt beam="2">  1       21 0.21083041E-01 0.14029677E+03</pdfrwt>
<totfact> 0.11102746E+06</totfact>
</mgrwt>
</event>
<event>
 6    1  0.4216855E-002  0.1263963E+03  0.7546771E-02  0.1232903E+00
         21   -1    0    0  504  502  0.00000000000E+00  0.00000000000E+00  0.39274611625E+02  0.39274611625E+02  0.00000000000E+00 0. -1.
         21   -1    0    0  502  503 -0.00000000000E+00 -0.00000000000E+00 -0.25469363117E+03  0.25469363117E+03  0.00000000000E+00 0. -1.
         25    2    1    2    0    0  0.59531621879E+01  0.17752163421E+02 -0.23502538005E+03  0.26685756559E+03  0.12500180639E+03 0.  0.
          5    1    3    3  501    0  0.43840681112E+02  0.53142034225E+02 -0.93533707876E+02  0.11616645657E+03  0.10000000000E+00 0. -1.
         -5    1    3    3    0  501 -0.37887518924E+02 -0.35389870804E+02 -0.14149167217E+03  0.15069110903E+03  0.10000000000E+00 0. -1.
         21    1    1    2  504  503 -0.59531621879E+01 -0.17752163421E+02  0.19606360503E+02  0.27110677202E+02  0.00000000000E+00 0. -1.
<mgrwt>
<rscale>  1 0.12639633E+03</rscale>
<asrwt>0</asrwt>
<pdfrwt beam="1">  1       21 0.60422481E-02 0.12639633E+03</pdfrwt>
<pdfrwt beam="2">  1       21 0.39183634E-01 0.12639633E+03</pdfrwt>
<totfact> 0.12226445E+06</totfact>
</mgrwt>
</event>
<event>
 6    1  0.4216855E-002  0.1653681E+03  0.7546771E-02  0.1182766E+00
         21   -1    0    0  503  502  0.00000000000E+00  0.00000000000E+00  0.26203842459E+02  0.26203842459E+02  0.00000000000E+00 0. -1.
         21   -1    0    0  504  503 -0.00000000000E+00 -0.00000000000E+00 -0.71438004514E+03  0.71438004514E+03  0.00000000000E+00 0. -1.
         25    2    1    2    0    0  0.46172482351E+02 -0.97924902543E+02 -0.41827582157E+03  0.44977914144E+03  0.12500171399E+03 0.  0.
          5    1    3    3  501    0  0.46109214040E+02 -0.12086354357E+03 -0.40015892414E+03  0.42054872530E+03  0.10000000000E+00 0. -1.
         -5    1    3    3    0  501  0.63268311032E-01  0.22938641029E+02 -0.18116897427E+02  0.29230416137E+02  0.10000000000E+00 0. -1.
         21    1    1    2  504  502 -0.46172482351E+02  0.97924902543E+02 -0.26990038111E+03  0.29080474616E+03  0.00000000000E+00 0. -1.
<mgrwt>
<rscale>  1 0.16536811E+03</rscale>
<asrwt>0</asrwt>
<pdfrwt beam="1">  1       21 0.40313612E-02 0.16536811E+03</pdfrwt>
<pdfrwt beam="2">  1       21 0.10990460E+00 0.16536811E+03</pdfrwt>
<totfact> 0.25530449E+05</totfact>
</mgrwt>
</event>
<event>
 6    1  0.4216855E-002  0.1371211E+03  0.7546771E-02  0.1217256E+00
         21   -1    0    0  504  502  0.00000000000E+00  0.00000000000E+00  0.59312332019E+02  0.59312332019E+02  0.00000000000E+00 0.  1.
         21   -1    0    0  502  503 -0.00000000000E+00 -0.00000000000E+00 -0.16161570766E+03  0.16161570766E+03  0.00000000000E+00 0.  1.
         25    2    1    2    0    0 -0.22435654257E+02  0.51713315887E+02 -0.87449565030E+02  0.16263343177E+03  0.12499832432E+03 0.  0.
          5    1    3    3  501    0 -0.12059832713E+02  0.92866750997E+02 -0.69172472598E+02  0.11642385482E+03  0.10000000000E+00 0.  1.
         -5    1    3    3    0  501 -0.10375821544E+02 -0.41153435110E+02 -0.18277092432E+02  0.46209576949E+02  0.10000000000E+00 0.  1.
         21    1    1    2  504  503  0.22435654257E+02 -0.51713315887E+02 -0.14853810612E+02  0.58294607912E+02  0.00000000000E+00 0.  1.
<mgrwt>
<rscale>  1 0.13712114E+03</rscale>
<asrwt>0</asrwt>
<pdfrwt beam="1">  1       21 0.91249742E-02 0.13712114E+03</pdfrwt>
<pdfrwt beam="2">  1       21 0.24863955E-01 0.13712114E+03</pdfrwt>
<totfact> 0.14569574E+06</totfact>
</mgrwt>
</event>
<event>
 6    1  0.4216855E-002  0.1265703E+03  0.7546771E-02  0.1232635E+00
         21   -1    0    0  504  502  0.00000000000E+00  0.00000000000E+00  0.29912784177E+02  0.29912784177E+02  0.00000000000E+00 0. -1.
         21   -1    0    0  502  503 -0.00000000000E+00 -0.00000000000E+00 -0.22227727235E+03  0.22227727235E+03  0.00000000000E+00 0.  1.
         25    2    1    2    0    0 -0.19868633090E+02 -0.24847473811E+00 -0.19465677776E+03  0.23218808382E+03  0.12500088328E+03 0.  0.
          5    1    3    3  501    0 -0.18401113648E+02  0.56674372831E+02 -0.53892827900E+02  0.80343216380E+02  0.10000000000E+00 0. -1.
         -5    1    3    3    0  501 -0.14675194421E+01 -0.56922847569E+02 -0.14076394986E+03  0.15184486744E+03  0.10000000000E+00 0. -1.
         21    1    1    2  504  503  0.19868633090E+02  0.24847473811E+00  0.22922895844E+01  0.20001972705E+02  0.00000000000E+00 0. -1.
<mgrwt>
<rscale>  1 0.12657032E+03</rscale>
<asrwt>0</asrwt>
<pdfrwt beam="1">  1       21 0.46019666E-02 0.12657032E+03</pdfrwt>
<pdfrwt beam="2">  1       21 0.34196505E-01 0.12657032E+03</pdfrwt>
<totfact> 0.25299327E+06</totfact>
</mgrwt>
</event>
<event>
 6    1  0.4216855E-002  0.1522564E+03  0.7546771E-02  0.1197727E+00
         21   -1    0    0  503  502  0.00000000000E+00  0.00000000000E+00  0.14831502820E+03  0.14831502820E+03  0.00000000000E+00 0. -1.
         21   -1    0    0  504  503 -0.00000000000E+00 -0.00000000000E+00 -0.10352657701E+03  0.10352657701E+03  0.00000000000E+00 0. -1.
         25    2    1    2    0    0 -0.40964091777E+02 -0.76678116678E+02 -0.36955418386E+01  0.15230122158E+03  0.12499765867E+03 0.  0.
          5    1    3    3  501    0  0.39780221963E+02 -0.56342683811E+02 -0.28974229307E+01  0.69031653161E+02  0.10000000000E+00 0. -1.
         -5    1    3    3    0  501 -0.80744313739E+02 -0.20335432867E+02 -0.79811890787E+00  0.83269568421E+02  0.10000000000E+00 0. -1.
         21    1    1    2  504  502  0.40964091777E+02  0.76678116678E+02  0.48483993029E+02  0.99540383626E+02  0.00000000000E+00 0. -1.
<mgrwt>
<rscale>  1 0.15225638E+03</rscale>
<asrwt>0</asrwt>
<pdfrwt beam="1">  1       21 0.22817697E-01 0.15225638E+03</pdfrwt>
<pdfrwt beam="2">  1       21 0.15927166E-01 0.15225638E+03</pdfrwt>
<totfact> 0.63645382E+05</totfact>
</mgrwt>
</event>
<event>
 6    1  0.4216855E-002  0.1263286E+03  0.7546771E-02  0.1233007E+00
         21   -1    0    0  504  502  0.00000000000E+00  0.00000000000E+00  0.44896890918E+02  0.44896890918E+02  0.00000000000E+00 0. -1.
         21   -1    0    0  502  503 -0.00000000000E+00 -0.00000000000E+00 -0.12444013668E+03  0.12444013668E+03  0.00000000000E+00 0. -1.
         25    2    1    2    0    0 -0.99136233535E+00 -0.18238540530E+02 -0.82432565052E+02  0.15084445271E+03  0.12500117588E+03 0.  0.
          5    1    3    3  501    0 -0.17454273600E+02 -0.68075745664E+02 -0.29243824150E+02  0.76119446040E+02  0.10000000000E+00 0.  1.
         -5    1    3    3    0  501  0.16462911265E+02  0.49837205133E+02 -0.53188740901E+02  0.74725006668E+02  0.10000000000E+00 0.  1.
         21    1    1    2  504  503  0.99136233535E+00  0.18238540530E+02  0.28893192922E+01  0.18492574887E+02  0.00000000000E+00 0.  1.
<mgrwt>
<rscale>  1 0.12632862E+03</rscale>
<asrwt>0</asrwt>
<pdfrwt beam="1">  1       21 0.69072140E-02 0.12632862E+03</pdfrwt>
<pdfrwt beam="2">  1       21 0.19144636E-01 0.12632862E+03</pdfrwt>
<totfact> 0.38254110E+06</totfact>
</mgrwt>
</event>
<event>
 6    1  0.4216855E-002  0.1260488E+03  0.7546771E-02  0.1233439E+00
         21   -1    0    0  503  502  0.00000000000E+00  0.00000000000E+00  0.92127364118E+02  0.92127364118E+02  0.00000000000E+00 0. -1.
         21   -1    0    0  504  503 -0.00000000000E+00 -0.00000000000E+00 -0.55035444794E+02  0.55035444794E+02  0.00000000000E+00 0. -1.
         25    2    1    2    0    0 -0.17174279343E+01 -0.16132555285E+02  0.34904692167E+02  0.13079232140E+03  0.12500033961E+03 0.  0.
          5    1    3    3  501    0  0.57879995836E+02 -0.26958416580E+02  0.74346439808E+01  0.64281677589E+02  0.10000000000E+00 0. -1.
         -5    1    3    3    0  501 -0.59597423771E+02  0.10825861295E+02  0.27470048186E+02  0.66510643811E+02  0.10000000000E+00 0. -1.
         21    1    1    2  504  502  0.17174279343E+01  0.16132555285E+02  0.21872271567E+01  0.16370487512E+02  0.00000000000E+00 0.  1.
<mgrwt>
<rscale>  1 0.12604878E+03</rscale>
<asrwt>0</asrwt>
<pdfrwt beam="1">  1       21 0.14173441E-01 0.12604878E+03</pdfrwt>
<pdfrwt beam="2">  1       21 0.84669915E-02 0.12604878E+03</pdfrwt>
<totfact> 0.46534391E+06</totfact>
</mgrwt>
</event>
<event>
 6    1  0.4216855E-002  0.1262600E+03  0.7546771E-02  0.1233113E+00
         21   -1    0    0  504  502  0.00000000000E+00  0.00000000000E+00  0.41149843985E+02  0.41149843985E+02  0.00000000000E+00 0.  1.
         21   -1    0    0  502  503 -0.00000000000E+00 -0.00000000000E+00 -0.16848420424E+03  0.16848420424E+03  0.00000000000E+00 0. -1.
         25    2    1    2    0    0 -0.14347313710E+02 -0.10527037630E+02 -0.13944188629E+03  0.18811066283E+03  0.12499967154E+03 0.  0.
          5    1    3    3  501    0  0.46611818844E+02 -0.27371642113E+02 -0.30295945033E+02  0.61965496313E+02  0.10000000000E+00 0.  1.
         -5    1    3    3    0  501 -0.60959132554E+02  0.16844604483E+02 -0.10914594126E+03  0.12614516651E+03  0.10000000000E+00 0.  1.
         21    1    1    2  504  503  0.14347313710E+02  0.10527037630E+02  0.12107526041E+02  0.21523385393E+02  0.00000000000E+00 0.  1.
<mgrwt>
<rscale>  1 0.12625998E+03</rscale>
<asrwt>0</asrwt>
<pdfrwt beam="1">  1       21 0.63307453E-02 0.12625998E+03</pdfrwt>
<pdfrwt beam="2">  1       21 0.25920646E-01 0.12625998E+03</pdfrwt>
<totfact> 0.25201764E+06</totfact>
</mgrwt>
</event>
<event>
 6    1  0.4216855E-002  0.1299864E+03  0.7546771E-02  0.1227476E+00
         21   -1    0    0  504  502  0.00000000000E+00  0.00000000000E+00  0.11794150318E+03  0.11794150318E+03  0.00000000000E+00 0.  1.
         21   -1    0    0  502  503 -0.00000000000E+00 -0.00000000000E+00 -0.88625992626E+02  0.88625992626E+02  0.00000000000E+00 0.  1.
         25    2    1    2    0    0  0.12916738335E+02  0.33044562083E+02 -0.33670284209E+02  0.13427644827E+03  0.12505075493E+03 0.  0.
          5    1    3    3  501    0  0.61716543354E+02  0.10783989723E+02  0.12046804933E+02  0.63799386103E+02  0.10000000000E+00 0. -1.
         -5    1    3    3    0  501 -0.48799805019E+02  0.22260572360E+02 -0.45717089142E+02  0.70477062164E+02  0.10000000000E+00 0. -1.
         21    1    1    2  504  503 -0.12916738335E+02 -0.33044562083E+02  0.62985794762E+02  0.72291047539E+02  0.00000000000E+00 0.  1.
<mgrwt>
<rscale>  1 0.12998645E+03</rscale>
<asrwt>0</asrwt>
<pdfrwt beam="1">  1       21 0.18144847E-01 0.12998645E+03</pdfrwt>
<pdfrwt beam="2">  1       21 0.13634768E-01 0.12998645E+03</pdfrwt>
<totfact> 0.12883080E+06</totfact>
</mgrwt>
</event>
<event>
 6    1  0.4216855E-002  0.1408924E+03  0.7546771E-02  0.1212133E+00
         21   -1    0    0  504  502  0.00000000000E+00  0.00000000000E+00  0.76816515893E+03  0.76816515893E+03  0.00000000000E+00 0. -1.
         21   -1    0    0  502  503 -0.00000000000E+00 -0.00000000000E+00 -0.15153339187E+02  0.15153339187E+02  0.00000000000E+00 0. -1.
         25    2    1    2    0    0 -0.41252734406E+02  0.50249564557E+02  0.39320435511E+03  0.41768450293E+03  0.12499548901E+03 0.  0.
          5    1    3    3  501    0  0.24075112295E+02 -0.13526618619E+02  0.21684264562E+02  0.35111220043E+02  0.10000000000E+00 0. -1.
         -5    1    3    3    0  501 -0.65327846701E+02  0.63776183176E+02  0.37152009055E+03  0.38257328289E+03  0.10000000000E+00 0. -1.
         21    1    1    2  504  503  0.41252734406E+02 -0.50249564557E+02  0.35980746463E+03  0.36563399518E+03  0.00000000000E+00 0. -1.
<mgrwt>
<rscale>  1 0.14089244E+03</rscale>
<asrwt>0</asrwt>
<pdfrwt beam="1">  1       21 0.11817922E+00 0.14089244E+03</pdfrwt>
<pdfrwt beam="2">  1       21 0.23312835E-02 0.14089244E+03</pdfrwt>
<totfact> 0.53138669E+05</totfact>
</mgrwt>
</event>
<event>
 6    1  0.4216855E-002  0.1261233E+03  0.7546771E-02  0.1233324E+00
         21   -1    0    0  504  502  0.00000000000E+00  0.00000000000E+00  0.17014672561E+04  0.17014672561E+04  0.00000000000E+00 0.  1.
         21   -1    0    0  502  503 -0.00000000000E+00 -0.00000000000E+00 -0.32666408693E+01  0.32666408693E+01  0.00000000000E+00 0.  1.
         25    2    1    2    0    0 -0.21234281960E+01 -0.16782565449E+02  0.12818559653E+04  0.12880457270E+04  0.12498366160E+03 0.  0.
          5    1    3    3  501    0 -0.58261009522E+02 -0.15384088834E+02  0.41249982380E+03  0.41687783589E+03  0.10000000000E+00 0. -1.
         -5    1    3    3    0  501  0.56137581326E+02 -0.13984766156E+01  0.86935614149E+03  0.87116789112E+03  0.10000000000E+00 0. -1.
         21    1    1    2  504  503  0.21234281960E+01  0.16782565449E+02  0.41634464990E+03  0.41668816992E+03  0.00000000000E+00 0.  1.
<mgrwt>
<rscale>  1 0.12612327E+03</rscale>
<asrwt>0</asrwt>
<pdfrwt beam="1">  1       21 0.26176349E+00 0.12612327E+03</pdfrwt>
<pdfrwt beam="2">  1       21 0.50256149E-03 0.12612327E+03</pdfrwt>
<totfact> 0.65227796E+05</totfact>
</mgrwt>
</event>
<event>
 6    1  0.4216855E-002  0.2099513E+03  0.7546771E-02  0.1141605E+00
         21   -1    0    0  504  502  0.00000000000E+00  0.00000000000E+00  0.19097116211E+03  0.19097116211E+03  0.00000000000E+00 0. -1.
         21   -1    0    0  502  503 -0.00000000000E+00 -0.00000000000E+00 -0.20270047154E+03  0.20270047154E+03  0.00000000000E+00 0. -1.
         25    2    1    2    0    0 -0.79557289913E+02 -0.14874605145E+03 -0.59743340989E+02  0.21828606575E+03  0.12499915803E+03 0.  0.
          5    1    3    3  501    0 -0.71413587836E+02 -0.82163525496E+02 -0.93217620282E+02  0.14331880610E+03  0.10000000000E+00 0. -1.
         -5    1    3    3    0  501 -0.81437020768E+01 -0.66582525955E+02  0.33474279293E+02  0.74967259656E+02  0.10000000000E+00 0. -1.
         21    1    1    2  504  503  0.79557289913E+02  0.14874605145E+03  0.48014031555E+02  0.17538556790E+03  0.00000000000E+00 0. -1.
<mgrwt>
<rscale>  1 0.20995128E+03</rscale>
<asrwt>0</asrwt>
<pdfrwt beam="1">  1       21 0.29380179E-01 0.20995128E+03</pdfrwt>
<pdfrwt beam="2">  1       21 0.31184688E-01 0.20995128E+03</pdfrwt>
<totfact> 0.10891264E+05</totfact>
</mgrwt>
</event>
<event>
 6    1  0.4216855E-002  0.1260689E+03  0.7546771E-02  0.1233408E+00
         21   -1    0    0  504  502  0.00000000000E+00  0.00000000000E+00  0.39693247163E+03  0.39693247163E+03  0.00000000000E+00 0.  1.
         21   -1    0    0  502  503 -0.00000000000E+00 -0.00000000000E+00 -0.13466732580E+02  0.13466732580E+02  0.00000000000E+00 0.  1.
         25    2    1    2    0    0  0.28634221422E+01  0.16107587516E+02  0.30114407760E+03  0.32646762788E+03  0.12500281203E+03 0.  0.
          5    1    3    3  501    0 -0.37301572375E+02 -0.35628340772E+02  0.19530224207E+03  0.20199941021E+03  0.10000000000E+00 0.  1.
         -5    1    3    3    0  501  0.40164994517E+02  0.51735928288E+02  0.10584183553E+03  0.12446821767E+03  0.10000000000E+00 0.  1.
         21    1    1    2  504  503 -0.28634221422E+01 -0.16107587516E+02  0.82321661444E+02  0.83931576328E+02  0.00000000000E+00 0.  1.
<mgrwt>
<rscale>  1 0.12606886E+03</rscale>
<asrwt>0</asrwt>
<pdfrwt beam="1">  1       21 0.61066525E-01 0.12606886E+03</pdfrwt>
<pdfrwt beam="2">  1       21 0.20718053E-02 0.12606886E+03</pdfrwt>
<totfact> 0.28775115E+06</totfact>
</mgrwt>
</event>
<event>
 6    1  0.4216855E-002  0.1272523E+03  0.7546771E-02  0.1231591E+00
         21   -1    0    0  504  502  0.00000000000E+00  0.00000000000E+00  0.10378070142E+03  0.10378070142E+03  0.00000000000E+00 0. -1.
         21   -1    0    0  502  503 -0.00000000000E+00 -0.00000000000E+00 -0.60905526521E+02  0.60905526521E+02  0.00000000000E+00 0. -1.
         25    2    1    2    0    0  0.54341596427E+01  0.23182950162E+02  0.15167966945E+02  0.12815311088E+03  0.12500469327E+03 0.  0.
          5    1    3    3  501    0  0.61953020430E+02  0.11670887589E+02 -0.12357378374E+02  0.64242518302E+02  0.10000000000E+00 0. -1.
         -5    1    3    3    0  501 -0.56518860787E+02  0.11512062574E+02  0.27525345319E+02  0.63910592583E+02  0.10000000000E+00 0. -1.
         21    1    1    2  504  503 -0.54341596427E+01 -0.23182950162E+02  0.27707207952E+02  0.36533117055E+02  0.00000000000E+00 0. -1.
<mgrwt>
<rscale>  1 0.12725232E+03</rscale>
<asrwt>0</asrwt>
<pdfrwt beam="1">  1       21 0.15966262E-01 0.12725232E+03</pdfrwt>
<pdfrwt beam="2">  1       21 0.93700810E-02 0.12725232E+03</pdfrwt>
<totfact> 0.31503782E+06</totfact>
</mgrwt>
</event>
<event>
 6    1  0.4216855E-002  0.1264504E+03  0.7546771E-02  0.1232820E+00
         21   -1    0    0  504  502  0.00000000000E+00  0.00000000000E+00  0.30894212224E+01  0.30894212224E+01  0.00000000000E+00 0. -1.
         21   -1    0    0  502  503 -0.00000000000E+00 -0.00000000000E+00 -0.17658049042E+04  0.17658049042E+04  0.00000000000E+00 0. -1.
         25    2    1    2    0    0 -0.10883323418E+02 -0.15647665615E+02 -0.16171521080E+04  0.16220883572E+04  0.12500560796E+03 0.  0.
          5    1    3    3  501    0 -0.25365532255E+02 -0.67031013659E+02 -0.10430879142E+04  0.10455472126E+04  0.10000000000E+00 0.  1.
         -5    1    3    3    0  501  0.14482208837E+02  0.51383348044E+02 -0.57406419371E+03  0.57654114452E+03  0.10000000000E+00 0.  1.
         21    1    1    2  504  503  0.10883323418E+02  0.15647665615E+02 -0.14556337500E+03  0.14680596823E+03  0.00000000000E+00 0. -1.
<mgrwt>
<rscale>  1 0.12645038E+03</rscale>
<asrwt>0</asrwt>
<pdfrwt beam="1">  1       21 0.47529649E-03 0.12645038E+03</pdfrwt>
<pdfrwt beam="2">  1       21 0.27166177E+00 0.12645038E+03</pdfrwt>
<totfact> 0.62481506E+05</totfact>
</mgrwt>
</event>
<event>
 6    1  0.4216855E-002  0.1301072E+03  0.7546771E-02  0.1227297E+00
         21   -1    0    0  504  502  0.00000000000E+00  0.00000000000E+00  0.11041530324E+03  0.11041530324E+03  0.00000000000E+00 0.  1.
         21   -1    0    0  502  503 -0.00000000000E+00 -0.00000000000E+00 -0.13696588379E+03  0.13696588379E+03  0.00000000000E+00 0. -1.
         25    2    1    2    0    0  0.28705320707E+01  0.35990895199E+02 -0.10095394339E+03  0.16468025056E+03  0.12499720697E+03 0.  0.
          5    1    3    3  501    0 -0.14363645153E+02 -0.44865718027E+02 -0.31116906949E+02  0.56458115928E+02  0.10000000000E+00 0.  1.
         -5    1    3    3    0  501  0.17234177223E+02  0.80856613226E+02 -0.69837036437E+02  0.10822213464E+03  0.10000000000E+00 0.  1.
         21    1    1    2  504  503 -0.28705320707E+01 -0.35990895199E+02  0.74403362835E+02  0.82700936469E+02  0.00000000000E+00 0.  1.
<mgrwt>
<rscale>  1 0.13010721E+03</rscale>
<asrwt>0</asrwt>
<pdfrwt beam="1">  1       21 0.16986970E-01 0.13010721E+03</pdfrwt>
<pdfrwt beam="2">  1       21 0.21071674E-01 0.13010721E+03</pdfrwt>
<totfact> 0.65737871E+05</totfact>
</mgrwt>
</event>
<event>
 6    1  0.4216855E-002  0.1261041E+03  0.7546771E-02  0.1233354E+00
         21   -1    0    0  503  502  0.00000000000E+00  0.00000000000E+00  0.55812167481E+02  0.55812167481E+02  0.00000000000E+00 0.  1.
         21   -1    0    0  504  503 -0.00000000000E+00 -0.00000000000E+00 -0.10285157444E+03  0.10285157444E+03  0.00000000000E+00 0.  1.
         25    2    1    2    0    0  0.17530201227E+01 -0.16524683412E+02 -0.57952707123E+02  0.13878313927E+03  0.12500442089E+03 0.  0.
          5    1    3    3  501    0  0.22759719388E+02 -0.37288896812E+02  0.25274109350E+02  0.50470360169E+02  0.10000000000E+00 0.  1.
         -5    1    3    3    0  501 -0.21006699265E+02  0.20764213400E+02 -0.83226816474E+02  0.88312779101E+02  0.10000000000E+00 0.  1.
         21    1    1    2  504  502 -0.17530201227E+01  0.16524683412E+02  0.10913300163E+02  0.19880602654E+02  0.00000000000E+00 0.  1.
<mgrwt>
<rscale>  1 0.12610410E+03</rscale>
<asrwt>0</asrwt>
<pdfrwt beam="1">  1       21 0.85864873E-02 0.12610410E+03</pdfrwt>
<pdfrwt beam="2">  1       21 0.15823319E-01 0.12610410E+03</pdfrwt>
<totfact> 0.37248192E+06</totfact>
</mgrwt>
</event>
<event>
 6    1  0.4216855E-002  0.1304915E+03  0.7546771E-02  0.1226728E+00
         21   -1    0    0  503  502  0.00000000000E+00  0.00000000000E+00  0.29434225229E+03  0.29434225229E+03  0.00000000000E+00 0.  1.
         21   -1    0    0  504  503 -0.00000000000E+00 -0.00000000000E+00 -0.24321229078E+02  0.24321229078E+02  0.00000000000E+00 0.  1.
         25    2    1    2    0    0 -0.16706118425E+01 -0.37427812203E+02  0.19245054438E+03  0.23251935065E+03  0.12499761728E+03 0.  0.
          5    1    3    3  501    0  0.60676589766E+02 -0.69100728284E+01  0.91281952147E+02  0.10982623748E+03  0.10000000000E+00 0.  1.
         -5    1    3    3    0  501 -0.62347201609E+02 -0.30517739375E+02  0.10116859223E+03  0.12269311317E+03  0.10000000000E+00 0.  1.
         21    1    1    2  504  502  0.16706118425E+01  0.37427812203E+02  0.77570478836E+02  0.86144130717E+02  0.00000000000E+00 0.  1.
<mgrwt>
<rscale>  1 0.13049152E+03</rscale>
<asrwt>0</asrwt>
<pdfrwt beam="1">  1       21 0.45283421E-01 0.13049152E+03</pdfrwt>
<pdfrwt beam="2">  1       21 0.37417278E-02 0.13049152E+03</pdfrwt>
<totfact> 0.20405389E+06</totfact>
</mgrwt>
</event>
<event>
 6    1  0.4216855E-002  0.1348965E+03  0.7546771E-02  0.1220366E+00
         21   -1    0    0  504  502  0.00000000000E+00  0.00000000000E+00  0.11110493206E+03  0.11110493206E+03  0.00000000000E+00 0.  1.
         21   -1    0    0  502  503 -0.00000000000E+00 -0.00000000000E+00 -0.16224301280E+03  0.16224301280E+03  0.00000000000E+00 0.  1.
         25    2    1    2    0    0  0.47723132403E+02  0.17088634896E+02 -0.12490507191E+03  0.18384326457E+03  0.12501020010E+03 0.  0.
          5    1    3    3  501    0 -0.36982848912E+02 -0.19642068975E+02 -0.47852863135E+02  0.63588116008E+02  0.10000000000E+00 0. -1.
         -5    1    3    3    0  501  0.84705981315E+02  0.36730703871E+02 -0.77052208777E+02  0.12025514856E+03  0.10000000000E+00 0. -1.
         21    1    1    2  504  503 -0.47723132403E+02 -0.17088634896E+02  0.73766991172E+02  0.89504680300E+02  0.00000000000E+00 0.  1.
<mgrwt>
<rscale>  1 0.13489651E+03</rscale>
<asrwt>0</asrwt>
<pdfrwt beam="1">  1       21 0.17093066E-01 0.13489651E+03</pdfrwt>
<pdfrwt beam="2">  1       21 0.24960464E-01 0.13489651E+03</pdfrwt>
<totfact> 0.47301358E+05</totfact>
</mgrwt>
</event>
<event>
 6    1  0.4216855E-002  0.1290856E+03  0.7546771E-02  0.1228819E+00
         21   -1    0    0  504  502  0.00000000000E+00  0.00000000000E+00  0.22060661911E+03  0.22060661911E+03  0.00000000000E+00 0.  1.
         21   -1    0    0  502  503 -0.00000000000E+00 -0.00000000000E+00 -0.35822200115E+02  0.35822200115E+02  0.00000000000E+00 0.  1.
         25    2    1    2    0    0 -0.94068311468E+01  0.30836478006E+02  0.92862881936E+02  0.15901759901E+03  0.12499482032E+03 0.  0.
          5    1    3    3  501    0  0.43190859361E+02 -0.24431888099E+02  0.19946346950E+02  0.53481157851E+02  0.10000000000E+00 0.  1.
         -5    1    3    3    0  501 -0.52597690507E+02  0.55268366105E+02  0.72916534986E+02  0.10553644116E+03  0.10000000000E+00 0.  1.
         21    1    1    2  504  503  0.94068311468E+01 -0.30836478006E+02  0.91921537059E+02  0.97411220213E+02  0.00000000000E+00 0.  1.
<mgrwt>
<rscale>  1 0.12908556E+03</rscale>
<asrwt>0</asrwt>
<pdfrwt beam="1">  1       21 0.33939479E-01 0.12908556E+03</pdfrwt>
<pdfrwt beam="2">  1       21 0.55111079E-02 0.12908556E+03</pdfrwt>
<totfact> 0.18977829E+06</totfact>
</mgrwt>
</event>
<event>
 6    1  0.4216855E-002  0.1319094E+03  0.7546771E-02  0.1224650E+00
         21   -1    0    0  504  502  0.00000000000E+00  0.00000000000E+00  0.68204268059E+03  0.68204268059E+03  0.00000000000E+00 0.  1.
         21   -1    0    0  502  503 -0.00000000000E+00 -0.00000000000E+00 -0.12866862224E+03  0.12866862224E+03  0.00000000000E+00 0.  1.
         25    2    1    2    0    0  0.11924404375E+01 -0.42107463804E+02 -0.93995313471E+02  0.16197286247E+03  0.12500251518E+03 0.  0.
          5    1    3    3  501    0  0.41031837700E+02 -0.62401372520E+02 -0.23131606600E+02  0.78183273283E+02  0.10000000000E+00 0. -1.
         -5    1    3    3    0  501 -0.39839397262E+02  0.20293908716E+02 -0.70863706871E+02  0.83789589191E+02  0.10000000000E+00 0. -1.
         21    1    1    2  504  503 -0.11924404375E+01  0.42107463804E+02  0.64736937182E+03  0.64873844036E+03  0.00000000000E+00 0.  1.
<mgrwt>
<rscale>  1 0.13190940E+03</rscale>
<asrwt>0</asrwt>
<pdfrwt beam="1">  1       21 0.10492964E+00 0.13190940E+03</pdfrwt>
<pdfrwt beam="2">  1       21 0.19795173E-01 0.13190940E+03</pdfrwt>
<totfact> 0.17961324E+04</totfact>
</mgrwt>
</event>
<event>
 6    1  0.4216855E-002  0.1263199E+03  0.7546771E-02  0.1233021E+00
         21   -1    0    0  503  502  0.00000000000E+00  0.00000000000E+00  0.94936303605E+01  0.94936303605E+01  0.00000000000E+00 0. -1.
         21   -1    0    0  504  503 -0.00000000000E+00 -0.00000000000E+00 -0.58517889535E+03  0.58517889535E+03  0.00000000000E+00 0. -1.
         25    2    1    2    0    0  0.84386651489E+01 -0.16145349465E+02 -0.54033459617E+03  0.55490377963E+03  0.12499938180E+03 0.  0.
          5    1    3    3  501    0 -0.58225511890E+02 -0.12313636441E+02 -0.26090140643E+03  0.26760304512E+03  0.10000000000E+00 0.  1.
         -5    1    3    3    0  501  0.66664177039E+02 -0.38317130243E+01 -0.27943318974E+03  0.28730073452E+03  0.10000000000E+00 0.  1.
         21    1    1    2  504  502 -0.84386651489E+01  0.16145349465E+02 -0.35350668819E+02  0.39768746080E+02  0.00000000000E+00 0.  1.
<mgrwt>
<rscale>  1 0.12631995E+03</rscale>
<asrwt>0</asrwt>
<pdfrwt beam="1">  1       21 0.14605587E-02 0.12631995E+03</pdfrwt>
<pdfrwt beam="2">  1       21 0.90027510E-01 0.12631995E+03</pdfrwt>
<totfact> 0.21441328E+06</totfact>
</mgrwt>
</event>
<event>
 6    1  0.4216855E-002  0.1263469E+03  0.7546771E-02  0.1232979E+00
         21   -1    0    0  503  502  0.00000000000E+00  0.00000000000E+00  0.52753760102E+02  0.52753760102E+02  0.00000000000E+00 0.  1.
         21   -1    0    0  504  503 -0.00000000000E+00 -0.00000000000E+00 -0.13321108113E+03  0.13321108113E+03  0.00000000000E+00 0.  1.
         25    2    1    2    0    0  0.10744447300E+02  0.14896248387E+02 -0.98509827419E+02  0.16021150453E+03  0.12500479480E+03 0.  0.
          5    1    3    3  501    0 -0.30633339047E+02 -0.43445183926E+02 -0.55004175101E+02  0.76494148443E+02  0.10000000000E+00 0. -1.
         -5    1    3    3    0  501  0.41377786346E+02  0.58341432312E+02 -0.43505652318E+02  0.83717356091E+02  0.10000000000E+00 0. -1.
         21    1    1    2  504  502 -0.10744447300E+02 -0.14896248387E+02  0.18052506395E+02  0.25753336695E+02  0.00000000000E+00 0.  1.
<mgrwt>
<rscale>  1 0.12634690E+03</rscale>
<asrwt>0</asrwt>
<pdfrwt beam="1">  1       21 0.81159632E-02 0.12634690E+03</pdfrwt>
<pdfrwt beam="2">  1       21 0.20494012E-01 0.12634690E+03</pdfrwt>
<totfact> 0.25577040E+06</totfact>
</mgrwt>
</event>
<event>
 6    1  0.4216855E-002  0.1333642E+03  0.7546771E-02  0.1222548E+00
         21   -1    0    0  503  502  0.00000000000E+00  0.00000000000E+00  0.80458294128E+03  0.80458294128E+03  0.00000000000E+00 0. -1.
         21   -1    0    0  504  503 -0.00000000000E+00 -0.00000000000E+00 -0.10086035641E+02  0.10086035641E+02  0.00000000000E+00 0. -1.
         25    2    1    2    0    0  0.43676552042E+02  0.15825683917E+02  0.61065980831E+03  0.62505312362E+03  0.12501164901E+03 0.  0.
          5    1    3    3  501    0  0.85340480709E+02 -0.73492793904E+01  0.39883496522E+03  0.40792934319E+03  0.10000000000E+00 0.  1.
         -5    1    3    3    0  501 -0.41663928666E+02  0.23174963307E+02  0.21182484309E+03  0.21712378043E+03  0.10000000000E+00 0.  1.
         21    1    1    2  504  502 -0.43676552042E+02 -0.15825683917E+02  0.18383709733E+03  0.18961585331E+03  0.00000000000E+00 0. -1.
<mgrwt>
<rscale>  1 0.13336419E+03</rscale>
<asrwt>0</asrwt>
<pdfrwt beam="1">  1       21 0.12378194E+00 0.13336419E+03</pdfrwt>
<pdfrwt beam="2">  1       21 0.15516984E-02 0.13336419E+03</pdfrwt>
<totfact> 0.91538881E+05</totfact>
</mgrwt>
</event>
<event>
 6    1  0.4216855E-002  0.1343315E+03  0.7546771E-02  0.1221166E+00
         21   -1    0    0  504  502  0.00000000000E+00  0.00000000000E+00  0.61652102808E+02  0.61652102808E+02  0.00000000000E+00 0.  1.
         21   -1    0    0  502  503 -0.00000000000E+00 -0.00000000000E+00 -0.14124213866E+03  0.14124213866E+03  0.00000000000E+00 0.  1.
         25    2    1    2    0    0  0.49083690352E+02  0.31553825294E+01 -0.74073261665E+02  0.15340080862E+03  0.12500317954E+03 0.  0.
          5    1    3    3  501    0  0.35232442373E+02 -0.59403208839E+02 -0.28212383405E+02  0.74605728958E+02  0.10000000000E+00 0.  1.
         -5    1    3    3    0  501  0.13851247979E+02  0.62558591369E+02 -0.45860878260E+02  0.78795079665E+02  0.10000000000E+00 0.  1.
         21    1    1    2  504  503 -0.49083690352E+02 -0.31553825294E+01 -0.55167741888E+01  0.49493432847E+02  0.00000000000E+00 0.  1.
<mgrwt>
<rscale>  1 0.13433153E+03</rscale>
<asrwt>0</asrwt>
<pdfrwt beam="1">  1       21 0.94849391E-02 0.13433153E+03</pdfrwt>
<pdfrwt beam="2">  1       21 0.21729559E-01 0.13433153E+03</pdfrwt>
<totfact> 0.17535839E+06</totfact>
</mgrwt>
</event>
<event>
 6    1  0.4216855E-002  0.1279850E+03  0.7546771E-02  0.1230477E+00
         21   -1    0    0  504  502  0.00000000000E+00  0.00000000000E+00  0.16332804458E+02  0.16332804458E+02  0.00000000000E+00 0. -1.
         21   -1    0    0  502  503 -0.00000000000E+00 -0.00000000000E+00 -0.38191220157E+03  0.38191220157E+03  0.00000000000E+00 0. -1.
         25    2    1    2    0    0  0.17818623748E+02  0.20797514571E+02 -0.32496290065E+03  0.34925786742E+03  0.12502052307E+03 0.  0.
          5    1    3    3  501    0  0.43880835566E+02  0.55754029036E+01 -0.31636683052E+02  0.54382925280E+02  0.10000000000E+00 0.  1.
         -5    1    3    3    0  501 -0.26062211817E+02  0.15222111668E+02 -0.29332621760E+03  0.29487494214E+03  0.10000000000E+00 0.  1.
         21    1    1    2  504  503 -0.17818623748E+02 -0.20797514571E+02 -0.40616496455E+02  0.48987138607E+02  0.00000000000E+00 0. -1.
<mgrwt>
<rscale>  1 0.12798504E+03</rscale>
<asrwt>0</asrwt>
<pdfrwt beam="1">  1       21 0.25127393E-02 0.12798504E+03</pdfrwt>
<pdfrwt beam="2">  1       21 0.58755720E-01 0.12798504E+03</pdfrwt>
<totfact> 0.22850619E+06</totfact>
</mgrwt>
</event>
<event>
 6    1  0.4216855E-002  0.1263255E+03  0.7546771E-02  0.1233012E+00
         21   -1    0    0  503  502  0.00000000000E+00  0.00000000000E+00  0.13867595216E+03  0.13867595216E+03  0.00000000000E+00 0.  1.
         21   -1    0    0  504  503 -0.00000000000E+00 -0.00000000000E+00 -0.11315674494E+03  0.11315674494E+03  0.00000000000E+00 0.  1.
         25    2    1    2    0    0  0.16301490281E+02  0.84319354401E+01 -0.76827629123E+02  0.14785331920E+03  0.12498513224E+03 0.  0.
          5    1    3    3  501    0  0.69898412426E+02  0.15778829863E+02 -0.36782893080E+02  0.80546575066E+02  0.10000000000E+00 0. -1.
         -5    1    3    3    0  501 -0.53596922145E+02 -0.73468944225E+01 -0.40044736044E+02  0.67306744134E+02  0.10000000000E+00 0. -1.
         21    1    1    2  504  502 -0.16301490281E+02 -0.84319354401E+01  0.10234683634E+03  0.10397937790E+03  0.00000000000E+00 0.  1.
<mgrwt>
<rscale>  1 0.12632545E+03</rscale>
<asrwt>0</asrwt>
<pdfrwt beam="1">  1       21 0.21334762E-01 0.12632545E+03</pdfrwt>
<pdfrwt beam="2">  1       21 0.17408730E-01 0.12632545E+03</pdfrwt>
<totfact> 0.61433211E+05</totfact>
</mgrwt>
</event>
<event>
 6    1  0.4216855E-002  0.1284040E+03  0.7546771E-02  0.1229843E+00
         21   -1    0    0  503  502  0.00000000000E+00  0.00000000000E+00  0.49063297668E+03  0.49063297668E+03  0.00000000000E+00 0. -1.
         21   -1    0    0  504  503 -0.00000000000E+00 -0.00000000000E+00 -0.49075006428E+02  0.49075006428E+02  0.00000000000E+00 0. -1.
         25    2    1    2    0    0  0.15155858636E+01 -0.29286533578E+02  0.36363501805E+02  0.13345368429E+03  0.12501033372E+03 0.  0.
          5    1    3    3  501    0 -0.61434558687E+02 -0.19365739322E+02  0.14017250542E+02  0.65922152371E+02  0.10000000000E+00 0.  1.
         -5    1    3    3    0  501  0.62950144550E+02 -0.99207942562E+01  0.22346251263E+02  0.67531531917E+02  0.10000000000E+00 0.  1.
         21    1    1    2  504  502 -0.15155858636E+01  0.29286533578E+02  0.40519446845E+03  0.40625429882E+03  0.00000000000E+00 0. -1.
<mgrwt>
<rscale>  1 0.12840398E+03</rscale>
<asrwt>0</asrwt>
<pdfrwt beam="1">  1       21 0.75481993E-01 0.12840398E+03</pdfrwt>
<pdfrwt beam="2">  1       21 0.75500013E-02 0.12840398E+03</pdfrwt>
<totfact> 0.21186350E+05</totfact>
</mgrwt>
</event>
<event>
 6    1  0.4216855E-002  0.1265576E+03  0.7546771E-02  0.1232655E+00
         21   -1    0    0  503  502  0.00000000000E+00  0.00000000000E+00  0.45579679191E+03  0.45579679191E+03  0.00000000000E+00 0.  1.
         21   -1    0    0  504  503 -0.00000000000E+00 -0.00000000000E+00 -0.16803080970E+03  0.16803080970E+03  0.00000000000E+00 0.  1.
         25    2    1    2    0    0 -0.18776363442E+02  0.62565688631E+01 -0.14394171746E+03  0.19166648069E+03  0.12500050126E+03 0.  0.
          5    1    3    3  501    0 -0.24527257113E+02  0.59427464516E+02 -0.11264768419E+03  0.12970243110E+03  0.10000000000E+00 0.  1.
         -5    1    3    3    0  501  0.57508936707E+01 -0.53170895653E+02 -0.31294033268E+02  0.61964049583E+02  0.10000000000E+00 0.  1.
         21    1    1    2  504  502  0.18776363442E+02 -0.62565688631E+01  0.43170769967E+03  0.43216112092E+03  0.00000000000E+00 0.  1.
<mgrwt>
<rscale>  1 0.12655758E+03</rscale>
<asrwt>0</asrwt>
<pdfrwt beam="1">  1       21 0.70122583E-01 0.12655758E+03</pdfrwt>
<pdfrwt beam="2">  1       21 0.25850894E-01 0.12655758E+03</pdfrwt>
<totfact> 0.27302251E+04</totfact>
</mgrwt>
</event>
<event>
 6    1  0.4216855E-002  0.1267234E+03  0.7546771E-02  0.1232400E+00
         21   -1    0    0  504  502  0.00000000000E+00  0.00000000000E+00  0.82362400797E+03  0.82362400797E+03  0.00000000000E+00 0.  1.
         21   -1    0    0  502  503 -0.00000000000E+00 -0.00000000000E+00 -0.10747787912E+02  0.10747787912E+02  0.00000000000E+00 0.  1.
         25    2    1    2    0    0 -0.38285456688E+01 -0.20570483905E+02  0.37186219097E+03  0.39286168680E+03  0.12498405223E+03 0.  0.
          5    1    3    3  501    0 -0.43498048550E+02 -0.50866401060E+02  0.28429668052E+03  0.29206862814E+03  0.10000000000E+00 0. -1.
         -5    1    3    3    0  501  0.39669502881E+02  0.30295917155E+02  0.87565510445E+02  0.10079305866E+03  0.10000000000E+00 0. -1.
         21    1    1    2  504  503  0.38285456688E+01  0.20570483905E+02  0.44101402909E+03  0.44151010908E+03  0.00000000000E+00 0.  1.
<mgrwt>
<rscale>  1 0.12672338E+03</rscale>
<asrwt>0</asrwt>
<pdfrwt beam="1">  1       21 0.12671134E+00 0.12672338E+03</pdfrwt>
<pdfrwt beam="2">  1       21 0.16535065E-02 0.12672338E+03</pdfrwt>
<totfact> 0.78098329E+05</totfact>
</mgrwt>
</event>
<event>
 6    1  0.4216855E-002  0.1453652E+03  0.7546771E-02  0.1206287E+00
         21   -1    0    0  503  502  0.00000000000E+00  0.00000000000E+00  0.20290442731E+02  0.20290442731E+02  0.00000000000E+00 0. -1.
         21   -1    0    0  504  503 -0.00000000000E+00 -0.00000000000E+00 -0.15700535080E+04  0.15700535080E+04  0.00000000000E+00 0.  1.
         25    2    1    2    0    0 -0.31999429004E+02  0.66950219524E+02 -0.14842691019E+04  0.14913704463E+04  0.12499898277E+03 0.  0.
          5    1    3    3  501    0 -0.70873689549E+02  0.59850750534E+01 -0.61495322715E+03  0.61905281082E+03  0.10000000000E+00 0. -1.
         -5    1    3    3    0  501  0.38874260546E+02  0.60965144471E+02 -0.86931587477E+03  0.87231763544E+03  0.10000000000E+00 0. -1.
         21    1    1    2  504  502  0.31999429004E+02 -0.66950219524E+02 -0.65493963313E+02  0.98973504441E+02  0.00000000000E+00 0. -1.
<mgrwt>
<rscale>  1 0.14536520E+03</rscale>
<asrwt>0</asrwt>
<pdfrwt beam="1">  1       21 0.31216058E-02 0.14536520E+03</pdfrwt>
<pdfrwt beam="2">  1       21 0.24154675E+00 0.14536520E+03</pdfrwt>
<totfact> 0.45943724E+04</totfact>
</mgrwt>
</event>
<event>
 6    1  0.4216855E-002  0.1315338E+03  0.7546771E-02  0.1225197E+00
         21   -1    0    0  504  502  0.00000000000E+00  0.00000000000E+00  0.28017649749E+02  0.28017649749E+02  0.00000000000E+00 0.  1.
         21   -1    0    0  502  503 -0.00000000000E+00 -0.00000000000E+00 -0.30122417414E+03  0.30122417414E+03  0.00000000000E+00 0.  1.
         25    2    1    2    0    0 -0.34694714419E+02  0.21318095906E+02 -0.24969428219E+03  0.28222044625E+03  0.12507182457E+03 0.  0.
          5    1    3    3  501    0 -0.81421795837E+02  0.23531769910E+02 -0.16073133517E+03  0.18170807670E+03  0.10000000000E+00 0.  1.
         -5    1    3    3    0  501  0.46727081418E+02 -0.22136740049E+01 -0.88962947020E+02  0.10051236955E+03  0.10000000000E+00 0.  1.
         21    1    1    2  504  503  0.34694714419E+02 -0.21318095906E+02 -0.23512242201E+02  0.47021377637E+02  0.00000000000E+00 0.  1.
<mgrwt>
<rscale>  1 0.13153382E+03</rscale>
<asrwt>0</asrwt>
<pdfrwt beam="1">  1       21 0.43104077E-02 0.13153382E+03</pdfrwt>
<pdfrwt beam="2">  1       21 0.46342181E-01 0.13153382E+03</pdfrwt>
<totfact> 0.15389937E+06</totfact>
</mgrwt>
</event>
<event>
 6    1  0.4216855E-002  0.1290766E+03  0.7546771E-02  0.1228832E+00
         21   -1    0    0  504  502  0.00000000000E+00  0.00000000000E+00  0.13233583476E+03  0.13233583476E+03  0.00000000000E+00 0. -1.
         21   -1    0    0  502  503 -0.00000000000E+00 -0.00000000000E+00 -0.42053771436E+03  0.42053771436E+03  0.00000000000E+00 0.  1.
         25    2    1    2    0    0  0.32077925874E+02  0.28999264663E+01 -0.40846390333E+03  0.42837311839E+03  0.12499346115E+03 0.  0.
          5    1    3    3  501    0  0.42541010642E+02 -0.50453085622E+02 -0.29842805495E+03  0.30563796461E+03  0.10000000000E+00 0.  1.
         -5    1    3    3    0  501 -0.10463084769E+02  0.53353012088E+02 -0.11003584839E+03  0.12273515377E+03  0.10000000000E+00 0.  1.
         21    1    1    2  504  503 -0.32077925874E+02 -0.28999264663E+01  0.12026202373E+03  0.12450043074E+03  0.00000000000E+00 0. -1.
<mgrwt>
<rscale>  1 0.12907660E+03</rscale>
<asrwt>0</asrwt>
<pdfrwt beam="1">  1       21 0.20359359E-01 0.12907660E+03</pdfrwt>
<pdfrwt beam="2">  1       21 0.64698110E-01 0.12907660E+03</pdfrwt>
<totfact> 0.50756813E+04</totfact>
</mgrwt>
</event>
<event>
 6    1  0.4216855E-002  0.1267294E+03  0.7546771E-02  0.1232391E+00
         21   -1    0    0  503  502  0.00000000000E+00  0.00000000000E+00  0.56231907288E+03  0.56231907288E+03  0.00000000000E+00 0.  1.
         21   -1    0    0  504  503 -0.00000000000E+00 -0.00000000000E+00 -0.11660582453E+02  0.11660582453E+02  0.00000000000E+00 0.  1.
         25    2    1    2    0    0  0.17408915445E+02  0.11616844889E+02  0.35007882425E+03  0.37231105613E+03  0.12498927115E+03 0.  0.
          5    1    3    3  501    0  0.39258532718E+02  0.82535434228E+01  0.34777837204E+03  0.35008450327E+03  0.10000000000E+00 0.  1.
         -5    1    3    3    0  501 -0.21849617272E+02  0.33633014660E+01  0.23004522135E+01  0.22226552861E+02  0.10000000000E+00 0.  1.
         21    1    1    2  504  502 -0.17408915445E+02 -0.11616844889E+02  0.20057966617E+03  0.20166859920E+03  0.00000000000E+00 0.  1.
<mgrwt>
<rscale>  1 0.12672939E+03</rscale>
<asrwt>0</asrwt>
<pdfrwt beam="1">  1       21 0.86510606E-01 0.12672939E+03</pdfrwt>
<pdfrwt beam="2">  1       21 0.17939362E-02 0.12672939E+03</pdfrwt>
<totfact> 0.16894883E+06</totfact>
</mgrwt>
</event>
<event>
 6    1  0.4216855E-002  0.1264973E+03  0.7546771E-02  0.1232748E+00
         21   -1    0    0  503  502  0.00000000000E+00  0.00000000000E+00  0.26935221491E+03  0.26935221491E+03  0.00000000000E+00 0. -1.
         21   -1    0    0  504  503 -0.00000000000E+00 -0.00000000000E+00 -0.54944224009E+02  0.54944224009E+02  0.00000000000E+00 0. -1.
         25    2    1    2    0    0 -0.62212248358E+01  0.18400528252E+02  0.18989184768E+02  0.12791468603E+03  0.12499717871E+03 0.  0.
          5    1    3    3  501    0 -0.40149423690E+02 -0.26763519926E+02 -0.26803375357E+02  0.55196858171E+02  0.10000000000E+00 0. -1.
         -5    1    3    3    0  501  0.33928198854E+02  0.45164048178E+02  0.45792560125E+02  0.72717827856E+02  0.10000000000E+00 0. -1.
         21    1    1    2  504  502  0.62212248358E+01 -0.18400528252E+02  0.19541880613E+03  0.19638175289E+03  0.00000000000E+00 0. -1.
<mgrwt>
<rscale>  1 0.12649734E+03</rscale>
<asrwt>0</asrwt>
<pdfrwt beam="1">  1       21 0.41438801E-01 0.12649734E+03</pdfrwt>
<pdfrwt beam="2">  1       21 0.84529577E-02 0.12649734E+03</pdfrwt>
<totfact> 0.61526957E+05</totfact>
</mgrwt>
</event>
<event>
 6    1  0.4216855E-002  0.1259122E+03  0.7546771E-02  0.1233650E+00
         21   -1    0    0  504  502  0.00000000000E+00  0.00000000000E+00  0.64758581916E+02  0.64758581916E+02  0.00000000000E+00 0. -1.
         21   -1    0    0  502  503 -0.00000000000E+00 -0.00000000000E+00 -0.10074536203E+04  0.10074536203E+04  0.00000000000E+00 0.  1.
         25    2    1    2    0    0 -0.11379128276E+02  0.99827853336E+01 -0.10025739210E+04  0.10104495830E+04  0.12499900886E+03 0.  0.
          5    1    3    3  501    0  0.20332254487E+02  0.52492627351E+02 -0.76308890013E+03  0.76516243766E+03  0.10000000000E+00 0. -1.
         -5    1    3    3    0  501 -0.31711382763E+02 -0.42509842017E+02 -0.23948502084E+03  0.24528714535E+03  0.10000000000E+00 0. -1.
         21    1    1    2  504  503  0.11379128276E+02 -0.99827853336E+01  0.59878882541E+02  0.61762619258E+02  0.00000000000E+00 0. -1.
<mgrwt>
<rscale>  1 0.12591224E+03</rscale>
<asrwt>0</asrwt>
<pdfrwt beam="1">  1       21 0.99628592E-02 0.12591224E+03</pdfrwt>
<pdfrwt beam="2">  1       21 0.15499286E+00 0.12591224E+03</pdfrwt>
<totfact> 0.23515893E+04</totfact>
</mgrwt>
</event>
<event>
 6    1  0.4216855E-002  0.1297985E+03  0.7546771E-02  0.1227755E+00
         21   -1    0    0  504  502  0.00000000000E+00  0.00000000000E+00  0.14375590816E+02  0.14375590816E+02  0.00000000000E+00 0.  1.
         21   -1    0    0  502  503 -0.00000000000E+00 -0.00000000000E+00 -0.99878873925E+03  0.99878873925E+03  0.00000000000E+00 0.  1.
         25    2    1    2    0    0  0.23954654761E+02 -0.25427946471E+02 -0.96400831347E+03  0.97270739943E+03  0.12500900175E+03 0.  0.
          5    1    3    3  501    0 -0.19822714556E+02 -0.66653916120E+02 -0.49554858549E+03  0.50040393196E+03  0.10000000000E+00 0.  1.
         -5    1    3    3    0  501  0.43777369317E+02  0.41225969648E+02 -0.46845972798E+03  0.47230346747E+03  0.10000000000E+00 0.  1.
         21    1    1    2  504  503 -0.23954654761E+02  0.25427946471E+02 -0.20404834960E+02  0.40456930633E+02  0.00000000000E+00 0.  1.
<mgrwt>
<rscale>  1 0.12979852E+03</rscale>
<asrwt>0</asrwt>
<pdfrwt beam="1">  1       21 0.22116305E-02 0.12979852E+03</pdfrwt>
<pdfrwt beam="2">  1       21 0.15365973E+00 0.12979852E+03</pdfrwt>
<totfact> 0.29950612E+05</totfact>
</mgrwt>
</event>
<event>
 6    1  0.4216855E-002  0.1267382E+03  0.7546771E-02  0.1232378E+00
         21   -1    0    0  503  502  0.00000000000E+00  0.00000000000E+00  0.49528500574E+01  0.49528500574E+01  0.00000000000E+00 0. -1.
         21   -1    0    0  504  503 -0.00000000000E+00 -0.00000000000E+00 -0.13559859242E+04  0.13559859242E+04  0.00000000000E+00 0. -1.
         25    2    1    2    0    0  0.20653658769E+02  0.32744058819E+01 -0.12940196734E+04  0.13002113240E+04  0.12500110587E+03 0.  0.
          5    1    3    3  501    0 -0.25601065370E+01  0.62271491785E+02 -0.72363682725E+03  0.72631574441E+03  0.10000000000E+00 0.  1.
         -5    1    3    3    0  501  0.23213765306E+02 -0.58997085903E+02 -0.57038284615E+03  0.57389557955E+03  0.10000000000E+00 0.  1.
         21    1    1    2  504  502 -0.20653658769E+02 -0.32744058819E+01 -0.57013400720E+02  0.60727450268E+02  0.00000000000E+00 0. -1.
<mgrwt>
<rscale>  1 0.12673820E+03</rscale>
<asrwt>0</asrwt>
<pdfrwt beam="1">  1       21 0.76197584E-03 0.12673820E+03</pdfrwt>
<pdfrwt beam="2">  1       21 0.20861352E+00 0.12673820E+03</pdfrwt>
<totfact> 0.70009087E+05</totfact>
</mgrwt>
</event>
<event>
 6    1  0.4216855E-002  0.1279664E+03  0.7546771E-02  0.1230505E+00
         21   -1    0    0  504  502  0.00000000000E+00  0.00000000000E+00  0.44013917176E+02  0.44013917176E+02  0.00000000000E+00 0.  1.
         21   -1    0    0  502  503 -0.00000000000E+00 -0.00000000000E+00 -0.18529333023E+03  0.18529333023E+03  0.00000000000E+00 0.  1.
         25    2    1    2    0    0  0.20378907453E+02  0.18302606018E+02 -0.15304598259E+03  0.19949554811E+03  0.12500046268E+03 0.  0.
          5    1    3    3  501    0  0.59959727133E+02  0.35186359908E+02 -0.13688804271E+03  0.15353043685E+03  0.10000000000E+00 0.  1.
         -5    1    3    3    0  501 -0.39580819681E+02 -0.16883753890E+02 -0.16157939885E+02  0.45965111262E+02  0.10000000000E+00 0.  1.
         21    1    1    2  504  503 -0.20378907453E+02 -0.18302606018E+02  0.11766569543E+02  0.29811699294E+02  0.00000000000E+00 0.  1.
<mgrwt>
<rscale>  1 0.12796641E+03</rscale>
<asrwt>0</asrwt>
<pdfrwt beam="1">  1       21 0.67713719E-02 0.12796641E+03</pdfrwt>
<pdfrwt beam="2">  1       21 0.28506666E-01 0.12796641E+03</pdfrwt>
<totfact> 0.18753556E+06</totfact>
</mgrwt>
</event>
<event>
 6    1  0.4216855E-002  0.1294427E+03  0.7546771E-02  0.1228285E+00
         21   -1    0    0  503  502  0.00000000000E+00  0.00000000000E+00  0.37671890349E+03  0.37671890349E+03  0.00000000000E+00 0.  1.
         21   -1    0    0  504  503 -0.00000000000E+00 -0.00000000000E+00 -0.18674143111E+02  0.18674143111E+02  0.00000000000E+00 0.  1.
         25    2    1    2    0    0  0.17831225528E+02 -0.28462053238E+02  0.24022860608E+03  0.27288309888E+03  0.12500944522E+03 0.  0.
          5    1    3    3  501    0  0.30591221770E+02  0.11952766328E+02  0.22570514098E+03  0.22808224863E+03  0.10000000000E+00 0. -1.
         -5    1    3    3    0  501 -0.12759996241E+02 -0.40414819566E+02  0.14523465099E+02  0.44800850250E+02  0.10000000000E+00 0. -1.
         21    1    1    2  504  502 -0.17831225528E+02  0.28462053238E+02  0.11781615430E+03  0.12250994773E+03  0.00000000000E+00 0.  1.
<mgrwt>
<rscale>  1 0.12944266E+03</rscale>
<asrwt>0</asrwt>
<pdfrwt beam="1">  1       21 0.57956749E-01 0.12944266E+03</pdfrwt>
<pdfrwt beam="2">  1       21 0.28729454E-02 0.12944266E+03</pdfrwt>
<totfact> 0.18907062E+06</totfact>
</mgrwt>
</event>
<event>
 6    1  0.4216855E-002  0.1683756E+03  0.7546771E-02  0.1179552E+00
         21   -1    0    0  503  502  0.00000000000E+00  0.00000000000E+00  0.10054683034E+03  0.10054683034E+03  0.00000000000E+00 0.  1.
         21   -1    0    0  504  503 -0.00000000000E+00 -0.00000000000E+00 -0.20811180078E+03  0.20811180078E+03  0.00000000000E+00 0.  1.
         25    2    1    2    0    0  0.31244147998E+02 -0.10834774365E+03 -0.28088754812E+02  0.17070248160E+03  0.12503970865E+03 0.  0.
          5    1    3    3  501    0  0.52327993641E+02 -0.12878087059E+03 -0.22532019142E+02  0.14082057177E+03  0.10000000000E+00 0. -1.
         -5    1    3    3    0  501 -0.21083845642E+02  0.20433126937E+02 -0.55567356708E+01  0.29881909825E+02  0.10000000000E+00 0. -1.
         21    1    1    2  504  502 -0.31244147998E+02  0.10834774365E+03 -0.79476215630E+02  0.13795614952E+03  0.00000000000E+00 0.  1.
<mgrwt>
<rscale>  1 0.16837565E+03</rscale>
<asrwt>0</asrwt>
<pdfrwt beam="1">  1       21 0.15468743E-01 0.16837565E+03</pdfrwt>
<pdfrwt beam="2">  1       21 0.32017200E-01 0.16837565E+03</pdfrwt>
<totfact> 0.34978082E+05</totfact>
</mgrwt>
</event>
<event>
 6    1  0.4216855E-002  0.1300921E+03  0.7546771E-02  0.1227319E+00
         21   -1    0    0  504  502  0.00000000000E+00  0.00000000000E+00  0.20380009697E+03  0.20380009697E+03  0.00000000000E+00 0. -1.
         21   -1    0    0  502  503 -0.00000000000E+00 -0.00000000000E+00 -0.10972570130E+03  0.10972570130E+03  0.00000000000E+00 0. -1.
         25    2    1    2    0    0  0.34475038534E+02 -0.10795732921E+02 -0.68473295176E+02  0.14701205131E+03  0.12497549738E+03 0.  0.
          5    1    3    3  501    0  0.43850293596E+01 -0.61873304892E+02 -0.61453624191E+02  0.87316048164E+02  0.10000000000E+00 0.  1.
         -5    1    3    3    0  501  0.30090009175E+02  0.51077571971E+02 -0.70196709852E+01  0.59696003144E+02  0.10000000000E+00 0.  1.
         21    1    1    2  504  503 -0.34475038534E+02  0.10795732921E+02  0.16254769084E+03  0.16651374697E+03  0.00000000000E+00 0. -1.
<mgrwt>
<rscale>  1 0.13009209E+03</rscale>
<asrwt>0</asrwt>
<pdfrwt beam="1">  1       21 0.31353861E-01 0.13009209E+03</pdfrwt>
<pdfrwt beam="2">  1       21 0.16880877E-01 0.13009209E+03</pdfrwt>
<totfact> 0.31287422E+05</totfact>
</mgrwt>
</event>
<event>
 6    1  0.4216855E-002  0.1280676E+03  0.7546771E-02  0.1230351E+00
         21   -1    0    0  503  502  0.00000000000E+00  0.00000000000E+00  0.14873768745E+02  0.14873768745E+02  0.00000000000E+00 0.  1.
         21   -1    0    0  504  503 -0.00000000000E+00 -0.00000000000E+00 -0.40869603519E+03  0.40869603519E+03  0.00000000000E+00 0.  1.
         25    2    1    2    0    0 -0.11857932991E+02  0.25217388606E+02 -0.32360824398E+03  0.34802818486E+03  0.12499917847E+03 0.  0.
          5    1    3    3  501    0 -0.40437083644E+01  0.68018997742E+02 -0.27258670574E+03  0.28097412297E+03  0.10000000000E+00 0. -1.
         -5    1    3    3    0  501 -0.78142246264E+01 -0.42801609137E+02 -0.51021538248E+02  0.67054061893E+02  0.10000000000E+00 0. -1.
         21    1    1    2  504  502  0.11857932991E+02 -0.25217388606E+02 -0.70214022462E+02  0.75541619080E+02  0.00000000000E+00 0.  1.
<mgrwt>
<rscale>  1 0.12806765E+03</rscale>
<asrwt>0</asrwt>
<pdfrwt beam="1">  1       21 0.22882720E-02 0.12806765E+03</pdfrwt>
<pdfrwt beam="2">  1       21 0.62876315E-01 0.12806765E+03</pdfrwt>
<totfact> 0.23029695E+06</totfact>
</mgrwt>
</event>
<event>
 6    1  0.4216855E-002  0.1295498E+03  0.7546771E-02  0.1228125E+00
         21   -1    0    0  504  502  0.00000000000E+00  0.00000000000E+00  0.30283926720E+02  0.30283926720E+02  0.00000000000E+00 0. -1.
         21   -1    0    0  502  503 -0.00000000000E+00 -0.00000000000E+00 -0.63219548431E+03  0.63219548431E+03  0.00000000000E+00 0. -1.
         25    2    1    2    0    0  0.77846259093E+01 -0.33128499830E+02 -0.61311461247E+03  0.62665195870E+03  0.12500020566E+03 0.  0.
          5    1    3    3  501    0  0.11454852369E+02  0.42031126013E+02 -0.35889188998E+03  0.36152624786E+03  0.10000000000E+00 0. -1.
         -5    1    3    3    0  501 -0.36702264596E+01 -0.75159625843E+02 -0.25422272249E+03  0.26512571084E+03  0.10000000000E+00 0. -1.
         21    1    1    2  504  503 -0.77846259093E+01  0.33128499830E+02  0.11203054884E+02  0.35827452327E+02  0.00000000000E+00 0. -1.
<mgrwt>
<rscale>  1 0.12954979E+03</rscale>
<asrwt>0</asrwt>
<pdfrwt beam="1">  1       21 0.46590664E-02 0.12954979E+03</pdfrwt>
<pdfrwt beam="2">  1       21 0.97260828E-01 0.12954979E+03</pdfrwt>
<totfact> 0.27035022E+05</totfact>
</mgrwt>
</event>
<event>
 6    1  0.4216855E-002  0.1297413E+03  0.7546771E-02  0.1227840E+00
         21   -1    0    0  503  502  0.00000000000E+00  0.00000000000E+00  0.14606935143E+03  0.14606935143E+03  0.00000000000E+00 0. -1.
         21   -1    0    0  504  503 -0.00000000000E+00 -0.00000000000E+00 -0.18452377909E+03  0.18452377909E+03  0.00000000000E+00 0.  1.
         25    2    1    2    0    0 -0.22273219411E+02  0.26661426952E+02 -0.15895669467E+03  0.20518290629E+03  0.12500346500E+03 0.  0.
          5    1    3    3  501    0  0.41047632074E+02 -0.20408150068E+02 -0.87285641304E+02  0.98591043538E+02  0.10000000000E+00 0.  1.
         -5    1    3    3    0  501 -0.63320851485E+02  0.47069577020E+02 -0.71671053366E+02  0.10659186275E+03  0.10000000000E+00 0.  1.
         21    1    1    2  504  502  0.22273219411E+02 -0.26661426952E+02  0.12050226701E+03  0.12541022424E+03  0.00000000000E+00 0. -1.
<mgrwt>
<rscale>  1 0.12974126E+03</rscale>
<asrwt>0</asrwt>
<pdfrwt beam="1">  1       21 0.22472208E-01 0.12974126E+03</pdfrwt>
<pdfrwt beam="2">  1       21 0.28388274E-01 0.12974126E+03</pdfrwt>
<totfact> 0.22355661E+05</totfact>
</mgrwt>
</event>
<event>
 6    1  0.4216855E-002  0.1293207E+03  0.7546771E-02  0.1228467E+00
         21   -1    0    0  504  502  0.00000000000E+00  0.00000000000E+00  0.21799300471E+03  0.21799300471E+03  0.00000000000E+00 0.  1.
         21   -1    0    0  502  503 -0.00000000000E+00 -0.00000000000E+00 -0.32067711164E+02  0.32067711164E+02  0.00000000000E+00 0.  1.
         25    2    1    2    0    0 -0.13864057317E+02 -0.30406485904E+02  0.12129979527E+03  0.17730618682E+03  0.12492828776E+03 0.  0.
          5    1    3    3  501    0 -0.64042570295E+02  0.63060598808E+01  0.79973634494E+02  0.10264993627E+03  0.10000000000E+00 0. -1.
         -5    1    3    3    0  501  0.50178512978E+02 -0.36712545785E+02  0.41326160779E+02  0.74656250558E+02  0.10000000000E+00 0. -1.
         21    1    1    2  504  503  0.13864057317E+02  0.30406485904E+02  0.64625498276E+02  0.72754529053E+02  0.00000000000E+00 0. -1.
<mgrwt>
<rscale>  1 0.12932070E+03</rscale>
<asrwt>0</asrwt>
<pdfrwt beam="1">  1       21 0.33537384E-01 0.12932070E+03</pdfrwt>
<pdfrwt beam="2">  1       21 0.49334942E-02 0.12932070E+03</pdfrwt>
<totfact> 0.23405917E+06</totfact>
</mgrwt>
</event>
<event>
 6    1  0.4216855E-002  0.1274376E+03  0.7546771E-02  0.1231308E+00
         21   -1    0    0  503  502  0.00000000000E+00  0.00000000000E+00  0.20393541719E+02  0.20393541719E+02  0.00000000000E+00 0. -1.
         21   -1    0    0  504  503 -0.00000000000E+00 -0.00000000000E+00 -0.30809411737E+03  0.30809411737E+03  0.00000000000E+00 0. -1.
         25    2    1    2    0    0  0.19680956129E+02  0.15164671452E+02 -0.26808109848E+03  0.29682962411E+03  0.12499217213E+03 0.  0.
          5    1    3    3  501    0  0.67594031858E+02  0.94875796877E+01 -0.93883109488E+02  0.11607331975E+03  0.10000000000E+00 0. -1.
         -5    1    3    3    0  501 -0.47913075729E+02  0.56770917640E+01 -0.17419798899E+03  0.18075630435E+03  0.10000000000E+00 0. -1.
         21    1    1    2  504  502 -0.19680956129E+02 -0.15164671452E+02 -0.19619477180E+02  0.31658034986E+02  0.00000000000E+00 0.  1.
<mgrwt>
<rscale>  1 0.12743763E+03</rscale>
<asrwt>0</asrwt>
<pdfrwt beam="1">  1       21 0.31374679E-02 0.12743763E+03</pdfrwt>
<pdfrwt beam="2">  1       21 0.47399095E-01 0.12743763E+03</pdfrwt>
<totfact> 0.24841782E+06</totfact>
</mgrwt>
</event>
<event>
 6    1  0.4216855E-002  0.1267529E+03  0.7546771E-02  0.1232355E+00
         21   -1    0    0  504  502  0.00000000000E+00  0.00000000000E+00  0.29532174753E+03  0.29532174753E+03  0.00000000000E+00 0.  1.
         21   -1    0    0  502  503 -0.00000000000E+00 -0.00000000000E+00 -0.18684862171E+02  0.18684862171E+02  0.00000000000E+00 0.  1.
         25    2    1    2    0    0  0.19402550414E+02  0.79503416480E+01  0.22449762866E+03  0.25780902093E+03  0.12500655624E+03 0.  0.
          5    1    3    3  501    0  0.13789825767E+02 -0.53671975577E+02  0.58151952120E+02  0.80327453541E+02  0.10000000000E+00 0. -1.
         -5    1    3    3    0  501  0.56127246471E+01  0.61622317225E+02  0.16634567654E+03  0.17748156739E+03  0.10000000000E+00 0. -1.
         21    1    1    2  504  503 -0.19402550414E+02 -0.79503416480E+01  0.52139256702E+02  0.56197588776E+02  0.00000000000E+00 0.  1.
<mgrwt>
<rscale>  1 0.12675293E+03</rscale>
<asrwt>0</asrwt>
<pdfrwt beam="1">  1       21 0.45434112E-01 0.12675293E+03</pdfrwt>
<pdfrwt beam="2">  1       21 0.28745944E-02 0.12675293E+03</pdfrwt>
<totfact> 0.31255573E+06</totfact>
</mgrwt>
</event>
<event>
 6    1  0.4216855E-002  0.1270116E+03  0.7546771E-02  0.1231959E+00
         21   -1    0    0  503  502  0.00000000000E+00  0.00000000000E+00  0.58744920120E+02  0.58744920120E+02  0.00000000000E+00 0.  1.
         21   -1    0    0  504  503 -0.00000000000E+00 -0.00000000000E+00 -0.10691290906E+03  0.10691290906E+03  0.00000000000E+00 0.  1.
         25    2    1    2    0    0  0.22387927438E+02  0.24824839304E+01 -0.59711022271E+02  0.14034728514E+03  0.12499828896E+03 0.  0.
          5    1    3    3  501    0  0.41445208419E+02  0.49825974351E+02 -0.42070708742E+01  0.64946458458E+02  0.10000000000E+00 0. -1.
         -5    1    3    3    0  501 -0.19057280981E+02 -0.47343490421E+02 -0.55503951397E+02  0.75400826682E+02  0.10000000000E+00 0. -1.
         21    1    1    2  504  502 -0.22387927438E+02 -0.24824839304E+01  0.11543033327E+02  0.25310544044E+02  0.00000000000E+00 0. -1.
<mgrwt>
<rscale>  1 0.12701163E+03</rscale>
<asrwt>0</asrwt>
<pdfrwt beam="1">  1       21 0.90376800E-02 0.12701163E+03</pdfrwt>
<pdfrwt beam="2">  1       21 0.16448140E-01 0.12701163E+03</pdfrwt>
<totfact> 0.31782951E+06</totfact>
</mgrwt>
</event>
<event>
 6    1  0.4216855E-002  0.1310838E+03  0.7546771E-02  0.1225856E+00
         21   -1    0    0  503  502  0.00000000000E+00  0.00000000000E+00  0.11417740606E+03  0.11417740606E+03  0.00000000000E+00 0. -1.
         21   -1    0    0  504  503 -0.00000000000E+00 -0.00000000000E+00 -0.16458381682E+03  0.16458381682E+03  0.00000000000E+00 0. -1.
         25    2    1    2    0    0  0.39178692693E+02  0.43629208317E+01 -0.13331075038E+03  0.18696179713E+03  0.12501580852E+03 0.  0.
          5    1    3    3  501    0  0.44532678951E+02 -0.53110066274E+02 -0.95338489245E+02  0.11786974237E+03  0.10000000000E+00 0.  1.
         -5    1    3    3    0  501 -0.53539862581E+01  0.57472987106E+02 -0.37972261134E+02  0.69092054763E+02  0.10000000000E+00 0.  1.
         21    1    1    2  504  502 -0.39178692693E+02 -0.43629208317E+01  0.82904339623E+02  0.91799425748E+02  0.00000000000E+00 0. -1.
<mgrwt>
<rscale>  1 0.13108378E+03</rscale>
<asrwt>0</asrwt>
<pdfrwt beam="1">  1       21 0.17565755E-01 0.13108378E+03</pdfrwt>
<pdfrwt beam="2">  1       21 0.25320587E-01 0.13108378E+03</pdfrwt>
<totfact> 0.43816105E+05</totfact>
</mgrwt>
</event>
<event>
 6    1  0.4216855E-002  0.1371352E+03  0.7546771E-02  0.1217237E+00
         21   -1    0    0  503  502  0.00000000000E+00  0.00000000000E+00  0.68772246515E+02  0.68772246515E+02  0.00000000000E+00 0.  1.
         21   -1    0    0  504  503 -0.00000000000E+00 -0.00000000000E+00 -0.14548066341E+03  0.14548066341E+03  0.00000000000E+00 0.  1.
         25    2    1    2    0    0 -0.54038092854E+02 -0.16159199504E+02 -0.78134685398E+02  0.15783243979E+03  0.12499925912E+03 0.  0.
          5    1    3    3  501    0 -0.69215007215E+02 -0.19641380286E+02  0.60667148991E+01  0.72203296829E+02  0.10000000000E+00 0.  1.
         -5    1    3    3    0  501  0.15176914361E+02  0.34821807820E+01 -0.84201400297E+02  0.85629142963E+02  0.10000000000E+00 0.  1.
         21    1    1    2  504  502  0.54038092854E+02  0.16159199504E+02  0.14262685048E+01  0.56420470131E+02  0.00000000000E+00 0.  1.
<mgrwt>
<rscale>  1 0.13713515E+03</rscale>
<asrwt>0</asrwt>
<pdfrwt beam="1">  1       21 0.10580346E-01 0.13713515E+03</pdfrwt>
<pdfrwt beam="2">  1       21 0.22381640E-01 0.13713515E+03</pdfrwt>
<totfact> 0.13706434E+06</totfact>
</mgrwt>
</event>
<event>
 6    1  0.4216855E-002  0.1268466E+03  0.7546771E-02  0.1232211E+00
         21   -1    0    0  503  502  0.00000000000E+00  0.00000000000E+00  0.95833121000E+02  0.95833121000E+02  0.00000000000E+00 0.  1.
         21   -1    0    0  504  503 -0.00000000000E+00 -0.00000000000E+00 -0.57761081997E+02  0.57761081997E+02  0.00000000000E+00 0.  1.
         25    2    1    2    0    0  0.16815937292E+02 -0.13482155806E+02  0.36451079958E+02  0.13198004605E+03  0.12500202820E+03 0.  0.
          5    1    3    3  501    0 -0.10738978872E+02  0.24243423371E+01 -0.44057634447E+02  0.45412424027E+02  0.10000000000E+00 0.  1.
         -5    1    3    3    0  501  0.27554916164E+02 -0.15906498144E+02  0.80508714405E+02  0.86567622025E+02  0.10000000000E+00 0.  1.
         21    1    1    2  504  502 -0.16815937292E+02  0.13482155806E+02  0.16209590455E+01  0.21614156945E+02  0.00000000000E+00 0.  1.
<mgrwt>
<rscale>  1 0.12684657E+03</rscale>
<asrwt>0</asrwt>
<pdfrwt beam="1">  1       21 0.14743557E-01 0.12684657E+03</pdfrwt>
<pdfrwt beam="2">  1       21 0.88863203E-02 0.12684657E+03</pdfrwt>
<totfact> 0.39882706E+06</totfact>
</mgrwt>
</event>
<event>
 6    1  0.4216855E-002  0.1261435E+03  0.7546771E-02  0.1233293E+00
         21   -1    0    0  504  502  0.00000000000E+00  0.00000000000E+00  0.26575524452E+02  0.26575524452E+02  0.00000000000E+00 0. -1.
         21   -1    0    0  502  503 -0.00000000000E+00 -0.00000000000E+00 -0.22577821594E+03  0.22577821594E+03  0.00000000000E+00 0. -1.
         25    2    1    2    0    0 -0.55604264782E+01 -0.16130354928E+02 -0.19860818636E+03  0.23528153699E+03  0.12498433209E+03 0.  0.
          5    1    3    3  501    0 -0.39601227445E+02 -0.58720324082E+02 -0.98982000338E+02  0.12171187315E+03  0.10000000000E+00 0. -1.
         -5    1    3    3    0  501  0.34040800967E+02  0.42589969154E+02 -0.99626186021E+02  0.11356966384E+03  0.10000000000E+00 0. -1.
         21    1    1    2  504  503  0.55604264782E+01  0.16130354928E+02 -0.59450513045E+00  0.17072203404E+02  0.00000000000E+00 0. -1.
<mgrwt>
<rscale>  1 0.12614353E+03</rscale>
<asrwt>0</asrwt>
<pdfrwt beam="1">  1       21 0.40885423E-02 0.12614353E+03</pdfrwt>
<pdfrwt beam="2">  1       21 0.34735109E-01 0.12614353E+03</pdfrwt>
<totfact> 0.29881224E+06</totfact>
</mgrwt>
</event>
<event>
 6    1  0.4216855E-002  0.1261496E+03  0.7546771E-02  0.1233284E+00
         21   -1    0    0  503  502  0.00000000000E+00  0.00000000000E+00  0.10763354032E+04  0.10763354032E+04  0.00000000000E+00 0.  1.
         21   -1    0    0  504  503 -0.00000000000E+00 -0.00000000000E+00 -0.10928586560E+02  0.10928586560E+02  0.00000000000E+00 0. -1.
         25    2    1    2    0    0  0.42148929088E+01  0.16492926893E+02  0.35664872036E+03  0.37830149357E+03  0.12499571330E+03 0.  0.
          5    1    3    3  501    0  0.51065988229E+02 -0.18361584363E+02  0.88058990893E+02  0.10343731827E+03  0.10000000000E+00 0. -1.
         -5    1    3    3    0  501 -0.46851095320E+02  0.34854511256E+02  0.26858972946E+03  0.27486417530E+03  0.10000000000E+00 0. -1.
         21    1    1    2  504  502 -0.42148929088E+01 -0.16492926893E+02  0.70875809630E+03  0.70896249621E+03  0.00000000000E+00 0.  1.
<mgrwt>
<rscale>  1 0.12614956E+03</rscale>
<asrwt>0</asrwt>
<pdfrwt beam="1">  1       21 0.16558998E+00 0.12614956E+03</pdfrwt>
<pdfrwt beam="2">  1       21 0.16813219E-02 0.12614956E+03</pdfrwt>
<totfact> 0.38271006E+05</totfact>
</mgrwt>
</event>
<event>
 6    1  0.4216855E-002  0.1265251E+03  0.7546771E-02  0.1232705E+00
         21   -1    0    0  503  502  0.00000000000E+00  0.00000000000E+00  0.16371974430E+03  0.16371974430E+03  0.00000000000E+00 0.  1.
         21   -1    0    0  504  503 -0.00000000000E+00 -0.00000000000E+00 -0.65505285360E+03  0.65505285360E+03  0.00000000000E+00 0.  1.
         25    2    1    2    0    0 -0.19250770862E+02 -0.35576619922E+01 -0.64832959322E+03  0.66056025609E+03  0.12500136538E+03 0.  0.
          5    1    3    3  501    0  0.45513547651E+02 -0.11062970461E+02 -0.43435729762E+03  0.43687543343E+03  0.10000000000E+00 0.  1.
         -5    1    3    3    0  501 -0.64764318512E+02  0.75053084684E+01 -0.21397229559E+03  0.22368482266E+03  0.10000000000E+00 0.  1.
         21    1    1    2  504  502  0.19250770862E+02  0.35576619922E+01  0.15699648391E+03  0.15821234180E+03  0.00000000000E+00 0.  1.
<mgrwt>
<rscale>  1 0.12652506E+03</rscale>
<asrwt>0</asrwt>
<pdfrwt beam="1">  1       21 0.25187652E-01 0.12652506E+03</pdfrwt>
<pdfrwt beam="2">  1       21 0.10077736E+00 0.12652506E+03</pdfrwt>
<totfact> 0.12652592E+04</totfact>
</mgrwt>
</event>
<event>
 6    1  0.4216855E-002  0.1277503E+03  0.7546771E-02  0.1230833E+00
         21   -1    0    0  504  502  0.00000000000E+00  0.00000000000E+00  0.73635082970E+03  0.73635082970E+03  0.00000000000E+00 0. -1.
         21   -1    0    0  502  503 -0.00000000000E+00 -0.00000000000E+00 -0.14989452494E+03  0.14989452494E+03  0.00000000000E+00 0. -1.
         25    2    1    2    0    0  0.17626895406E+02 -0.19616127724E+02 -0.12238534890E+03  0.17691328159E+03  0.12499854267E+03 0.  0.
          5    1    3    3  501    0  0.55129760468E+02  0.27964407785E+01 -0.96891481492E+01  0.56044626523E+02  0.10000000000E+00 0. -1.
         -5    1    3    3    0  501 -0.37502865062E+02 -0.22412568502E+02 -0.11269620075E+03  0.12086865507E+03  0.10000000000E+00 0. -1.
         21    1    1    2  504  503 -0.17626895406E+02  0.19616127724E+02  0.70884165365E+03  0.70933207305E+03  0.00000000000E+00 0. -1.
<mgrwt>
<rscale>  1 0.12775029E+03</rscale>
<asrwt>0</asrwt>
<pdfrwt beam="1">  1       21 0.11328474E+00 0.12775029E+03</pdfrwt>
<pdfrwt beam="2">  1       21 0.23060697E-01 0.12775029E+03</pdfrwt>
<totfact> 0.11300804E+04</totfact>
</mgrwt>
</event>
<event>
 6    1  0.4216855E-002  0.1281618E+03  0.7546771E-02  0.1230209E+00
         21   -1    0    0  504  502  0.00000000000E+00  0.00000000000E+00  0.14964446077E+03  0.14964446077E+03  0.00000000000E+00 0. -1.
         21   -1    0    0  502  503 -0.00000000000E+00 -0.00000000000E+00 -0.44243157347E+02  0.44243157347E+02  0.00000000000E+00 0. -1.
         25    2    1    2    0    0 -0.25000433720E+02  0.13264550442E+02  0.62745696602E+02  0.14269708405E+03  0.12499786146E+03 0.  0.
          5    1    3    3  501    0 -0.67351035149E+02  0.31473481200E+02  0.61659564694E+02  0.96584956762E+02  0.10000000000E+00 0.  1.
         -5    1    3    3    0  501  0.42350601429E+02 -0.18208930757E+02  0.10861319086E+01  0.46112127291E+02  0.10000000000E+00 0.  1.
         21    1    1    2  504  503  0.25000433720E+02 -0.13264550442E+02  0.42655606819E+02  0.51190534064E+02  0.00000000000E+00 0. -1.
<mgrwt>
<rscale>  1 0.12816175E+03</rscale>
<asrwt>0</asrwt>
<pdfrwt beam="1">  1       21 0.23022225E-01 0.12816175E+03</pdfrwt>
<pdfrwt beam="2">  1       21 0.68066397E-02 0.12816175E+03</pdfrwt>
<totfact> 0.27866200E+06</totfact>
</mgrwt>
</event>
<event>
 6    1  0.4216855E-002  0.1277092E+03  0.7546771E-02  0.1230895E+00
         21   -1    0    0  504  502  0.00000000000E+00  0.00000000000E+00  0.81509149151E+02  0.81509149151E+02  0.00000000000E+00 0.  1.
         21   -1    0    0  502  503 -0.00000000000E+00 -0.00000000000E+00 -0.72936657270E+02  0.72936657270E+02  0.00000000000E+00 0.  1.
         25    2    1    2    0    0  0.25284125721E+02  0.66525274816E+01  0.31687192331E+01  0.12774854262E+03  0.12500442483E+03 0.  0.
          5    1    3    3  501    0  0.73168158954E+02  0.16909033936E+02 -0.12926536789E+02  0.76201051612E+02  0.10000000000E+00 0.  1.
         -5    1    3    3    0  501 -0.47884033233E+02 -0.10256506454E+02  0.16095256022E+02  0.51547491013E+02  0.10000000000E+00 0.  1.
         21    1    1    2  504  503 -0.25284125721E+02 -0.66525274816E+01  0.54037726482E+01  0.26697263796E+02  0.00000000000E+00 0.  1.
<mgrwt>
<rscale>  1 0.12770924E+03</rscale>
<asrwt>0</asrwt>
<pdfrwt beam="1">  1       21 0.12539869E-01 0.12770924E+03</pdfrwt>
<pdfrwt beam="2">  1       21 0.11221024E-01 0.12770924E+03</pdfrwt>
<totfact> 0.35439112E+06</totfact>
</mgrwt>
</event>
<event>
 6    1  0.4216855E-002  0.1336373E+03  0.7546771E-02  0.1222156E+00
         21   -1    0    0  503  502  0.00000000000E+00  0.00000000000E+00  0.53890668621E+03  0.53890668621E+03  0.00000000000E+00 0.  1.
         21   -1    0    0  504  503 -0.00000000000E+00 -0.00000000000E+00 -0.29688179639E+03  0.29688179639E+03  0.00000000000E+00 0.  1.
         25    2    1    2    0    0  0.44867824060E+02 -0.14930402815E+02 -0.28072160092E+03  0.31090760836E+03  0.12499154031E+03 0.  0.
          5    1    3    3  501    0 -0.19636113979E+02 -0.54396696378E+02 -0.12980980771E+03  0.14210972425E+03  0.10000000000E+00 0. -1.
         -5    1    3    3    0  501  0.64503938039E+02  0.39466293564E+02 -0.15091179321E+03  0.16879788411E+03  0.10000000000E+00 0. -1.
         21    1    1    2  504  502 -0.44867824060E+02  0.14930402815E+02  0.52274649074E+03  0.52488087424E+03  0.00000000000E+00 0.  1.
<mgrwt>
<rscale>  1 0.13363728E+03</rscale>
<asrwt>0</asrwt>
<pdfrwt beam="1">  1       21 0.82908721E-01 0.13363728E+03</pdfrwt>
<pdfrwt beam="2">  1       21 0.45674122E-01 0.13363728E+03</pdfrwt>
<totfact> 0.61278034E+03</totfact>
</mgrwt>
</event>
<event>
 6    1  0.4216855E-002  0.1260054E+03  0.7546771E-02  0.1233506E+00
         21   -1    0    0  503  502  0.00000000000E+00  0.00000000000E+00  0.10179368745E+04  0.10179368745E+04  0.00000000000E+00 0.  1.
         21   -1    0    0  504  503 -0.00000000000E+00 -0.00000000000E+00 -0.12841692696E+02  0.12841692696E+02  0.00000000000E+00 0.  1.
         25    2    1    2    0    0 -0.29898081810E+01 -0.15587744839E+02  0.29850552640E+03  0.32401067187E+03  0.12500179779E+03 0.  0.
          5    1    3    3  501    0 -0.19311830433E+02  0.39758043482E+02  0.23106129443E+03  0.23525088862E+03  0.10000000000E+00 0. -1.
         -5    1    3    3    0  501  0.16322022252E+02 -0.55345788321E+02  0.67444231976E+02  0.88759783248E+02  0.10000000000E+00 0. -1.
         21    1    1    2  504  502  0.29898081810E+01  0.15587744839E+02  0.70658965537E+03  0.70676789530E+03  0.00000000000E+00 0.  1.
<mgrwt>
<rscale>  1 0.12600542E+03</rscale>
<asrwt>0</asrwt>
<pdfrwt beam="1">  1       21 0.15660561E+00 0.12600542E+03</pdfrwt>
<pdfrwt beam="2">  1       21 0.19756458E-02 0.12600542E+03</pdfrwt>
<totfact> 0.34244014E+05</totfact>
</mgrwt>
</event>
<event>
 6    1  0.4216855E-002  0.1259206E+03  0.7546771E-02  0.1233637E+00
         21   -1    0    0  503  502  0.00000000000E+00  0.00000000000E+00  0.48152299621E+02  0.48152299621E+02  0.00000000000E+00 0. -1.
         21   -1    0    0  504  503 -0.00000000000E+00 -0.00000000000E+00 -0.38582353887E+03  0.38582353887E+03  0.00000000000E+00 0. -1.
         25    2    1    2    0    0 -0.13255826032E+02  0.77274021456E+01 -0.37395224755E+03  0.39458369166E+03  0.12498230518E+03 0.  0.
          5    1    3    3  501    0  0.24947606899E+02 -0.49794202681E+02 -0.14060149780E+03  0.15123040995E+03  0.10000000000E+00 0. -1.
         -5    1    3    3    0  501 -0.38203432931E+02  0.57521604826E+02 -0.23335074975E+03  0.24335328171E+03  0.10000000000E+00 0. -1.
         21    1    1    2  504  502  0.13255826032E+02 -0.77274021456E+01  0.36281008307E+02  0.39392146825E+02  0.00000000000E+00 0. -1.
<mgrwt>
<rscale>  1 0.12592063E+03</rscale>
<asrwt>0</asrwt>
<pdfrwt beam="1">  1       21 0.74080460E-02 0.12592063E+03</pdfrwt>
<pdfrwt beam="2">  1       21 0.59357468E-01 0.12592063E+03</pdfrwt>
<totfact> 0.36828843E+05</totfact>
</mgrwt>
</event>
<event>
 6    1  0.4216855E-002  0.1300021E+03  0.7546771E-02  0.1227453E+00
         21   -1    0    0  504  502  0.00000000000E+00  0.00000000000E+00  0.17307226204E+03  0.17307226204E+03  0.00000000000E+00 0. -1.
         21   -1    0    0  502  503 -0.00000000000E+00 -0.00000000000E+00 -0.39667969272E+02  0.39667969272E+02  0.00000000000E+00 0. -1.
         25    2    1    2    0    0 -0.30409877815E+02  0.18715739454E+02  0.10391793789E+03  0.16643165008E+03  0.12500206702E+03 0.  0.
          5    1    3    3  501    0 -0.74834544815E+02 -0.10858516772E+02  0.50555328336E+02  0.90961352822E+02  0.10000000000E+00 0. -1.
         -5    1    3    3    0  501  0.44424667000E+02  0.29574256225E+02  0.53362609557E+02  0.75470297258E+02  0.10000000000E+00 0. -1.
         21    1    1    2  504  503  0.30409877815E+02 -0.18715739454E+02  0.29486354878E+02  0.46308581235E+02  0.00000000000E+00 0. -1.
<mgrwt>
<rscale>  1 0.13000214E+03</rscale>
<asrwt>0</asrwt>
<pdfrwt beam="1">  1       21 0.26626501E-01 0.13000214E+03</pdfrwt>
<pdfrwt beam="2">  1       21 0.61027646E-02 0.13000214E+03</pdfrwt>
<totfact> 0.25512880E+06</totfact>
</mgrwt>
</event>
<event>
 6    1  0.4216855E-002  0.1259734E+03  0.7546771E-02  0.1233556E+00
         21   -1    0    0  503  502  0.00000000000E+00  0.00000000000E+00  0.16098255369E+03  0.16098255369E+03  0.00000000000E+00 0. -1.
         21   -1    0    0  504  503 -0.00000000000E+00 -0.00000000000E+00 -0.97131827113E+02  0.97131827113E+02  0.00000000000E+00 0. -1.
         25    2    1    2    0    0  0.54647591488E+01 -0.14615777071E+02 -0.55564949312E+02  0.13768353683E+03  0.12500323272E+03 0.  0.
          5    1    3    3  501    0 -0.41423528760E+02 -0.39045445908E+02 -0.62294109451E+02  0.84386146099E+02  0.10000000000E+00 0.  1.
         -5    1    3    3    0  501  0.46888287909E+02  0.24429668837E+02  0.67291601382E+01  0.53297390731E+02  0.10000000000E+00 0.  1.
         21    1    1    2  504  502 -0.54647591488E+01  0.14615777071E+02  0.11941567589E+03  0.12043084397E+03  0.00000000000E+00 0. -1.
<mgrwt>
<rscale>  1 0.12597338E+03</rscale>
<asrwt>0</asrwt>
<pdfrwt beam="1">  1       21 0.24766547E-01 0.12597338E+03</pdfrwt>
<pdfrwt beam="2">  1       21 0.14943358E-01 0.12597338E+03</pdfrwt>
<totfact> 0.61276013E+05</totfact>
</mgrwt>
</event>
<event>
 6    1  0.4216855E-002  0.1337365E+03  0.7546771E-02  0.1222014E+00
         21   -1    0    0  504  502  0.00000000000E+00  0.00000000000E+00  0.26930502636E+02  0.26930502636E+02  0.00000000000E+00 0.  1.
         21   -1    0    0  502  503 -0.00000000000E+00 -0.00000000000E+00 -0.38332929297E+03  0.38332929297E+03  0.00000000000E+00 0.  1.
         25    2    1    2    0    0  0.24765453891E+01 -0.47463542944E+02 -0.32959596034E+03  0.35569503700E+03  0.12500616420E+03 0.  0.
          5    1    3    3  501    0 -0.19354897743E+02 -0.49149930339E+01  0.25431572443E+01  0.20130744445E+02  0.10000000000E+00 0.  1.
         -5    1    3    3    0  501  0.21831443132E+02 -0.42548549910E+02 -0.33213911758E+03  0.33556429256E+03  0.10000000000E+00 0.  1.
         21    1    1    2  504  503 -0.24765453891E+01  0.47463542944E+02 -0.26802829992E+02  0.54564758603E+02  0.00000000000E+00 0.  1.
<mgrwt>
<rscale>  1 0.13373654E+03</rscale>
<asrwt>0</asrwt>
<pdfrwt beam="1">  1       21 0.41431544E-02 0.13373654E+03</pdfrwt>
<pdfrwt beam="2">  1       21 0.58973735E-01 0.13373654E+03</pdfrwt>
<totfact> 0.99609998E+05</totfact>
</mgrwt>
</event>
<event>
 6    1  0.4216855E-002  0.1378490E+03  0.7546771E-02  0.1216253E+00
         21   -1    0    0  503  502  0.00000000000E+00  0.00000000000E+00  0.31527640415E+02  0.31527640415E+02  0.00000000000E+00 0.  1.
         21   -1    0    0  504  503 -0.00000000000E+00 -0.00000000000E+00 -0.10986785415E+04  0.10986785415E+04  0.00000000000E+00 0.  1.
         25    2    1    2    0    0 -0.15819361494E+02  0.55880917475E+02 -0.10630871695E+04  0.10719872585E+04  0.12501769122E+03 0.  0.
          5    1    3    3  501    0  0.17092316386E+02 -0.11766985317E+02 -0.31874927405E+02  0.38034592413E+02  0.10000000000E+00 0.  1.
         -5    1    3    3    0  501 -0.32911677880E+02  0.67647902792E+02 -0.10312122421E+04  0.10339526660E+04  0.10000000000E+00 0.  1.
         21    1    1    2  504  502  0.15819361494E+02 -0.55880917475E+02 -0.40637315583E+01  0.58218923471E+02  0.00000000000E+00 0.  1.
<mgrwt>
<rscale>  1 0.13784902E+03</rscale>
<asrwt>0</asrwt>
<pdfrwt beam="1">  1       21 0.48504064E-02 0.13784902E+03</pdfrwt>
<pdfrwt beam="2">  1       21 0.16902746E+00 0.13784902E+03</pdfrwt>
<totfact> 0.63435179E+04</totfact>
</mgrwt>
</event>
<event>
 6    1  0.4216855E-002  0.1386630E+03  0.7546771E-02  0.1215139E+00
         21   -1    0    0  503  502  0.00000000000E+00  0.00000000000E+00  0.22510749873E+03  0.22510749873E+03  0.00000000000E+00 0.  1.
         21   -1    0    0  504  503 -0.00000000000E+00 -0.00000000000E+00 -0.13453442486E+03  0.13453442486E+03  0.00000000000E+00 0.  1.
         25    2    1    2    0    0 -0.55505290615E+02 -0.22862402473E+02 -0.92695197970E+02  0.16679279552E+03  0.12499564063E+03 0.  0.
          5    1    3    3  501    0 -0.47270341878E+02 -0.31527832602E+02  0.14735075978E+02  0.58699420048E+02  0.10000000000E+00 0. -1.
         -5    1    3    3    0  501 -0.82349487369E+01  0.86654301287E+01 -0.10743027395E+03  0.10809337547E+03  0.10000000000E+00 0. -1.
         21    1    1    2  504  502  0.55505290615E+02  0.22862402473E+02  0.18326827184E+03  0.19284912807E+03  0.00000000000E+00 0.  1.
<mgrwt>
<rscale>  1 0.13866303E+03</rscale>
<asrwt>0</asrwt>
<pdfrwt beam="1">  1       21 0.34631923E-01 0.13866303E+03</pdfrwt>
<pdfrwt beam="2">  1       21 0.20697604E-01 0.13866303E+03</pdfrwt>
<totfact> 0.17676289E+05</totfact>
</mgrwt>
</event>
<event>
 6    1  0.4216855E-002  0.1262910E+03  0.7546771E-02  0.1233065E+00
         21   -1    0    0  503  502  0.00000000000E+00  0.00000000000E+00  0.19312484750E+02  0.19312484750E+02  0.00000000000E+00 0. -1.
         21   -1    0    0  504  503 -0.00000000000E+00 -0.00000000000E+00 -0.82765605062E+03  0.82765605062E+03  0.00000000000E+00 0.  1.
         25    2    1    2    0    0 -0.11296052960E+02 -0.14038610253E+02 -0.81719279218E+03  0.82689386983E+03  0.12499891591E+03 0.  0.
          5    1    3    3  501    0  0.43853484820E+02 -0.21117310883E+02 -0.62298035807E+03  0.62487887266E+03  0.10000000000E+00 0. -1.
         -5    1    3    3    0  501 -0.55149537779E+02  0.70787006296E+01 -0.19421243410E+03  0.20201499717E+03  0.10000000000E+00 0. -1.
         21    1    1    2  504  502  0.11296052960E+02  0.14038610253E+02  0.88492263096E+01  0.20074665541E+02  0.00000000000E+00 0. -1.
<mgrwt>
<rscale>  1 0.12629098E+03</rscale>
<asrwt>0</asrwt>
<pdfrwt beam="1">  1       21 0.29711523E-02 0.12629098E+03</pdfrwt>
<pdfrwt beam="2">  1       21 0.12733166E+00 0.12629098E+03</pdfrwt>
<totfact> 0.29871574E+05</totfact>
</mgrwt>
</event>
<event>
 6    1  0.4216855E-002  0.1277610E+03  0.7546771E-02  0.1230816E+00
         21   -1    0    0  503  502  0.00000000000E+00  0.00000000000E+00  0.43523472355E+03  0.43523472355E+03  0.00000000000E+00 0.  1.
         21   -1    0    0  504  503 -0.00000000000E+00 -0.00000000000E+00 -0.14970837730E+02  0.14970837730E+02  0.00000000000E+00 0.  1.
         25    2    1    2    0    0 -0.95252147185E+00  0.26381424789E+02  0.38813968987E+03  0.40862610918E+03  0.12500396547E+03 0.  0.
          5    1    3    3  501    0 -0.50887409481E+02 -0.90032358102E+01  0.27672303261E+03  0.28150707536E+03  0.10000000000E+00 0. -1.
         -5    1    3    3    0  501  0.49934888009E+02  0.35384660600E+02  0.11141665726E+03  0.12711903383E+03  0.10000000000E+00 0. -1.
         21    1    1    2  504  502  0.95252147185E+00 -0.26381424789E+02  0.32124195947E+02  0.41579452093E+02  0.00000000000E+00 0.  1.
<mgrwt>
<rscale>  1 0.12776102E+03</rscale>
<asrwt>0</asrwt>
<pdfrwt beam="1">  1       21 0.66959179E-01 0.12776102E+03</pdfrwt>
<pdfrwt beam="2">  1       21 0.23032061E-02 0.12776102E+03</pdfrwt>
<totfact> 0.19902178E+06</totfact>
</mgrwt>
</event>
<event>
 6    1  0.4216855E-002  0.1680469E+03  0.7546771E-02  0.1179900E+00
         21   -1    0    0  503  502  0.00000000000E+00  0.00000000000E+00  0.49832477874E+03  0.49832477874E+03  0.00000000000E+00 0.  1.
         21   -1    0    0  504  503 -0.00000000000E+00 -0.00000000000E+00 -0.14662036549E+03  0.14662036549E+03  0.00000000000E+00 0.  1.
         25    2    1    2    0    0 -0.23638741201E+01 -0.11228108459E+03 -0.88997468719E+02  0.19015862439E+03  0.12500849224E+03 0.  0.
          5    1    3    3  501    0  0.41728332093E+01 -0.22130643309E+02  0.31998563732E+02  0.39129221704E+02  0.10000000000E+00 0. -1.
         -5    1    3    3    0  501 -0.65367073294E+01 -0.90150441280E+02 -0.12099603245E+03  0.15102940268E+03  0.10000000000E+00 0. -1.
         21    1    1    2  504  502  0.23638741201E+01  0.11228108459E+03  0.44070188197E+03  0.45478651984E+03  0.00000000000E+00 0.  1.
<mgrwt>
<rscale>  1 0.16804688E+03</rscale>
<asrwt>0</asrwt>
<pdfrwt beam="1">  1       21 0.76665350E-01 0.16804688E+03</pdfrwt>
<pdfrwt beam="2">  1       21 0.22556979E-01 0.16804688E+03</pdfrwt>
<totfact> 0.28268585E+04</totfact>
</mgrwt>
</event>
<event>
 6    1  0.4216855E-002  0.1292065E+03  0.7546771E-02  0.1228638E+00
         21   -1    0    0  504  502  0.00000000000E+00  0.00000000000E+00  0.18495090833E+02  0.18495090833E+02  0.00000000000E+00 0.  1.
         21   -1    0    0  502  503 -0.00000000000E+00 -0.00000000000E+00 -0.37428688890E+03  0.37428688890E+03  0.00000000000E+00 0.  1.
         25    2    1    2    0    0  0.20702295543E+02 -0.25284245449E+02 -0.31531257428E+03  0.34075846902E+03  0.12500574627E+03 0.  0.
          5    1    3    3  501    0  0.34139038632E+02 -0.62323133035E+02 -0.10499307002E+03  0.12678013102E+03  0.10000000000E+00 0.  1.
         -5    1    3    3    0  501 -0.13436743089E+02  0.37038887586E+02 -0.21031950427E+03  0.21397833800E+03  0.10000000000E+00 0.  1.
         21    1    1    2  504  503 -0.20702295543E+02  0.25284245449E+02 -0.40479223786E+02  0.52023510714E+02  0.00000000000E+00 0.  1.
<mgrwt>
<rscale>  1 0.12920648E+03</rscale>
<asrwt>0</asrwt>
<pdfrwt beam="1">  1       21 0.28453986E-02 0.12920648E+03</pdfrwt>
<pdfrwt beam="2">  1       21 0.57582598E-01 0.12920648E+03</pdfrwt>
<totfact> 0.19471179E+06</totfact>
</mgrwt>
</event>
<event>
 6    1  0.4216855E-002  0.1270645E+03  0.7546771E-02  0.1231878E+00
         21   -1    0    0  504  502  0.00000000000E+00  0.00000000000E+00  0.93264372767E+02  0.93264372767E+02  0.00000000000E+00 0. -1.
         21   -1    0    0  502  503 -0.00000000000E+00 -0.00000000000E+00 -0.64892085518E+02  0.64892085518E+02  0.00000000000E+00 0. -1.
         25    2    1    2    0    0  0.21714123999E+02  0.70428611395E+01  0.39085231037E+02  0.13293995102E+03  0.12499708084E+03 0.  0.
          5    1    3    3  501    0  0.39281518298E+02 -0.23190615722E+02  0.71793482920E+02  0.85059723296E+02  0.10000000000E+00 0.  1.
         -5    1    3    3    0  501 -0.17567394299E+02  0.30233476861E+02 -0.32708251883E+02  0.47880227723E+02  0.10000000000E+00 0.  1.
         21    1    1    2  504  503 -0.21714123999E+02 -0.70428611395E+01 -0.10712943789E+02  0.25216507266E+02  0.00000000000E+00 0. -1.
<mgrwt>
<rscale>  1 0.12706445E+03</rscale>
<asrwt>0</asrwt>
<pdfrwt beam="1">  1       21 0.14348365E-01 0.12706445E+03</pdfrwt>
<pdfrwt beam="2">  1       21 0.99833977E-02 0.12706445E+03</pdfrwt>
<totfact> 0.34195530E+06</totfact>
</mgrwt>
</event>
<event>
 6    1  0.4216855E-002  0.1306588E+03  0.7546771E-02  0.1226481E+00
         21   -1    0    0  504  502  0.00000000000E+00  0.00000000000E+00  0.27112374708E+03  0.27112374708E+03  0.00000000000E+00 0.  1.
         21   -1    0    0  502  503 -0.00000000000E+00 -0.00000000000E+00 -0.25000418205E+03  0.25000418205E+03  0.00000000000E+00 0.  1.
         25    2    1    2    0    0  0.33922012676E+02 -0.17245613141E+02 -0.23140927942E+03  0.26574795459E+03  0.12499442648E+03 0.  0.
          5    1    3    3  501    0  0.21072867317E+02  0.28935427828E+02 -0.72525162630E+01  0.36523057274E+02  0.10000000000E+00 0.  1.
         -5    1    3    3    0  501  0.12849145359E+02 -0.46181040968E+02 -0.22415676316E+03  0.22922489732E+03  0.10000000000E+00 0.  1.
         21    1    1    2  504  503 -0.33922012676E+02  0.17245613141E+02  0.25252884445E+03  0.25537997454E+03  0.00000000000E+00 0.  1.
<mgrwt>
<rscale>  1 0.13065880E+03</rscale>
<asrwt>0</asrwt>
<pdfrwt beam="1">  1       21 0.41711346E-01 0.13065880E+03</pdfrwt>
<pdfrwt beam="2">  1       21 0.38462182E-01 0.13065880E+03</pdfrwt>
<totfact> 0.37309379E+04</totfact>
</mgrwt>
</event>
<event>
 6    1  0.4216855E-002  0.1269493E+03  0.7546771E-02  0.1232054E+00
         21   -1    0    0  503  502  0.00000000000E+00  0.00000000000E+00  0.58832849220E+02  0.58832849220E+02  0.00000000000E+00 0.  1.
         21   -1    0    0  504  503 -0.00000000000E+00 -0.00000000000E+00 -0.64892605415E+03  0.64892605415E+03  0.00000000000E+00 0. -1.
         25    2    1    2    0    0  0.13196490950E+02 -0.17839072202E+02 -0.64035467856E+03  0.65281715602E+03  0.12499497975E+03 0.  0.
          5    1    3    3  501    0 -0.53204550825E+02 -0.14806196517E+01 -0.19056460478E+03  0.19785801742E+03  0.10000000000E+00 0.  1.
         -5    1    3    3    0  501  0.66401041775E+02 -0.16358452550E+02 -0.44979007378E+03  0.45495913860E+03  0.10000000000E+00 0.  1.
         21    1    1    2  504  502 -0.13196490950E+02  0.17839072202E+02  0.50261473632E+02  0.54941747352E+02  0.00000000000E+00 0.  1.
<mgrwt>
<rscale>  1 0.12694930E+03</rscale>
<asrwt>0</asrwt>
<pdfrwt beam="1">  1       21 0.90512076E-02 0.12694930E+03</pdfrwt>
<pdfrwt beam="2">  1       21 0.99834777E-01 0.12694930E+03</pdfrwt>
<totfact> 0.82139591E+04</totfact>
</mgrwt>
</event>
<event>
 6    1  0.4216855E-002  0.1271623E+03  0.7546771E-02  0.1231728E+00
         21   -1    0    0  503  502  0.00000000000E+00  0.00000000000E+00  0.67971535483E+01  0.67971535483E+01  0.00000000000E+00 0. -1.
         21   -1    0    0  504  503 -0.00000000000E+00 -0.00000000000E+00 -0.88917372420E+03  0.88917372420E+03  0.00000000000E+00 0. -1.
         25    2    1    2    0    0 -0.29955008651E+01 -0.23199812251E+02 -0.80964158392E+03  0.81956680319E+03  0.12499218443E+03 0.  0.
          5    1    3    3  501    0  0.65372380827E+01 -0.61344721018E+02 -0.70644800197E+03  0.70913658753E+03  0.10000000000E+00 0. -1.
         -5    1    3    3    0  501 -0.95327389478E+01  0.38144908767E+02 -0.10319358195E+03  0.11043021567E+03  0.10000000000E+00 0. -1.
         21    1    1    2  504  502  0.29955008651E+01  0.23199812251E+02 -0.72734986731E+02  0.76404074555E+02  0.00000000000E+00 0. -1.
<mgrwt>
<rscale>  1 0.12716230E+03</rscale>
<asrwt>0</asrwt>
<pdfrwt beam="1">  1       21 0.10457162E-02 0.12716230E+03</pdfrwt>
<pdfrwt beam="2">  1       21 0.13679592E+00 0.12716230E+03</pdfrwt>
<totfact> 0.13366662E+06</totfact>
</mgrwt>
</event>
<event>
 6    1  0.4216855E-002  0.1338376E+03  0.7546771E-02  0.1221870E+00
         21   -1    0    0  504  502  0.00000000000E+00  0.00000000000E+00  0.16295196361E+03  0.16295196361E+03  0.00000000000E+00 0.  1.
         21   -1    0    0  502  503 -0.00000000000E+00 -0.00000000000E+00 -0.14921469894E+03  0.14921469894E+03  0.00000000000E+00 0. -1.
         25    2    1    2    0    0  0.42275401351E+02 -0.22356006392E+02 -0.11397651037E+03  0.17579287873E+03  0.12500196284E+03 0.  0.
          5    1    3    3  501    0 -0.18059774754E+02 -0.59542114185E+02 -0.62550878504E+02  0.88227213644E+02  0.10000000000E+00 0. -1.
         -5    1    3    3    0  501  0.60335176104E+02  0.37186107793E+02 -0.51425631866E+02  0.87565665082E+02  0.10000000000E+00 0. -1.
         21    1    1    2  504  503 -0.42275401351E+02  0.22356006392E+02  0.12771377504E+03  0.13637378383E+03  0.00000000000E+00 0.  1.
<mgrwt>
<rscale>  1 0.13383756E+03</rscale>
<asrwt>0</asrwt>
<pdfrwt beam="1">  1       21 0.25069533E-01 0.13383756E+03</pdfrwt>
<pdfrwt beam="2">  1       21 0.22956108E-01 0.13383756E+03</pdfrwt>
<totfact> 0.27195658E+05</totfact>
</mgrwt>
</event>
<event>
 6    1  0.4216855E-002  0.1342976E+03  0.7546771E-02  0.1221215E+00
         21   -1    0    0  504  502  0.00000000000E+00  0.00000000000E+00  0.35167731256E+02  0.35167731256E+02  0.00000000000E+00 0.  1.
         21   -1    0    0  502  503 -0.00000000000E+00 -0.00000000000E+00 -0.24595725173E+03  0.24595725173E+03  0.00000000000E+00 0.  1.
         25    2    1    2    0    0 -0.15463199552E+02 -0.46630050569E+02 -0.17373781207E+03  0.21959205479E+03  0.12498948367E+03 0.  0.
          5    1    3    3  501    0  0.41414841052E+02 -0.27316898627E+01 -0.12766040412E+03  0.13423799748E+03  0.10000000000E+00 0. -1.
         -5    1    3    3    0  501 -0.56878040604E+02 -0.43898360706E+02 -0.46077407953E+02  0.85354057311E+02  0.10000000000E+00 0. -1.
         21    1    1    2  504  503  0.15463199552E+02  0.46630050569E+02 -0.37051708406E+02  0.61532928195E+02  0.00000000000E+00 0. -1.
<mgrwt>
<rscale>  1 0.13429759E+03</rscale>
<asrwt>0</asrwt>
<pdfrwt beam="1">  1       21 0.54104203E-02 0.13429759E+03</pdfrwt>
<pdfrwt beam="2">  1       21 0.37839576E-01 0.13429759E+03</pdfrwt>
<totfact> 0.15812491E+06</totfact>
</mgrwt>
</event>
<event>
 6    1  0.4216855E-002  0.1266822E+03  0.7546771E-02  0.1232463E+00
         21   -1    0    0  503  502  0.00000000000E+00  0.00000000000E+00  0.52837128372E+03  0.52837128372E+03  0.00000000000E+00 0. -1.
         21   -1    0    0  504  503 -0.00000000000E+00 -0.00000000000E+00 -0.84690783281E+02  0.84690783281E+02  0.00000000000E+00 0. -1.
         25    2    1    2    0    0 -0.55726361712E+01  0.19814745999E+02 -0.36973501798E+02  0.13196753544E+03  0.12499884856E+03 0.  0.
          5    1    3    3  501    0  0.35612032537E+02  0.20818498593E+01 -0.68446264860E+02  0.77184532994E+02  0.10000000000E+00 0. -1.
         -5    1    3    3    0  501 -0.41184668708E+02  0.17732896139E+02  0.31472763063E+02  0.54783002445E+02  0.10000000000E+00 0. -1.
         21    1    1    2  504  502  0.55726361712E+01 -0.19814745999E+02  0.48065400224E+03  0.48109453156E+03  0.00000000000E+00 0. -1.
<mgrwt>
<rscale>  1 0.12668224E+03</rscale>
<asrwt>0</asrwt>
<pdfrwt beam="1">  1       21 0.81287888E-01 0.12668224E+03</pdfrwt>
<pdfrwt beam="2">  1       21 0.13029352E-01 0.12668224E+03</pdfrwt>
<totfact> 0.69252094E+04</totfact>
</mgrwt>
</event>
<event>
 6    1  0.4216855E-002  0.1677253E+03  0.7546771E-02  0.1180241E+00
         21   -1    0    0  503  502  0.00000000000E+00  0.00000000000E+00  0.74675908635E+03  0.74675908635E+03  0.00000000000E+00 0. -1.
         21   -1    0    0  504  503 -0.00000000000E+00 -0.00000000000E+00 -0.97144547767E+02  0.97144547767E+02  0.00000000000E+00 0. -1.
         25    2    1    2    0    0 -0.11048844010E+03  0.17303505464E+02 -0.16436572774E+02  0.16852878291E+03  0.12499873219E+03 0.  0.
          5    1    3    3  501    0  0.58963267862E+01  0.41111498933E+02 -0.26567228930E+02  0.49302633471E+02  0.10000000000E+00 0. -1.
         -5    1    3    3    0  501 -0.11638476689E+03 -0.23807993470E+02  0.10130656156E+02  0.11922614944E+03  0.10000000000E+00 0. -1.
         21    1    1    2  504  502  0.11048844010E+03 -0.17303505464E+02  0.66605111136E+03  0.67537485121E+03  0.00000000000E+00 0. -1.
<mgrwt>
<rscale>  1 0.16772534E+03</rscale>
<asrwt>0</asrwt>
<pdfrwt beam="1">  1       21 0.11488601E+00 0.16772534E+03</pdfrwt>
<pdfrwt beam="2">  1       21 0.14945316E-01 0.16772534E+03</pdfrwt>
<totfact> 0.23574362E+04</totfact>
</mgrwt>
</event>
<event>
 6    1  0.4216855E-002  0.1338255E+03  0.7546771E-02  0.1221887E+00
         21   -1    0    0  503  502  0.00000000000E+00  0.00000000000E+00  0.44736481069E+02  0.44736481069E+02  0.00000000000E+00 0.  1.
         21   -1    0    0  504  503 -0.00000000000E+00 -0.00000000000E+00 -0.29273147622E+03  0.29273147622E+03  0.00000000000E+00 0.  1.
         25    2    1    2    0    0  0.41720128224E+02  0.23231217274E+02 -0.25617149925E+03  0.28902093700E+03  0.12501602474E+03 0.  0.
          5    1    3    3  501    0 -0.37316181395E+02 -0.20503499580E+02 -0.98476545627E+02  0.10728714241E+03  0.10000000000E+00 0.  1.
         -5    1    3    3    0  501  0.79036309620E+02  0.43734716854E+02 -0.15769495363E+03  0.18173379459E+03  0.10000000000E+00 0.  1.
         21    1    1    2  504  502 -0.41720128224E+02 -0.23231217274E+02  0.81765041027E+01  0.48447020284E+02  0.00000000000E+00 0.  1.
<mgrwt>
<rscale>  1 0.13382550E+03</rscale>
<asrwt>0</asrwt>
<pdfrwt beam="1">  1       21 0.68825355E-02 0.13382550E+03</pdfrwt>
<pdfrwt beam="2">  1       21 0.45035612E-01 0.13382550E+03</pdfrwt>
<totfact> 0.74035290E+05</totfact>
</mgrwt>
</event>
<event>
 6    1  0.4216855E-002  0.1259246E+03  0.7546771E-02  0.1233631E+00
         21   -1    0    0  503  502  0.00000000000E+00  0.00000000000E+00  0.23534716437E+02  0.23534716437E+02  0.00000000000E+00 0.  1.
         21   -1    0    0  504  503 -0.00000000000E+00 -0.00000000000E+00 -0.25293137140E+03  0.25293137140E+03  0.00000000000E+00 0.  1.
         25    2    1    2    0    0  0.14357749697E+02 -0.45006815452E+01 -0.22908833591E+03  0.26141629809E+03  0.12502245457E+03 0.  0.
          5    1    3    3  501    0 -0.22539169696E+02 -0.49207934915E+02 -0.51899651592E+02  0.74986791267E+02  0.10000000000E+00 0. -1.
         -5    1    3    3    0  501  0.36896919393E+02  0.44707253370E+02 -0.17718868431E+03  0.18642950682E+03  0.10000000000E+00 0. -1.
         21    1    1    2  504  502 -0.14357749697E+02  0.45006815452E+01 -0.30831905188E+00  0.15049789745E+02  0.00000000000E+00 0. -1.
<mgrwt>
<rscale>  1 0.12592464E+03</rscale>
<asrwt>0</asrwt>
<pdfrwt beam="1">  1       21 0.36207257E-02 0.12592464E+03</pdfrwt>
<pdfrwt beam="2">  1       21 0.38912517E-01 0.12592464E+03</pdfrwt>
<totfact> 0.29201472E+06</totfact>
</mgrwt>
</event>
<event>
 6    1  0.4216855E-002  0.1340625E+03  0.7546771E-02  0.1221549E+00
         21   -1    0    0  504  502  0.00000000000E+00  0.00000000000E+00  0.11595174877E+03  0.11595174877E+03  0.00000000000E+00 0.  1.
         21   -1    0    0  502  503 -0.00000000000E+00 -0.00000000000E+00 -0.15463870708E+03  0.15463870708E+03  0.00000000000E+00 0.  1.
         25    2    1    2    0    0  0.23657753269E+01  0.48353644254E+02 -0.11738723031E+03  0.17819237893E+03  0.12501635999E+03 0.  0.
          5    1    3    3  501    0  0.47673796613E+02  0.69325672163E+02 -0.73538983339E+02  0.11174449326E+03  0.10000000000E+00 0.  1.
         -5    1    3    3    0  501 -0.45308021286E+02 -0.20972027908E+02 -0.43848246969E+02  0.66447885667E+02  0.10000000000E+00 0.  1.
         21    1    1    2  504  503 -0.23657753269E+01 -0.48353644254E+02  0.78700272003E+02  0.92398076922E+02  0.00000000000E+00 0.  1.
<mgrwt>
<rscale>  1 0.13406253E+03</rscale>
<asrwt>0</asrwt>
<pdfrwt beam="1">  1       21 0.17838731E-01 0.13406253E+03</pdfrwt>
<pdfrwt beam="2">  1       21 0.23790570E-01 0.13406253E+03</pdfrwt>
<totfact> 0.47902353E+05</totfact>
</mgrwt>
</event>
<event>
 6    1  0.4216855E-002  0.1261942E+03  0.7546771E-02  0.1233215E+00
         21   -1    0    0  503  502  0.00000000000E+00  0.00000000000E+00  0.10555667130E+02  0.10555667130E+02  0.00000000000E+00 0. -1.
         21   -1    0    0  504  503 -0.00000000000E+00 -0.00000000000E+00 -0.67877672222E+03  0.67877672222E+03  0.00000000000E+00 0. -1.
         25    2    1    2    0    0  0.17302643835E+02  0.14821111050E+01 -0.65616996205E+03  0.66819458009E+03  0.12499359834E+03 0.  0.
          5    1    3    3  501    0 -0.23964227322E+02 -0.39995659422E+02 -0.48630887267E+03  0.48853891002E+03  0.10000000000E+00 0.  1.
         -5    1    3    3    0  501  0.41266871157E+02  0.41477770527E+02 -0.16986108938E+03  0.17965567007E+03  0.10000000000E+00 0.  1.
         21    1    1    2  504  502 -0.17302643835E+02 -0.14821111050E+01 -0.12051093046E+02  0.21137809267E+02  0.00000000000E+00 0. -1.
<mgrwt>
<rscale>  1 0.12619421E+03</rscale>
<asrwt>0</asrwt>
<pdfrwt beam="1">  1       21 0.16239488E-02 0.12619421E+03</pdfrwt>
<pdfrwt beam="2">  1       21 0.10442719E+00 0.12619421E+03</pdfrwt>
<totfact> 0.12821175E+06</totfact>
</mgrwt>
</event>
<event>
 6    1  0.4216855E-002  0.1614939E+03  0.7546771E-02  0.1187020E+00
         21   -1    0    0  503  502  0.00000000000E+00  0.00000000000E+00  0.78687326964E+02  0.78687326964E+02  0.00000000000E+00 0. -1.
         21   -1    0    0  504  503 -0.00000000000E+00 -0.00000000000E+00 -0.52370947348E+03  0.52370947348E+03  0.00000000000E+00 0. -1.
         25    2    1    2    0    0 -0.10977110599E+02 -0.10164208168E+03 -0.47015667545E+03  0.49711928970E+03  0.12501471511E+03 0.  0.
          5    1    3    3  501    0  0.14661302910E+02  0.57404285655E+01 -0.17086727002E+01  0.15837799264E+02  0.10000000000E+00 0.  1.
         -5    1    3    3    0  501 -0.25638413510E+02 -0.10738251024E+03 -0.46844800275E+03  0.48128149043E+03  0.10000000000E+00 0.  1.
         21    1    1    2  504  502  0.10977110599E+02  0.10164208168E+03  0.25134528930E+02  0.10527751075E+03  0.00000000000E+00 0. -1.
<mgrwt>
<rscale>  1 0.16149393E+03</rscale>
<asrwt>0</asrwt>
<pdfrwt beam="1">  1       21 0.12105742E-01 0.16149393E+03</pdfrwt>
<pdfrwt beam="2">  1       21 0.80570690E-01 0.16149393E+03</pdfrwt>
<totfact> 0.79271898E+04</totfact>
</mgrwt>
</event>
<event>
 6    1  0.4216855E-002  0.1301206E+03  0.7546771E-02  0.1227277E+00
         21   -1    0    0  504  502  0.00000000000E+00  0.00000000000E+00  0.41365864629E+03  0.41365864629E+03  0.00000000000E+00 0.  1.
         21   -1    0    0  502  503 -0.00000000000E+00 -0.00000000000E+00 -0.19716733433E+02  0.19716733433E+02  0.00000000000E+00 0.  1.
         25    2    1    2    0    0  0.33943969126E+02 -0.12387643034E+02  0.21899187710E+03  0.25473282670E+03  0.12500289605E+03 0.  0.
          5    1    3    3  501    0  0.39596447641E+02 -0.55829912168E+02  0.19062839984E+03  0.20254395716E+03  0.10000000000E+00 0. -1.
         -5    1    3    3    0  501 -0.56524785150E+01  0.43442269135E+02  0.28363477261E+02  0.52188869534E+02  0.10000000000E+00 0. -1.
         21    1    1    2  504  503 -0.33943969126E+02  0.12387643034E+02  0.17495003576E+03  0.17864255302E+03  0.00000000000E+00 0.  1.
<mgrwt>
<rscale>  1 0.13012060E+03</rscale>
<asrwt>0</asrwt>
<pdfrwt beam="1">  1       21 0.63639786E-01 0.13012060E+03</pdfrwt>
<pdfrwt beam="2">  1       21 0.30333439E-02 0.13012060E+03</pdfrwt>
<totfact> 0.14174692E+06</totfact>
</mgrwt>
</event>
<event>
 6    1  0.4216855E-002  0.1424511E+03  0.7546771E-02  0.1210068E+00
         21   -1    0    0  504  502  0.00000000000E+00  0.00000000000E+00  0.20553329013E+03  0.20553329013E+03  0.00000000000E+00 0. -1.
         21   -1    0    0  502  503 -0.00000000000E+00 -0.00000000000E+00 -0.55484303869E+02  0.55484303869E+02  0.00000000000E+00 0. -1.
         25    2    1    2    0    0  0.58637662920E+02 -0.35039999804E+02  0.80911180235E+02  0.16382596205E+03  0.12500459854E+03 0.  0.
          5    1    3    3  501    0 -0.21084029748E+02  0.28618024480E+02  0.41036226665E+02  0.54290971021E+02  0.10000000000E+00 0.  1.
         -5    1    3    3    0  501  0.79721692667E+02 -0.63658024284E+02  0.39874953571E+02  0.10953499103E+03  0.10000000000E+00 0.  1.
         21    1    1    2  504  503 -0.58637662920E+02  0.35039999804E+02  0.69137806029E+02  0.97191631952E+02  0.00000000000E+00 0. -1.
<mgrwt>
<rscale>  1 0.14245114E+03</rscale>
<asrwt>0</asrwt>
<pdfrwt beam="1">  1       21 0.31620506E-01 0.14245114E+03</pdfrwt>
<pdfrwt beam="2">  1       21 0.85360469E-02 0.14245114E+03</pdfrwt>
<totfact> 0.10320921E+06</totfact>
</mgrwt>
</event>
<event>
 6    1  0.4216855E-002  0.1263849E+03  0.7546771E-02  0.1232921E+00
         21   -1    0    0  503  502  0.00000000000E+00  0.00000000000E+00  0.16789948747E+03  0.16789948747E+03  0.00000000000E+00 0.  1.
         21   -1    0    0  504  503 -0.00000000000E+00 -0.00000000000E+00 -0.34444071921E+02  0.34444071921E+02  0.00000000000E+00 0.  1.
         25    2    1    2    0    0 -0.15365819912E+02  0.10830973024E+02  0.90473992115E+02  0.15543064903E+03  0.12497889826E+03 0.  0.
          5    1    3    3  501    0  0.15656483996E+02  0.56011080958E+02  0.81149019728E+02  0.99837568500E+02  0.10000000000E+00 0. -1.
         -5    1    3    3    0  501 -0.31022303908E+02 -0.45180107934E+02  0.93249723870E+01  0.55593080529E+02  0.10000000000E+00 0. -1.
         21    1    1    2  504  502  0.15365819912E+02 -0.10830973024E+02  0.42981423439E+02  0.46912910366E+02  0.00000000000E+00 0.  1.
<mgrwt>
<rscale>  1 0.12638490E+03</rscale>
<asrwt>0</asrwt>
<pdfrwt beam="1">  1       21 0.25830690E-01 0.12638490E+03</pdfrwt>
<pdfrwt beam="2">  1       21 0.52990881E-02 0.12638490E+03</pdfrwt>
<totfact> 0.34275726E+06</totfact>
</mgrwt>
</event>
<event>
 6    1  0.4216855E-002  0.1594301E+03  0.7546771E-02  0.1189342E+00
         21   -1    0    0  503  502  0.00000000000E+00  0.00000000000E+00  0.41891943930E+02  0.41891943930E+02  0.00000000000E+00 0.  1.
         21   -1    0    0  504  503 -0.00000000000E+00 -0.00000000000E+00 -0.40543612495E+03  0.40543612495E+03  0.00000000000E+00 0.  1.
         25    2    1    2    0    0  0.92983093963E+02 -0.33864293880E+02 -0.19498238876E+03  0.25186522337E+03  0.12500125062E+03 0.  0.
          5    1    3    3  501    0 -0.30324868416E+02  0.10287726580E+01 -0.48804575128E+02  0.57467839450E+02  0.10000000000E+00 0. -1.
         -5    1    3    3    0  501  0.12330796238E+03 -0.34893066538E+02 -0.14617781363E+03  0.19439738392E+03  0.10000000000E+00 0. -1.
         21    1    1    2  504  502 -0.92983093963E+02  0.33864293880E+02 -0.16856179226E+03  0.19546284550E+03  0.00000000000E+00 0.  1.
<mgrwt>
<rscale>  1 0.15943011E+03</rscale>
<asrwt>0</asrwt>
<pdfrwt beam="1">  1       21 0.64449142E-02 0.15943011E+03</pdfrwt>
<pdfrwt beam="2">  1       21 0.62374790E-01 0.15943011E+03</pdfrwt>
<totfact> 0.41855324E+05</totfact>
</mgrwt>
</event>
<event>
 6    1  0.4216855E-002  0.1269085E+03  0.7546771E-02  0.1232116E+00
         21   -1    0    0  503  502  0.00000000000E+00  0.00000000000E+00  0.29694493069E+02  0.29694493069E+02  0.00000000000E+00 0. -1.
         21   -1    0    0  504  503 -0.00000000000E+00 -0.00000000000E+00 -0.22264472722E+03  0.22264472722E+03  0.00000000000E+00 0. -1.
         25    2    1    2    0    0  0.73671371780E+01 -0.20647289112E+02 -0.19230668566E+03  0.23040752149E+03  0.12500071740E+03 0.  0.
          5    1    3    3  501    0  0.59065028524E+02 -0.18915556853E+02 -0.15406370369E+03  0.16607862801E+03  0.10000000000E+00 0. -1.
         -5    1    3    3    0  501 -0.51697891346E+02 -0.17317322584E+01 -0.38242981969E+02  0.64328893478E+02  0.10000000000E+00 0. -1.
         21    1    1    2  504  502 -0.73671371780E+01  0.20647289112E+02 -0.64354849442E+00  0.21931698806E+02  0.00000000000E+00 0. -1.
<mgrwt>
<rscale>  1 0.12690849E+03</rscale>
<asrwt>0</asrwt>
<pdfrwt beam="1">  1       21 0.45683835E-02 0.12690849E+03</pdfrwt>
<pdfrwt beam="2">  1       21 0.34253035E-01 0.12690849E+03</pdfrwt>
<totfact> 0.25530512E+06</totfact>
</mgrwt>
</event>
<event>
 6    1  0.4216855E-002  0.1373930E+03  0.7546771E-02  0.1216881E+00
         21   -1    0    0  504  502  0.00000000000E+00  0.00000000000E+00  0.19076629841E+02  0.19076629841E+02  0.00000000000E+00 0.  1.
         21   -1    0    0  502  503 -0.00000000000E+00 -0.00000000000E+00 -0.84042093559E+03  0.84042093559E+03  0.00000000000E+00 0. -1.
         25    2    1    2    0    0  0.54084404858E+02  0.18069603625E+02 -0.77187289403E+03  0.78400548636E+03  0.12500081876E+03 0.  0.
          5    1    3    3  501    0 -0.37109200864E+02  0.71202937737E+01 -0.12326478604E+03  0.12892636988E+03  0.10000000000E+00 0. -1.
         -5    1    3    3    0  501  0.91193605722E+02  0.10949309852E+02 -0.64860810798E+03  0.65507911648E+03  0.10000000000E+00 0. -1.
         21    1    1    2  504  503 -0.54084404858E+02 -0.18069603625E+02 -0.49471411720E+02  0.75492079065E+02  0.00000000000E+00 0.  1.
<mgrwt>
<rscale>  1 0.13739301E+03</rscale>
<asrwt>0</asrwt>
<pdfrwt beam="1">  1       21 0.29348663E-02 0.13739301E+03</pdfrwt>
<pdfrwt beam="2">  1       21 0.12929552E+00 0.13739301E+03</pdfrwt>
<totfact> 0.29247559E+05</totfact>
</mgrwt>
</event>
<event>
 6    1  0.4216855E-002  0.1544771E+03  0.7546771E-02  0.1195077E+00
         21   -1    0    0  504  502  0.00000000000E+00  0.00000000000E+00  0.13455044398E+03  0.13455044398E+03  0.00000000000E+00 0. -1.
         21   -1    0    0  502  503 -0.00000000000E+00 -0.00000000000E+00 -0.24056867564E+03  0.24056867564E+03  0.00000000000E+00 0. -1.
         25    2    1    2    0    0  0.17209703184E+02 -0.89220288137E+02 -0.19443858632E+03  0.24833350208E+03  0.12492690145E+03 0.  0.
          5    1    3    3  501    0  0.13642034324E+02 -0.10116364193E+03 -0.71179341593E+02  0.12444555524E+03  0.10000000000E+00 0. -1.
         -5    1    3    3    0  501  0.35676688598E+01  0.11943353797E+02 -0.12325924472E+03  0.12388794683E+03  0.10000000000E+00 0. -1.
         21    1    1    2  504  503 -0.17209703184E+02  0.89220288137E+02  0.88420354652E+02  0.12678561754E+03  0.00000000000E+00 0. -1.
<mgrwt>
<rscale>  1 0.15447707E+03</rscale>
<asrwt>0</asrwt>
<pdfrwt beam="1">  1       21 0.20700069E-01 0.15447707E+03</pdfrwt>
<pdfrwt beam="2">  1       21 0.37010565E-01 0.15447707E+03</pdfrwt>
<totfact> 0.15429455E+05</totfact>
</mgrwt>
</event>
<event>
 6    1  0.4216855E-002  0.1273694E+03  0.7546771E-02  0.1231412E+00
         21   -1    0    0  503  502  0.00000000000E+00  0.00000000000E+00  0.13639533298E+03  0.13639533298E+03  0.00000000000E+00 0.  1.
         21   -1    0    0  504  503 -0.00000000000E+00 -0.00000000000E+00 -0.47460753479E+02  0.47460753479E+02  0.00000000000E+00 0.  1.
         25    2    1    2    0    0 -0.19710010735E+02 -0.14517726104E+02  0.47908135224E+02  0.13608142765E+03  0.12499486644E+03 0.  0.
          5    1    3    3  501    0  0.35492226064E+02  0.27144190676E+02 -0.10106644816E+02  0.45811128210E+02  0.10000000000E+00 0.  1.
         -5    1    3    3    0  501 -0.55202236799E+02 -0.41661916781E+02  0.58014780040E+02  0.90270299438E+02  0.10000000000E+00 0.  1.
         21    1    1    2  504  502  0.19710010735E+02  0.14517726104E+02  0.41026444276E+02  0.47774658810E+02  0.00000000000E+00 0.  1.
<mgrwt>
<rscale>  1 0.12736941E+03</rscale>
<asrwt>0</asrwt>
<pdfrwt beam="1">  1       21 0.20983897E-01 0.12736941E+03</pdfrwt>
<pdfrwt beam="2">  1       21 0.73016544E-02 0.12736941E+03</pdfrwt>
<totfact> 0.29370134E+06</totfact>
</mgrwt>
</event>
<event>
 6    1  0.4216855E-002  0.1280302E+03  0.7546771E-02  0.1230408E+00
         21   -1    0    0  504  502  0.00000000000E+00  0.00000000000E+00  0.24754527752E+03  0.24754527752E+03  0.00000000000E+00 0. -1.
         21   -1    0    0  502  503 -0.00000000000E+00 -0.00000000000E+00 -0.24568096703E+02  0.24568096703E+02  0.00000000000E+00 0. -1.
         25    2    1    2    0    0  0.26687145736E+02  0.73192402191E+01  0.17699996533E+03  0.21845073015E+03  0.12500383495E+03 0.  0.
          5    1    3    3  501    0  0.18127066598E+02 -0.30477154546E+02 -0.17930437736E+01  0.35505950186E+02  0.10000000000E+00 0. -1.
         -5    1    3    3    0  501  0.85600791387E+01  0.37796394765E+02  0.17879300910E+03  0.18294477996E+03  0.10000000000E+00 0. -1.
         21    1    1    2  504  503 -0.26687145736E+02 -0.73192402191E+01  0.45977215491E+02  0.53662644076E+02  0.00000000000E+00 0. -1.
<mgrwt>
<rscale>  1 0.12803021E+03</rscale>
<asrwt>0</asrwt>
<pdfrwt beam="1">  1       21 0.38083887E-01 0.12803021E+03</pdfrwt>
<pdfrwt beam="2">  1       21 0.37797074E-02 0.12803021E+03</pdfrwt>
<totfact> 0.28402343E+06</totfact>
</mgrwt>
</event>
<event>
 6    1  0.4216855E-002  0.1265666E+03  0.7546771E-02  0.1232641E+00
         21   -1    0    0  503  502  0.00000000000E+00  0.00000000000E+00  0.14485782809E+02  0.14485782809E+02  0.00000000000E+00 0. -1.
         21   -1    0    0  504  503 -0.00000000000E+00 -0.00000000000E+00 -0.47007381656E+03  0.47007381656E+03  0.00000000000E+00 0. -1.
         25    2    1    2    0    0  0.14542618813E+02 -0.13494662989E+02 -0.44377254344E+03  0.46146848630E+03  0.12500199939E+03 0.  0.
          5    1    3    3  501    0  0.18335644916E+02  0.13963542252E+02 -0.42981707030E+03  0.43043454822E+03  0.10000000000E+00 0. -1.
         -5    1    3    3    0  501 -0.37930261031E+01 -0.27458205241E+02 -0.13955473142E+02  0.31033938080E+02  0.10000000000E+00 0. -1.
         21    1    1    2  504  502 -0.14542618813E+02  0.13494662989E+02 -0.11815490307E+02  0.23091113060E+02  0.00000000000E+00 0. -1.
<mgrwt>
<rscale>  1 0.12656656E+03</rscale>
<asrwt>0</asrwt>
<pdfrwt beam="1">  1       21 0.22285821E-02 0.12656656E+03</pdfrwt>
<pdfrwt beam="2">  1       21 0.72319045E-01 0.12656656E+03</pdfrwt>
<totfact> 0.17749984E+06</totfact>
</mgrwt>
</event>
<event>
 6    1  0.4216855E-002  0.1260279E+03  0.7546771E-02  0.1233472E+00
         21   -1    0    0  503  502  0.00000000000E+00  0.00000000000E+00  0.11084857350E+02  0.11084857350E+02  0.00000000000E+00 0. -1.
         21   -1    0    0  504  503 -0.00000000000E+00 -0.00000000000E+00 -0.54032538374E+03  0.54032538374E+03  0.00000000000E+00 0. -1.
         25    2    1    2    0    0 -0.13937159323E+02 -0.80440655529E+01 -0.51407630142E+03  0.52929904213E+03  0.12499632360E+03 0.  0.
          5    1    3    3  501    0 -0.52992928370E+01 -0.55166264338E+02 -0.11834914978E+03  0.13068255614E+03  0.10000000000E+00 0.  1.
         -5    1    3    3    0  501 -0.86378664857E+01  0.47122198785E+02 -0.39572715164E+03  0.39861648598E+03  0.10000000000E+00 0.  1.
         21    1    1    2  504  502  0.13937159323E+02  0.80440655529E+01 -0.15164224965E+02  0.22111198959E+02  0.00000000000E+00 0. -1.
<mgrwt>
<rscale>  1 0.12602790E+03</rscale>
<asrwt>0</asrwt>
<pdfrwt beam="1">  1       21 0.17053628E-02 0.12602790E+03</pdfrwt>
<pdfrwt beam="2">  1       21 0.83126976E-01 0.12602790E+03</pdfrwt>
<totfact> 0.20050932E+06</totfact>
</mgrwt>
</event>
<event>
 6    1  0.4216855E-002  0.1354377E+03  0.7546771E-02  0.1219603E+00
         21   -1    0    0  503  502  0.00000000000E+00  0.00000000000E+00  0.73458780453E+02  0.73458780453E+02  0.00000000000E+00 0. -1.
         21   -1    0    0  504  503 -0.00000000000E+00 -0.00000000000E+00 -0.12029590929E+03  0.12029590929E+03  0.00000000000E+00 0. -1.
         25    2    1    2    0    0 -0.35152585331E+02  0.38524171153E+02 -0.39564197043E+02  0.14109814641E+03  0.12499418072E+03 0.  0.
          5    1    3    3  501    0 -0.30344178434E+02 -0.43261453116E+02 -0.22391105230E+02  0.57390714267E+02  0.10000000000E+00 0. -1.
         -5    1    3    3    0  501 -0.48084068969E+01  0.81785624269E+02 -0.17173091813E+02  0.83707432146E+02  0.10000000000E+00 0. -1.
         21    1    1    2  504  502  0.35152585331E+02 -0.38524171153E+02 -0.72729317930E+01  0.52656543329E+02  0.00000000000E+00 0. -1.
<mgrwt>
<rscale>  1 0.13543767E+03</rscale>
<asrwt>0</asrwt>
<pdfrwt beam="1">  1       21 0.11301351E-01 0.13543767E+03</pdfrwt>
<pdfrwt beam="2">  1       21 0.18507063E-01 0.13543767E+03</pdfrwt>
<totfact> 0.17357811E+06</totfact>
</mgrwt>
</event>
<event>
 6    1  0.4216855E-002  0.1336048E+03  0.7546771E-02  0.1222203E+00
         21   -1    0    0  503  502  0.00000000000E+00  0.00000000000E+00  0.11909213793E+04  0.11909213793E+04  0.00000000000E+00 0.  1.
         21   -1    0    0  504  503 -0.00000000000E+00 -0.00000000000E+00 -0.70518941841E+01  0.70518941841E+01  0.00000000000E+00 0.  1.
         25    2    1    2    0    0 -0.47070170693E+02 -0.34687439203E+01  0.78059047009E+03  0.79194175117E+03  0.12499048802E+03 0.  0.
          5    1    3    3  501    0  0.27463700897E+02  0.36405820959E+02  0.36532702807E+03  0.36816230945E+03  0.10000000000E+00 0.  1.
         -5    1    3    3    0  501 -0.74533871590E+02 -0.39874564880E+02  0.41526344203E+03  0.42377944172E+03  0.10000000000E+00 0.  1.
         21    1    1    2  504  502  0.47070170693E+02  0.34687439203E+01  0.40327901499E+03  0.40603152228E+03  0.00000000000E+00 0.  1.
<mgrwt>
<rscale>  1 0.13360485E+03</rscale>
<asrwt>0</asrwt>
<pdfrwt beam="1">  1       21 0.18321851E+00 0.13360485E+03</pdfrwt>
<pdfrwt beam="2">  1       21 0.10849077E-02 0.13360485E+03</pdfrwt>
<totfact> 0.58150097E+05</totfact>
</mgrwt>
</event>
<event>
 6    1  0.4216855E-002  0.1299631E+03  0.7546771E-02  0.1227510E+00
         21   -1    0    0  504  502  0.00000000000E+00  0.00000000000E+00  0.42294381621E+03  0.42294381621E+03  0.00000000000E+00 0. -1.
         21   -1    0    0  502  503 -0.00000000000E+00 -0.00000000000E+00 -0.23715192841E+02  0.23715192841E+02  0.00000000000E+00 0. -1.
         25    2    1    2    0    0  0.16293697493E+02  0.31567512861E+02  0.16641222568E+03  0.21114793186E+03  0.12501371056E+03 0.  0.
          5    1    3    3  501    0  0.46213764475E+02 -0.28506510528E+02  0.11302258746E+03  0.12538918791E+03  0.10000000000E+00 0. -1.
         -5    1    3    3    0  501 -0.29920066982E+02  0.60074023389E+02  0.53389638224E+02  0.85758743951E+02  0.10000000000E+00 0. -1.
         21    1    1    2  504  503 -0.16293697493E+02 -0.31567512861E+02  0.23281639769E+03  0.23551107719E+03  0.00000000000E+00 0. -1.
<mgrwt>
<rscale>  1 0.12996315E+03</rscale>
<asrwt>0</asrwt>
<pdfrwt beam="1">  1       21 0.65068274E-01 0.12996315E+03</pdfrwt>
<pdfrwt beam="2">  1       21 0.36484915E-02 0.12996315E+03</pdfrwt>
<totfact> 0.99689343E+05</totfact>
</mgrwt>
</event>
<event>
 6    1  0.4216855E-002  0.1261449E+03  0.7546771E-02  0.1233291E+00
         21   -1    0    0  503  502  0.00000000000E+00  0.00000000000E+00  0.49237200173E+02  0.49237200173E+02  0.00000000000E+00 0. -1.
         21   -1    0    0  504  503 -0.00000000000E+00 -0.00000000000E+00 -0.13935986933E+03  0.13935986933E+03  0.00000000000E+00 0. -1.
         25    2    1    2    0    0  0.16944375312E+02 -0.28626309591E-01 -0.10645627285E+03  0.16506200452E+03  0.12500165852E+03 0.  0.
          5    1    3    3  501    0 -0.17154272015E+02 -0.57101791434E+02 -0.52364678312E+02  0.79353343774E+02  0.10000000000E+00 0.  1.
         -5    1    3    3    0  501  0.34098647327E+02  0.57073165125E+02 -0.54091594542E+02  0.85708660747E+02  0.10000000000E+00 0.  1.
         21    1    1    2  504  502 -0.16944375312E+02  0.28626309591E-01  0.16333603694E+02  0.23535064985E+02  0.00000000000E+00 0. -1.
<mgrwt>
<rscale>  1 0.12614487E+03</rscale>
<asrwt>0</asrwt>
<pdfrwt beam="1">  1       21 0.75749539E-02 0.12614487E+03</pdfrwt>
<pdfrwt beam="2">  1       21 0.21439980E-01 0.12614487E+03</pdfrwt>
<totfact> 0.26485860E+06</totfact>
</mgrwt>
</event>
<event>
 6    1  0.4216855E-002  0.1275138E+03  0.7546771E-02  0.1231192E+00
         21   -1    0    0  504  502  0.00000000000E+00  0.00000000000E+00  0.14259152001E+03  0.14259152001E+03  0.00000000000E+00 0. -1.
         21   -1    0    0  502  503 -0.00000000000E+00 -0.00000000000E+00 -0.18975039169E+03  0.18975039169E+03  0.00000000000E+00 0.  1.
         25    2    1    2    0    0 -0.16032321256E+02  0.19418324600E+02 -0.16686898443E+03  0.21001195727E+03  0.12500263028E+03 0.  0.
          5    1    3    3  501    0  0.16906614031E+02 -0.30461024784E+02 -0.22891890850E+01  0.34913579243E+02  0.10000000000E+00 0. -1.
         -5    1    3    3    0  501 -0.32938935287E+02  0.49879349384E+02 -0.16457979534E+03  0.17509837803E+03  0.10000000000E+00 0. -1.
         21    1    1    2  504  503  0.16032321256E+02 -0.19418324600E+02  0.11971011275E+03  0.12232995442E+03  0.00000000000E+00 0. -1.
<mgrwt>
<rscale>  1 0.12751378E+03</rscale>
<asrwt>0</asrwt>
<pdfrwt beam="1">  1       21 0.21937157E-01 0.12751378E+03</pdfrwt>
<pdfrwt beam="2">  1       21 0.29192368E-01 0.12751378E+03</pdfrwt>
<totfact> 0.22175121E+05</totfact>
</mgrwt>
</event>
<event>
 6    1  0.4216855E-002  0.2072469E+03  0.7546771E-02  0.1143765E+00
         21   -1    0    0  504  502  0.00000000000E+00  0.00000000000E+00  0.10458393083E+03  0.10458393083E+03  0.00000000000E+00 0.  1.
         21   -1    0    0  502  503 -0.00000000000E+00 -0.00000000000E+00 -0.63747525064E+03  0.63747525064E+03  0.00000000000E+00 0.  1.
         25    2    1    2    0    0  0.15107209167E+03  0.67058740352E+02 -0.53816210148E+03  0.57668858953E+03  0.12502651832E+03 0.  0.
          5    1    3    3  501    0 -0.71104971742E+01 -0.74320209657E+00  0.37719215089E+01  0.80838673473E+01  0.10000000000E+00 0.  1.
         -5    1    3    3    0  501  0.15818258885E+03  0.67801942449E+02 -0.54193402299E+03  0.56860472219E+03  0.10000000000E+00 0.  1.
         21    1    1    2  504  503 -0.15107209167E+03 -0.67058740352E+02  0.52707816764E+01  0.16537059194E+03  0.00000000000E+00 0.  1.
<mgrwt>
<rscale>  1 0.20724691E+03</rscale>
<asrwt>0</asrwt>
<pdfrwt beam="1">  1       21 0.16089836E-01 0.20724691E+03</pdfrwt>
<pdfrwt beam="2">  1       21 0.98073115E-01 0.20724691E+03</pdfrwt>
<totfact> 0.29420591E+04</totfact>
</mgrwt>
</event>
<event>
 6    1  0.4216855E-002  0.1382455E+03  0.7546771E-02  0.1215710E+00
         21   -1    0    0  503  502  0.00000000000E+00  0.00000000000E+00  0.49131926104E+01  0.49131926104E+01  0.00000000000E+00 0.  1.
         21   -1    0    0  504  503 -0.00000000000E+00 -0.00000000000E+00 -0.19970544969E+04  0.19970544969E+04  0.00000000000E+00 0.  1.
         25    2    1    2    0    0  0.28892368253E+02  0.51499257348E+02 -0.14757259887E+04  0.14821872353E+04  0.12499945671E+03 0.  0.
          5    1    3    3  501    0 -0.43267343757E+02  0.13231461776E+02 -0.84266170397E+03  0.84387551922E+03  0.10000000000E+00 0.  1.
         -5    1    3    3    0  501  0.72159712010E+02  0.38267795572E+02 -0.63306428476E+03  0.63831171606E+03  0.10000000000E+00 0.  1.
         21    1    1    2  504  502 -0.28892368253E+02 -0.51499257348E+02 -0.51641531561E+03  0.51978045427E+03  0.00000000000E+00 0.  1.
<mgrwt>
<rscale>  1 0.13824546E+03</rscale>
<asrwt>0</asrwt>
<pdfrwt beam="1">  1       21 0.75587474E-03 0.13824546E+03</pdfrwt>
<pdfrwt beam="2">  1       21 0.30723958E+00 0.13824546E+03</pdfrwt>
<totfact> 0.18977235E+05</totfact>
</mgrwt>
</event>
<event>
 6    1  0.4216855E-002  0.1268177E+03  0.7546771E-02  0.1232256E+00
         21   -1    0    0  504  502  0.00000000000E+00  0.00000000000E+00  0.23574500146E+03  0.23574500146E+03  0.00000000000E+00 0. -1.
         21   -1    0    0  502  503 -0.00000000000E+00 -0.00000000000E+00 -0.23305347840E+02  0.23305347840E+02  0.00000000000E+00 0. -1.
         25    2    1    2    0    0  0.19367170237E+02  0.90700352560E+01  0.17959680349E+03  0.21985844163E+03  0.12500147882E+03 0.  0.
          5    1    3    3  501    0  0.22165825550E+02 -0.52442473733E+02  0.47621753429E+02  0.74225186246E+02  0.10000000000E+00 0.  1.
         -5    1    3    3    0  501 -0.27986553130E+01  0.61512508989E+02  0.13197505006E+03  0.14563325538E+03  0.10000000000E+00 0.  1.
         21    1    1    2  504  503 -0.19367170237E+02 -0.90700352560E+01  0.32842850129E+02  0.39191907674E+02  0.00000000000E+00 0. -1.
<mgrwt>
<rscale>  1 0.12681767E+03</rscale>
<asrwt>0</asrwt>
<pdfrwt beam="1">  1       21 0.36268460E-01 0.12681767E+03</pdfrwt>
<pdfrwt beam="2">  1       21 0.35854383E-02 0.12681767E+03</pdfrwt>
<totfact> 0.34125459E+06</totfact>
</mgrwt>
</event>
<event>
 6    1  0.4216855E-002  0.1349700E+03  0.7546771E-02  0.1220262E+00
         21   -1    0    0  504  502  0.00000000000E+00  0.00000000000E+00  0.28694669305E+03  0.28694669305E+03  0.00000000000E+00 0.  1.
         21   -1    0    0  502  503 -0.00000000000E+00 -0.00000000000E+00 -0.33254090857E+02  0.33254090857E+02  0.00000000000E+00 0.  1.
         25    2    1    2    0    0  0.23693551091E+01 -0.50900979112E+02  0.13436690012E+03  0.19045045947E+03  0.12498155921E+03 0.  0.
          5    1    3    3  501    0  0.59188032873E+02 -0.56911245058E+01  0.41243924184E+02  0.72364932223E+02  0.10000000000E+00 0. -1.
         -5    1    3    3    0  501 -0.56818677764E+02 -0.45209854607E+02  0.93122975939E+02  0.11808552724E+03  0.10000000000E+00 0. -1.
         21    1    1    2  504  503 -0.23693551091E+01  0.50900979112E+02  0.11932570207E+03  0.12975032444E+03  0.00000000000E+00 0.  1.
<mgrwt>
<rscale>  1 0.13497005E+03</rscale>
<asrwt>0</asrwt>
<pdfrwt beam="1">  1       21 0.44145643E-01 0.13497005E+03</pdfrwt>
<pdfrwt beam="2">  1       21 0.51160142E-02 0.13497005E+03</pdfrwt>
<totfact> 0.12752835E+06</totfact>
</mgrwt>
</event>
<event>
 6    1  0.4216855E-002  0.1374507E+03  0.7546771E-02  0.1216801E+00
         21   -1    0    0  503  502  0.00000000000E+00  0.00000000000E+00  0.40312895985E+02  0.40312895985E+02  0.00000000000E+00 0. -1.
         21   -1    0    0  504  503 -0.00000000000E+00 -0.00000000000E+00 -0.24289531266E+03  0.24289531266E+03  0.00000000000E+00 0. -1.
         25    2    1    2    0    0  0.88120281573E+01 -0.56478838653E+02 -0.11818293234E+03  0.18127301349E+03  0.12500075546E+03 0.  0.
          5    1    3    3  501    0 -0.41621979247E+02  0.17602778410E+02 -0.23629250725E+02  0.50996063122E+02  0.10000000000E+00 0.  1.
         -5    1    3    3    0  501  0.50434007404E+02 -0.74081617063E+02 -0.94553681617E+02  0.13027695037E+03  0.10000000000E+00 0.  1.
         21    1    1    2  504  502 -0.88120281573E+01  0.56478838653E+02 -0.84399484328E+02  0.10193519515E+03  0.00000000000E+00 0. -1.
<mgrwt>
<rscale>  1 0.13745072E+03</rscale>
<asrwt>0</asrwt>
<pdfrwt beam="1">  1       21 0.62019841E-02 0.13745072E+03</pdfrwt>
<pdfrwt beam="2">  1       21 0.37368509E-01 0.13745072E+03</pdfrwt>
<totfact> 0.12866046E+06</totfact>
</mgrwt>
</event>
<event>
 6    1  0.4216855E-002  0.1301123E+03  0.7546771E-02  0.1227289E+00
         21   -1    0    0  504  502  0.00000000000E+00  0.00000000000E+00  0.11760205885E+03  0.11760205885E+03  0.00000000000E+00 0. -1.
         21   -1    0    0  502  503 -0.00000000000E+00 -0.00000000000E+00 -0.79791488881E+03  0.79791488881E+03  0.00000000000E+00 0. -1.
         25    2    1    2    0    0  0.35162278489E+02  0.82443653479E+01 -0.78968701948E+03  0.80033418541E+03  0.12499945687E+03 0.  0.
          5    1    3    3  501    0 -0.17237554084E+02 -0.49155304897E+02 -0.29054524779E+03  0.29517779097E+03  0.10000000000E+00 0.  1.
         -5    1    3    3    0  501  0.52399832573E+02  0.57399670245E+02 -0.49914177169E+03  0.50515639444E+03  0.10000000000E+00 0.  1.
         21    1    1    2  504  503 -0.35162278489E+02 -0.82443653479E+01  0.10937418951E+03  0.11518276225E+03  0.00000000000E+00 0. -1.
<mgrwt>
<rscale>  1 0.13011233E+03</rscale>
<asrwt>0</asrwt>
<pdfrwt beam="1">  1       21 0.18092625E-01 0.13011233E+03</pdfrwt>
<pdfrwt beam="2">  1       21 0.12275613E+00 0.13011233E+03</pdfrwt>
<totfact> 0.14547406E+04</totfact>
</mgrwt>
</event>
<event>
 6    1  0.4216855E-002  0.1292915E+03  0.7546771E-02  0.1228511E+00
         21   -1    0    0  504  502  0.00000000000E+00  0.00000000000E+00  0.80116276773E+01  0.80116276773E+01  0.00000000000E+00 0.  1.
         21   -1    0    0  502  503 -0.00000000000E+00 -0.00000000000E+00 -0.91553003795E+03  0.91553003795E+03  0.00000000000E+00 0.  1.
         25    2    1    2    0    0  0.19378110605E+02 -0.26767720579E+02 -0.81726382618E+03  0.82742760846E+03  0.12499705445E+03 0.  0.
          5    1    3    3  501    0  0.63402103257E+02  0.16431324475E+02 -0.34599333276E+03  0.35213805735E+03  0.10000000000E+00 0.  1.
         -5    1    3    3    0  501 -0.44023992652E+02 -0.43199045054E+02 -0.47127049343E+03  0.47528955111E+03  0.10000000000E+00 0.  1.
         21    1    1    2  504  503 -0.19378110605E+02  0.26767720579E+02 -0.90254584089E+02  0.96114057165E+02  0.00000000000E+00 0.  1.
<mgrwt>
<rscale>  1 0.12929148E+03</rscale>
<asrwt>0</asrwt>
<pdfrwt beam="1">  1       21 0.12325581E-02 0.12929148E+03</pdfrwt>
<pdfrwt beam="2">  1       21 0.14085077E+00 0.12929148E+03</pdfrwt>
<totfact> 0.95676542E+05</totfact>
</mgrwt>
</event>
<event>
 6    1  0.4216855E-002  0.1273393E+03  0.7546771E-02  0.1231458E+00
         21   -1    0    0  504  502  0.00000000000E+00  0.00000000000E+00  0.27293008780E+02  0.27293008780E+02  0.00000000000E+00 0.  1.
         21   -1    0    0  502  503 -0.00000000000E+00 -0.00000000000E+00 -0.24220196880E+03  0.24220196880E+03  0.00000000000E+00 0.  1.
         25    2    1    2    0    0 -0.13414035164E+02 -0.20190590941E+02 -0.20868507811E+03  0.24446833162E+03  0.12501082769E+03 0.  0.
          5    1    3    3  501    0  0.45743211106E+02 -0.41370818561E+02 -0.12903200899E+03  0.14301487801E+03  0.10000000000E+00 0.  1.
         -5    1    3    3    0  501 -0.59157246271E+02  0.21180227620E+02 -0.79653069125E+02  0.10145345361E+03  0.10000000000E+00 0.  1.
         21    1    1    2  504  503  0.13414035164E+02  0.20190590941E+02 -0.62238819133E+01  0.25026645960E+02  0.00000000000E+00 0. -1.
<mgrwt>
<rscale>  1 0.12733932E+03</rscale>
<asrwt>0</asrwt>
<pdfrwt beam="1">  1       21 0.41989244E-02 0.12733932E+03</pdfrwt>
<pdfrwt beam="2">  1       21 0.37261842E-01 0.12733932E+03</pdfrwt>
<totfact> 0.24901014E+06</totfact>
</mgrwt>
</event>
<event>
 6    1  0.4216855E-002  0.1260923E+03  0.7546771E-02  0.1233372E+00
         21   -1    0    0  504  502  0.00000000000E+00  0.00000000000E+00  0.61807915018E+02  0.61807915018E+02  0.00000000000E+00 0.  1.
         21   -1    0    0  502  503 -0.00000000000E+00 -0.00000000000E+00 -0.85931767952E+02  0.85931767952E+02  0.00000000000E+00 0.  1.
         25    2    1    2    0    0 -0.98018030790E+01 -0.13298566554E+02 -0.30997086386E+02  0.12984642854E+03  0.12500539358E+03 0.  0.
          5    1    3    3  501    0 -0.32665294452E+02 -0.27617712444E+02  0.37085569437E+02  0.56613681763E+02  0.10000000000E+00 0. -1.
         -5    1    3    3    0  501  0.22863491373E+02  0.14319145890E+02 -0.68082655823E+02  0.73232746778E+02  0.10000000000E+00 0. -1.
         21    1    1    2  504  503  0.98018030790E+01  0.13298566554E+02  0.68732334519E+01  0.17893254429E+02  0.00000000000E+00 0.  1.
<mgrwt>
<rscale>  1 0.12609233E+03</rscale>
<asrwt>0</asrwt>
<pdfrwt beam="1">  1       21 0.95089101E-02 0.12609233E+03</pdfrwt>
<pdfrwt beam="2">  1       21 0.13220272E-01 0.12609233E+03</pdfrwt>
<totfact> 0.43090383E+06</totfact>
</mgrwt>
</event>
<event>
 6    1  0.4216855E-002  0.1262385E+03  0.7546771E-02  0.1233146E+00
         21   -1    0    0  504  502  0.00000000000E+00  0.00000000000E+00  0.51412763252E+02  0.51412763252E+02  0.00000000000E+00 0.  1.
         21   -1    0    0  502  503 -0.00000000000E+00 -0.00000000000E+00 -0.11074192527E+03  0.11074192527E+03  0.00000000000E+00 0.  1.
         25    2    1    2    0    0  0.28098501058E+01 -0.17428866020E+02 -0.66988041560E+02  0.14291101257E+03  0.12499799668E+03 0.  0.
          5    1    3    3  501    0  0.13897988957E+01 -0.67098330611E+01  0.37370555220E+02  0.37993707349E+02  0.10000000000E+00 0.  1.
         -5    1    3    3    0  501  0.14200512100E+01 -0.10719032959E+02 -0.10435859678E+03  0.10491730522E+03  0.10000000000E+00 0.  1.
         21    1    1    2  504  503 -0.28098501058E+01  0.17428866020E+02  0.76588795409E+01  0.19243675953E+02  0.00000000000E+00 0.  1.
<mgrwt>
<rscale>  1 0.12623850E+03</rscale>
<asrwt>0</asrwt>
<pdfrwt beam="1">  1       21 0.79096560E-02 0.12623850E+03</pdfrwt>
<pdfrwt beam="2">  1       21 0.17037219E-01 0.12623850E+03</pdfrwt>
<totfact> 0.37533043E+06</totfact>
</mgrwt>
</event>
<event>
 6    1  0.4216855E-002  0.1274469E+03  0.7546771E-02  0.1231294E+00
         21   -1    0    0  504  502  0.00000000000E+00  0.00000000000E+00  0.44956590788E+02  0.44956590788E+02  0.00000000000E+00 0. -1.
         21   -1    0    0  502  503 -0.00000000000E+00 -0.00000000000E+00 -0.14753864498E+03  0.14753864498E+03  0.00000000000E+00 0. -1.
         25    2    1    2    0    0  0.46500538371E+01 -0.24445485540E+02 -0.10797138753E+03  0.16703448798E+03  0.12499397939E+03 0.  0.
          5    1    3    3  501    0 -0.28838325553E+02 -0.63375856011E+02 -0.87327234729E+02  0.11168797639E+03  0.10000000000E+00 0. -1.
         -5    1    3    3    0  501  0.33488379390E+02  0.38930370471E+02 -0.20644152805E+02  0.55346511581E+02  0.10000000000E+00 0. -1.
         21    1    1    2  504  503 -0.46500538371E+01  0.24445485540E+02  0.53893333463E+01  0.25460747787E+02  0.00000000000E+00 0. -1.
<mgrwt>
<rscale>  1 0.12744685E+03</rscale>
<asrwt>0</asrwt>
<pdfrwt beam="1">  1       21 0.69163985E-02 0.12744685E+03</pdfrwt>
<pdfrwt beam="2">  1       21 0.22698253E-01 0.12744685E+03</pdfrwt>
<totfact> 0.27838407E+06</totfact>
</mgrwt>
</event>
<event>
 6    1  0.4216855E-002  0.1280189E+03  0.7546771E-02  0.1230425E+00
         21   -1    0    0  503  502  0.00000000000E+00  0.00000000000E+00  0.72194401579E+03  0.72194401579E+03  0.00000000000E+00 0.  1.
         21   -1    0    0  504  503 -0.00000000000E+00 -0.00000000000E+00 -0.95180817479E+01  0.95180817479E+01  0.00000000000E+00 0.  1.
         25    2    1    2    0    0  0.12553077709E+02 -0.24629216400E+02  0.45853149613E+03  0.47606718047E+03  0.12499859727E+03 0.  0.
          5    1    3    3  501    0  0.18623516926E+02  0.13707277977E+02  0.89226631946E+01  0.24786060008E+02  0.10000000000E+00 0. -1.
         -5    1    3    3    0  501 -0.60704392178E+01 -0.38336494377E+02  0.44960883294E+03  0.45128112047E+03  0.10000000000E+00 0. -1.
         21    1    1    2  504  502 -0.12553077709E+02  0.24629216400E+02  0.25389443791E+03  0.25539491707E+03  0.00000000000E+00 0.  1.
<mgrwt>
<rscale>  1 0.12801886E+03</rscale>
<asrwt>0</asrwt>
<pdfrwt beam="1">  1       21 0.11106827E+00 0.12801886E+03</pdfrwt>
<pdfrwt beam="2">  1       21 0.14643208E-02 0.12801886E+03</pdfrwt>
<totfact> 0.13063141E+06</totfact>
</mgrwt>
</event>
<event>
 6    1  0.4216855E-002  0.1281722E+03  0.7546771E-02  0.1230193E+00
         21   -1    0    0  503  502  0.00000000000E+00  0.00000000000E+00  0.30220515707E+02  0.30220515707E+02  0.00000000000E+00 0.  1.
         21   -1    0    0  504  503 -0.00000000000E+00 -0.00000000000E+00 -0.10123385583E+04  0.10123385583E+04  0.00000000000E+00 0.  1.
         25    2    1    2    0    0 -0.49165329294E+01 -0.27907214269E+02 -0.10005687143E+04  0.10087446955E+04  0.12500049489E+03 0.  0.
          5    1    3    3  501    0 -0.28781221464E+02 -0.16065138004E+02 -0.65778492575E+02  0.73574910489E+02  0.10000000000E+00 0. -1.
         -5    1    3    3    0  501  0.23864688535E+02 -0.11842076264E+02 -0.93479022175E+03  0.93516978502E+03  0.10000000000E+00 0. -1.
         21    1    1    2  504  502  0.49165329294E+01  0.27907214269E+02  0.18450671749E+02  0.33814378484E+02  0.00000000000E+00 0.  1.
<mgrwt>
<rscale>  1 0.12817218E+03</rscale>
<asrwt>0</asrwt>
<pdfrwt beam="1">  1       21 0.46493106E-02 0.12817218E+03</pdfrwt>
<pdfrwt beam="2">  1       21 0.15574438E+00 0.12817218E+03</pdfrwt>
<totfact> 0.85219806E+04</totfact>
</mgrwt>
</event>
<event>
 6    1  0.4216855E-002  0.1272195E+03  0.7546771E-02  0.1231641E+00
         21   -1    0    0  503  502  0.00000000000E+00  0.00000000000E+00  0.42119318974E+03  0.42119318974E+03  0.00000000000E+00 0.  1.
         21   -1    0    0  504  503 -0.00000000000E+00 -0.00000000000E+00 -0.38378468429E+02  0.38378468429E+02  0.00000000000E+00 0. -1.
         25    2    1    2    0    0 -0.15242576849E+02  0.18038007887E+02  0.68725616782E+02  0.14459599012E+03  0.12500833604E+03 0.  0.
          5    1    3    3  501    0 -0.19226990225E+02  0.56762370663E+02 -0.61095319697E+01  0.60241018063E+02  0.10000000000E+00 0.  1.
         -5    1    3    3    0  501  0.39844133759E+01 -0.38724362776E+02  0.74835148752E+02  0.84354972059E+02  0.10000000000E+00 0.  1.
         21    1    1    2  504  502  0.15242576849E+02 -0.18038007887E+02  0.31408910453E+03  0.31497566805E+03  0.00000000000E+00 0.  1.
<mgrwt>
<rscale>  1 0.12721946E+03</rscale>
<asrwt>0</asrwt>
<pdfrwt beam="1">  1       21 0.64798949E-01 0.12721946E+03</pdfrwt>
<pdfrwt beam="2">  1       21 0.59043801E-02 0.12721946E+03</pdfrwt>
<totfact> 0.44950441E+05</totfact>
</mgrwt>
</event>
<event>
 6    1  0.4216855E-002  0.2318999E+03  0.7546771E-02  0.1125310E+00
         21   -1    0    0  504  502  0.00000000000E+00  0.00000000000E+00  0.60787544764E+02  0.60787544764E+02  0.00000000000E+00 0. -1.
         21   -1    0    0  502  503 -0.00000000000E+00 -0.00000000000E+00 -0.77210800989E+03  0.77210800989E+03  0.00000000000E+00 0. -1.
         25    2    1    2    0    0 -0.82046445845E+02  0.17725844206E+03 -0.45443169225E+03  0.51018203436E+03  0.12500148278E+03 0.  0.
          5    1    3    3  501    0 -0.76836359651E+01  0.27860744677E+02 -0.31976334025E+01  0.29077383221E+02  0.10000000000E+00 0. -1.
         -5    1    3    3    0  501 -0.74362809880E+02  0.14939769738E+03 -0.45123405885E+03  0.48110465113E+03  0.10000000000E+00 0. -1.
         21    1    1    2  504  503  0.82046445845E+02 -0.17725844206E+03 -0.25688877288E+03  0.32271352030E+03  0.00000000000E+00 0. -1.
<mgrwt>
<rscale>  1 0.23189986E+03</rscale>
<asrwt>0</asrwt>
<pdfrwt beam="1">  1       21 0.93519301E-02 0.23189986E+03</pdfrwt>
<pdfrwt beam="2">  1       21 0.11878585E+00 0.23189986E+03</pdfrwt>
<totfact> 0.48482131E+04</totfact>
</mgrwt>
</event>
<event>
 6    1  0.4216855E-002  0.1954830E+03  0.7546771E-02  0.1153607E+00
         21   -1    0    0  504  502  0.00000000000E+00  0.00000000000E+00  0.59273892710E+03  0.59273892710E+03  0.00000000000E+00 0.  1.
         21   -1    0    0  502  503 -0.00000000000E+00 -0.00000000000E+00 -0.50896572972E+02  0.50896572972E+02  0.00000000000E+00 0.  1.
         25    2    1    2    0    0  0.10896392658E+03  0.10351440701E+03  0.27537656365E+03  0.33770677103E+03  0.12500096656E+03 0.  0.
          5    1    3    3  501    0  0.80155518157E+02  0.18723242253E+02  0.52804339522E+02  0.97794555901E+02  0.10000000000E+00 0.  1.
         -5    1    3    3    0  501  0.28808408421E+02  0.84791164762E+02  0.22257222412E+03  0.23991221513E+03  0.10000000000E+00 0.  1.
         21    1    1    2  504  503 -0.10896392658E+03 -0.10351440701E+03  0.26646579048E+03  0.30592872904E+03  0.00000000000E+00 0.  1.
<mgrwt>
<rscale>  1 0.19548302E+03</rscale>
<asrwt>0</asrwt>
<pdfrwt beam="1">  1       21 0.91190599E-01 0.19548302E+03</pdfrwt>
<pdfrwt beam="2">  1       21 0.78302424E-02 0.19548302E+03</pdfrwt>
<totfact> 0.12680083E+05</totfact>
</mgrwt>
</event>
<event>
 6    1  0.4216855E-002  0.1390756E+03  0.7546771E-02  0.1214578E+00
         21   -1    0    0  503  502  0.00000000000E+00  0.00000000000E+00  0.18293063270E+02  0.18293063270E+02  0.00000000000E+00 0. -1.
         21   -1    0    0  504  503 -0.00000000000E+00 -0.00000000000E+00 -0.65351194913E+03  0.65351194913E+03  0.00000000000E+00 0. -1.
         25    2    1    2    0    0  0.37640270694E+02  0.47961840422E+02 -0.54811372469E+03  0.56548268541E+03  0.12499953675E+03 0.  0.
          5    1    3    3  501    0 -0.38529928506E+02  0.49378755303E+02 -0.23021687652E+03  0.23858465395E+03  0.10000000000E+00 0. -1.
         -5    1    3    3    0  501  0.76170199200E+02 -0.14169148815E+01 -0.31789684817E+03  0.32689803145E+03  0.10000000000E+00 0. -1.
         21    1    1    2  504  502 -0.37640270694E+02 -0.47961840422E+02 -0.87105161168E+02  0.10632232699E+03  0.00000000000E+00 0. -1.
<mgrwt>
<rscale>  1 0.13907556E+03</rscale>
<asrwt>0</asrwt>
<pdfrwt beam="1">  1       21 0.28143176E-02 0.13907556E+03</pdfrwt>
<pdfrwt beam="2">  1       21 0.10054029E+00 0.13907556E+03</pdfrwt>
<totfact> 0.57531804E+05</totfact>
</mgrwt>
</event>
<event>
 6    1  0.4216855E-002  0.1377172E+03  0.7546771E-02  0.1216434E+00
         21   -1    0    0  504  502  0.00000000000E+00  0.00000000000E+00  0.14126303121E+04  0.14126303121E+04  0.00000000000E+00 0.  1.
         21   -1    0    0  502  503 -0.00000000000E+00 -0.00000000000E+00 -0.36881022436E+03  0.36881022436E+03  0.00000000000E+00 0.  1.
         25    2    1    2    0    0  0.44320615837E+02  0.37130375682E+02 -0.35533608107E+03  0.38109023510E+03  0.12499221971E+03 0.  0.
          5    1    3    3  501    0  0.20278859254E+02  0.14306142606E+02 -0.61668770143E+00  0.24825151613E+02  0.10000000000E+00 0. -1.
         -5    1    3    3    0  501  0.24041756583E+02  0.22824233076E+02 -0.35471939337E+03  0.35626508348E+03  0.10000000000E+00 0. -1.
         21    1    1    2  504  503 -0.44320615837E+02 -0.37130375682E+02  0.13991561688E+04  0.14003503014E+04  0.00000000000E+00 0.  1.
<mgrwt>
<rscale>  1 0.13771723E+03</rscale>
<asrwt>0</asrwt>
<pdfrwt beam="1">  1       21 0.21732774E+00 0.13771723E+03</pdfrwt>
<pdfrwt beam="2">  1       21 0.56740035E-01 0.13771723E+03</pdfrwt>
<totfact> 0.33150113E+02</totfact>
</mgrwt>
</event>
<event>
 6    1  0.4216855E-002  0.1316663E+03  0.7546771E-02  0.1225004E+00
         21   -1    0    0  503  502  0.00000000000E+00  0.00000000000E+00  0.10651457460E+02  0.10651457460E+02  0.00000000000E+00 0. -1.
         21   -1    0    0  504  503 -0.00000000000E+00 -0.00000000000E+00 -0.18637437156E+04  0.18637437156E+04  0.00000000000E+00 0. -1.
         25    2    1    2    0    0  0.17936796372E+02  0.37281716411E+02 -0.18095433625E+04  0.18143272003E+04  0.12499741538E+03 0.  0.
          5    1    3    3  501    0  0.52694853705E+02  0.45608961748E+02 -0.56658487548E+03  0.57085493439E+03  0.10000000000E+00 0. -1.
         -5    1    3    3    0  501 -0.34758057332E+02 -0.83272453375E+01 -0.12429584871E+04  0.12434722659E+04  0.10000000000E+00 0. -1.
         21    1    1    2  504  502 -0.17936796372E+02 -0.37281716411E+02 -0.43548895636E+02  0.60067972779E+02  0.00000000000E+00 0. -1.
<mgrwt>
<rscale>  1 0.13166628E+03</rscale>
<asrwt>0</asrwt>
<pdfrwt beam="1">  1       21 0.16386859E-02 0.13166628E+03</pdfrwt>
<pdfrwt beam="2">  1       21 0.28672977E+00 0.13166628E+03</pdfrwt>
<totfact> 0.73219134E+04</totfact>
</mgrwt>
</event>
<event>
 6    1  0.4216855E-002  0.1287640E+03  0.7546771E-02  0.1229301E+00
         21   -1    0    0  503  502  0.00000000000E+00  0.00000000000E+00  0.23044281517E+02  0.23044281517E+02  0.00000000000E+00 0.  1.
         21   -1    0    0  504  503 -0.00000000000E+00 -0.00000000000E+00 -0.27668693135E+03  0.27668693135E+03  0.00000000000E+00 0.  1.
         25    2    1    2    0    0  0.22534866051E+02  0.21135780590E+02 -0.20184596384E+03  0.23942003572E+03  0.12500247588E+03 0.  0.
          5    1    3    3  501    0  0.60070272559E+02 -0.23363887945E+02 -0.14192837732E+03  0.15587810364E+03  0.10000000000E+00 0. -1.
         -5    1    3    3    0  501 -0.37535406509E+02  0.44499668534E+02 -0.59917586521E+02  0.83541932081E+02  0.10000000000E+00 0. -1.
         21    1    1    2  504  502 -0.22534866051E+02 -0.21135780590E+02 -0.51796685991E+02  0.60311177146E+02  0.00000000000E+00 0.  1.
<mgrwt>
<rscale>  1 0.12876397E+03</rscale>
<asrwt>0</asrwt>
<pdfrwt beam="1">  1       21 0.35452739E-02 0.12876397E+03</pdfrwt>
<pdfrwt beam="2">  1       21 0.42567222E-01 0.12876397E+03</pdfrwt>
<totfact> 0.25277609E+06</totfact>
</mgrwt>
</event>
<event>
 6    1  0.4216855E-002  0.1261321E+03  0.7546771E-02  0.1233310E+00
         21   -1    0    0  503  502  0.00000000000E+00  0.00000000000E+00  0.38751830005E+03  0.38751830005E+03  0.00000000000E+00 0. -1.
         21   -1    0    0  504  503 -0.00000000000E+00 -0.00000000000E+00 -0.17346053045E+02  0.17346053045E+02  0.00000000000E+00 0. -1.
         25    2    1    2    0    0 -0.10995182652E+01 -0.16842485989E+02  0.21878786853E+03  0.25254197024E+03  0.12499774814E+03 0.  0.
          5    1    3    3  501    0 -0.21006307128E+02 -0.41669230579E+02  0.21556365412E+03  0.22055676978E+03  0.10000000000E+00 0. -1.
         -5    1    3    3    0  501  0.19906788863E+02  0.24826744590E+02  0.32242144097E+01  0.31985200457E+02  0.10000000000E+00 0. -1.
         21    1    1    2  504  502  0.10995182652E+01  0.16842485989E+02  0.15138437847E+03  0.15232238286E+03  0.00000000000E+00 0. -1.
<mgrwt>
<rscale>  1 0.12613213E+03</rscale>
<asrwt>0</asrwt>
<pdfrwt beam="1">  1       21 0.59618193E-01 0.12613213E+03</pdfrwt>
<pdfrwt beam="2">  1       21 0.26686239E-02 0.12613213E+03</pdfrwt>
<totfact> 0.20079460E+06</totfact>
</mgrwt>
</event>
<event>
 6    1  0.4216855E-002  0.1261479E+03  0.7546771E-02  0.1233286E+00
         21   -1    0    0  504  502  0.00000000000E+00  0.00000000000E+00  0.47795397333E+02  0.47795397333E+02  0.00000000000E+00 0. -1.
         21   -1    0    0  502  503 -0.00000000000E+00 -0.00000000000E+00 -0.14350831981E+03  0.14350831981E+03  0.00000000000E+00 0. -1.
         25    2    1    2    0    0  0.94245257130E+01  0.14042216917E+02 -0.11135638214E+03  0.16826628301E+03  0.12500917012E+03 0.  0.
          5    1    3    3  501    0  0.62121776356E+02  0.32298809588E+02 -0.55628161800E+02  0.89424999769E+02  0.10000000000E+00 0.  1.
         -5    1    3    3    0  501 -0.52697250643E+02 -0.18256592671E+02 -0.55728220339E+02  0.78841283243E+02  0.10000000000E+00 0.  1.
         21    1    1    2  504  503 -0.94245257130E+01 -0.14042216917E+02  0.15643459665E+02  0.23037434127E+02  0.00000000000E+00 0. -1.
<mgrwt>
<rscale>  1 0.12614792E+03</rscale>
<asrwt>0</asrwt>
<pdfrwt beam="1">  1       21 0.73531382E-02 0.12614792E+03</pdfrwt>
<pdfrwt beam="2">  1       21 0.22078203E-01 0.12614792E+03</pdfrwt>
<totfact> 0.26389710E+06</totfact>
</mgrwt>
</event>
<event>
 6    1  0.4216855E-002  0.1264332E+03  0.7546771E-02  0.1232846E+00
         21   -1    0    0  503  502  0.00000000000E+00  0.00000000000E+00  0.29000886791E+03  0.29000886791E+03  0.00000000000E+00 0.  1.
         21   -1    0    0  504  503 -0.00000000000E+00 -0.00000000000E+00 -0.50675342586E+02  0.50675342586E+02  0.00000000000E+00 0.  1.
         25    2    1    2    0    0 -0.18807826361E+02 -0.23731365317E+01  0.29283044967E+02  0.12978003698E+03  0.12500398060E+03 0.  0.
          5    1    3    3  501    0 -0.57839515663E+02 -0.28274400426E+02 -0.14129587669E+02  0.65912870816E+02  0.10000000000E+00 0.  1.
         -5    1    3    3    0  501  0.39031689301E+02  0.25901263894E+02  0.43412632636E+02  0.63867166161E+02  0.10000000000E+00 0.  1.
         21    1    1    2  504  502  0.18807826361E+02  0.23731365317E+01  0.21005048036E+03  0.21090417352E+03  0.00000000000E+00 0.  1.
<mgrwt>
<rscale>  1 0.12643323E+03</rscale>
<asrwt>0</asrwt>
<pdfrwt beam="1">  1       21 0.44616748E-01 0.12643323E+03</pdfrwt>
<pdfrwt beam="2">  1       21 0.77962067E-02 0.12643323E+03</pdfrwt>
<totfact> 0.60937617E+05</totfact>
</mgrwt>
</event>
<event>
 6    1  0.4216855E-002  0.1303393E+03  0.7546771E-02  0.1226953E+00
         21   -1    0    0  503  502  0.00000000000E+00  0.00000000000E+00  0.38622201465E+02  0.38622201465E+02  0.00000000000E+00 0. -1.
         21   -1    0    0  504  503 -0.00000000000E+00 -0.00000000000E+00 -0.43344350926E+03  0.43344350926E+03  0.00000000000E+00 0. -1.
         25    2    1    2    0    0 -0.36228191613E+02  0.63026207048E+01 -0.41152854514E+03  0.43167590168E+03  0.12504453498E+03 0.  0.
          5    1    3    3  501    0 -0.25646025928E+02  0.34485428522E+02 -0.39313295576E+02  0.58245245603E+02  0.10000000000E+00 0.  1.
         -5    1    3    3    0  501 -0.10582165685E+02 -0.28182807818E+02 -0.37221524956E+03  0.37343065607E+03  0.10000000000E+00 0.  1.
         21    1    1    2  504  502  0.36228191613E+02 -0.63026207048E+01  0.16707237345E+02  0.40389809049E+02  0.00000000000E+00 0. -1.
<mgrwt>
<rscale>  1 0.13033933E+03</rscale>
<asrwt>0</asrwt>
<pdfrwt beam="1">  1       21 0.59418776E-02 0.13033933E+03</pdfrwt>
<pdfrwt beam="2">  1       21 0.66683612E-01 0.13033933E+03</pdfrwt>
<totfact> 0.41788439E+05</totfact>
</mgrwt>
</event>
<event>
 6    1  0.4216855E-002  0.1301611E+03  0.7546771E-02  0.1227217E+00
         21   -1    0    0  503  502  0.00000000000E+00  0.00000000000E+00  0.30826709733E+02  0.30826709733E+02  0.00000000000E+00 0.  1.
         21   -1    0    0  504  503 -0.00000000000E+00 -0.00000000000E+00 -0.13747168458E+04  0.13747168458E+04  0.00000000000E+00 0. -1.
         25    2    1    2    0    0  0.26036129048E+02 -0.25271381526E+02 -0.13597351381E+04  0.13659507932E+04  0.12500160322E+03 0.  0.
          5    1    3    3  501    0  0.34594028943E+02  0.21376315915E+02 -0.11580785309E+04  0.11587922970E+04  0.10000000000E+00 0. -1.
         -5    1    3    3    0  501 -0.85578998948E+01 -0.46647697441E+02 -0.20165660720E+03  0.20715849621E+03  0.10000000000E+00 0. -1.
         21    1    1    2  504  502 -0.26036129048E+02  0.25271381526E+02  0.15845002059E+02  0.39592762348E+02  0.00000000000E+00 0.  1.
<mgrwt>
<rscale>  1 0.13016114E+03</rscale>
<asrwt>0</asrwt>
<pdfrwt beam="1">  1       21 0.47425694E-02 0.13016114E+03</pdfrwt>
<pdfrwt beam="2">  1       21 0.21149496E+00 0.13016114E+03</pdfrwt>
<totfact> 0.35119752E+04</totfact>
</mgrwt>
</event>
<event>
 6    1  0.4216855E-002  0.1361221E+03  0.7546771E-02  0.1218644E+00
         21   -1    0    0  503  502  0.00000000000E+00  0.00000000000E+00  0.14893747728E+03  0.14893747728E+03  0.00000000000E+00 0. -1.
         21   -1    0    0  504  503 -0.00000000000E+00 -0.00000000000E+00 -0.30372460460E+03  0.30372460460E+03  0.00000000000E+00 0. -1.
         25    2    1    2    0    0 -0.39577965324E+02 -0.36581874822E+02 -0.28275143741E+03  0.31381139386E+03  0.12499826661E+03 0.  0.
          5    1    3    3  501    0 -0.68831826455E+02 -0.65299713535E+02 -0.20596131122E+03  0.22676407264E+03  0.10000000000E+00 0.  1.
         -5    1    3    3    0  501  0.29253861130E+02  0.28717838713E+02 -0.76790126199E+02  0.87047321229E+02  0.10000000000E+00 0.  1.
         21    1    1    2  504  502  0.39577965324E+02  0.36581874822E+02  0.12796431010E+03  0.13885068802E+03  0.00000000000E+00 0. -1.
<mgrwt>
<rscale>  1 0.13612206E+03</rscale>
<asrwt>0</asrwt>
<pdfrwt beam="1">  1       21 0.22913459E-01 0.13612206E+03</pdfrwt>
<pdfrwt beam="2">  1       21 0.46726861E-01 0.13612206E+03</pdfrwt>
<totfact> 0.80270186E+04</totfact>
</mgrwt>
</event>
<event>
 6    1  0.4216855E-002  0.1272419E+03  0.7546771E-02  0.1231607E+00
         21   -1    0    0  503  502  0.00000000000E+00  0.00000000000E+00  0.48408010883E+02  0.48408010883E+02  0.00000000000E+00 0.  1.
         21   -1    0    0  504  503 -0.00000000000E+00 -0.00000000000E+00 -0.46881922293E+03  0.46881922293E+03  0.00000000000E+00 0.  1.
         25    2    1    2    0    0  0.22076277414E+02 -0.96991856721E+01 -0.45645677345E+03  0.47385997975E+03  0.12493621636E+03 0.  0.
          5    1    3    3  501    0 -0.10254669731E+02  0.39794652327E+01  0.42683798571E+01  0.11799299192E+02  0.10000000000E+00 0. -1.
         -5    1    3    3    0  501  0.32330947145E+02 -0.13678650905E+02 -0.46072515330E+03  0.46206068056E+03  0.10000000000E+00 0. -1.
         21    1    1    2  504  502 -0.22076277414E+02  0.96991856721E+01  0.36045561405E+02  0.43367254054E+02  0.00000000000E+00 0.  1.
<mgrwt>
<rscale>  1 0.12724187E+03</rscale>
<asrwt>0</asrwt>
<pdfrwt beam="1">  1       21 0.74473860E-02 0.12724187E+03</pdfrwt>
<pdfrwt beam="2">  1       21 0.72126037E-01 0.12724187E+03</pdfrwt>
<totfact> 0.23980214E+05</totfact>
</mgrwt>
</event>
<event>
 6    1  0.4216855E-002  0.1259925E+03  0.7546771E-02  0.1233526E+00
         21   -1    0    0  503  502  0.00000000000E+00  0.00000000000E+00  0.13149789461E+03  0.13149789461E+03  0.00000000000E+00 0. -1.
         21   -1    0    0  504  503 -0.00000000000E+00 -0.00000000000E+00 -0.38588250355E+02  0.38588250355E+02  0.00000000000E+00 0. -1.
         25    2    1    2    0    0  0.12804430539E+02 -0.90842209176E+01  0.76612289053E+02  0.14745695369E+03  0.12501053495E+03 0.  0.
          5    1    3    3  501    0 -0.47539719086E+02 -0.35743608184E+02  0.43173084227E+02  0.73495276165E+02  0.10000000000E+00 0. -1.
         -5    1    3    3    0  501  0.60344149625E+02  0.26659387267E+02  0.33439204826E+02  0.73961677528E+02  0.10000000000E+00 0. -1.
         21    1    1    2  504  502 -0.12804430539E+02  0.90842209176E+01  0.16297355207E+02  0.22629191276E+02  0.00000000000E+00 0. -1.
<mgrwt>
<rscale>  1 0.12599250E+03</rscale>
<asrwt>0</asrwt>
<pdfrwt beam="1">  1       21 0.20230445E-01 0.12599250E+03</pdfrwt>
<pdfrwt beam="2">  1       21 0.59366540E-02 0.12599250E+03</pdfrwt>
<totfact> 0.44697345E+06</totfact>
</mgrwt>
</event>
<event>
 6    1  0.4216855E-002  0.1260941E+03  0.7546771E-02  0.1233369E+00
         21   -1    0    0  503  502  0.00000000000E+00  0.00000000000E+00  0.27627881260E+03  0.27627881260E+03  0.00000000000E+00 0.  1.
         21   -1    0    0  504  503 -0.00000000000E+00 -0.00000000000E+00 -0.28202585114E+02  0.28202585114E+02  0.00000000000E+00 0. -1.
         25    2    1    2    0    0 -0.36736109526E+01  0.16166299474E+02  0.11589337416E+03  0.17126296292E+03  0.12499953455E+03 0.  0.
          5    1    3    3  501    0 -0.54201863797E+02  0.40588526531E+02  0.79245377919E+02  0.10423584051E+03  0.10000000000E+00 0. -1.
         -5    1    3    3    0  501  0.50528252845E+02 -0.24422227057E+02  0.36647996240E+02  0.67027122409E+02  0.10000000000E+00 0. -1.
         21    1    1    2  504  502  0.36736109526E+01 -0.16166299474E+02  0.13218285332E+03  0.13321843479E+03  0.00000000000E+00 0.  1.
<mgrwt>
<rscale>  1 0.12609412E+03</rscale>
<asrwt>0</asrwt>
<pdfrwt beam="1">  1       21 0.42504431E-01 0.12609412E+03</pdfrwt>
<pdfrwt beam="2">  1       21 0.43388594E-02 0.12609412E+03</pdfrwt>
<totfact> 0.18123140E+06</totfact>
</mgrwt>
</event>
<event>
 6    1  0.4216855E-002  0.1273027E+03  0.7546771E-02  0.1231514E+00
         21   -1    0    0  504  502  0.00000000000E+00  0.00000000000E+00  0.19484307662E+03  0.19484307662E+03  0.00000000000E+00 0. -1.
         21   -1    0    0  502  503 -0.00000000000E+00 -0.00000000000E+00 -0.29805313378E+02  0.29805313378E+02  0.00000000000E+00 0. -1.
         25    2    1    2    0    0 -0.22722101058E+02  0.80500504463E+01  0.12855432008E+03  0.18092038051E+03  0.12499949474E+03 0.  0.
          5    1    3    3  501    0  0.11355749251E+02  0.45227581469E+02  0.12131750049E+03  0.12997089325E+03  0.10000000000E+00 0. -1.
         -5    1    3    3    0  501 -0.34077850309E+02 -0.37177531023E+02  0.72368195915E+01  0.50949487264E+02  0.10000000000E+00 0. -1.
         21    1    1    2  504  503  0.22722101058E+02 -0.80500504463E+01  0.36483443162E+02  0.43728009486E+02  0.00000000000E+00 0. -1.
<mgrwt>
<rscale>  1 0.12730267E+03</rscale>
<asrwt>0</asrwt>
<pdfrwt beam="1">  1       21 0.29975857E-01 0.12730267E+03</pdfrwt>
<pdfrwt beam="2">  1       21 0.45854329E-02 0.12730267E+03</pdfrwt>
<totfact> 0.32881831E+06</totfact>
</mgrwt>
</event>
<event>
 6    1  0.4216855E-002  0.1380096E+03  0.7546771E-02  0.1216033E+00
         21   -1    0    0  503  502  0.00000000000E+00  0.00000000000E+00  0.19694016477E+04  0.19694016477E+04  0.00000000000E+00 0.  1.
         21   -1    0    0  504  503 -0.00000000000E+00 -0.00000000000E+00 -0.50001927803E+01  0.50001927803E+01  0.00000000000E+00 0.  1.
         25    2    1    2    0    0  0.93503822839E+01  0.57748584856E+02  0.12450692854E+04  0.12526947678E+04  0.12499730812E+03 0.  0.
          5    1    3    3  501    0 -0.95067341533E+01  0.78547221189E+02  0.11679050933E+04  0.11705820608E+04  0.10000000000E+00 0. -1.
         -5    1    3    3    0  501  0.18857116437E+02 -0.20798636333E+02  0.77164192077E+02  0.82112707010E+02  0.10000000000E+00 0. -1.
         21    1    1    2  504  502 -0.93503822839E+01 -0.57748584856E+02  0.71933216954E+03  0.72170707273E+03  0.00000000000E+00 0.  1.
<mgrwt>
<rscale>  1 0.13800962E+03</rscale>
<asrwt>0</asrwt>
<pdfrwt beam="1">  1       21 0.30298425E+00 0.13800962E+03</pdfrwt>
<pdfrwt beam="2">  1       21 0.76926200E-03 0.13800962E+03</pdfrwt>
<totfact> 0.19517408E+05</totfact>
</mgrwt>
</event>
<event>
 6    1  0.4216855E-002  0.1519805E+03  0.7546771E-02  0.1198060E+00
         21   -1    0    0  503  502  0.00000000000E+00  0.00000000000E+00  0.19657415515E+04  0.19657415515E+04  0.00000000000E+00 0.  1.
         21   -1    0    0  504  503 -0.00000000000E+00 -0.00000000000E+00 -0.98099786988E+01  0.98099786988E+01  0.00000000000E+00 0.  1.
         25    2    1    2    0    0  0.63476223641E+02  0.58684845069E+02  0.16683423522E+04  0.16752505115E+04  0.12499972090E+03 0.  0.
          5    1    3    3  501    0  0.35450713249E+02  0.96388085214E+02  0.10002767630E+04  0.10055351951E+04  0.10000000000E+00 0.  1.
         -5    1    3    3    0  501  0.28025510392E+02 -0.37703240145E+02  0.66806558923E+03  0.66971531643E+03  0.10000000000E+00 0.  1.
         21    1    1    2  504  502 -0.63476223641E+02 -0.58684845069E+02  0.28758922061E+03  0.30030101868E+03  0.00000000000E+00 0.  1.
<mgrwt>
<rscale>  1 0.15198050E+03</rscale>
<asrwt>0</asrwt>
<pdfrwt beam="1">  1       21 0.30242146E+00 0.15198050E+03</pdfrwt>
<pdfrwt beam="2">  1       21 0.15092291E-02 0.15198050E+03</pdfrwt>
<totfact> 0.66713258E+04</totfact>
</mgrwt>
</event>
<event>
 6    1  0.4216855E-002  0.1267595E+03  0.7546771E-02  0.1232345E+00
         21   -1    0    0  503  502  0.00000000000E+00  0.00000000000E+00  0.43064302687E+02  0.43064302687E+02  0.00000000000E+00 0. -1.
         21   -1    0    0  504  503 -0.00000000000E+00 -0.00000000000E+00 -0.14792735217E+03  0.14792735217E+03  0.00000000000E+00 0. -1.
         25    2    1    2    0    0  0.19420783863E+02 -0.81767991115E+01 -0.11158221041E+03  0.16887437624E+03  0.12499575345E+03 0.  0.
          5    1    3    3  501    0  0.67538837166E+02 -0.25976372020E+02 -0.83113025471E+02  0.11020005187E+03  0.10000000000E+00 0. -1.
         -5    1    3    3    0  501 -0.48118053304E+02  0.17799572908E+02 -0.28469184943E+02  0.58674324374E+02  0.10000000000E+00 0. -1.
         21    1    1    2  504  502 -0.19420783863E+02  0.81767991115E+01  0.67191609327E+01  0.22117278612E+02  0.00000000000E+00 0. -1.
<mgrwt>
<rscale>  1 0.12675948E+03</rscale>
<asrwt>0</asrwt>
<pdfrwt beam="1">  1       21 0.66252774E-02 0.12675948E+03</pdfrwt>
<pdfrwt beam="2">  1       21 0.22758054E-01 0.12675948E+03</pdfrwt>
<totfact> 0.29805372E+06</totfact>
</mgrwt>
</event>
<event>
 6    1  0.4216855E-002  0.1288384E+03  0.7546771E-02  0.1229190E+00
         21   -1    0    0  504  502  0.00000000000E+00  0.00000000000E+00  0.44800654679E+03  0.44800654679E+03  0.00000000000E+00 0. -1.
         21   -1    0    0  502  503 -0.00000000000E+00 -0.00000000000E+00 -0.16326691285E+02  0.16326691285E+02  0.00000000000E+00 0. -1.
         25    2    1    2    0    0 -0.27208754514E+02  0.15379875417E+02  0.26394408470E+03  0.29371042103E+03  0.12498989832E+03 0.  0.
          5    1    3    3  501    0  0.41951799762E+01  0.64964369062E+02  0.17892388540E+03  0.19039888536E+03  0.10000000000E+00 0.  1.
         -5    1    3    3    0  501 -0.31403934490E+02 -0.49584493644E+02  0.85020199308E+02  0.10331153567E+03  0.10000000000E+00 0.  1.
         21    1    1    2  504  503  0.27208754514E+02 -0.15379875417E+02  0.16773577081E+03  0.17062281705E+03  0.00000000000E+00 0. -1.
<mgrwt>
<rscale>  1 0.12883839E+03</rscale>
<asrwt>0</asrwt>
<pdfrwt beam="1">  1       21 0.68924075E-01 0.12883839E+03</pdfrwt>
<pdfrwt beam="2">  1       21 0.25117990E-02 0.12883839E+03</pdfrwt>
<totfact> 0.16238497E+06</totfact>
</mgrwt>
</event>
<event>
 6    1  0.4216855E-002  0.1278417E+03  0.7546771E-02  0.1230694E+00
         21   -1    0    0  504  502  0.00000000000E+00  0.00000000000E+00  0.12035654978E+03  0.12035654978E+03  0.00000000000E+00 0. -1.
         21   -1    0    0  502  503 -0.00000000000E+00 -0.00000000000E+00 -0.25123347497E+03  0.25123347497E+03  0.00000000000E+00 0.  1.
         25    2    1    2    0    0 -0.17130905639E+01  0.26749386865E+02 -0.23313022706E+03  0.26588192610E+03  0.12500012593E+03 0.  0.
          5    1    3    3  501    0 -0.54920440587E+02  0.44726432845E+02 -0.14505757527E+03  0.16142620212E+03  0.10000000000E+00 0. -1.
         -5    1    3    3    0  501  0.53207350023E+02 -0.17977045980E+02 -0.88072651793E+02  0.10445572398E+03  0.10000000000E+00 0. -1.
         21    1    1    2  504  503  0.17130905639E+01 -0.26749386865E+02  0.10225330186E+03  0.10570809865E+03  0.00000000000E+00 0. -1.
<mgrwt>
<rscale>  1 0.12784168E+03</rscale>
<asrwt>0</asrwt>
<pdfrwt beam="1">  1       21 0.18516393E-01 0.12784168E+03</pdfrwt>
<pdfrwt beam="2">  1       21 0.38651303E-01 0.12784168E+03</pdfrwt>
<totfact> 0.17529811E+05</totfact>
</mgrwt>
</event>
<event>
 6    1  0.4216855E-002  0.1352415E+03  0.7546771E-02  0.1219879E+00
         21   -1    0    0  504  502  0.00000000000E+00  0.00000000000E+00  0.55977124949E+02  0.55977124949E+02  0.00000000000E+00 0. -1.
         21   -1    0    0  502  503 -0.00000000000E+00 -0.00000000000E+00 -0.17910897140E+03  0.17910897140E+03  0.00000000000E+00 0. -1.
         25    2    1    2    0    0  0.49556880720E+02  0.14244648534E+02 -0.12404559124E+03  0.18351450176E+03  0.12502587417E+03 0.  0.
          5    1    3    3  501    0  0.48717300980E+02 -0.46332668343E+02 -0.94856279760E+02  0.11626614030E+03  0.10000000000E+00 0.  1.
         -5    1    3    3    0  501  0.83957974033E+00  0.60577316878E+02 -0.29189311481E+02  0.67248361460E+02  0.10000000000E+00 0.  1.
         21    1    1    2  504  503 -0.49556880720E+02 -0.14244648534E+02  0.91374479291E+00  0.51571594586E+02  0.00000000000E+00 0. -1.
<mgrwt>
<rscale>  1 0.13524150E+03</rscale>
<asrwt>0</asrwt>
<pdfrwt beam="1">  1       21 0.86118656E-02 0.13524150E+03</pdfrwt>
<pdfrwt beam="2">  1       21 0.27555226E-01 0.13524150E+03</pdfrwt>
<totfact> 0.13248275E+06</totfact>
</mgrwt>
</event>
<event>
 6    1  0.4216855E-002  0.1261742E+03  0.7546771E-02  0.1233246E+00
         21   -1    0    0  503  502  0.00000000000E+00  0.00000000000E+00  0.20137912047E+02  0.20137912047E+02  0.00000000000E+00 0. -1.
         21   -1    0    0  504  503 -0.00000000000E+00 -0.00000000000E+00 -0.26151047719E+03  0.26151047719E+03  0.00000000000E+00 0. -1.
         25    2    1    2    0    0 -0.27143585268E+01  0.17015613231E+02 -0.22453085170E+03  0.25755394698E+03  0.12499213337E+03 0.  0.
          5    1    3    3  501    0 -0.94859679170E+01  0.14761004144E+02 -0.23993536932E+03  0.24057610497E+03  0.10000000000E+00 0. -1.
         -5    1    3    3    0  501  0.67716093902E+01  0.22546090864E+01  0.15404517628E+02  0.16977842007E+02  0.10000000000E+00 0. -1.
         21    1    1    2  504  502  0.27143585268E+01 -0.17015613231E+02 -0.16841713441E+02  0.24094442252E+02  0.00000000000E+00 0.  1.
<mgrwt>
<rscale>  1 0.12617421E+03</rscale>
<asrwt>0</asrwt>
<pdfrwt beam="1">  1       21 0.30981403E-02 0.12617421E+03</pdfrwt>
<pdfrwt beam="2">  1       21 0.40232382E-01 0.12617421E+03</pdfrwt>
<totfact> 0.35321153E+06</totfact>
</mgrwt>
</event>
<event>
 6    1  0.4216855E-002  0.1336273E+03  0.7546771E-02  0.1222171E+00
         21   -1    0    0  503  502  0.00000000000E+00  0.00000000000E+00  0.18639921177E+03  0.18639921177E+03  0.00000000000E+00 0.  1.
         21   -1    0    0  504  503 -0.00000000000E+00 -0.00000000000E+00 -0.60369517145E+03  0.60369517145E+03  0.00000000000E+00 0. -1.
         25    2    1    2    0    0  0.44167261939E+02 -0.16772616713E+02 -0.59314421328E+03  0.60801012801E+03  0.12499676122E+03 0.  0.
          5    1    3    3  501    0  0.71136424620E+02  0.31626295671E+02 -0.32391438228E+03  0.33313833543E+03  0.10000000000E+00 0. -1.
         -5    1    3    3    0  501 -0.26969162681E+02 -0.48398912384E+02 -0.26922983100E+03  0.27487179258E+03  0.10000000000E+00 0. -1.
         21    1    1    2  504  502 -0.44167261939E+02  0.16772616713E+02  0.17584825360E+03  0.18208425520E+03  0.00000000000E+00 0.  1.
<mgrwt>
<rscale>  1 0.13362731E+03</rscale>
<asrwt>0</asrwt>
<pdfrwt beam="1">  1       21 0.28676802E-01 0.13362731E+03</pdfrwt>
<pdfrwt beam="2">  1       21 0.92876181E-01 0.13362731E+03</pdfrwt>
<totfact> 0.11871830E+04</totfact>
</mgrwt>
</event>
<event>
 6    1  0.4216855E-002  0.1708746E+03  0.7546771E-02  0.1176939E+00
         21   -1    0    0  503  502  0.00000000000E+00  0.00000000000E+00  0.21298994317E+04  0.21298994317E+04  0.00000000000E+00 0. -1.
         21   -1    0    0  504  503 -0.00000000000E+00 -0.00000000000E+00 -0.15982004841E+03  0.15982004841E+03  0.00000000000E+00 0.  1.
         25    2    1    2    0    0 -0.10661125133E+03  0.46980844510E+02 -0.11204800156E+03  0.20433519767E+03  0.12499983877E+03 0.  0.
          5    1    3    3  501    0  0.11993787705E+02  0.48910346788E+02 -0.19984059932E+02  0.54179752840E+02  0.10000000000E+00 0.  1.
         -5    1    3    3    0  501 -0.11860503904E+03 -0.19295022773E+01 -0.92063941629E+02  0.15015544483E+03  0.10000000000E+00 0.  1.
         21    1    1    2  504  502  0.10661125133E+03 -0.46980844510E+02  0.20821273849E+04  0.20853842824E+04  0.00000000000E+00 0. -1.
<mgrwt>
<rscale>  1 0.17087457E+03</rscale>
<asrwt>0</asrwt>
<pdfrwt beam="1">  1       21 0.32767681E+00 0.17087457E+03</pdfrwt>
<pdfrwt beam="2">  1       21 0.24587701E-01 0.17087457E+03</pdfrwt>
<totfact> 0.38273540E+02</totfact>
</mgrwt>
</event>
<event>
 6    1  0.4216855E-002  0.1843717E+03  0.7546771E-02  0.1163638E+00
         21   -1    0    0  503  502  0.00000000000E+00  0.00000000000E+00  0.32642170841E+03  0.32642170841E+03  0.00000000000E+00 0. -1.
         21   -1    0    0  504  503 -0.00000000000E+00 -0.00000000000E+00 -0.99045712831E+02  0.99045712831E+02  0.00000000000E+00 0. -1.
         25    2    1    2    0    0 -0.11292018863E+03 -0.74920416426E+02  0.31132812249E+02  0.18698173026E+03  0.12501550966E+03 0.  0.
          5    1    3    3  501    0 -0.21950960825E+01 -0.37896823232E+02  0.55959732998E+02  0.67620184672E+02  0.10000000000E+00 0. -1.
         -5    1    3    3    0  501 -0.11072509255E+03 -0.37023593194E+02 -0.24826920749E+02  0.11936154559E+03  0.10000000000E+00 0. -1.
         21    1    1    2  504  502  0.11292018863E+03  0.74920416426E+02  0.19624318333E+03  0.23848569097E+03  0.00000000000E+00 0. -1.
<mgrwt>
<rscale>  1 0.18437168E+03</rscale>
<asrwt>0</asrwt>
<pdfrwt beam="1">  1       21 0.50218724E-01 0.18437168E+03</pdfrwt>
<pdfrwt beam="2">  1       21 0.15237802E-01 0.18437168E+03</pdfrwt>
<totfact> 0.14433029E+05</totfact>
</mgrwt>
</event>
<event>
 6    1  0.4216855E-002  0.1523633E+03  0.7546771E-02  0.1197599E+00
         21   -1    0    0  504  502  0.00000000000E+00  0.00000000000E+00  0.40569281795E+02  0.40569281795E+02  0.00000000000E+00 0. -1.
         21   -1    0    0  502  503 -0.00000000000E+00 -0.00000000000E+00 -0.36348186239E+03  0.36348186239E+03  0.00000000000E+00 0. -1.
         25    2    1    2    0    0  0.12192313543E+02 -0.86271881462E+02 -0.17188909040E+03  0.22969637760E+03  0.12499230554E+03 0.  0.
          5    1    3    3  501    0  0.51616094941E+02 -0.89396569814E+02 -0.83177124861E+02  0.13256851833E+03  0.10000000000E+00 0.  1.
         -5    1    3    3    0  501 -0.39423781398E+02  0.31246883519E+01 -0.88711965539E+02  0.97127859272E+02  0.10000000000E+00 0.  1.
         21    1    1    2  504  503 -0.12192313543E+02  0.86271881462E+02 -0.15102349020E+03  0.17435476659E+03  0.00000000000E+00 0. -1.
<mgrwt>
<rscale>  1 0.15236327E+03</rscale>
<asrwt>0</asrwt>
<pdfrwt beam="1">  1       21 0.62414279E-02 0.15236327E+03</pdfrwt>
<pdfrwt beam="2">  1       21 0.55920287E-01 0.15236327E+03</pdfrwt>
<totfact> 0.55834716E+05</totfact>
</mgrwt>
</event>
<event>
 6    1  0.4216855E-002  0.1291559E+03  0.7546771E-02  0.1228714E+00
         21   -1    0    0  504  502  0.00000000000E+00  0.00000000000E+00  0.16250933159E+03  0.16250933159E+03  0.00000000000E+00 0. -1.
         21   -1    0    0  502  503 -0.00000000000E+00 -0.00000000000E+00 -0.40584116022E+02  0.40584116022E+02  0.00000000000E+00 0. -1.
         25    2    1    2    0    0 -0.31085799040E+02  0.94804543691E+01  0.89144483150E+02  0.15693304970E+03  0.12500014919E+03 0.  0.
          5    1    3    3  501    0 -0.77067979869E+02  0.96602899205E+00  0.32940047788E+02  0.83818037924E+02  0.10000000000E+00 0. -1.
         -5    1    3    3    0  501  0.45982180829E+02  0.85144253771E+01  0.56204435362E+02  0.73115011781E+02  0.10000000000E+00 0. -1.
         21    1    1    2  504  503  0.31085799040E+02 -0.94804543691E+01  0.32780732416E+02  0.46160397905E+02  0.00000000000E+00 0.  1.
<mgrwt>
<rscale>  1 0.12915589E+03</rscale>
<asrwt>0</asrwt>
<pdfrwt beam="1">  1       21 0.25001435E-01 0.12915589E+03</pdfrwt>
<pdfrwt beam="2">  1       21 0.62437102E-02 0.12915589E+03</pdfrwt>
<totfact> 0.27648684E+06</totfact>
</mgrwt>
</event>
<event>
 6    1  0.4216855E-002  0.1260182E+03  0.7546771E-02  0.1233486E+00
         21   -1    0    0  504  502  0.00000000000E+00  0.00000000000E+00  0.28085900505E+03  0.28085900505E+03  0.00000000000E+00 0. -1.
         21   -1    0    0  502  503 -0.00000000000E+00 -0.00000000000E+00 -0.20013257616E+02  0.20013257616E+02  0.00000000000E+00 0. -1.
         25    2    1    2    0    0 -0.39925012058E+01 -0.15360622738E+02  0.18807433184E+03  0.22639026669E+03  0.12501483815E+03 0.  0.
          5    1    3    3  501    0 -0.48563545580E+02 -0.49855169107E+02  0.10737108911E+03  0.12795513519E+03  0.10000000000E+00 0.  1.
         -5    1    3    3    0  501  0.44571044374E+02  0.34494546368E+02  0.80703242731E+02  0.98435131499E+02  0.10000000000E+00 0.  1.
         21    1    1    2  504  503  0.39925012058E+01  0.15360622738E+02  0.72771415589E+02  0.74481995969E+02  0.00000000000E+00 0. -1.
<mgrwt>
<rscale>  1 0.12601825E+03</rscale>
<asrwt>0</asrwt>
<pdfrwt beam="1">  1       21 0.43209075E-01 0.12601825E+03</pdfrwt>
<pdfrwt beam="2">  1       21 0.30789629E-02 0.12601825E+03</pdfrwt>
<totfact> 0.30913561E+06</totfact>
</mgrwt>
</event>
<event>
 6    1  0.4216855E-002  0.1283752E+03  0.7546771E-02  0.1229887E+00
         21   -1    0    0  503  502  0.00000000000E+00  0.00000000000E+00  0.15226903992E+03  0.15226903992E+03  0.00000000000E+00 0.  1.
         21   -1    0    0  504  503 -0.00000000000E+00 -0.00000000000E+00 -0.48435279855E+02  0.48435279855E+02  0.00000000000E+00 0.  1.
         25    2    1    2    0    0 -0.63489614028E+01 -0.28563258276E+02  0.46867903006E+02  0.13666309942E+03  0.12499613344E+03 0.  0.
          5    1    3    3  501    0 -0.34964846713E+02 -0.64134426131E+02  0.53483718950E+02  0.90533327088E+02  0.10000000000E+00 0.  1.
         -5    1    3    3    0  501  0.28615885310E+02  0.35571167854E+02 -0.66158159442E+01  0.46129772330E+02  0.10000000000E+00 0.  1.
         21    1    1    2  504  502  0.63489614028E+01  0.28563258276E+02  0.56965857054E+02  0.64041220352E+02  0.00000000000E+00 0.  1.
<mgrwt>
<rscale>  1 0.12837524E+03</rscale>
<asrwt>0</asrwt>
<pdfrwt beam="1">  1       21 0.23426006E-01 0.12837524E+03</pdfrwt>
<pdfrwt beam="2">  1       21 0.74515816E-02 0.12837524E+03</pdfrwt>
<totfact> 0.23100848E+06</totfact>
</mgrwt>
</event>
<event>
 6    1  0.4216855E-002  0.1641975E+03  0.7546771E-02  0.1184038E+00
         21   -1    0    0  504  502  0.00000000000E+00  0.00000000000E+00  0.34919386603E+03  0.34919386603E+03  0.00000000000E+00 0. -1.
         21   -1    0    0  502  503 -0.00000000000E+00 -0.00000000000E+00 -0.17561994239E+03  0.17561994239E+03  0.00000000000E+00 0. -1.
         25    2    1    2    0    0  0.68415254760E+02  0.81587028270E+02 -0.12594190709E+03  0.20693517888E+03  0.12499485601E+03 0.  0.
          5    1    3    3  501    0  0.17985336727E+02 -0.20723782498E+02 -0.78927830387E+02  0.83561713169E+02  0.10000000000E+00 0. -1.
         -5    1    3    3    0  501  0.50429918032E+02  0.10231081077E+03 -0.47014076704E+02  0.12337346571E+03  0.10000000000E+00 0. -1.
         21    1    1    2  504  503 -0.68415254760E+02 -0.81587028270E+02  0.29951583072E+03  0.31787862954E+03  0.00000000000E+00 0. -1.
<mgrwt>
<rscale>  1 0.16419746E+03</rscale>
<asrwt>0</asrwt>
<pdfrwt beam="1">  1       21 0.53722133E-01 0.16419746E+03</pdfrwt>
<pdfrwt beam="2">  1       21 0.27018453E-01 0.16419746E+03</pdfrwt>
<totfact> 0.43410195E+04</totfact>
</mgrwt>
</event>
<event>
 6    1  0.4216855E-002  0.1263086E+03  0.7546771E-02  0.1233038E+00
         21   -1    0    0  503  502  0.00000000000E+00  0.00000000000E+00  0.27662055935E+03  0.27662055935E+03  0.00000000000E+00 0. -1.
         21   -1    0    0  504  503 -0.00000000000E+00 -0.00000000000E+00 -0.31522221669E+02  0.31522221669E+02  0.00000000000E+00 0. -1.
         25    2    1    2    0    0  0.17809635223E+02 -0.34836470269E+01  0.97839398031E+02  0.15976989195E+03  0.12499820664E+03 0.  0.
          5    1    3    3  501    0  0.46198472706E+02  0.22483507119E+02  0.10832563355E+03  0.11989270144E+03  0.10000000000E+00 0.  1.
         -5    1    3    3    0  501 -0.28388837482E+02 -0.25967154146E+02 -0.10486235523E+02  0.39877190516E+02  0.10000000000E+00 0.  1.
         21    1    1    2  504  502 -0.17809635223E+02  0.34836470269E+01  0.14725893965E+03  0.14837288907E+03  0.00000000000E+00 0. -1.
<mgrwt>
<rscale>  1 0.12630863E+03</rscale>
<asrwt>0</asrwt>
<pdfrwt beam="1">  1       21 0.42557008E-01 0.12630863E+03</pdfrwt>
<pdfrwt beam="2">  1       21 0.48495727E-02 0.12630863E+03</pdfrwt>
<totfact> 0.15010110E+06</totfact>
</mgrwt>
</event>
<event>
 6    1  0.4216855E-002  0.1330731E+03  0.7546771E-02  0.1222966E+00
         21   -1    0    0  504  502  0.00000000000E+00  0.00000000000E+00  0.14772713217E+03  0.14772713217E+03  0.00000000000E+00 0.  1.
         21   -1    0    0  502  503 -0.00000000000E+00 -0.00000000000E+00 -0.33611060288E+03  0.33611060288E+03  0.00000000000E+00 0.  1.
         25    2    1    2    0    0 -0.30469365208E+02 -0.34010272630E+02 -0.31890679235E+03  0.34555751827E+03  0.12499350130E+03 0.  0.
          5    1    3    3  501    0  0.36430448002E+02  0.24737209756E+02 -0.10691740892E+03  0.11563065951E+03  0.10000000000E+00 0. -1.
         -5    1    3    3    0  501 -0.66899813210E+02 -0.58747482386E+02 -0.21198938343E+03  0.22992685876E+03  0.10000000000E+00 0. -1.
         21    1    1    2  504  503  0.30469365208E+02  0.34010272630E+02  0.13052332164E+03  0.13828021678E+03  0.00000000000E+00 0.  1.
<mgrwt>
<rscale>  1 0.13307312E+03</rscale>
<asrwt>0</asrwt>
<pdfrwt beam="1">  1       21 0.22727251E-01 0.13307312E+03</pdfrwt>
<pdfrwt beam="2">  1       21 0.51709323E-01 0.13307312E+03</pdfrwt>
<totfact> 0.66244898E+04</totfact>
</mgrwt>
</event>
<event>
 6    1  0.4216855E-002  0.1264225E+03  0.7546771E-02  0.1232863E+00
         21   -1    0    0  504  502  0.00000000000E+00  0.00000000000E+00  0.32245172524E+02  0.32245172524E+02  0.00000000000E+00 0.  1.
         21   -1    0    0  502  503 -0.00000000000E+00 -0.00000000000E+00 -0.16417236572E+03  0.16417236572E+03  0.00000000000E+00 0.  1.
         25    2    1    2    0    0  0.80152458676E+01 -0.17150163821E+02 -0.11777082887E+03  0.17277911748E+03  0.12499713204E+03 0.  0.
          5    1    3    3  501    0 -0.44732571694E+02 -0.65247941605E+01 -0.21571255165E+01  0.45257475623E+02  0.10000000000E+00 0.  1.
         -5    1    3    3    0  501  0.52747817562E+02 -0.10625369661E+02 -0.11561370336E+03  0.12752164186E+03  0.10000000000E+00 0.  1.
         21    1    1    2  504  503 -0.80152458676E+01  0.17150163821E+02 -0.14156364325E+02  0.23638420766E+02  0.00000000000E+00 0.  1.
<mgrwt>
<rscale>  1 0.12642253E+03</rscale>
<asrwt>0</asrwt>
<pdfrwt beam="1">  1       21 0.49607958E-02 0.12642253E+03</pdfrwt>
<pdfrwt beam="2">  1       21 0.25257287E-01 0.12642253E+03</pdfrwt>
<totfact> 0.39957831E+06</totfact>
</mgrwt>
</event>
<event>
 6    1  0.4216855E-002  0.1386103E+03  0.7546771E-02  0.1215211E+00
         21   -1    0    0  503  502  0.00000000000E+00  0.00000000000E+00  0.94695053002E+02  0.94695053002E+02  0.00000000000E+00 0. -1.
         21   -1    0    0  504  503 -0.00000000000E+00 -0.00000000000E+00 -0.10433098067E+03  0.10433098067E+03  0.00000000000E+00 0. -1.
         25    2    1    2    0    0  0.58921478997E+02  0.10749475031E+02 -0.11643115424E+02  0.13909840479E+03  0.12500204870E+03 0.  0.
          5    1    3    3  501    0  0.81956567956E+02 -0.22620214445E+02 -0.35407764034E+02  0.92099255624E+02  0.10000000000E+00 0. -1.
         -5    1    3    3    0  501 -0.23035088959E+02  0.33369689475E+02  0.23764648610E+02  0.46999149169E+02  0.10000000000E+00 0. -1.
         21    1    1    2  504  502 -0.58921478997E+02 -0.10749475031E+02  0.20071877537E+01  0.59927628881E+02  0.00000000000E+00 0. -1.
<mgrwt>
<rscale>  1 0.13861026E+03</rscale>
<asrwt>0</asrwt>
<pdfrwt beam="1">  1       21 0.14568470E-01 0.13861026E+03</pdfrwt>
<pdfrwt beam="2">  1       21 0.16050920E-01 0.13861026E+03</pdfrwt>
<totfact> 0.14318912E+06</totfact>
</mgrwt>
</event>
<event>
 6    1  0.4216855E-002  0.1362417E+03  0.7546771E-02  0.1218477E+00
         21   -1    0    0  503  502  0.00000000000E+00  0.00000000000E+00  0.76079273733E+02  0.76079273733E+02  0.00000000000E+00 0.  1.
         21   -1    0    0  504  503 -0.00000000000E+00 -0.00000000000E+00 -0.14433107814E+04  0.14433107814E+04  0.00000000000E+00 0.  1.
         25    2    1    2    0    0 -0.53370871250E+02 -0.94247559939E+01 -0.14299919725E+04  0.14364674896E+04  0.12499812608E+03 0.  0.
          5    1    3    3  501    0 -0.38634243959E+01 -0.12410797360E+02 -0.12412385818E+04  0.12413066426E+04  0.10000000000E+00 0.  1.
         -5    1    3    3    0  501 -0.49507446854E+02  0.29860413662E+01 -0.18875339066E+03  0.19516084705E+03  0.10000000000E+00 0.  1.
         21    1    1    2  504  502  0.53370871250E+02  0.94247559939E+01  0.62760464814E+02  0.82922565488E+02  0.00000000000E+00 0.  1.
<mgrwt>
<rscale>  1 0.13624172E+03</rscale>
<asrwt>0</asrwt>
<pdfrwt beam="1">  1       21 0.11704504E-01 0.13624172E+03</pdfrwt>
<pdfrwt beam="2">  1       21 0.22204780E+00 0.13624172E+03</pdfrwt>
<totfact> 0.63686930E+03</totfact>
</mgrwt>
</event>
<event>
 6    1  0.4216855E-002  0.1294390E+03  0.7546771E-02  0.1228291E+00
         21   -1    0    0  503  502  0.00000000000E+00  0.00000000000E+00  0.28768207941E+03  0.28768207941E+03  0.00000000000E+00 0. -1.
         21   -1    0    0  504  503 -0.00000000000E+00 -0.00000000000E+00 -0.25965617745E+02  0.25965617745E+02  0.00000000000E+00 0. -1.
         25    2    1    2    0    0  0.13679626093E+02  0.30712121447E+02  0.15596735481E+03  0.20268265683E+03  0.12499630810E+03 0.  0.
          5    1    3    3  501    0  0.35118837286E+02 -0.47980816300E+01 -0.55916440337E+01  0.35883572880E+02  0.10000000000E+00 0.  1.
         -5    1    3    3    0  501 -0.21439211193E+02  0.35510203077E+02  0.16155899884E+03  0.16679908395E+03  0.10000000000E+00 0.  1.
         21    1    1    2  504  502 -0.13679626093E+02 -0.30712121447E+02  0.10574910685E+03  0.11096504032E+03  0.00000000000E+00 0. -1.
<mgrwt>
<rscale>  1 0.12943896E+03</rscale>
<asrwt>0</asrwt>
<pdfrwt beam="1">  1       21 0.44258779E-01 0.12943896E+03</pdfrwt>
<pdfrwt beam="2">  1       21 0.39947106E-02 0.12943896E+03</pdfrwt>
<totfact> 0.19174161E+06</totfact>
</mgrwt>
</event>
<event>
 6    1  0.4216855E-002  0.1358517E+03  0.7546771E-02  0.1219022E+00
         21   -1    0    0  504  502  0.00000000000E+00  0.00000000000E+00  0.18688192461E+03  0.18688192461E+03  0.00000000000E+00 0. -1.
         21   -1    0    0  502  503 -0.00000000000E+00 -0.00000000000E+00 -0.11011768803E+04  0.11011768803E+04  0.00000000000E+00 0. -1.
         25    2    1    2    0    0 -0.45431912660E+02 -0.27706828612E+02 -0.10930967762E+04  0.11015063509E+04  0.12499580728E+03 0.  0.
          5    1    3    3  501    0 -0.61396020793E+02 -0.64740133757E+02 -0.57946341924E+03  0.58629226545E+03  0.10000000000E+00 0.  1.
         -5    1    3    3    0  501  0.15964108133E+02  0.37033305145E+02 -0.51363335698E+03  0.51521408544E+03  0.10000000000E+00 0.  1.
         21    1    1    2  504  503  0.45431912660E+02  0.27706828612E+02  0.17880182058E+03  0.18655245397E+03  0.00000000000E+00 0. -1.
<mgrwt>
<rscale>  1 0.13585168E+03</rscale>
<asrwt>0</asrwt>
<pdfrwt beam="1">  1       21 0.28751066E-01 0.13585168E+03</pdfrwt>
<pdfrwt beam="2">  1       21 0.16941183E+00 0.13585168E+03</pdfrwt>
<totfact> 0.26513256E+03</totfact>
</mgrwt>
</event>
<event>
 6    1  0.4216855E-002  0.1520892E+03  0.7546771E-02  0.1197929E+00
         21   -1    0    0  504  502  0.00000000000E+00  0.00000000000E+00  0.12616810819E+03  0.12616810819E+03  0.00000000000E+00 0. -1.
         21   -1    0    0  502  503 -0.00000000000E+00 -0.00000000000E+00 -0.12357466204E+03  0.12357466204E+03  0.00000000000E+00 0. -1.
         25    2    1    2    0    0 -0.75542720897E+02  0.42445185391E+02 -0.33733978853E+02  0.15578544880E+03  0.12499131284E+03 0.  0.
          5    1    3    3  501    0 -0.37072710646E+02  0.50136986268E+02 -0.75874972544E+02  0.98209595891E+02  0.10000000000E+00 0. -1.
         -5    1    3    3    0  501 -0.38470010251E+02 -0.76918008766E+01  0.42140993691E+02  0.57575852913E+02  0.10000000000E+00 0. -1.
         21    1    1    2  504  503  0.75542720897E+02 -0.42445185391E+02  0.36327424998E+02  0.93957321430E+02  0.00000000000E+00 0. -1.
<mgrwt>
<rscale>  1 0.15208920E+03</rscale>
<asrwt>0</asrwt>
<pdfrwt beam="1">  1       21 0.19410478E-01 0.15208920E+03</pdfrwt>
<pdfrwt beam="2">  1       21 0.19011486E-01 0.15208920E+03</pdfrwt>
<totfact> 0.62217156E+05</totfact>
</mgrwt>
</event>
<event>
 6    1  0.4216855E-002  0.1259489E+03  0.7546771E-02  0.1233594E+00
         21   -1    0    0  503  502  0.00000000000E+00  0.00000000000E+00  0.83403751489E+02  0.83403751489E+02  0.00000000000E+00 0.  1.
         21   -1    0    0  504  503 -0.00000000000E+00 -0.00000000000E+00 -0.10215621373E+03  0.10215621373E+03  0.00000000000E+00 0.  1.
         25    2    1    2    0    0  0.15364826594E+02  0.15197909944E+01 -0.61462012566E+02  0.14014528313E+03  0.12499893493E+03 0.  0.
          5    1    3    3  501    0  0.60900880954E+02 -0.31402597054E+02 -0.23958246036E+02  0.72588208105E+02  0.10000000000E+00 0. -1.
         -5    1    3    3    0  501 -0.45536054360E+02  0.32922388048E+02 -0.37503766529E+02  0.67557075021E+02  0.10000000000E+00 0. -1.
         21    1    1    2  504  502 -0.15364826594E+02 -0.15197909944E+01  0.42709550323E+02  0.45414682095E+02  0.00000000000E+00 0.  1.
<mgrwt>
<rscale>  1 0.12594888E+03</rscale>
<asrwt>0</asrwt>
<pdfrwt beam="1">  1       21 0.12831346E-01 0.12594888E+03</pdfrwt>
<pdfrwt beam="2">  1       21 0.15716340E-01 0.12594888E+03</pdfrwt>
<totfact> 0.18636474E+06</totfact>
</mgrwt>
</event>
<event>
 6    1  0.4216855E-002  0.1290579E+03  0.7546771E-02  0.1228860E+00
         21   -1    0    0  504  502  0.00000000000E+00  0.00000000000E+00  0.91200391244E+01  0.91200391244E+01  0.00000000000E+00 0. -1.
         21   -1    0    0  502  503 -0.00000000000E+00 -0.00000000000E+00 -0.82848517723E+03  0.82848517723E+03  0.00000000000E+00 0. -1.
         25    2    1    2    0    0  0.22564024235E+02 -0.22826604153E+02 -0.49110111664E+03  0.50777578038E+03  0.12500298928E+03 0.  0.
          5    1    3    3  501    0  0.37050076141E+02  0.14084236574E+02 -0.44585615346E+03  0.44761455901E+03  0.10000000000E+00 0. -1.
         -5    1    3    3    0  501 -0.14486051906E+02 -0.36910840728E+02 -0.45244963177E+02  0.60161221363E+02  0.10000000000E+00 0. -1.
         21    1    1    2  504  503 -0.22564024235E+02  0.22826604153E+02 -0.32826402147E+03  0.32982943598E+03  0.00000000000E+00 0. -1.
<mgrwt>
<rscale>  1 0.12905788E+03</rscale>
<asrwt>0</asrwt>
<pdfrwt beam="1">  1       21 0.14030828E-02 0.12905788E+03</pdfrwt>
<pdfrwt beam="2">  1       21 0.12745927E+00 0.12905788E+03</pdfrwt>
<totfact> 0.10003721E+06</totfact>
</mgrwt>
</event>
<event>
 6    1  0.4216855E-002  0.1260527E+03  0.7546771E-02  0.1233433E+00
         21   -1    0    0  504  502  0.00000000000E+00  0.00000000000E+00  0.11312091868E+03  0.11312091868E+03  0.00000000000E+00 0.  1.
         21   -1    0    0  502  503 -0.00000000000E+00 -0.00000000000E+00 -0.50986513085E+02  0.50986513085E+02  0.00000000000E+00 0.  1.
         25    2    1    2    0    0  0.88239294809E+01 -0.13507303232E+02  0.32197693711E+02  0.13009984893E+03  0.12501587994E+03 0.  0.
          5    1    3    3  501    0  0.48558323769E+02  0.37506577267E+02  0.14183179204E+02  0.62974810186E+02  0.10000000000E+00 0. -1.
         -5    1    3    3    0  501 -0.39734394288E+02 -0.51013880500E+02  0.18014514507E+02  0.67125038741E+02  0.10000000000E+00 0. -1.
         21    1    1    2  504  503 -0.88239294809E+01  0.13507303232E+02  0.29936711884E+02  0.34007582839E+02  0.00000000000E+00 0.  1.
<mgrwt>
<rscale>  1 0.12605268E+03</rscale>
<asrwt>0</asrwt>
<pdfrwt beam="1">  1       21 0.17403218E-01 0.12605268E+03</pdfrwt>
<pdfrwt beam="2">  1       21 0.78440790E-02 0.12605268E+03</pdfrwt>
<totfact> 0.36625885E+06</totfact>
</mgrwt>
</event>
<event>
 6    1  0.4216855E-002  0.1594578E+03  0.7546771E-02  0.1189310E+00
         21   -1    0    0  503  502  0.00000000000E+00  0.00000000000E+00  0.19358682701E+03  0.19358682701E+03  0.00000000000E+00 0. -1.
         21   -1    0    0  504  503 -0.00000000000E+00 -0.00000000000E+00 -0.37582695872E+03  0.37582695872E+03  0.00000000000E+00 0. -1.
         25    2    1    2    0    0  0.52759029995E+02  0.83779004982E+02 -0.34434023675E+03  0.37946937024E+03  0.12499746951E+03 0.  0.
          5    1    3    3  501    0 -0.22229870344E+02  0.39154073968E+02 -0.23649028718E+03  0.24073818678E+03  0.10000000000E+00 0.  1.
         -5    1    3    3    0  501  0.74988900339E+02  0.44624931013E+02 -0.10784994957E+03  0.13873118346E+03  0.10000000000E+00 0.  1.
         21    1    1    2  504  502 -0.52759029995E+02 -0.83779004982E+02  0.16210010504E+03  0.18994441549E+03  0.00000000000E+00 0. -1.
<mgrwt>
<rscale>  1 0.15945784E+03</rscale>
<asrwt>0</asrwt>
<pdfrwt beam="1">  1       21 0.29782589E-01 0.15945784E+03</pdfrwt>
<pdfrwt beam="2">  1       21 0.57819532E-01 0.15945784E+03</pdfrwt>
<totfact> 0.30891102E+04</totfact>
</mgrwt>
</event>
<event>
 6    1  0.4216855E-002  0.1282153E+03  0.7546771E-02  0.1230128E+00
         21   -1    0    0  503  502  0.00000000000E+00  0.00000000000E+00  0.70916383324E+02  0.70916383324E+02  0.00000000000E+00 0.  1.
         21   -1    0    0  504  503 -0.00000000000E+00 -0.00000000000E+00 -0.14660276527E+03  0.14660276527E+03  0.00000000000E+00 0. -1.
         25    2    1    2    0    0  0.16436984088E+02 -0.23314893993E+02 -0.11275685361E+03  0.17074331512E+03  0.12500165156E+03 0.  0.
          5    1    3    3  501    0  0.24131936255E+02 -0.65757655364E+02 -0.27604629797E+02  0.75289077379E+02  0.10000000000E+00 0.  1.
         -5    1    3    3    0  501 -0.76949521675E+01  0.42442761370E+02 -0.85152223817E+02  0.95454237740E+02  0.10000000000E+00 0.  1.
         21    1    1    2  504  502 -0.16436984088E+02  0.23314893993E+02  0.37070471667E+02  0.46775833477E+02  0.00000000000E+00 0.  1.
<mgrwt>
<rscale>  1 0.12821533E+03</rscale>
<asrwt>0</asrwt>
<pdfrwt beam="1">  1       21 0.10910213E-01 0.12821533E+03</pdfrwt>
<pdfrwt beam="2">  1       21 0.22554271E-01 0.12821533E+03</pdfrwt>
<totfact> 0.12787594E+06</totfact>
</mgrwt>
</event>
<event>
 6    1  0.4216855E-002  0.1310484E+03  0.7546771E-02  0.1225908E+00
         21   -1    0    0  503  502  0.00000000000E+00  0.00000000000E+00  0.28893952988E+02  0.28893952988E+02  0.00000000000E+00 0.  1.
         21   -1    0    0  504  503 -0.00000000000E+00 -0.00000000000E+00 -0.52501301296E+03  0.52501301296E+03  0.00000000000E+00 0.  1.
         25    2    1    2    0    0 -0.35288014193E+02  0.17395438565E+02 -0.49756933579E+03  0.51453758027E+03  0.12500332940E+03 0.  0.
          5    1    3    3  501    0 -0.66143531521E+02 -0.31357232619E+02 -0.26589413947E+03  0.27578605151E+03  0.10000000000E+00 0. -1.
         -5    1    3    3    0  501  0.30855517328E+02  0.48752671184E+02 -0.23167519632E+03  0.23875152876E+03  0.10000000000E+00 0. -1.
         21    1    1    2  504  502  0.35288014193E+02 -0.17395438565E+02  0.14502758217E+01  0.39369385676E+02  0.00000000000E+00 0.  1.
<mgrwt>
<rscale>  1 0.13104838E+03</rscale>
<asrwt>0</asrwt>
<pdfrwt beam="1">  1       21 0.44452235E-02 0.13104838E+03</pdfrwt>
<pdfrwt beam="2">  1       21 0.80771233E-01 0.13104838E+03</pdfrwt>
<totfact> 0.44661593E+05</totfact>
</mgrwt>
</event>
<event>
 6    1  0.4216855E-002  0.1378781E+03  0.7546771E-02  0.1216213E+00
         21   -1    0    0  504  502  0.00000000000E+00  0.00000000000E+00  0.17467743522E+03  0.17467743522E+03  0.00000000000E+00 0.  1.
         21   -1    0    0  502  503 -0.00000000000E+00 -0.00000000000E+00 -0.57265665706E+02  0.57265665706E+02  0.00000000000E+00 0.  1.
         25    2    1    2    0    0 -0.49844762005E+02  0.30000011667E+02  0.10273358184E+03  0.17194351599E+03  0.12500353136E+03 0.  0.
          5    1    3    3  501    0 -0.67960089244E+02  0.51938241969E+02  0.24918558141E+02  0.89090399307E+02  0.10000000000E+00 0.  1.
         -5    1    3    3    0  501  0.18115327239E+02 -0.21938230302E+02  0.77815023703E+02  0.82853116680E+02  0.10000000000E+00 0.  1.
         21    1    1    2  504  503  0.49844762005E+02 -0.30000011667E+02  0.14678187668E+02  0.59999584937E+02  0.00000000000E+00 0.  1.
<mgrwt>
<rscale>  1 0.13787815E+03</rscale>
<asrwt>0</asrwt>
<pdfrwt beam="1">  1       21 0.26873451E-01 0.13787815E+03</pdfrwt>
<pdfrwt beam="2">  1       21 0.88101025E-02 0.13787815E+03</pdfrwt>
<totfact> 0.13362678E+06</totfact>
</mgrwt>
</event>
<event>
 6    1  0.4216855E-002  0.1288012E+03  0.7546771E-02  0.1229246E+00
         21   -1    0    0  504  502  0.00000000000E+00  0.00000000000E+00  0.96056567030E+02  0.96056567030E+02  0.00000000000E+00 0.  1.
         21   -1    0    0  502  503 -0.00000000000E+00 -0.00000000000E+00 -0.87035516460E+02  0.87035516460E+02  0.00000000000E+00 0.  1.
         25    2    1    2    0    0 -0.14635061146E+02  0.27370796312E+02 -0.30967542142E+02  0.13247160293E+03  0.12500556552E+03 0.  0.
          5    1    3    3  501    0 -0.33269467882E+02  0.63393985613E+02 -0.50344617927E+02  0.87522828218E+02  0.10000000000E+00 0. -1.
         -5    1    3    3    0  501  0.18634406736E+02 -0.36023189301E+02  0.19377075785E+02  0.44948774708E+02  0.10000000000E+00 0. -1.
         21    1    1    2  504  503  0.14635061146E+02 -0.27370796312E+02  0.39988592711E+02  0.50620480564E+02  0.00000000000E+00 0.  1.
<mgrwt>
<rscale>  1 0.12880115E+03</rscale>
<asrwt>0</asrwt>
<pdfrwt beam="1">  1       21 0.14777933E-01 0.12880115E+03</pdfrwt>
<pdfrwt beam="2">  1       21 0.13390079E-01 0.12880115E+03</pdfrwt>
<totfact> 0.19313846E+06</totfact>
</mgrwt>
</event>
<event>
 6    1  0.4216855E-002  0.1877988E+03  0.7546771E-02  0.1160462E+00
         21   -1    0    0  504  502  0.00000000000E+00  0.00000000000E+00  0.33187994634E+03  0.33187994634E+03  0.00000000000E+00 0. -1.
         21   -1    0    0  502  503 -0.00000000000E+00 -0.00000000000E+00 -0.25387718343E+03  0.25387718343E+03  0.00000000000E+00 0.  1.
         25    2    1    2    0    0 -0.36845739519E+02 -0.13523153603E+03 -0.20004271030E+03  0.27438201511E+03  0.12499290945E+03 0.  0.
          5    1    3    3  501    0  0.22531409528E+02 -0.12118749977E+03 -0.15749334953E+03  0.19999559911E+03  0.10000000000E+00 0.  1.
         -5    1    3    3    0  501 -0.59377149047E+02 -0.14044036266E+02 -0.42549360762E+02  0.74386415997E+02  0.10000000000E+00 0.  1.
         21    1    1    2  504  503  0.36845739519E+02  0.13523153603E+03  0.27804547321E+03  0.31137511466E+03  0.00000000000E+00 0. -1.
<mgrwt>
<rscale>  1 0.18779884E+03</rscale>
<asrwt>0</asrwt>
<pdfrwt beam="1">  1       21 0.51058454E-01 0.18779884E+03</pdfrwt>
<pdfrwt beam="2">  1       21 0.39058028E-01 0.18779884E+03</pdfrwt>
<totfact> 0.23115591E+04</totfact>
</mgrwt>
</event>
<event>
 6    1  0.4216855E-002  0.1365441E+03  0.7546771E-02  0.1218056E+00
         21   -1    0    0  504  502  0.00000000000E+00  0.00000000000E+00  0.15977078795E+03  0.15977078795E+03  0.00000000000E+00 0.  1.
         21   -1    0    0  502  503 -0.00000000000E+00 -0.00000000000E+00 -0.45694954162E+03  0.45694954162E+03  0.00000000000E+00 0. -1.
         25    2    1    2    0    0 -0.29042807183E+02 -0.46661237039E+02 -0.44158217264E+03  0.46221109651E+03  0.12499410728E+03 0.  0.
          5    1    3    3  501    0 -0.51595442377E+02  0.11565516833E+02 -0.84278569109E+02  0.99492402045E+02  0.10000000000E+00 0.  1.
         -5    1    3    3    0  501  0.22552635194E+02 -0.58226753872E+02 -0.35730360353E+03  0.36271869447E+03  0.10000000000E+00 0.  1.
         21    1    1    2  504  503  0.29042807183E+02  0.46661237039E+02  0.14440341896E+03  0.15450923306E+03  0.00000000000E+00 0.  1.
<mgrwt>
<rscale>  1 0.13654407E+03</rscale>
<asrwt>0</asrwt>
<pdfrwt beam="1">  1       21 0.24580121E-01 0.13654407E+03</pdfrwt>
<pdfrwt beam="2">  1       21 0.70299930E-01 0.13654407E+03</pdfrwt>
<totfact> 0.29671201E+04</totfact>
</mgrwt>
</event>
<event>
 6    1  0.4216855E-002  0.1264550E+03  0.7546771E-02  0.1232813E+00
         21   -1    0    0  503  502  0.00000000000E+00  0.00000000000E+00  0.16797302370E+02  0.16797302370E+02  0.00000000000E+00 0.  1.
         21   -1    0    0  504  503 -0.00000000000E+00 -0.00000000000E+00 -0.42760851540E+03  0.42760851540E+03  0.00000000000E+00 0.  1.
         25    2    1    2    0    0  0.19104717549E+02 -0.30933341853E+00 -0.40522675084E+03  0.42449923249E+03  0.12500317140E+03 0.  0.
          5    1    3    3  501    0 -0.20400000060E+02 -0.48797263655E+02 -0.10208277250E+03  0.11497058487E+03  0.10000000000E+00 0.  1.
         -5    1    3    3    0  501  0.39504717610E+02  0.48487930236E+02 -0.30314397834E+03  0.30952864762E+03  0.10000000000E+00 0.  1.
         21    1    1    2  504  502 -0.19104717549E+02  0.30933341853E+00 -0.55844621844E+01  0.19906585285E+02  0.00000000000E+00 0.  1.
<mgrwt>
<rscale>  1 0.12645505E+03</rscale>
<asrwt>0</asrwt>
<pdfrwt beam="1">  1       21 0.25842001E-02 0.12645505E+03</pdfrwt>
<pdfrwt beam="2">  1       21 0.65785932E-01 0.12645505E+03</pdfrwt>
<totfact> 0.17144688E+06</totfact>
</mgrwt>
</event>
<event>
 6    1  0.4216855E-002  0.1265845E+03  0.7546771E-02  0.1232614E+00
         21   -1    0    0  504  502  0.00000000000E+00  0.00000000000E+00  0.48080917439E+01  0.48080917439E+01  0.00000000000E+00 0. -1.
         21   -1    0    0  502  503 -0.00000000000E+00 -0.00000000000E+00 -0.11187739949E+04  0.11187739949E+04  0.00000000000E+00 0. -1.
         25    2    1    2    0    0  0.19600047295E+02 -0.36282004836E+01 -0.94302736340E+03  0.95148528229E+03  0.12500523434E+03 0.  0.
          5    1    3    3  501    0 -0.31859909558E+01 -0.29238856955E+02 -0.87321996414E+03  0.87371515785E+03  0.10000000000E+00 0.  1.
         -5    1    3    3    0  501  0.22786038251E+02  0.25610656471E+02 -0.69807399262E+02  0.77770124442E+02  0.10000000000E+00 0.  1.
         21    1    1    2  504  503 -0.19600047295E+02  0.36282004836E+01 -0.17093853975E+03  0.17209680434E+03  0.00000000000E+00 0. -1.
<mgrwt>
<rscale>  1 0.12658449E+03</rscale>
<asrwt>0</asrwt>
<pdfrwt beam="1">  1       21 0.73970647E-03 0.12658449E+03</pdfrwt>
<pdfrwt beam="2">  1       21 0.17211906E+00 0.12658449E+03</pdfrwt>
<totfact> 0.12627673E+06</totfact>
</mgrwt>
</event>
<event>
 6    1  0.4216855E-002  0.1265024E+03  0.7546771E-02  0.1232740E+00
         21   -1    0    0  503  502  0.00000000000E+00  0.00000000000E+00  0.61227229571E+03  0.61227229571E+03  0.00000000000E+00 0. -1.
         21   -1    0    0  504  503 -0.00000000000E+00 -0.00000000000E+00 -0.98175636875E+01  0.98175636875E+01  0.00000000000E+00 0. -1.
         25    2    1    2    0    0 -0.81157511617E+01 -0.17674396558E+02  0.42098049913E+03  0.43957644368E+03  0.12499847793E+03 0.  0.
          5    1    3    3  501    0  0.13688417130E+02  0.49549243996E+02  0.12259955982E+03  0.13294044686E+03  0.10000000000E+00 0. -1.
         -5    1    3    3    0  501 -0.21804168291E+02 -0.67223640555E+02  0.29838093931E+03  0.30663599682E+03  0.10000000000E+00 0. -1.
         21    1    1    2  504  502  0.81157511617E+01  0.17674396558E+02  0.18147423289E+03  0.18251341571E+03  0.00000000000E+00 0. -1.
<mgrwt>
<rscale>  1 0.12650245E+03</rscale>
<asrwt>0</asrwt>
<pdfrwt beam="1">  1       21 0.94195708E-01 0.12650245E+03</pdfrwt>
<pdfrwt beam="2">  1       21 0.15103949E-02 0.12650245E+03</pdfrwt>
<totfact> 0.18318143E+06</totfact>
</mgrwt>
</event>
<event>
 6    1  0.4216855E-002  0.1698172E+03  0.7546771E-02  0.1178039E+00
         21   -1    0    0  503  502  0.00000000000E+00  0.00000000000E+00  0.22617971545E+03  0.22617971545E+03  0.00000000000E+00 0.  1.
         21   -1    0    0  504  503 -0.00000000000E+00 -0.00000000000E+00 -0.13272398444E+03  0.13272398444E+03  0.00000000000E+00 0.  1.
         25    2    1    2    0    0  0.47704092546E+02  0.10458866023E+03 -0.48150698883E+02  0.17651167901E+03  0.12499365876E+03 0.  0.
          5    1    3    3  501    0 -0.42038213143E+01  0.20599483663E+02 -0.71941568646E+02  0.74950718076E+02  0.10000000000E+00 0. -1.
         -5    1    3    3    0  501  0.51907913860E+02  0.83989176565E+02  0.23790869763E+02  0.10156096093E+03  0.10000000000E+00 0. -1.
         21    1    1    2  504  502 -0.47704092546E+02 -0.10458866023E+03  0.14160642989E+03  0.18239202088E+03  0.00000000000E+00 0.  1.
<mgrwt>
<rscale>  1 0.16981720E+03</rscale>
<asrwt>0</asrwt>
<pdfrwt beam="1">  1       21 0.34796879E-01 0.16981720E+03</pdfrwt>
<pdfrwt beam="2">  1       21 0.20419074E-01 0.16981720E+03</pdfrwt>
<totfact> 0.17800564E+05</totfact>
</mgrwt>
</event>
<event>
 6    1  0.4216855E-002  0.1356725E+03  0.7546771E-02  0.1219273E+00
         21   -1    0    0  503  502  0.00000000000E+00  0.00000000000E+00  0.17602589717E+02  0.17602589717E+02  0.00000000000E+00 0. -1.
         21   -1    0    0  504  503 -0.00000000000E+00 -0.00000000000E+00 -0.71705022435E+03  0.71705022435E+03  0.00000000000E+00 0. -1.
         25    2    1    2    0    0  0.11252063460E+02  0.51545366737E+02 -0.64391874655E+03  0.65805652711E+03  0.12499402765E+03 0.  0.
          5    1    3    3  501    0 -0.32035692442E+02  0.61100812587E+02 -0.54874905980E+03  0.55306883434E+03  0.10000000000E+00 0.  1.
         -5    1    3    3    0  501  0.43287755903E+02 -0.95554458508E+01 -0.95169686748E+02  0.10498769277E+03  0.10000000000E+00 0.  1.
         21    1    1    2  504  502 -0.11252063460E+02 -0.51545366737E+02 -0.55528888083E+02  0.76596286959E+02  0.00000000000E+00 0. -1.
<mgrwt>
<rscale>  1 0.13567255E+03</rscale>
<asrwt>0</asrwt>
<pdfrwt beam="1">  1       21 0.27080911E-02 0.13567255E+03</pdfrwt>
<pdfrwt beam="2">  1       21 0.11031540E+00 0.13567255E+03</pdfrwt>
<totfact> 0.49174343E+05</totfact>
</mgrwt>
</event>
<event>
 6    1  0.4216855E-002  0.1274321E+03  0.7546771E-02  0.1231317E+00
         21   -1    0    0  504  502  0.00000000000E+00  0.00000000000E+00  0.10829834511E+03  0.10829834511E+03  0.00000000000E+00 0. -1.
         21   -1    0    0  502  503 -0.00000000000E+00 -0.00000000000E+00 -0.32582447265E+03  0.32582447265E+03  0.00000000000E+00 0.  1.
         25    2    1    2    0    0 -0.21718848263E+02  0.11832532787E+02 -0.31170651633E+03  0.33674898742E+03  0.12500884369E+03 0.  0.
          5    1    3    3  501    0 -0.14959834082E+02  0.52344798612E+02 -0.27895342849E+03  0.28421611468E+03  0.10000000000E+00 0. -1.
         -5    1    3    3    0  501 -0.67590141814E+01 -0.40512265825E+02 -0.32753087843E+02  0.52532872739E+02  0.10000000000E+00 0. -1.
         21    1    1    2  504  503  0.21718848263E+02 -0.11832532787E+02  0.94180388794E+02  0.97373830342E+02  0.00000000000E+00 0. -1.
<mgrwt>
<rscale>  1 0.12743205E+03</rscale>
<asrwt>0</asrwt>
<pdfrwt beam="1">  1       21 0.16661284E-01 0.12743205E+03</pdfrwt>
<pdfrwt beam="2">  1       21 0.50126842E-01 0.12743205E+03</pdfrwt>
<totfact> 0.12556405E+05</totfact>
</mgrwt>
</event>
<event>
 6    1  0.4216855E-002  0.1365284E+03  0.7546771E-02  0.1218078E+00
         21   -1    0    0  503  502  0.00000000000E+00  0.00000000000E+00  0.19338560266E+03  0.19338560266E+03  0.00000000000E+00 0. -1.
         21   -1    0    0  504  503 -0.00000000000E+00 -0.00000000000E+00 -0.95901322003E+02  0.95901322003E+02  0.00000000000E+00 0. -1.
         25    2    1    2    0    0 -0.33588906168E+02  0.43440335979E+02 -0.39150485090E+02  0.14203090061E+03  0.12499895535E+03 0.  0.
          5    1    3    3  501    0 -0.45358963138E+02 -0.14724877095E+02  0.25660645711E+02  0.54154743843E+02  0.10000000000E+00 0. -1.
         -5    1    3    3    0  501  0.11770056970E+02  0.58165213074E+02 -0.64811130802E+02  0.87876156771E+02  0.10000000000E+00 0. -1.
         21    1    1    2  504  502  0.33588906168E+02 -0.43440335979E+02  0.13663476575E+03  0.14725602405E+03  0.00000000000E+00 0. -1.
<mgrwt>
<rscale>  1 0.13652844E+03</rscale>
<asrwt>0</asrwt>
<pdfrwt beam="1">  1       21 0.29751631E-01 0.13652844E+03</pdfrwt>
<pdfrwt beam="2">  1       21 0.14754050E-01 0.13652844E+03</pdfrwt>
<totfact> 0.44157978E+05</totfact>
</mgrwt>
</event>
<event>
 6    1  0.4216855E-002  0.1281191E+03  0.7546771E-02  0.1230274E+00
         21   -1    0    0  503  502  0.00000000000E+00  0.00000000000E+00  0.17903363520E+03  0.17903363520E+03  0.00000000000E+00 0. -1.
         21   -1    0    0  504  503 -0.00000000000E+00 -0.00000000000E+00 -0.14528065792E+03  0.14528065792E+03  0.00000000000E+00 0. -1.
         25    2    1    2    0    0  0.17320956203E+02 -0.22147598762E+02 -0.11546397207E+03  0.17247151380E+03  0.12499585021E+03 0.  0.
          5    1    3    3  501    0  0.54462531077E+02  0.12798956838E+02 -0.10704522365E+03  0.12078356881E+03  0.10000000000E+00 0.  1.
         -5    1    3    3    0  501 -0.37141574874E+02 -0.34946555599E+02 -0.84187484215E+01  0.51687944991E+02  0.10000000000E+00 0.  1.
         21    1    1    2  504  502 -0.17320956203E+02  0.22147598762E+02  0.14921694935E+03  0.15184277931E+03  0.00000000000E+00 0. -1.
<mgrwt>
<rscale>  1 0.12811906E+03</rscale>
<asrwt>0</asrwt>
<pdfrwt beam="1">  1       21 0.27543636E-01 0.12811906E+03</pdfrwt>
<pdfrwt beam="2">  1       21 0.22350871E-01 0.12811906E+03</pdfrwt>
<totfact> 0.23935547E+05</totfact>
</mgrwt>
</event>
<event>
 6    1  0.4216855E-002  0.1259277E+03  0.7546771E-02  0.1233627E+00
         21   -1    0    0  504  502  0.00000000000E+00  0.00000000000E+00  0.13178768242E+03  0.13178768242E+03  0.00000000000E+00 0. -1.
         21   -1    0    0  502  503 -0.00000000000E+00 -0.00000000000E+00 -0.37985440841E+02  0.37985440841E+02  0.00000000000E+00 0. -1.
         25    2    1    2    0    0 -0.15186290460E+02  0.84936180870E+00  0.79688760132E+02  0.14902378129E+03  0.12500577613E+03 0.  0.
          5    1    3    3  501    0  0.27583797483E+02 -0.64472226371E+01 -0.23678081110E+02  0.36920104122E+02  0.10000000000E+00 0.  1.
         -5    1    3    3    0  501 -0.42770087943E+02  0.72965844458E+01  0.10336684124E+03  0.11210367717E+03  0.10000000000E+00 0.  1.
         21    1    1    2  504  503  0.15186290460E+02 -0.84936180870E+00  0.14113481443E+02  0.20749341962E+02  0.00000000000E+00 0. -1.
<mgrwt>
<rscale>  1 0.12592771E+03</rscale>
<asrwt>0</asrwt>
<pdfrwt beam="1">  1       21 0.20275028E-01 0.12592771E+03</pdfrwt>
<pdfrwt beam="2">  1       21 0.58439141E-02 0.12592771E+03</pdfrwt>
<totfact> 0.45716922E+06</totfact>
</mgrwt>
</event>
<event>
 6    1  0.4216855E-002  0.1284329E+03  0.7546771E-02  0.1229800E+00
         21   -1    0    0  504  502  0.00000000000E+00  0.00000000000E+00  0.13274719757E+03  0.13274719757E+03  0.00000000000E+00 0.  1.
         21   -1    0    0  502  503 -0.00000000000E+00 -0.00000000000E+00 -0.48559986653E+02  0.48559986653E+02  0.00000000000E+00 0.  1.
         25    2    1    2    0    0  0.10297218283E+01  0.29517044865E+02  0.54776535363E+02  0.13962620413E+03  0.12499076682E+03 0.  0.
          5    1    3    3  501    0 -0.89050577771E+01  0.98919237664E+01 -0.40090562074E+02  0.42242317375E+02  0.10000000000E+00 0. -1.
         -5    1    3    3    0  501  0.99347796054E+01  0.19625121098E+02  0.94867097437E+02  0.97383886758E+02  0.10000000000E+00 0. -1.
         21    1    1    2  504  503 -0.10297218283E+01 -0.29517044865E+02  0.29410675551E+02  0.41680980087E+02  0.00000000000E+00 0.  1.
<mgrwt>
<rscale>  1 0.12843289E+03</rscale>
<asrwt>0</asrwt>
<pdfrwt beam="1">  1       21 0.20422646E-01 0.12843289E+03</pdfrwt>
<pdfrwt beam="2">  1       21 0.74707672E-02 0.12843289E+03</pdfrwt>
<totfact> 0.29704388E+06</totfact>
</mgrwt>
</event>
<event>
 6    1  0.4216855E-002  0.1322233E+03  0.7546771E-02  0.1224194E+00
         21   -1    0    0  504  502  0.00000000000E+00  0.00000000000E+00  0.13929500454E+03  0.13929500454E+03  0.00000000000E+00 0.  1.
         21   -1    0    0  502  503 -0.00000000000E+00 -0.00000000000E+00 -0.55203055793E+03  0.55203055793E+03  0.00000000000E+00 0. -1.
         25    2    1    2    0    0 -0.12075530318E+02  0.41373050757E+02 -0.54052579675E+03  0.55646306190E+03  0.12500181817E+03 0.  0.
          5    1    3    3  501    0  0.81278031802E+01  0.40281115048E+02 -0.53344701152E+03  0.53502743249E+03  0.10000000000E+00 0. -1.
         -5    1    3    3    0  501 -0.20203333498E+02  0.10919357089E+01 -0.70787852321E+01  0.21435629415E+02  0.10000000000E+00 0. -1.
         21    1    1    2  504  503  0.12075530318E+02 -0.41373050757E+02  0.12779024336E+03  0.13486250057E+03  0.00000000000E+00 0.  1.
<mgrwt>
<rscale>  1 0.13222330E+03</rscale>
<asrwt>0</asrwt>
<pdfrwt beam="1">  1       21 0.21430001E-01 0.13222330E+03</pdfrwt>
<pdfrwt beam="2">  1       21 0.84927777E-01 0.13222330E+03</pdfrwt>
<totfact> 0.25282492E+04</totfact>
</mgrwt>
</event>
<event>
 6    1  0.4216855E-002  0.1268185E+03  0.7546771E-02  0.1232254E+00
         21   -1    0    0  504  502  0.00000000000E+00  0.00000000000E+00  0.31183573428E+02  0.31183573428E+02  0.00000000000E+00 0. -1.
         21   -1    0    0  502  503 -0.00000000000E+00 -0.00000000000E+00 -0.19316160877E+03  0.19316160877E+03  0.00000000000E+00 0. -1.
         25    2    1    2    0    0 -0.81765951797E+01 -0.19815176073E+02 -0.15790402629E+03  0.20252557035E+03  0.12499370870E+03 0.  0.
          5    1    3    3  501    0 -0.50665878095E+02 -0.52206845372E+02 -0.10096287264E+03  0.12444314991E+03  0.10000000000E+00 0.  1.
         -5    1    3    3    0  501  0.42489282915E+02  0.32391669300E+02 -0.56941153651E+02  0.78082420440E+02  0.10000000000E+00 0.  1.
         21    1    1    2  504  503  0.81765951797E+01  0.19815176073E+02 -0.40740090487E+01  0.21819611849E+02  0.00000000000E+00 0.  1.
<mgrwt>
<rscale>  1 0.12681847E+03</rscale>
<asrwt>0</asrwt>
<pdfrwt beam="1">  1       21 0.47974728E-02 0.12681847E+03</pdfrwt>
<pdfrwt beam="2">  1       21 0.29717171E-01 0.12681847E+03</pdfrwt>
<totfact> 0.30994741E+06</totfact>
</mgrwt>
</event>
<event>
 6    1  0.4216855E-002  0.1556712E+03  0.7546771E-02  0.1193672E+00
         21   -1    0    0  503  502  0.00000000000E+00  0.00000000000E+00  0.14161062355E+04  0.14161062355E+04  0.00000000000E+00 0. -1.
         21   -1    0    0  504  503 -0.00000000000E+00 -0.00000000000E+00 -0.24739879516E+02  0.24739879516E+02  0.00000000000E+00 0. -1.
         25    2    1    2    0    0 -0.92170839103E+02  0.10670863681E+02  0.24203211881E+03  0.28777260494E+03  0.12499677877E+03 0.  0.
          5    1    3    3  501    0  0.11370791067E+02 -0.34086141695E+01  0.14401039367E+03  0.14449884783E+03  0.10000000000E+00 0. -1.
         -5    1    3    3    0  501 -0.10354163017E+03  0.14079477851E+02  0.98021725146E+02  0.14327375711E+03  0.10000000000E+00 0. -1.
         21    1    1    2  504  502  0.92170839103E+02 -0.10670863681E+02  0.11493342372E+04  0.11530735101E+04  0.00000000000E+00 0. -1.
<mgrwt>
<rscale>  1 0.15567121E+03</rscale>
<asrwt>0</asrwt>
<pdfrwt beam="1">  1       21 0.21786243E+00 0.15567121E+03</pdfrwt>
<pdfrwt beam="2">  1       21 0.38061364E-02 0.15567121E+03</pdfrwt>
<totfact> 0.45392105E+04</totfact>
</mgrwt>
</event>
<event>
 6    1  0.4216855E-002  0.1260476E+03  0.7546771E-02  0.1233441E+00
         21   -1    0    0  504  502  0.00000000000E+00  0.00000000000E+00  0.20682279576E+03  0.20682279576E+03  0.00000000000E+00 0.  1.
         21   -1    0    0  502  503 -0.00000000000E+00 -0.00000000000E+00 -0.47082965442E+02  0.47082965442E+02  0.00000000000E+00 0. -1.
         25    2    1    2    0    0 -0.13353135933E+02  0.91823780883E+01  0.38798794765E+02  0.13188381077E+03  0.12500148304E+03 0.  0.
          5    1    3    3  501    0  0.11413693150E+02  0.25122807359E+02 -0.39525425662E+02  0.48204741620E+02  0.10000000000E+00 0.  1.
         -5    1    3    3    0  501 -0.24766829083E+02 -0.15940429271E+02  0.78324220427E+02  0.83679069149E+02  0.10000000000E+00 0.  1.
         21    1    1    2  504  503  0.13353135933E+02 -0.91823780883E+01  0.12094103555E+03  0.12202195043E+03  0.00000000000E+00 0.  1.
<mgrwt>
<rscale>  1 0.12604758E+03</rscale>
<asrwt>0</asrwt>
<pdfrwt beam="1">  1       21 0.31818891E-01 0.12604758E+03</pdfrwt>
<pdfrwt beam="2">  1       21 0.72435333E-02 0.12604758E+03</pdfrwt>
<totfact> 0.13514322E+06</totfact>
</mgrwt>
</event>
<event>
 6    1  0.4216855E-002  0.1286798E+03  0.7546771E-02  0.1229428E+00
         21   -1    0    0  503  502  0.00000000000E+00  0.00000000000E+00  0.58734540256E+03  0.58734540256E+03  0.00000000000E+00 0.  1.
         21   -1    0    0  504  503 -0.00000000000E+00 -0.00000000000E+00 -0.44242869257E+02  0.44242869257E+02  0.00000000000E+00 0. -1.
         25    2    1    2    0    0 -0.27618901909E+02  0.13126051622E+02  0.50811659562E+02  0.13834857214E+03  0.12499362260E+03 0.  0.
          5    1    3    3  501    0 -0.40807834474E+02  0.63917029956E+02  0.35166667164E+02  0.83590493193E+02  0.10000000000E+00 0. -1.
         -5    1    3    3    0  501  0.13188932565E+02 -0.50790978334E+02  0.15644992399E+02  0.54758078943E+02  0.10000000000E+00 0. -1.
         21    1    1    2  504  502  0.27618901909E+02 -0.13126051622E+02  0.49229087374E+03  0.49323969968E+03  0.00000000000E+00 0.  1.
<mgrwt>
<rscale>  1 0.12867985E+03</rscale>
<asrwt>0</asrwt>
<pdfrwt beam="1">  1       21 0.90360826E-01 0.12867985E+03</pdfrwt>
<pdfrwt beam="2">  1       21 0.68065957E-02 0.12867985E+03</pdfrwt>
<totfact> 0.16883814E+05</totfact>
</mgrwt>
</event>
<event>
 6    1  0.4216855E-002  0.1295663E+03  0.7546771E-02  0.1228101E+00
         21   -1    0    0  504  502  0.00000000000E+00  0.00000000000E+00  0.19860283022E+03  0.19860283022E+03  0.00000000000E+00 0. -1.
         21   -1    0    0  502  503 -0.00000000000E+00 -0.00000000000E+00 -0.42831561673E+02  0.42831561673E+02  0.00000000000E+00 0. -1.
         25    2    1    2    0    0  0.82999717326E+01  0.33064176137E+02  0.16130529963E+03  0.20689810989E+03  0.12500119565E+03 0.  0.
          5    1    3    3  501    0 -0.29053731676E+02  0.63603868724E+02  0.13477728022E+03  0.15183707289E+03  0.10000000000E+00 0. -1.
         -5    1    3    3    0  501  0.37353703408E+02 -0.30539692586E+02  0.26528019412E+02  0.55061037000E+02  0.10000000000E+00 0. -1.
         21    1    1    2  504  503 -0.82999717326E+01 -0.33064176137E+02 -0.55340310852E+01  0.34536282001E+02  0.00000000000E+00 0. -1.
<mgrwt>
<rscale>  1 0.12956631E+03</rscale>
<asrwt>0</asrwt>
<pdfrwt beam="1">  1       21 0.30554281E-01 0.12956631E+03</pdfrwt>
<pdfrwt beam="2">  1       21 0.65894711E-02 0.12956631E+03</pdfrwt>
<totfact> 0.17194610E+06</totfact>
</mgrwt>
</event>
<event>
 6    1  0.4216855E-002  0.1427474E+03  0.7546771E-02  0.1209679E+00
         21   -1    0    0  503  502  0.00000000000E+00  0.00000000000E+00  0.12053996954E+04  0.12053996954E+04  0.00000000000E+00 0. -1.
         21   -1    0    0  504  503 -0.00000000000E+00 -0.00000000000E+00 -0.34913582383E+02  0.34913582383E+02  0.00000000000E+00 0.  1.
         25    2    1    2    0    0 -0.46108207569E+02 -0.51240099734E+02  0.11698585121E+03  0.18456031603E+03  0.12500122497E+03 0.  0.
          5    1    3    3  501    0 -0.51181466545E+02 -0.77807701283E+02  0.12542994408E+03  0.15622503567E+03  0.10000000000E+00 0.  1.
         -5    1    3    3    0  501  0.50732589765E+01  0.26567601549E+02 -0.84440928733E+01  0.28335280362E+02  0.10000000000E+00 0.  1.
         21    1    1    2  504  502  0.46108207569E+02  0.51240099734E+02  0.10535002618E+04  0.10557529617E+04  0.00000000000E+00 0. -1.
<mgrwt>
<rscale>  1 0.14274740E+03</rscale>
<asrwt>0</asrwt>
<pdfrwt beam="1">  1       21 0.18544608E+00 0.14274740E+03</pdfrwt>
<pdfrwt beam="2">  1       21 0.53713213E-02 0.14274740E+03</pdfrwt>
<totfact> 0.41221849E+04</totfact>
</mgrwt>
</event>
<event>
 6    1  0.4216855E-002  0.1264216E+03  0.7546771E-02  0.1232864E+00
         21   -1    0    0  503  502  0.00000000000E+00  0.00000000000E+00  0.35691809647E+03  0.35691809647E+03  0.00000000000E+00 0. -1.
         21   -1    0    0  504  503 -0.00000000000E+00 -0.00000000000E+00 -0.52178200804E+02  0.52178200804E+02  0.00000000000E+00 0. -1.
         25    2    1    2    0    0 -0.17290686951E+02 -0.76813467881E+01  0.25189927956E+02  0.12890679820E+03  0.12499783681E+03 0.  0.
          5    1    3    3  501    0 -0.16052488907E+00  0.48511710285E+02  0.45734989435E+02  0.66671666108E+02  0.10000000000E+00 0. -1.
         -5    1    3    3    0  501 -0.17130162062E+02 -0.56193057073E+02 -0.20545061478E+02  0.62235132093E+02  0.10000000000E+00 0. -1.
         21    1    1    2  504  502  0.17290686951E+02  0.76813467881E+01  0.27954996771E+03  0.28018949907E+03  0.00000000000E+00 0. -1.
<mgrwt>
<rscale>  1 0.12642164E+03</rscale>
<asrwt>0</asrwt>
<pdfrwt beam="1">  1       21 0.54910475E-01 0.12642164E+03</pdfrwt>
<pdfrwt beam="2">  1       21 0.80274157E-02 0.12642164E+03</pdfrwt>
<totfact> 0.37790600E+05</totfact>
</mgrwt>
</event>
<event>
 6    1  0.4216855E-002  0.1270055E+03  0.7546771E-02  0.1231968E+00
         21   -1    0    0  503  502  0.00000000000E+00  0.00000000000E+00  0.68986133961E+03  0.68986133961E+03  0.00000000000E+00 0.  1.
         21   -1    0    0  504  503 -0.00000000000E+00 -0.00000000000E+00 -0.95795926463E+01  0.95795926463E+01  0.00000000000E+00 0.  1.
         25    2    1    2    0    0  0.16627784845E+02  0.15037763375E+02  0.43569193075E+03  0.45382579479E+03  0.12501110327E+03 0.  0.
          5    1    3    3  501    0  0.30137147388E+02  0.44531677601E+02  0.40694096802E+03  0.41047811076E+03  0.10000000000E+00 0.  1.
         -5    1    3    3    0  501 -0.13509362543E+02 -0.29493914227E+02  0.28750962730E+02  0.43347684029E+02  0.10000000000E+00 0.  1.
         21    1    1    2  504  502 -0.16627784845E+02 -0.15037763375E+02  0.24458981622E+03  0.24561513747E+03  0.00000000000E+00 0.  1.
<mgrwt>
<rscale>  1 0.12700549E+03</rscale>
<asrwt>0</asrwt>
<pdfrwt beam="1">  1       21 0.10613247E+00 0.12700549E+03</pdfrwt>
<pdfrwt beam="2">  1       21 0.14737840E-02 0.12700549E+03</pdfrwt>
<totfact> 0.14408127E+06</totfact>
</mgrwt>
</event>
<event>
 6    1  0.4216855E-002  0.1272776E+03  0.7546771E-02  0.1231552E+00
         21   -1    0    0  504  502  0.00000000000E+00  0.00000000000E+00  0.77297365298E+03  0.77297365298E+03  0.00000000000E+00 0.  1.
         21   -1    0    0  502  503 -0.00000000000E+00 -0.00000000000E+00 -0.74129100145E+01  0.74129100145E+01  0.00000000000E+00 0.  1.
         25    2    1    2    0    0 -0.22149906167E+02  0.95303391140E+01  0.64195966459E+03  0.65445534255E+03  0.12497255189E+03 0.  0.
          5    1    3    3  501    0 -0.14232057076E+02 -0.16609241538E+02  0.61720909820E+03  0.61759655055E+03  0.10000000000E+00 0.  1.
         -5    1    3    3    0  501 -0.79178490908E+01  0.26139580652E+02  0.24750566386E+02  0.36858791995E+02  0.10000000000E+00 0.  1.
         21    1    1    2  504  503  0.22149906167E+02 -0.95303391140E+01  0.12360107838E+03  0.12593122045E+03  0.00000000000E+00 0. -1.
<mgrwt>
<rscale>  1 0.12727759E+03</rscale>
<asrwt>0</asrwt>
<pdfrwt beam="1">  1       21 0.11891896E+00 0.12727759E+03</pdfrwt>
<pdfrwt beam="2">  1       21 0.11404483E-02 0.12727759E+03</pdfrwt>
<totfact> 0.16485919E+06</totfact>
</mgrwt>
</event>
<event>
 6    1  0.4216855E-002  0.1507240E+03  0.7546771E-02  0.1199586E+00
         21   -1    0    0  504  502  0.00000000000E+00  0.00000000000E+00  0.14369516177E+03  0.14369516177E+03  0.00000000000E+00 0. -1.
         21   -1    0    0  502  503 -0.00000000000E+00 -0.00000000000E+00 -0.10453890247E+03  0.10453890247E+03  0.00000000000E+00 0. -1.
         25    2    1    2    0    0 -0.43794375001E+02 -0.71934474357E+02  0.58747352746E+02  0.16176830903E+03  0.12500087387E+03 0.  0.
          5    1    3    3  501    0  0.71509934261E+00 -0.21577048123E+02 -0.38155461445E+02  0.43839817642E+02  0.10000000000E+00 0.  1.
         -5    1    3    3    0  501 -0.44509474344E+02 -0.50357426234E+02  0.96902814191E+02  0.11792849139E+03  0.10000000000E+00 0.  1.
         21    1    1    2  504  503  0.43794375001E+02  0.71934474357E+02 -0.19591093445E+02  0.86465755217E+02  0.00000000000E+00 0. -1.
<mgrwt>
<rscale>  1 0.15072403E+03</rscale>
<asrwt>0</asrwt>
<pdfrwt beam="1">  1       21 0.22106948E-01 0.15072403E+03</pdfrwt>
<pdfrwt beam="2">  1       21 0.16082908E-01 0.15072403E+03</pdfrwt>
<totfact> 0.66359259E+05</totfact>
</mgrwt>
</event>
<event>
 6    1  0.4216855E-002  0.1706082E+03  0.7546771E-02  0.1177215E+00
         21   -1    0    0  504  502  0.00000000000E+00  0.00000000000E+00  0.80175682658E+02  0.80175682658E+02  0.00000000000E+00 0. -1.
         21   -1    0    0  502  503 -0.00000000000E+00 -0.00000000000E+00 -0.26737355154E+03  0.26737355154E+03  0.00000000000E+00 0. -1.
         25    2    1    2    0    0 -0.10975313233E+03 -0.37893041532E+02 -0.14534588992E+03  0.22412629955E+03  0.12500215111E+03 0.  0.
          5    1    3    3  501    0 -0.93826616204E+01 -0.32092294213E+02  0.13564552166E+02  0.36082637964E+02  0.10000000000E+00 0. -1.
         -5    1    3    3    0  501 -0.10037047071E+03 -0.58007473187E+01 -0.15891044209E+03  0.18804366159E+03  0.10000000000E+00 0. -1.
         21    1    1    2  504  503  0.10975313233E+03  0.37893041532E+02 -0.41851978959E+02  0.12342293464E+03  0.00000000000E+00 0. -1.
<mgrwt>
<rscale>  1 0.17060824E+03</rscale>
<asrwt>0</asrwt>
<pdfrwt beam="1">  1       21 0.12334721E-01 0.17060824E+03</pdfrwt>
<pdfrwt beam="2">  1       21 0.41134391E-01 0.17060824E+03</pdfrwt>
<totfact> 0.31955651E+05</totfact>
</mgrwt>
</event>
<event>
 6    1  0.4216855E-002  0.1348978E+03  0.7546771E-02  0.1220364E+00
         21   -1    0    0  503  502  0.00000000000E+00  0.00000000000E+00  0.54974517661E+02  0.54974517661E+02  0.00000000000E+00 0.  1.
         21   -1    0    0  504  503 -0.00000000000E+00 -0.00000000000E+00 -0.16789347386E+03  0.16789347386E+03  0.00000000000E+00 0.  1.
         25    2    1    2    0    0  0.31009322758E+02  0.40137079242E+02 -0.10623920388E+03  0.17170958733E+03  0.12499940285E+03 0.  0.
          5    1    3    3  501    0 -0.99372173630E+01 -0.14055801563E+02 -0.10222942331E+03  0.10366860102E+03  0.10000000000E+00 0. -1.
         -5    1    3    3    0  501  0.40946540121E+02  0.54192880805E+02 -0.40097805644E+01  0.68040986310E+02  0.10000000000E+00 0. -1.
         21    1    1    2  504  502 -0.31009322758E+02 -0.40137079242E+02 -0.66797523179E+01  0.51158404187E+02  0.00000000000E+00 0.  1.
<mgrwt>
<rscale>  1 0.13489779E+03</rscale>
<asrwt>0</asrwt>
<pdfrwt beam="1">  1       21 0.84576181E-02 0.13489779E+03</pdfrwt>
<pdfrwt beam="2">  1       21 0.25829765E-01 0.13489779E+03</pdfrwt>
<totfact> 0.15461529E+06</totfact>
</mgrwt>
</event>
<event>
 6    1  0.4216855E-002  0.1320383E+03  0.7546771E-02  0.1224462E+00
         21   -1    0    0  503  502  0.00000000000E+00  0.00000000000E+00  0.13756419619E+04  0.13756419619E+04  0.00000000000E+00 0. -1.
         21   -1    0    0  504  503 -0.00000000000E+00 -0.00000000000E+00 -0.55523284022E+01  0.55523284022E+01  0.00000000000E+00 0. -1.
         25    2    1    2    0    0 -0.41710269987E+02  0.82961050890E+01  0.10052557097E+04  0.10138901058E+04  0.12500213126E+03 0.  0.
          5    1    3    3  501    0 -0.23655272784E+02  0.53816504867E+02  0.24096313184E+03  0.24803029862E+03  0.10000000000E+00 0. -1.
         -5    1    3    3    0  501 -0.18054997203E+02 -0.45520399778E+02  0.76429257786E+03  0.76585980720E+03  0.10000000000E+00 0. -1.
         21    1    1    2  504  502  0.41710269987E+02 -0.82961050890E+01  0.36483392382E+03  0.36730418450E+03  0.00000000000E+00 0. -1.
<mgrwt>
<rscale>  1 0.13203827E+03</rscale>
<asrwt>0</asrwt>
<pdfrwt beam="1">  1       21 0.21163695E+00 0.13203827E+03</pdfrwt>
<pdfrwt beam="2">  1       21 0.85420547E-03 0.13203827E+03</pdfrwt>
<totfact> 0.55969816E+05</totfact>
</mgrwt>
</event>
<event>
 6    1  0.4216855E-002  0.1330314E+03  0.7546771E-02  0.1223026E+00
         21   -1    0    0  504  502  0.00000000000E+00  0.00000000000E+00  0.26472192382E+02  0.26472192382E+02  0.00000000000E+00 0. -1.
         21   -1    0    0  502  503 -0.00000000000E+00 -0.00000000000E+00 -0.37304667927E+03  0.37304667927E+03  0.00000000000E+00 0. -1.
         25    2    1    2    0    0  0.45353088095E+02 -0.41419617060E+01 -0.32056675117E+03  0.34707403622E+03  0.12499314467E+03 0.  0.
          5    1    3    3  501    0  0.72211303405E+02 -0.33753270127E+02 -0.13106057782E+03  0.15339700337E+03  0.10000000000E+00 0.  1.
         -5    1    3    3    0  501 -0.26858215310E+02  0.29611308421E+02 -0.18950617335E+03  0.19367703285E+03  0.10000000000E+00 0.  1.
         21    1    1    2  504  503 -0.45353088095E+02  0.41419617060E+01 -0.26007735718E+02  0.52444835434E+02  0.00000000000E+00 0. -1.
<mgrwt>
<rscale>  1 0.13303137E+03</rscale>
<asrwt>0</asrwt>
<pdfrwt beam="1">  1       21 0.40726453E-02 0.13303137E+03</pdfrwt>
<pdfrwt beam="2">  1       21 0.57391793E-01 0.13303137E+03</pdfrwt>
<totfact> 0.10856320E+06</totfact>
</mgrwt>
</event>
<event>
 6    1  0.4216855E-002  0.1263034E+03  0.7546771E-02  0.1233046E+00
         21   -1    0    0  504  502  0.00000000000E+00  0.00000000000E+00  0.12066143985E+03  0.12066143985E+03  0.00000000000E+00 0. -1.
         21   -1    0    0  502  503 -0.00000000000E+00 -0.00000000000E+00 -0.51954971959E+02  0.51954971959E+02  0.00000000000E+00 0. -1.
         25    2    1    2    0    0  0.79420592652E+01  0.16252541495E+02  0.29890190009E+02  0.12979206314E+03  0.12500133913E+03 0.  0.
          5    1    3    3  501    0  0.35965975551E+02 -0.45260248430E+02  0.21494076216E+02  0.61676955159E+02  0.10000000000E+00 0. -1.
         -5    1    3    3    0  501 -0.28023916285E+02  0.61512789925E+02  0.83961137935E+01  0.68115107981E+02  0.10000000000E+00 0. -1.
         21    1    1    2  504  503 -0.79420592652E+01 -0.16252541495E+02  0.38816277878E+02  0.42824348667E+02  0.00000000000E+00 0.  1.
<mgrwt>
<rscale>  1 0.12630343E+03</rscale>
<asrwt>0</asrwt>
<pdfrwt beam="1">  1       21 0.18563298E-01 0.12630343E+03</pdfrwt>
<pdfrwt beam="2">  1       21 0.79930726E-02 0.12630343E+03</pdfrwt>
<totfact> 0.31513120E+06</totfact>
</mgrwt>
</event>
<event>
 6    1  0.4216855E-002  0.1447427E+03  0.7546771E-02  0.1207086E+00
         21   -1    0    0  503  502  0.00000000000E+00  0.00000000000E+00  0.39532878140E+02  0.39532878140E+02  0.00000000000E+00 0.  1.
         21   -1    0    0  504  503 -0.00000000000E+00 -0.00000000000E+00 -0.76400861284E+03  0.76400861284E+03  0.00000000000E+00 0.  1.
         25    2    1    2    0    0  0.61766895979E+02 -0.38875027065E+02 -0.71551827032E+03  0.73001154241E+03  0.12499615884E+03 0.  0.
          5    1    3    3  501    0  0.90336853147E+02 -0.34219032342E+02 -0.66338013963E+03  0.67037669176E+03  0.10000000000E+00 0. -1.
         -5    1    3    3    0  501 -0.28569957168E+02 -0.46559947236E+01 -0.52138130693E+02  0.59634850647E+02  0.10000000000E+00 0. -1.
         21    1    1    2  504  502 -0.61766895979E+02  0.38875027065E+02 -0.89574643795E+01  0.73529948567E+02  0.00000000000E+00 0.  1.
<mgrwt>
<rscale>  1 0.14474273E+03</rscale>
<asrwt>0</asrwt>
<pdfrwt beam="1">  1       21 0.60819813E-02 0.14474273E+03</pdfrwt>
<pdfrwt beam="2">  1       21 0.11753979E+00 0.14474273E+03</pdfrwt>
<totfact> 0.10929625E+05</totfact>
</mgrwt>
</event>
<event>
 6    1  0.4216855E-002  0.1275080E+03  0.7546771E-02  0.1231201E+00
         21   -1    0    0  503  502  0.00000000000E+00  0.00000000000E+00  0.96350887451E+02  0.96350887451E+02  0.00000000000E+00 0.  1.
         21   -1    0    0  504  503 -0.00000000000E+00 -0.00000000000E+00 -0.67755636016E+02  0.67755636016E+02  0.00000000000E+00 0.  1.
         25    2    1    2    0    0  0.16327990808E+02  0.19182617753E+02  0.43635023073E+02  0.13476762712E+03  0.12499488779E+03 0.  0.
          5    1    3    3  501    0  0.22640135115E+02 -0.42516456825E+02 -0.13936384884E+02  0.50144368005E+02  0.10000000000E+00 0. -1.
         -5    1    3    3    0  501 -0.63121443064E+01  0.61699074579E+02  0.57571407957E+02  0.84623259118E+02  0.10000000000E+00 0. -1.
         21    1    1    2  504  502 -0.16327990808E+02 -0.19182617753E+02 -0.15039771638E+02  0.29338896343E+02  0.00000000000E+00 0.  1.
<mgrwt>
<rscale>  1 0.12750803E+03</rscale>
<asrwt>0</asrwt>
<pdfrwt beam="1">  1       21 0.14823214E-01 0.12750803E+03</pdfrwt>
<pdfrwt beam="2">  1       21 0.10423944E-01 0.12750803E+03</pdfrwt>
<totfact> 0.29906589E+06</totfact>
</mgrwt>
</event>
<event>
 6    1  0.4216855E-002  0.1259595E+03  0.7546771E-02  0.1233577E+00
         21   -1    0    0  503  502  0.00000000000E+00  0.00000000000E+00  0.51368091538E+03  0.51368091538E+03  0.00000000000E+00 0. -1.
         21   -1    0    0  504  503 -0.00000000000E+00 -0.00000000000E+00 -0.11385857504E+03  0.11385857504E+03  0.00000000000E+00 0. -1.
         25    2    1    2    0    0 -0.13771780724E+02  0.70047823076E+01 -0.78859100123E+02  0.14860875393E+03  0.12500830033E+03 0.  0.
          5    1    3    3  501    0  0.30907376122E+02 -0.40291045715E+02 -0.64306096623E+02  0.81938503321E+02  0.10000000000E+00 0.  1.
         -5    1    3    3    0  501 -0.44679156846E+02  0.47295828022E+02 -0.14553003499E+02  0.66670250605E+02  0.10000000000E+00 0.  1.
         21    1    1    2  504  502  0.13771780724E+02 -0.70047823076E+01  0.47868144046E+03  0.47893073650E+03  0.00000000000E+00 0. -1.
<mgrwt>
<rscale>  1 0.12595953E+03</rscale>
<asrwt>0</asrwt>
<pdfrwt beam="1">  1       21 0.79027832E-01 0.12595953E+03</pdfrwt>
<pdfrwt beam="2">  1       21 0.17516704E-01 0.12595953E+03</pdfrwt>
<totfact> 0.43272851E+04</totfact>
</mgrwt>
</event>
<event>
 6    1  0.4216855E-002  0.1262129E+03  0.7546771E-02  0.1233186E+00
         21   -1    0    0  504  502  0.00000000000E+00  0.00000000000E+00  0.13599653867E+03  0.13599653867E+03  0.00000000000E+00 0.  1.
         21   -1    0    0  502  503 -0.00000000000E+00 -0.00000000000E+00 -0.41263624081E+02  0.41263624081E+02  0.00000000000E+00 0.  1.
         25    2    1    2    0    0  0.19930390338E+01 -0.17380431450E+02  0.63089426178E+02  0.14110270210E+03  0.12499458085E+03 0.  0.
          5    1    3    3  501    0  0.13897661090E+02 -0.68934469130E+02  0.20697163934E+02  0.73304083193E+02  0.10000000000E+00 0.  1.
         -5    1    3    3    0  501 -0.11904622056E+02  0.51554037680E+02  0.42392262245E+02  0.67798618906E+02  0.10000000000E+00 0.  1.
         21    1    1    2  504  503 -0.19930390338E+01  0.17380431450E+02  0.31643488413E+02  0.36157460653E+02  0.00000000000E+00 0.  1.
<mgrwt>
<rscale>  1 0.12621290E+03</rscale>
<asrwt>0</asrwt>
<pdfrwt beam="1">  1       21 0.20922544E-01 0.12621290E+03</pdfrwt>
<pdfrwt beam="2">  1       21 0.63482499E-02 0.12621290E+03</pdfrwt>
<totfact> 0.37484258E+06</totfact>
</mgrwt>
</event>
<event>
 6    1  0.4216855E-002  0.1318003E+03  0.7546771E-02  0.1224809E+00
         21   -1    0    0  504  502  0.00000000000E+00  0.00000000000E+00  0.30412902733E+02  0.30412902733E+02  0.00000000000E+00 0. -1.
         21   -1    0    0  502  503 -0.00000000000E+00 -0.00000000000E+00 -0.17509206266E+04  0.17509206266E+04  0.00000000000E+00 0.  1.
         25    2    1    2    0    0 -0.37903983983E+02  0.17559904688E+02 -0.17327869566E+04  0.17377922637E+04  0.12500501052E+03 0.  0.
          5    1    3    3  501    0 -0.52577936898E+02  0.54483237082E+02 -0.14768438971E+04  0.14787835437E+04  0.10000000000E+00 0.  1.
         -5    1    3    3    0  501  0.14673952915E+02 -0.36923332394E+02 -0.25594305943E+03  0.25900872001E+03  0.10000000000E+00 0.  1.
         21    1    1    2  504  503  0.37903983983E+02 -0.17559904688E+02  0.12279232729E+02  0.43541265609E+02  0.00000000000E+00 0. -1.
<mgrwt>
<rscale>  1 0.13180028E+03</rscale>
<asrwt>0</asrwt>
<pdfrwt beam="1">  1       21 0.46789091E-02 0.13180028E+03</pdfrwt>
<pdfrwt beam="2">  1       21 0.26937235E+00 0.13180028E+03</pdfrwt>
<totfact> 0.16475199E+04</totfact>
</mgrwt>
</event>
<event>
 6    1  0.4216855E-002  0.1527216E+03  0.7546771E-02  0.1197168E+00
         21   -1    0    0  504  502  0.00000000000E+00  0.00000000000E+00  0.30537273067E+02  0.30537273067E+02  0.00000000000E+00 0. -1.
         21   -1    0    0  502  503 -0.00000000000E+00 -0.00000000000E+00 -0.47357912986E+03  0.47357912986E+03  0.00000000000E+00 0. -1.
         25    2    1    2    0    0 -0.86594638976E+02  0.14125152756E+02 -0.28649469066E+03  0.32465842271E+03  0.12500292885E+03 0.  0.
          5    1    3    3  501    0 -0.98994225889E+02 -0.31628376146E+02 -0.21610208664E+03  0.23979227007E+03  0.10000000000E+00 0. -1.
         -5    1    3    3    0  501  0.12399586913E+02  0.45753528901E+02 -0.70392604026E+02  0.84866152641E+02  0.10000000000E+00 0. -1.
         21    1    1    2  504  503  0.86594638976E+02 -0.14125152756E+02 -0.15654716613E+03  0.17945798022E+03  0.00000000000E+00 0. -1.
<mgrwt>
<rscale>  1 0.15272159E+03</rscale>
<asrwt>0</asrwt>
<pdfrwt beam="1">  1       21 0.46980421E-02 0.15272159E+03</pdfrwt>
<pdfrwt beam="2">  1       21 0.72858327E-01 0.15272159E+03</pdfrwt>
<totfact> 0.51048478E+05</totfact>
</mgrwt>
</event>
<event>
 6    1  0.4216855E-002  0.1408827E+03  0.7546771E-02  0.1212146E+00
         21   -1    0    0  504  502  0.00000000000E+00  0.00000000000E+00  0.30710854306E+03  0.30710854306E+03  0.00000000000E+00 0.  1.
         21   -1    0    0  502  503 -0.00000000000E+00 -0.00000000000E+00 -0.66475942091E+03  0.66475942091E+03  0.00000000000E+00 0.  1.
         25    2    1    2    0    0 -0.29439569182E+02 -0.57943586924E+02 -0.65373053578E+03  0.66873876489E+03  0.12499509892E+03 0.  0.
          5    1    3    3  501    0 -0.41196959042E+02  0.28827804119E+02 -0.17564187143E+03  0.18269731450E+03  0.10000000000E+00 0.  1.
         -5    1    3    3    0  501  0.11757389859E+02 -0.86771391043E+02 -0.47808866435E+03  0.48604145039E+03  0.10000000000E+00 0.  1.
         21    1    1    2  504  503  0.29439569182E+02  0.57943586924E+02  0.29607965793E+03  0.30312919908E+03  0.00000000000E+00 0.  1.
<mgrwt>
<rscale>  1 0.14088265E+03</rscale>
<asrwt>0</asrwt>
<pdfrwt beam="1">  1       21 0.47247469E-01 0.14088265E+03</pdfrwt>
<pdfrwt beam="2">  1       21 0.10227068E+00 0.14088265E+03</pdfrwt>
<totfact> 0.35002593E+03</totfact>
</mgrwt>
</event>
<event>
 6    1  0.4216855E-002  0.1290283E+03  0.7546771E-02  0.1228905E+00
         21   -1    0    0  503  502  0.00000000000E+00  0.00000000000E+00  0.80138916233E+02  0.80138916233E+02  0.00000000000E+00 0. -1.
         21   -1    0    0  504  503 -0.00000000000E+00 -0.00000000000E+00 -0.10005223571E+03  0.10005223571E+03  0.00000000000E+00 0. -1.
         25    2    1    2    0    0  0.10357296996E+01  0.31968851792E+02 -0.47957252114E+02  0.13765243572E+03  0.12500085923E+03 0.  0.
          5    1    3    3  501    0  0.82420126793E+01  0.45662048188E+02  0.31901260770E+02  0.56308559353E+02  0.10000000000E+00 0. -1.
         -5    1    3    3    0  501 -0.72062829796E+01 -0.13693196397E+02 -0.79858512884E+02  0.81343876364E+02  0.10000000000E+00 0. -1.
         21    1    1    2  504  502 -0.10357296996E+01 -0.31968851792E+02  0.28043932633E+02  0.42538716229E+02  0.00000000000E+00 0. -1.
<mgrwt>
<rscale>  1 0.12902827E+03</rscale>
<asrwt>0</asrwt>
<pdfrwt beam="1">  1       21 0.12329064E-01 0.12902827E+03</pdfrwt>
<pdfrwt beam="2">  1       21 0.15392652E-01 0.12902827E+03</pdfrwt>
<totfact> 0.20788086E+06</totfact>
</mgrwt>
</event>
<event>
 6    1  0.4216855E-002  0.1262980E+03  0.7546771E-02  0.1233055E+00
         21   -1    0    0  503  502  0.00000000000E+00  0.00000000000E+00  0.33722337494E+02  0.33722337494E+02  0.00000000000E+00 0. -1.
         21   -1    0    0  504  503 -0.00000000000E+00 -0.00000000000E+00 -0.15461049563E+03  0.15461049563E+03  0.00000000000E+00 0. -1.
         25    2    1    2    0    0 -0.59198701942E+01 -0.17045453797E+02 -0.10377008711E+03  0.16346074608E+03  0.12500236867E+03 0.  0.
          5    1    3    3  501    0  0.11181222200E+02 -0.27066247026E+02 -0.12848463933E+03  0.13177979360E+03  0.10000000000E+00 0. -1.
         -5    1    3    3    0  501 -0.17101092394E+02  0.10020793229E+02  0.24714552225E+02  0.31680952475E+02  0.10000000000E+00 0. -1.
         21    1    1    2  504  502  0.59198701942E+01  0.17045453797E+02 -0.17118071035E+02  0.24872087050E+02  0.00000000000E+00 0. -1.
<mgrwt>
<rscale>  1 0.12629800E+03</rscale>
<asrwt>0</asrwt>
<pdfrwt beam="1">  1       21 0.51880518E-02 0.12629800E+03</pdfrwt>
<pdfrwt beam="2">  1       21 0.23786231E-01 0.12629800E+03</pdfrwt>
<totfact> 0.41497711E+06</totfact>
</mgrwt>
</event>
<event>
 6    1  0.4216855E-002  0.1712596E+03  0.7546771E-02  0.1176541E+00
         21   -1    0    0  503  502  0.00000000000E+00  0.00000000000E+00  0.35467937592E+02  0.35467937592E+02  0.00000000000E+00 0. -1.
         21   -1    0    0  504  503 -0.00000000000E+00 -0.00000000000E+00 -0.70159610099E+03  0.70159610099E+03  0.00000000000E+00 0. -1.
         25    2    1    2    0    0 -0.11331645722E+03  0.29393174935E+02 -0.53273716250E+03  0.55958801956E+03  0.12500115642E+03 0.  0.
          5    1    3    3  501    0 -0.16276637904E+02  0.55726037316E+02 -0.30741663774E+03  0.31285031459E+03  0.10000000000E+00 0.  1.
         -5    1    3    3    0  501 -0.97039819317E+02 -0.26332862381E+02 -0.22532052476E+03  0.24673770497E+03  0.10000000000E+00 0.  1.
         21    1    1    2  504  502  0.11331645722E+03 -0.29393174935E+02 -0.13339100089E+03  0.17747601903E+03  0.00000000000E+00 0. -1.
<mgrwt>
<rscale>  1 0.17125965E+03</rscale>
<asrwt>0</asrwt>
<pdfrwt beam="1">  1       21 0.54566062E-02 0.17125965E+03</pdfrwt>
<pdfrwt beam="2">  1       21 0.10793785E+00 0.17125965E+03</pdfrwt>
<totfact> 0.15977264E+05</totfact>
</mgrwt>
</event>
<event>
 6    1  0.4216855E-002  0.1580439E+03  0.7546771E-02  0.1190923E+00
         21   -1    0    0  504  502  0.00000000000E+00  0.00000000000E+00  0.10486477649E+04  0.10486477649E+04  0.00000000000E+00 0.  1.
         21   -1    0    0  502  503 -0.00000000000E+00 -0.00000000000E+00 -0.15471545972E+02  0.15471545972E+02  0.00000000000E+00 0.  1.
         25    2    1    2    0    0  0.85743586470E+02 -0.44715382350E+02  0.63902129514E+03  0.65827508954E+03  0.12500579918E+03 0.  0.
          5    1    3    3  501    0  0.11479190104E+03 -0.32178315982E+02  0.40681897658E+03  0.42392725115E+03  0.10000000000E+00 0. -1.
         -5    1    3    3    0  501 -0.29048314573E+02 -0.12537066368E+02  0.23220231856E+03  0.23434783839E+03  0.10000000000E+00 0. -1.
         21    1    1    2  504  503 -0.85743586470E+02  0.44715382350E+02  0.39415492376E+03  0.40584422130E+03  0.00000000000E+00 0.  1.
<mgrwt>
<rscale>  1 0.15804391E+03</rscale>
<asrwt>0</asrwt>
<pdfrwt beam="1">  1       21 0.16133037E+00 0.15804391E+03</pdfrwt>
<pdfrwt beam="2">  1       21 0.23802387E-02 0.15804391E+03</pdfrwt>
<totfact> 0.23123550E+05</totfact>
</mgrwt>
</event>
<event>
 6    1  0.4216855E-002  0.1799661E+03  0.7546771E-02  0.1167836E+00
         21   -1    0    0  504  502  0.00000000000E+00  0.00000000000E+00  0.27064801066E+03  0.27064801066E+03  0.00000000000E+00 0. -1.
         21   -1    0    0  502  503 -0.00000000000E+00 -0.00000000000E+00 -0.59031610314E+03  0.59031610314E+03  0.00000000000E+00 0. -1.
         25    2    1    2    0    0  0.12444017332E+03 -0.35739509507E+02 -0.55987419599E+03  0.58808750901E+03  0.12500053459E+03 0.  0.
          5    1    3    3  501    0  0.50650768273E+02  0.18852914688E+02 -0.63898188930E+02  0.83689433427E+02  0.10000000000E+00 0.  1.
         -5    1    3    3    0  501  0.73789405048E+02 -0.54592424195E+02 -0.49597600706E+03  0.50439807559E+03  0.10000000000E+00 0.  1.
         21    1    1    2  504  503 -0.12444017332E+03  0.35739509507E+02  0.24020610351E+03  0.27287660479E+03  0.00000000000E+00 0. -1.
<mgrwt>
<rscale>  1 0.17996612E+03</rscale>
<asrwt>0</asrwt>
<pdfrwt beam="1">  1       21 0.41638156E-01 0.17996612E+03</pdfrwt>
<pdfrwt beam="2">  1       21 0.90817861E-01 0.17996612E+03</pdfrwt>
<totfact> 0.57698214E+03</totfact>
</mgrwt>
</event>
<event>
 6    1  0.4216855E-002  0.1262209E+03  0.7546771E-02  0.1233174E+00
         21   -1    0    0  504  502  0.00000000000E+00  0.00000000000E+00  0.96188209288E+02  0.96188209288E+02  0.00000000000E+00 0. -1.
         21   -1    0    0  502  503 -0.00000000000E+00 -0.00000000000E+00 -0.53910908794E+02  0.53910908794E+02  0.00000000000E+00 0. -1.
         25    2    1    2    0    0 -0.54630129691E+01  0.16630708885E+02  0.33906646306E+02  0.13069569467E+03  0.12500111580E+03 0.  0.
          5    1    3    3  501    0 -0.60432458069E+01  0.30466245028E+02 -0.42725561217E+02  0.52822310507E+02  0.10000000000E+00 0. -1.
         -5    1    3    3    0  501  0.58023283783E+00 -0.13835536143E+02  0.76632207523E+02  0.77873384159E+02  0.10000000000E+00 0. -1.
         21    1    1    2  504  503  0.54630129691E+01 -0.16630708885E+02  0.83706541884E+01  0.19403423416E+02  0.00000000000E+00 0. -1.
<mgrwt>
<rscale>  1 0.12622085E+03</rscale>
<asrwt>0</asrwt>
<pdfrwt beam="1">  1       21 0.14798186E-01 0.12622085E+03</pdfrwt>
<pdfrwt beam="2">  1       21 0.82939860E-02 0.12622085E+03</pdfrwt>
<totfact> 0.44631195E+06</totfact>
</mgrwt>
</event>
<event>
 6    1  0.4216855E-002  0.1271108E+03  0.7546771E-02  0.1231807E+00
         21   -1    0    0  503  502  0.00000000000E+00  0.00000000000E+00  0.65356940991E+02  0.65356940991E+02  0.00000000000E+00 0. -1.
         21   -1    0    0  504  503 -0.00000000000E+00 -0.00000000000E+00 -0.27869164905E+03  0.27869164905E+03  0.00000000000E+00 0. -1.
         25    2    1    2    0    0  0.22610152851E+02 -0.45546680083E+01 -0.26143847138E+03  0.29070127467E+03  0.12500077105E+03 0.  0.
          5    1    3    3  501    0  0.68085246698E+02  0.65436084671E+01 -0.21135979182E+03  0.22215173019E+03  0.10000000000E+00 0.  1.
         -5    1    3    3    0  501 -0.45475093847E+02 -0.11098276475E+02 -0.50078679562E+02  0.68549544475E+02  0.10000000000E+00 0.  1.
         21    1    1    2  504  502 -0.22610152851E+02  0.45546680083E+01  0.48103763318E+02  0.53347315377E+02  0.00000000000E+00 0. -1.
<mgrwt>
<rscale>  1 0.12711081E+03</rscale>
<asrwt>0</asrwt>
<pdfrwt beam="1">  1       21 0.10054914E-01 0.12711081E+03</pdfrwt>
<pdfrwt beam="2">  1       21 0.42875638E-01 0.12711081E+03</pdfrwt>
<totfact> 0.42478661E+05</totfact>
</mgrwt>
</event>
<event>
 6    1  0.4216855E-002  0.2344397E+03  0.7546771E-02  0.1123553E+00
         21   -1    0    0  504  502  0.00000000000E+00  0.00000000000E+00  0.17952737403E+04  0.17952737403E+04  0.00000000000E+00 0. -1.
         21   -1    0    0  502  503 -0.00000000000E+00 -0.00000000000E+00 -0.64516634388E+02  0.64516634388E+02  0.00000000000E+00 0.  1.
         25    2    1    2    0    0  0.96474902090E+02 -0.17328823569E+03  0.17784243858E+03  0.29426165142E+03  0.12500306867E+03 0.  0.
          5    1    3    3  501    0  0.82599877658E+02 -0.28796687297E+02  0.84887893034E+02  0.12189320478E+03  0.10000000000E+00 0.  1.
         -5    1    3    3    0  501  0.13875024432E+02 -0.14449154839E+03  0.92954545547E+02  0.17236844664E+03  0.10000000000E+00 0.  1.
         21    1    1    2  504  503 -0.96474902090E+02  0.17328823569E+03  0.15529146673E+04  0.15655287233E+04  0.00000000000E+00 0. -1.
<mgrwt>
<rscale>  1 0.23443973E+03</rscale>
<asrwt>0</asrwt>
<pdfrwt beam="1">  1       21 0.27619592E+00 0.23443973E+03</pdfrwt>
<pdfrwt beam="2">  1       21 0.99256374E-02 0.23443973E+03</pdfrwt>
<totfact> 0.36837958E+03</totfact>
</mgrwt>
</event>
<event>
 6    1  0.4216855E-002  0.1977499E+03  0.7546771E-02  0.1151651E+00
         21   -1    0    0  504  502  0.00000000000E+00  0.00000000000E+00  0.11947554967E+03  0.11947554967E+03  0.00000000000E+00 0. -1.
         21   -1    0    0  502  503 -0.00000000000E+00 -0.00000000000E+00 -0.29902802224E+03  0.29902802224E+03  0.00000000000E+00 0.  1.
         25    2    1    2    0    0  0.60409318968E+02 -0.14081951417E+03 -0.17678174410E+03  0.26524856115E+03  0.12500237100E+03 0.  0.
          5    1    3    3  501    0 -0.35938969304E+02 -0.19768112974E+02 -0.22623546873E+02  0.46842530656E+02  0.10000000000E+00 0. -1.
         -5    1    3    3    0  501  0.96348288272E+02 -0.12105140119E+03 -0.15415819723E+03  0.21840603050E+03  0.10000000000E+00 0. -1.
         21    1    1    2  504  503 -0.60409318968E+02  0.14081951417E+03 -0.27707284671E+01  0.15325501077E+03  0.00000000000E+00 0. -1.
<mgrwt>
<rscale>  1 0.19774988E+03</rscale>
<asrwt>0</asrwt>
<pdfrwt beam="1">  1       21 0.18380854E-01 0.19774988E+03</pdfrwt>
<pdfrwt beam="2">  1       21 0.46004311E-01 0.19774988E+03</pdfrwt>
<totfact> 0.12206934E+05</totfact>
</mgrwt>
</event>
<event>
 6    1  0.4216855E-002  0.1284178E+03  0.7546771E-02  0.1229822E+00
         21   -1    0    0  504  502  0.00000000000E+00  0.00000000000E+00  0.14838670545E+03  0.14838670545E+03  0.00000000000E+00 0.  1.
         21   -1    0    0  502  503 -0.00000000000E+00 -0.00000000000E+00 -0.68504914938E+02  0.68504914938E+02  0.00000000000E+00 0.  1.
         25    2    1    2    0    0  0.18133409142E+02 -0.23133971564E+02 -0.35154825061E+01  0.12846590968E+03  0.12500852037E+03 0.  0.
          5    1    3    3  501    0  0.63713048849E+02 -0.13218048604E+02  0.29372218784E+02  0.71391922784E+02  0.10000000000E+00 0.  1.
         -5    1    3    3    0  501 -0.45579639707E+02 -0.99159229602E+01 -0.32887701290E+02  0.57073986895E+02  0.10000000000E+00 0.  1.
         21    1    1    2  504  503 -0.18133409142E+02  0.23133971564E+02  0.83397273020E+02  0.88425710710E+02  0.00000000000E+00 0.  1.
<mgrwt>
<rscale>  1 0.12841780E+03</rscale>
<asrwt>0</asrwt>
<pdfrwt beam="1">  1       21 0.22828724E-01 0.12841780E+03</pdfrwt>
<pdfrwt beam="2">  1       21 0.10539218E-01 0.12841780E+03</pdfrwt>
<totfact> 0.13285444E+06</totfact>
</mgrwt>
</event>
<event>
 6    1  0.4216855E-002  0.1260342E+03  0.7546771E-02  0.1233462E+00
         21   -1    0    0  504  502  0.00000000000E+00  0.00000000000E+00  0.37506210910E+01  0.37506210910E+01  0.00000000000E+00 0.  1.
         21   -1    0    0  502  503 -0.00000000000E+00 -0.00000000000E+00 -0.13569011012E+04  0.13569011012E+04  0.00000000000E+00 0.  1.
         25    2    1    2    0    0  0.14972633629E+02  0.58286861531E+01 -0.12348487943E+04  0.12412639415E+04  0.12500589711E+03 0.  0.
          5    1    3    3  501    0  0.78161046195E+01 -0.18582849534E+00 -0.12312054627E+04  0.12312302901E+04  0.10000000000E+00 0.  1.
         -5    1    3    3    0  501  0.71565290093E+01  0.60145146484E+01 -0.36433316076E+01  0.10033651335E+02  0.10000000000E+00 0.  1.
         21    1    1    2  504  503 -0.14972633629E+02 -0.58286861531E+01 -0.11830168582E+03  0.11938778081E+03  0.00000000000E+00 0.  1.
<mgrwt>
<rscale>  1 0.12603423E+03</rscale>
<asrwt>0</asrwt>
<pdfrwt beam="1">  1       21 0.57701855E-03 0.12603423E+03</pdfrwt>
<pdfrwt beam="2">  1       21 0.20875404E+00 0.12603423E+03</pdfrwt>
<totfact> 0.10771882E+06</totfact>
</mgrwt>
</event>
<event>
 6    1  0.4216855E-002  0.1278635E+03  0.7546771E-02  0.1230661E+00
         21   -1    0    0  504  502  0.00000000000E+00  0.00000000000E+00  0.21274769936E+03  0.21274769936E+03  0.00000000000E+00 0. -1.
         21   -1    0    0  502  503 -0.00000000000E+00 -0.00000000000E+00 -0.11844892129E+03  0.11844892129E+03  0.00000000000E+00 0. -1.
         25    2    1    2    0    0 -0.25371469964E+02 -0.90283417877E+01 -0.82624040774E+02  0.15223599294E+03  0.12499537187E+03 0.  0.
          5    1    3    3  501    0 -0.37326034644E+02  0.52860285667E+02 -0.38553958120E+02  0.75325031363E+02  0.10000000000E+00 0.  1.
         -5    1    3    3    0  501  0.11954564680E+02 -0.61888627455E+02 -0.44070082654E+02  0.76910961573E+02  0.10000000000E+00 0.  1.
         21    1    1    2  504  503  0.25371469964E+02  0.90283417877E+01  0.17692281885E+03  0.17896062772E+03  0.00000000000E+00 0. -1.
<mgrwt>
<rscale>  1 0.12786346E+03</rscale>
<asrwt>0</asrwt>
<pdfrwt beam="1">  1       21 0.32730415E-01 0.12786346E+03</pdfrwt>
<pdfrwt beam="2">  1       21 0.18222911E-01 0.12786346E+03</pdfrwt>
<totfact> 0.25038373E+05</totfact>
</mgrwt>
</event>
<event>
 6    1  0.4216855E-002  0.1464529E+03  0.7546771E-02  0.1204901E+00
         21   -1    0    0  504  502  0.00000000000E+00  0.00000000000E+00  0.40249672777E+03  0.40249672777E+03  0.00000000000E+00 0.  1.
         21   -1    0    0  502  503 -0.00000000000E+00 -0.00000000000E+00 -0.34475282068E+02  0.34475282068E+02  0.00000000000E+00 0. -1.
         25    2    1    2    0    0  0.37077710899E+02  0.66658627366E+02  0.16784990369E+03  0.22276002259E+03  0.12502123119E+03 0.  0.
          5    1    3    3  501    0 -0.28101708980E+02  0.26842621644E+02  0.56769731819E+00  0.38865983386E+02  0.10000000000E+00 0.  1.
         -5    1    3    3    0  501  0.65179419878E+02  0.39816005722E+02  0.16728220637E+03  0.18389403920E+03  0.10000000000E+00 0.  1.
         21    1    1    2  504  503 -0.37077710899E+02 -0.66658627366E+02  0.20017154202E+03  0.21421198725E+03  0.00000000000E+00 0.  1.
<mgrwt>
<rscale>  1 0.14645285E+03</rscale>
<asrwt>0</asrwt>
<pdfrwt beam="1">  1       21 0.61922570E-01 0.14645285E+03</pdfrwt>
<pdfrwt beam="2">  1       21 0.53038898E-02 0.14645285E+03</pdfrwt>
<totfact> 0.59293754E+05</totfact>
</mgrwt>
</event>
<event>
 6    1  0.4216855E-002  0.1371181E+03  0.7546771E-02  0.1217260E+00
         21   -1    0    0  503  502  0.00000000000E+00  0.00000000000E+00  0.65933254118E+01  0.65933254118E+01  0.00000000000E+00 0. -1.
         21   -1    0    0  504  503 -0.00000000000E+00 -0.00000000000E+00 -0.15316955487E+04  0.15316955487E+04  0.00000000000E+00 0. -1.
         25    2    1    2    0    0 -0.52900329547E+02  0.19450137403E+02 -0.86680582524E+03  0.87758402291E+03  0.12499850357E+03 0.  0.
          5    1    3    3  501    0  0.20616992812E+02  0.15545322364E+02 -0.40670770730E+02  0.48175087253E+02  0.10000000000E+00 0.  1.
         -5    1    3    3    0  501 -0.73517322359E+02  0.39048150392E+01 -0.82613505450E+03  0.82940893566E+03  0.10000000000E+00 0.  1.
         21    1    1    2  504  502  0.52900329547E+02 -0.19450137403E+02 -0.65829639804E+03  0.66070485119E+03  0.00000000000E+00 0. -1.
<mgrwt>
<rscale>  1 0.13711812E+03</rscale>
<asrwt>0</asrwt>
<pdfrwt beam="1">  1       21 0.10143558E-02 0.13711812E+03</pdfrwt>
<pdfrwt beam="2">  1       21 0.23564593E+00 0.13711812E+03</pdfrwt>
<totfact> 0.30606812E+05</totfact>
</mgrwt>
</event>
<event>
 6    1  0.4216855E-002  0.1268813E+03  0.7546771E-02  0.1232158E+00
         21   -1    0    0  503  502  0.00000000000E+00  0.00000000000E+00  0.13814009319E+03  0.13814009319E+03  0.00000000000E+00 0. -1.
         21   -1    0    0  504  503 -0.00000000000E+00 -0.00000000000E+00 -0.42566876882E+02  0.42566876882E+02  0.00000000000E+00 0. -1.
         25    2    1    2    0    0 -0.13249340027E+02 -0.17273237371E+02  0.63344082579E+02  0.14181446692E+03  0.12499984196E+03 0.  0.
          5    1    3    3  501    0  0.26409708880E+02 -0.59529704477E+02  0.16203739897E+02  0.67110577593E+02  0.10000000000E+00 0.  1.
         -5    1    3    3    0  501 -0.39659048907E+02  0.42256467106E+02  0.47140342682E+02  0.74703889327E+02  0.10000000000E+00 0.  1.
         21    1    1    2  504  502  0.13249340027E+02  0.17273237371E+02  0.32229133725E+02  0.38892503147E+02  0.00000000000E+00 0. -1.
<mgrwt>
<rscale>  1 0.12688132E+03</rscale>
<asrwt>0</asrwt>
<pdfrwt beam="1">  1       21 0.21252322E-01 0.12688132E+03</pdfrwt>
<pdfrwt beam="2">  1       21 0.65487504E-02 0.12688132E+03</pdfrwt>
<totfact> 0.34542191E+06</totfact>
</mgrwt>
</event>
<event>
 6    1  0.4216855E-002  0.1571856E+03  0.7546771E-02  0.1191911E+00
         21   -1    0    0  504  502  0.00000000000E+00  0.00000000000E+00  0.34570245434E+03  0.34570245434E+03  0.00000000000E+00 0.  1.
         21   -1    0    0  502  503 -0.00000000000E+00 -0.00000000000E+00 -0.19950393004E+03  0.19950393004E+03  0.00000000000E+00 0.  1.
         25    2    1    2    0    0 -0.58509486787E+02  0.75228905446E+02 -0.16013561186E+03  0.22438969024E+03  0.12499828255E+03 0.  0.
          5    1    3    3  501    0 -0.65624085537E+02  0.90124173057E+02 -0.67569266117E+02  0.13036296597E+03  0.10000000000E+00 0. -1.
         -5    1    3    3    0  501  0.71145987499E+01 -0.14895267611E+02 -0.92566345748E+02  0.94026724274E+02  0.10000000000E+00 0. -1.
         21    1    1    2  504  503  0.58509486787E+02 -0.75228905446E+02  0.30633413616E+03  0.32081669414E+03  0.00000000000E+00 0.  1.
<mgrwt>
<rscale>  1 0.15718562E+03</rscale>
<asrwt>0</asrwt>
<pdfrwt beam="1">  1       21 0.53184993E-01 0.15718562E+03</pdfrwt>
<pdfrwt beam="2">  1       21 0.30692912E-01 0.15718562E+03</pdfrwt>
<totfact> 0.34790088E+04</totfact>
</mgrwt>
</event>
<event>
 6    1  0.4216855E-002  0.1327605E+03  0.7546771E-02  0.1223416E+00
         21   -1    0    0  504  502  0.00000000000E+00  0.00000000000E+00  0.19701195476E+03  0.19701195476E+03  0.00000000000E+00 0. -1.
         21   -1    0    0  502  503 -0.00000000000E+00 -0.00000000000E+00 -0.74655041715E+02  0.74655041715E+02  0.00000000000E+00 0. -1.
         25    2    1    2    0    0  0.13085079287E+02 -0.42773981530E+02 -0.88398579180E+01  0.13305449521E+03  0.12499809123E+03 0.  0.
          5    1    3    3  501    0  0.40357899348E+02 -0.68793460584E+02  0.23757104427E+02  0.83220852373E+02  0.10000000000E+00 0. -1.
         -5    1    3    3    0  501 -0.27272820061E+02  0.26019479054E+02 -0.32596962345E+02  0.49833642837E+02  0.10000000000E+00 0. -1.
         21    1    1    2  504  503 -0.13085079287E+02  0.42773981530E+02  0.13119677096E+03  0.13861250127E+03  0.00000000000E+00 0. -1.
<mgrwt>
<rscale>  1 0.13276052E+03</rscale>
<asrwt>0</asrwt>
<pdfrwt beam="1">  1       21 0.30309531E-01 0.13276052E+03</pdfrwt>
<pdfrwt beam="2">  1       21 0.11485391E-01 0.13276052E+03</pdfrwt>
<totfact> 0.66630702E+05</totfact>
</mgrwt>
</event>
<event>
 6    1  0.4216855E-002  0.1265333E+03  0.7546771E-02  0.1232692E+00
         21   -1    0    0  504  502  0.00000000000E+00  0.00000000000E+00  0.60750887872E+03  0.60750887872E+03  0.00000000000E+00 0.  1.
         21   -1    0    0  502  503 -0.00000000000E+00 -0.00000000000E+00 -0.89237991881E+01  0.89237991881E+01  0.00000000000E+00 0.  1.
         25    2    1    2    0    0 -0.12119868377E+01 -0.19617720717E+02  0.48941848546E+03  0.50551077232E+03  0.12499745254E+03 0.  0.
          5    1    3    3  501    0 -0.27676631246E+02 -0.45912189081E+02  0.93032734998E+02  0.10737329651E+03  0.10000000000E+00 0. -1.
         -5    1    3    3    0  501  0.26464644409E+02  0.26294468364E+02  0.39638575046E+03  0.39813747581E+03  0.10000000000E+00 0. -1.
         21    1    1    2  504  503  0.12119868377E+01  0.19617720717E+02  0.10916659407E+03  0.11092190559E+03  0.00000000000E+00 0.  1.
<mgrwt>
<rscale>  1 0.12653334E+03</rscale>
<asrwt>0</asrwt>
<pdfrwt beam="1">  1       21 0.93462871E-01 0.12653334E+03</pdfrwt>
<pdfrwt beam="2">  1       21 0.13728927E-02 0.12653334E+03</pdfrwt>
<totfact> 0.21716139E+06</totfact>
</mgrwt>
</event>
<event>
 6    1  0.4216855E-002  0.2300371E+03  0.7546771E-02  0.1126614E+00
         21   -1    0    0  503  502  0.00000000000E+00  0.00000000000E+00  0.12751247771E+03  0.12751247771E+03  0.00000000000E+00 0.  1.
         21   -1    0    0  504  503 -0.00000000000E+00 -0.00000000000E+00 -0.56995645092E+03  0.56995645092E+03  0.00000000000E+00 0.  1.
         25    2    1    2    0    0  0.18295313688E+03 -0.61754338122E+02 -0.44874591534E+03  0.50427171581E+03  0.12502647022E+03 0.  0.
          5    1    3    3  501    0  0.13999227455E+02 -0.39200511252E+02 -0.18944198577E+03  0.19396116731E+03  0.10000000000E+00 0.  1.
         -5    1    3    3    0  501  0.16895390943E+03 -0.22553826869E+02 -0.25930392957E+03  0.31031054850E+03  0.10000000000E+00 0.  1.
         21    1    1    2  504  502 -0.18295313688E+03  0.61754338122E+02  0.63019421338E+01  0.19319721283E+03  0.00000000000E+00 0.  1.
<mgrwt>
<rscale>  1 0.23003710E+03</rscale>
<asrwt>0</asrwt>
<pdfrwt beam="1">  1       21 0.19617304E-01 0.23003710E+03</pdfrwt>
<pdfrwt beam="2">  1       21 0.87685609E-01 0.23003710E+03</pdfrwt>
<totfact> 0.26153979E+04</totfact>
</mgrwt>
</event>
<event>
 6    1  0.4216855E-002  0.1891424E+03  0.7546771E-02  0.1159237E+00
         21   -1    0    0  503  502  0.00000000000E+00  0.00000000000E+00  0.89071360126E+02  0.89071360126E+02  0.00000000000E+00 0.  1.
         21   -1    0    0  504  503 -0.00000000000E+00 -0.00000000000E+00 -0.49321695878E+03  0.49321695878E+03  0.00000000000E+00 0. -1.
         25    2    1    2    0    0 -0.93714751904E+02  0.10661321698E+03 -0.39747725280E+03  0.44018518877E+03  0.12500400458E+03 0.  0.
          5    1    3    3  501    0 -0.68644237231E+02  0.96564185076E+02 -0.14955833172E+03  0.19079931271E+03  0.10000000000E+00 0. -1.
         -5    1    3    3    0  501 -0.25070514673E+02  0.10049031901E+02 -0.24791892108E+03  0.24938587606E+03  0.10000000000E+00 0. -1.
         21    1    1    2  504  502  0.93714751904E+02 -0.10661321698E+03 -0.66683458563E+01  0.14210313014E+03  0.00000000000E+00 0.  1.
<mgrwt>
<rscale>  1 0.18914236E+03</rscale>
<asrwt>0</asrwt>
<pdfrwt beam="1">  1       21 0.13703286E-01 0.18914236E+03</pdfrwt>
<pdfrwt beam="2">  1       21 0.75879532E-01 0.18914236E+03</pdfrwt>
<totfact> 0.71708131E+04</totfact>
</mgrwt>
</event>
<event>
 6    1  0.4216855E-002  0.1289664E+03  0.7546771E-02  0.1228997E+00
         21   -1    0    0  504  502  0.00000000000E+00  0.00000000000E+00  0.68489051863E+02  0.68489051863E+02  0.00000000000E+00 0. -1.
         21   -1    0    0  502  503 -0.00000000000E+00 -0.00000000000E+00 -0.18693332539E+03  0.18693332539E+03  0.00000000000E+00 0.  1.
         25    2    1    2    0    0 -0.28118814391E+02  0.14726485090E+02 -0.15848413662E+03  0.20432709644E+03  0.12499921477E+03 0.  0.
          5    1    3    3  501    0  0.25596545806E+02 -0.34006485684E+02 -0.17974369172E+02  0.46202945500E+02  0.10000000000E+00 0. -1.
         -5    1    3    3    0  501 -0.53715360197E+02  0.48732970774E+02 -0.14050976744E+03  0.15812415093E+03  0.10000000000E+00 0. -1.
         21    1    1    2  504  503  0.28118814391E+02 -0.14726485090E+02  0.40039863088E+02  0.51095280820E+02  0.00000000000E+00 0. -1.
<mgrwt>
<rscale>  1 0.12896643E+03</rscale>
<asrwt>0</asrwt>
<pdfrwt beam="1">  1       21 0.10536777E-01 0.12896643E+03</pdfrwt>
<pdfrwt beam="2">  1       21 0.28758973E-01 0.12896643E+03</pdfrwt>
<totfact> 0.85805771E+05</totfact>
</mgrwt>
</event>
<event>
 6    1  0.4216855E-002  0.1455187E+03  0.7546771E-02  0.1206090E+00
         21   -1    0    0  503  502  0.00000000000E+00  0.00000000000E+00  0.11699117953E+03  0.11699117953E+03  0.00000000000E+00 0. -1.
         21   -1    0    0  504  503 -0.00000000000E+00 -0.00000000000E+00 -0.10345058522E+03  0.10345058522E+03  0.00000000000E+00 0. -1.
         25    2    1    2    0    0  0.74016725236E+02  0.85006016731E+01  0.83604346421E+01  0.14575863481E+03  0.12499978764E+03 0.  0.
          5    1    3    3  501    0  0.50524839211E+02 -0.48166220104E+02  0.35924661848E+02  0.78506913487E+02  0.10000000000E+00 0.  1.
         -5    1    3    3    0  501  0.23491886025E+02  0.56666821777E+02 -0.27564227206E+02  0.67251721322E+02  0.10000000000E+00 0.  1.
         21    1    1    2  504  502 -0.74016725236E+02 -0.85006016731E+01  0.51801596614E+01  0.74683129939E+02  0.00000000000E+00 0. -1.
<mgrwt>
<rscale>  1 0.14551867E+03</rscale>
<asrwt>0</asrwt>
<pdfrwt beam="1">  1       21 0.17998643E-01 0.14551867E+03</pdfrwt>
<pdfrwt beam="2">  1       21 0.15915475E-01 0.14551867E+03</pdfrwt>
<totfact> 0.99039326E+05</totfact>
</mgrwt>
</event>
<event>
 6    1  0.4216855E-002  0.1470793E+03  0.7546771E-02  0.1204109E+00
         21   -1    0    0  503  502  0.00000000000E+00  0.00000000000E+00  0.43458762861E+03  0.43458762861E+03  0.00000000000E+00 0.  1.
         21   -1    0    0  504  503 -0.00000000000E+00 -0.00000000000E+00 -0.43819343231E+02  0.43819343231E+02  0.00000000000E+00 0.  1.
         25    2    1    2    0    0  0.41918106196E+02 -0.65190386217E+02  0.10091565343E+03  0.17837120342E+03  0.12500161208E+03 0.  0.
          5    1    3    3  501    0 -0.21469621168E+02 -0.68239998811E+02  0.17657297406E+02  0.73684681057E+02  0.10000000000E+00 0.  1.
         -5    1    3    3    0  501  0.63387727364E+02  0.30496125945E+01  0.83258356025E+02  0.10468652237E+03  0.10000000000E+00 0.  1.
         21    1    1    2  504  502 -0.41918106196E+02  0.65190386217E+02  0.28985263194E+03  0.30003576841E+03  0.00000000000E+00 0.  1.
<mgrwt>
<rscale>  1 0.14707929E+03</rscale>
<asrwt>0</asrwt>
<pdfrwt beam="1">  1       21 0.66859632E-01 0.14707929E+03</pdfrwt>
<pdfrwt beam="2">  1       21 0.67414377E-02 0.14707929E+03</pdfrwt>
<totfact> 0.33417184E+05</totfact>
</mgrwt>
</event>
<event>
 6    1  0.4216855E-002  0.1309413E+03  0.7546771E-02  0.1226066E+00
         21   -1    0    0  504  502  0.00000000000E+00  0.00000000000E+00  0.14676636031E+02  0.14676636031E+02  0.00000000000E+00 0. -1.
         21   -1    0    0  502  503 -0.00000000000E+00 -0.00000000000E+00 -0.65786060264E+03  0.65786060264E+03  0.00000000000E+00 0. -1.
         25    2    1    2    0    0  0.60204394938E+01  0.38532207100E+02 -0.60095346706E+03  0.61505339948E+03  0.12499855186E+03 0.  0.
          5    1    3    3  501    0 -0.55523267879E+02  0.36637965582E+02 -0.24786113003E+03  0.25663266273E+03  0.10000000000E+00 0. -1.
         -5    1    3    3    0  501  0.61543707373E+02  0.18942415184E+01 -0.35309233703E+03  0.35842073675E+03  0.10000000000E+00 0. -1.
         21    1    1    2  504  503 -0.60204394938E+01 -0.38532207100E+02 -0.42230499551E+02  0.57483839190E+02  0.00000000000E+00 0. -1.
<mgrwt>
<rscale>  1 0.13094126E+03</rscale>
<asrwt>0</asrwt>
<pdfrwt beam="1">  1       21 0.22579437E-02 0.13094126E+03</pdfrwt>
<pdfrwt beam="2">  1       21 0.10120934E+00 0.13094126E+03</pdfrwt>
<totfact> 0.81168557E+05</totfact>
</mgrwt>
</event>
<event>
 6    1  0.4216855E-002  0.1312313E+03  0.7546771E-02  0.1225640E+00
         21   -1    0    0  503  502  0.00000000000E+00  0.00000000000E+00  0.99980286285E+02  0.99980286285E+02  0.00000000000E+00 0. -1.
         21   -1    0    0  504  503 -0.00000000000E+00 -0.00000000000E+00 -0.15544835197E+03  0.15544835197E+03  0.00000000000E+00 0. -1.
         25    2    1    2    0    0  0.13334586695E+02  0.37673762526E+02 -0.12111163977E+03  0.17857681717E+03  0.12499810701E+03 0.  0.
          5    1    3    3  501    0  0.63841670466E+02  0.44331691955E+02 -0.55481615326E+02  0.95494907920E+02  0.10000000000E+00 0. -1.
         -5    1    3    3    0  501 -0.50507083771E+02 -0.66579294287E+01 -0.65630024445E+02  0.83081909247E+02  0.10000000000E+00 0. -1.
         21    1    1    2  504  502 -0.13334586695E+02 -0.37673762526E+02  0.65643574088E+02  0.76851821086E+02  0.00000000000E+00 0. -1.
<mgrwt>
<rscale>  1 0.13123129E+03</rscale>
<asrwt>0</asrwt>
<pdfrwt beam="1">  1       21 0.15381583E-01 0.13123129E+03</pdfrwt>
<pdfrwt beam="2">  1       21 0.23915131E-01 0.13123129E+03</pdfrwt>
<totfact> 0.62119462E+05</totfact>
</mgrwt>
</event>
<event>
 6    1  0.4216855E-002  0.1264726E+03  0.7546771E-02  0.1232786E+00
         21   -1    0    0  504  502  0.00000000000E+00  0.00000000000E+00  0.14919587144E+03  0.14919587144E+03  0.00000000000E+00 0.  1.
         21   -1    0    0  502  503 -0.00000000000E+00 -0.00000000000E+00 -0.63687226828E+02  0.63687226828E+02  0.00000000000E+00 0. -1.
         25    2    1    2    0    0  0.19249519101E+02 -0.80988966818E+00  0.12800116733E+01  0.12647903289E+03  0.12499642965E+03 0.  0.
          5    1    3    3  501    0 -0.18468197738E+02 -0.33142072810E+02  0.46006210835E+02  0.59632648383E+02  0.10000000000E+00 0.  1.
         -5    1    3    3    0  501  0.37717716839E+02  0.32332183142E+02 -0.44726199162E+02  0.66846384507E+02  0.10000000000E+00 0.  1.
         21    1    1    2  504  503 -0.19249519101E+02  0.80988966818E+00  0.84228632934E+02  0.86404065372E+02  0.00000000000E+00 0.  1.
<mgrwt>
<rscale>  1 0.12647256E+03</rscale>
<asrwt>0</asrwt>
<pdfrwt beam="1">  1       21 0.22953211E-01 0.12647256E+03</pdfrwt>
<pdfrwt beam="2">  1       21 0.97980349E-02 0.12647256E+03</pdfrwt>
<totfact> 0.14937250E+06</totfact>
</mgrwt>
</event>
<event>
 6    1  0.4216855E-002  0.1285766E+03  0.7546771E-02  0.1229583E+00
         21   -1    0    0  504  502  0.00000000000E+00  0.00000000000E+00  0.85978196972E+01  0.85978196972E+01  0.00000000000E+00 0.  1.
         21   -1    0    0  502  503 -0.00000000000E+00 -0.00000000000E+00 -0.13905736805E+04  0.13905736805E+04  0.00000000000E+00 0.  1.
         25    2    1    2    0    0  0.35945961589E+01  0.29909501978E+02 -0.13465251881E+04  0.13526500038E+04  0.12499780495E+03 0.  0.
          5    1    3    3  501    0  0.18714921876E+02  0.32721395311E+02 -0.11483233540E+03  0.12086113215E+03  0.10000000000E+00 0.  1.
         -5    1    3    3    0  501 -0.15120325717E+02 -0.28118933328E+01 -0.12316928527E+04  0.12317888716E+04  0.10000000000E+00 0.  1.
         21    1    1    2  504  503 -0.35945961589E+01 -0.29909501978E+02 -0.35450672746E+02  0.46521496411E+02  0.00000000000E+00 0.  1.
<mgrwt>
<rscale>  1 0.12857663E+03</rscale>
<asrwt>0</asrwt>
<pdfrwt beam="1">  1       21 0.13227431E-02 0.12857663E+03</pdfrwt>
<pdfrwt beam="2">  1       21 0.21393416E+00 0.12857663E+03</pdfrwt>
<totfact> 0.27214181E+05</totfact>
</mgrwt>
</event>
<event>
 6    1  0.4216855E-002  0.1288960E+03  0.7546771E-02  0.1229103E+00
         21   -1    0    0  503  502  0.00000000000E+00  0.00000000000E+00  0.18556402377E+03  0.18556402377E+03  0.00000000000E+00 0. -1.
         21   -1    0    0  504  503 -0.00000000000E+00 -0.00000000000E+00 -0.48802051192E+03  0.48802051192E+03  0.00000000000E+00 0.  1.
         25    2    1    2    0    0  0.19796184655E+02  0.24447077577E+02 -0.47808763074E+03  0.49515850964E+03  0.12499847389E+03 0.  0.
          5    1    3    3  501    0 -0.37308624764E+02 -0.31456666713E+02 -0.16866068272E+03  0.17557873236E+03  0.10000000000E+00 0.  1.
         -5    1    3    3    0  501  0.57104809418E+02  0.55903744290E+02 -0.30942694802E+03  0.31957977728E+03  0.10000000000E+00 0.  1.
         21    1    1    2  504  502 -0.19796184655E+02 -0.24447077577E+02  0.17563114258E+03  0.17842602606E+03  0.00000000000E+00 0. -1.
<mgrwt>
<rscale>  1 0.12889595E+03</rscale>
<asrwt>0</asrwt>
<pdfrwt beam="1">  1       21 0.28548311E-01 0.12889595E+03</pdfrwt>
<pdfrwt beam="2">  1       21 0.75080079E-01 0.12889595E+03</pdfrwt>
<totfact> 0.19417490E+04</totfact>
</mgrwt>
</event>
<event>
 6    1  0.4216855E-002  0.1292172E+03  0.7546771E-02  0.1228622E+00
         21   -1    0    0  503  502  0.00000000000E+00  0.00000000000E+00  0.78973102299E+01  0.78973102299E+01  0.00000000000E+00 0.  1.
         21   -1    0    0  504  503 -0.00000000000E+00 -0.00000000000E+00 -0.11510610060E+04  0.11510610060E+04  0.00000000000E+00 0.  1.
         25    2    1    2    0    0  0.30143710284E+02 -0.12749718982E+02 -0.10810872589E+04  0.10887822333E+04  0.12500356610E+03 0.  0.
          5    1    3    3  501    0  0.25289066975E+02  0.51929240066E+02 -0.68380928452E+03  0.68624436645E+03  0.10000000000E+00 0. -1.
         -5    1    3    3    0  501  0.48546433094E+01 -0.64678959048E+02 -0.39727797442E+03  0.40253786687E+03  0.10000000000E+00 0. -1.
         21    1    1    2  504  502 -0.30143710284E+02  0.12749718982E+02 -0.62076436839E+02  0.70176082923E+02  0.00000000000E+00 0.  1.
<mgrwt>
<rscale>  1 0.12921722E+03</rscale>
<asrwt>0</asrwt>
<pdfrwt beam="1">  1       21 0.12149708E-02 0.12921722E+03</pdfrwt>
<pdfrwt beam="2">  1       21 0.17708631E+00 0.12921722E+03</pdfrwt>
<totfact> 0.53490700E+05</totfact>
</mgrwt>
</event>
<event>
 6    1  0.4216855E-002  0.1260117E+03  0.7546771E-02  0.1233497E+00
         21   -1    0    0  503  502  0.00000000000E+00  0.00000000000E+00  0.25757436742E+03  0.25757436742E+03  0.00000000000E+00 0. -1.
         21   -1    0    0  504  503 -0.00000000000E+00 -0.00000000000E+00 -0.20077870723E+02  0.20077870723E+02  0.00000000000E+00 0. -1.
         25    2    1    2    0    0 -0.25995323590E+01  0.15748608470E+02  0.19413473694E+03  0.23144597833E+03  0.12499667419E+03 0.  0.
          5    1    3    3  501    0  0.31576291526E+02  0.32791368658E+02  0.18716990987E+03  0.19262637723E+03  0.10000000000E+00 0. -1.
         -5    1    3    3    0  501 -0.34175823885E+02 -0.17042760188E+02  0.69648270745E+01  0.38819601095E+02  0.10000000000E+00 0. -1.
         21    1    1    2  504  502  0.25995323590E+01 -0.15748608470E+02  0.43361759751E+02  0.46206259813E+02  0.00000000000E+00 0. -1.
<mgrwt>
<rscale>  1 0.12601169E+03</rscale>
<asrwt>0</asrwt>
<pdfrwt beam="1">  1       21 0.39626823E-01 0.12601169E+03</pdfrwt>
<pdfrwt beam="2">  1       21 0.30889034E-02 0.12601169E+03</pdfrwt>
<totfact> 0.36584686E+06</totfact>
</mgrwt>
</event>
<event>
 6    1  0.4216855E-002  0.1269803E+03  0.7546771E-02  0.1232007E+00
         21   -1    0    0  503  502  0.00000000000E+00  0.00000000000E+00  0.70737332258E+03  0.70737332258E+03  0.00000000000E+00 0. -1.
         21   -1    0    0  504  503 -0.00000000000E+00 -0.00000000000E+00 -0.11265257385E+02  0.11265257385E+02  0.00000000000E+00 0. -1.
         25    2    1    2    0    0 -0.21407612737E+02 -0.64788071928E+01  0.35910656138E+03  0.38089566827E+03  0.12499490732E+03 0.  0.
          5    1    3    3  501    0 -0.73010461428E+02  0.67427645775E-01  0.17596562037E+03  0.19051100119E+03  0.10000000000E+00 0.  1.
         -5    1    3    3    0  501  0.51602848691E+02 -0.65462348386E+01  0.18314094101E+03  0.19038466708E+03  0.10000000000E+00 0.  1.
         21    1    1    2  504  502  0.21407612737E+02  0.64788071928E+01  0.33700150382E+03  0.33774291170E+03  0.00000000000E+00 0. -1.
<mgrwt>
<rscale>  1 0.12698026E+03</rscale>
<asrwt>0</asrwt>
<pdfrwt beam="1">  1       21 0.10882663E+00 0.12698026E+03</pdfrwt>
<pdfrwt beam="2">  1       21 0.17331171E-02 0.12698026E+03</pdfrwt>
<totfact> 0.10473448E+06</totfact>
</mgrwt>
</event>
<event>
 6    1  0.4216855E-002  0.1266898E+03  0.7546771E-02  0.1232452E+00
         21   -1    0    0  503  502  0.00000000000E+00  0.00000000000E+00  0.60513892878E+03  0.60513892878E+03  0.00000000000E+00 0.  1.
         21   -1    0    0  504  503 -0.00000000000E+00 -0.00000000000E+00 -0.15896112547E+02  0.15896112547E+02  0.00000000000E+00 0.  1.
         25    2    1    2    0    0 -0.19930470806E+02 -0.49937711039E+01  0.24174478421E+03  0.27293010934E+03  0.12501256926E+03 0.  0.
          5    1    3    3  501    0  0.63260600221E+00  0.59231886879E+02  0.11080585793E+03  0.12564539293E+03  0.10000000000E+00 0. -1.
         -5    1    3    3    0  501 -0.20563076808E+02 -0.64225657983E+02  0.13093892629E+03  0.14728471641E+03  0.10000000000E+00 0. -1.
         21    1    1    2  504  502  0.19930470806E+02  0.49937711039E+01  0.34749803202E+03  0.34810493199E+03  0.00000000000E+00 0.  1.
<mgrwt>
<rscale>  1 0.12668979E+03</rscale>
<asrwt>0</asrwt>
<pdfrwt beam="1">  1       21 0.93098279E-01 0.12668979E+03</pdfrwt>
<pdfrwt beam="2">  1       21 0.24455562E-02 0.12668979E+03</pdfrwt>
<totfact> 0.86600065E+05</totfact>
</mgrwt>
</event>
<event>
 6    1  0.4216855E-002  0.1274754E+03  0.7546771E-02  0.1231251E+00
         21   -1    0    0  504  502  0.00000000000E+00  0.00000000000E+00  0.21424492345E+02  0.21424492345E+02  0.00000000000E+00 0. -1.
         21   -1    0    0  502  503 -0.00000000000E+00 -0.00000000000E+00 -0.58610771609E+03  0.58610771609E+03  0.00000000000E+00 0. -1.
         25    2    1    2    0    0 -0.24605641422E+02  0.44812411960E+01 -0.56815673570E+03  0.58228177481E+03  0.12499787937E+03 0.  0.
          5    1    3    3  501    0  0.29488146821E+02 -0.30262452620E+02 -0.40047177951E+03  0.40269470201E+03  0.10000000000E+00 0.  1.
         -5    1    3    3    0  501 -0.54093788243E+02  0.34743693816E+02 -0.16768495619E+03  0.17958707281E+03  0.10000000000E+00 0.  1.
         21    1    1    2  504  503  0.24605641422E+02 -0.44812411960E+01  0.34735119597E+01  0.25250433616E+02  0.00000000000E+00 0. -1.
<mgrwt>
<rscale>  1 0.12747544E+03</rscale>
<asrwt>0</asrwt>
<pdfrwt beam="1">  1       21 0.32960760E-02 0.12747544E+03</pdfrwt>
<pdfrwt beam="2">  1       21 0.90170412E-01 0.12747544E+03</pdfrwt>
<totfact> 0.57189480E+05</totfact>
</mgrwt>
</event>
<event>
 6    1  0.4216855E-002  0.1327716E+03  0.7546771E-02  0.1223400E+00
         21   -1    0    0  503  502  0.00000000000E+00  0.00000000000E+00  0.62682966777E+02  0.62682966777E+02  0.00000000000E+00 0.  1.
         21   -1    0    0  504  503 -0.00000000000E+00 -0.00000000000E+00 -0.13491308909E+03  0.13491308909E+03  0.00000000000E+00 0.  1.
         25    2    1    2    0    0  0.44745947815E+02 -0.10536265517E+01 -0.75467393907E+02  0.15272078537E+03  0.12500000306E+03 0.  0.
          5    1    3    3  501    0  0.23758675279E+01  0.11298790473E+01 -0.10242208661E+03  0.10245591832E+03  0.10000000000E+00 0.  1.
         -5    1    3    3    0  501  0.42370080287E+02 -0.21835055990E+01  0.26954692706E+02  0.50264867046E+02  0.10000000000E+00 0.  1.
         21    1    1    2  504  502 -0.44745947815E+02  0.10536265517E+01  0.32372715958E+01  0.44875270497E+02  0.00000000000E+00 0.  1.
<mgrwt>
<rscale>  1 0.13277165E+03</rscale>
<asrwt>0</asrwt>
<pdfrwt beam="1">  1       21 0.96435334E-02 0.13277165E+03</pdfrwt>
<pdfrwt beam="2">  1       21 0.20755860E-01 0.13277165E+03</pdfrwt>
<totfact> 0.18548461E+06</totfact>
</mgrwt>
</event>
<event>
 6    1  0.4216855E-002  0.1269720E+03  0.7546771E-02  0.1232019E+00
         21   -1    0    0  503  502  0.00000000000E+00  0.00000000000E+00  0.30247366771E+03  0.30247366771E+03  0.00000000000E+00 0.  1.
         21   -1    0    0  504  503 -0.00000000000E+00 -0.00000000000E+00 -0.50026396401E+02  0.50026396401E+02  0.00000000000E+00 0. -1.
         25    2    1    2    0    0 -0.11699871165E+02  0.18961637106E+02  0.32016773543E+02  0.13094637984E+03  0.12500179974E+03 0.  0.
          5    1    3    3  501    0 -0.35283336704E+02  0.64728317228E+02  0.29486372905E+02  0.79398520687E+02  0.10000000000E+00 0.  1.
         -5    1    3    3    0  501  0.23583465539E+02 -0.45766680122E+02  0.25304006374E+01  0.51547859157E+02  0.10000000000E+00 0.  1.
         21    1    1    2  504  502  0.11699871165E+02 -0.18961637106E+02  0.22043049777E+03  0.22155368427E+03  0.00000000000E+00 0.  1.
<mgrwt>
<rscale>  1 0.12697197E+03</rscale>
<asrwt>0</asrwt>
<pdfrwt beam="1">  1       21 0.46534409E-01 0.12697197E+03</pdfrwt>
<pdfrwt beam="2">  1       21 0.76963689E-02 0.12697197E+03</pdfrwt>
<totfact> 0.57189825E+05</totfact>
</mgrwt>
</event>
<event>
 6    1  0.4216855E-002  0.1297285E+03  0.7546771E-02  0.1227859E+00
         21   -1    0    0  504  502  0.00000000000E+00  0.00000000000E+00  0.17911758040E+03  0.17911758040E+03  0.00000000000E+00 0. -1.
         21   -1    0    0  502  503 -0.00000000000E+00 -0.00000000000E+00 -0.45159147345E+02  0.45159147345E+02  0.00000000000E+00 0. -1.
         25    2    1    2    0    0  0.18829726990E+02 -0.29154693065E+02  0.13791997389E+03  0.18934467152E+03  0.12499972275E+03 0.  0.
          5    1    3    3  501    0  0.56288080053E+02  0.39765365791E+01  0.17701407646E+02  0.59139755088E+02  0.10000000000E+00 0.  1.
         -5    1    3    3    0  501 -0.37458353063E+02 -0.33131229644E+02  0.12021856625E+03  0.13020491643E+03  0.10000000000E+00 0.  1.
         21    1    1    2  504  503 -0.18829726990E+02  0.29154693065E+02 -0.39615408413E+01  0.34932056225E+02  0.00000000000E+00 0. -1.
<mgrwt>
<rscale>  1 0.12972851E+03</rscale>
<asrwt>0</asrwt>
<pdfrwt beam="1">  1       21 0.27556550E-01 0.12972851E+03</pdfrwt>
<pdfrwt beam="2">  1       21 0.69475612E-02 0.12972851E+03</pdfrwt>
<totfact> 0.19158317E+06</totfact>
</mgrwt>
</event>
<event>
 6    1  0.4216855E-002  0.1355642E+03  0.7546771E-02  0.1219425E+00
         21   -1    0    0  504  502  0.00000000000E+00  0.00000000000E+00  0.29813847548E+02  0.29813847548E+02  0.00000000000E+00 0.  1.
         21   -1    0    0  502  503 -0.00000000000E+00 -0.00000000000E+00 -0.29801443508E+03  0.29801443508E+03  0.00000000000E+00 0.  1.
         25    2    1    2    0    0 -0.19562965479E+02 -0.48680212291E+02 -0.20367959990E+03  0.24466921498E+03  0.12500069063E+03 0.  0.
          5    1    3    3  501    0  0.19548250508E+02 -0.47284406351E+02 -0.16977148409E+02  0.53909022900E+02  0.10000000000E+00 0. -1.
         -5    1    3    3    0  501 -0.39111215986E+02 -0.13958059397E+01 -0.18670245149E+03  0.19076019208E+03  0.10000000000E+00 0. -1.
         21    1    1    2  504  503  0.19562965479E+02  0.48680212291E+02 -0.64520987639E+02  0.83159067653E+02  0.00000000000E+00 0.  1.
<mgrwt>
<rscale>  1 0.13556417E+03</rscale>
<asrwt>0</asrwt>
<pdfrwt beam="1">  1       21 0.45867460E-02 0.13556417E+03</pdfrwt>
<pdfrwt beam="2">  1       21 0.45848373E-01 0.13556417E+03</pdfrwt>
<totfact> 0.14184383E+06</totfact>
</mgrwt>
</event>
<event>
 6    1  0.4216855E-002  0.1397439E+03  0.7546771E-02  0.1213674E+00
         21   -1    0    0  504  502  0.00000000000E+00  0.00000000000E+00  0.56520289651E+02  0.56520289651E+02  0.00000000000E+00 0.  1.
         21   -1    0    0  502  503 -0.00000000000E+00 -0.00000000000E+00 -0.23203996255E+03  0.23203996255E+03  0.00000000000E+00 0.  1.
         25    2    1    2    0    0 -0.57300274227E+02  0.24905302209E+02 -0.17767303163E+03  0.22604439454E+03  0.12499906652E+03 0.  0.
          5    1    3    3  501    0  0.19123592883E+02  0.53526263870E+02 -0.88354334416E+02  0.10505841774E+03  0.10000000000E+00 0. -1.
         -5    1    3    3    0  501 -0.76423867110E+02 -0.28620961661E+02 -0.89318697214E+02  0.12098597680E+03  0.10000000000E+00 0. -1.
         21    1    1    2  504  503  0.57300274227E+02 -0.24905302209E+02  0.21533587317E+01  0.62515857656E+02  0.00000000000E+00 0.  1.
<mgrwt>
<rscale>  1 0.13974392E+03</rscale>
<asrwt>0</asrwt>
<pdfrwt beam="1">  1       21 0.86954292E-02 0.13974392E+03</pdfrwt>
<pdfrwt beam="2">  1       21 0.35698456E-01 0.13974392E+03</pdfrwt>
<totfact> 0.78801594E+05</totfact>
</mgrwt>
</event>
<event>
 6    1  0.4216855E-002  0.1265184E+03  0.7546771E-02  0.1232715E+00
         21   -1    0    0  504  502  0.00000000000E+00  0.00000000000E+00  0.69503243542E+03  0.69503243542E+03  0.00000000000E+00 0. -1.
         21   -1    0    0  502  503 -0.00000000000E+00 -0.00000000000E+00 -0.39406579693E+02  0.39406579693E+02  0.00000000000E+00 0.  1.
         25    2    1    2    0    0  0.93620390591E+01 -0.17202968554E+02  0.62723161618E+02  0.14121292450E+03  0.12499322038E+03 0.  0.
          5    1    3    3  501    0 -0.28585392804E+02  0.33680718551E+02 -0.93688736014E+01  0.45158623500E+02  0.10000000000E+00 0. -1.
         -5    1    3    3    0  501  0.37947431863E+02 -0.50883687105E+02  0.72092035219E+02  0.96054300999E+02  0.10000000000E+00 0. -1.
         21    1    1    2  504  503 -0.93620390591E+01  0.17202968554E+02  0.59290269411E+03  0.59322609061E+03  0.00000000000E+00 0. -1.
<mgrwt>
<rscale>  1 0.12651836E+03</rscale>
<asrwt>0</asrwt>
<pdfrwt beam="1">  1       21 0.10692806E+00 0.12651836E+03</pdfrwt>
<pdfrwt beam="2">  1       21 0.60625512E-02 0.12651836E+03</pdfrwt>
<totfact> 0.13895802E+05</totfact>
</mgrwt>
</event>
<event>
 6    1  0.4216855E-002  0.1263793E+03  0.7546771E-02  0.1232929E+00
         21   -1    0    0  503  502  0.00000000000E+00  0.00000000000E+00  0.55977971691E+02  0.55977971691E+02  0.00000000000E+00 0.  1.
         21   -1    0    0  504  503 -0.00000000000E+00 -0.00000000000E+00 -0.18793665366E+03  0.18793665366E+03  0.00000000000E+00 0.  1.
         25    2    1    2    0    0 -0.15667588276E+02 -0.10084993608E+02 -0.16388179277E+03  0.20695159758E+03  0.12499816526E+03 0.  0.
          5    1    3    3  501    0 -0.58209281875E+02  0.10702297596E+02 -0.32988818356E+02  0.67757891103E+02  0.10000000000E+00 0. -1.
         -5    1    3    3    0  501  0.42541693600E+02 -0.20787291204E+02 -0.13089297442E+03  0.13919370647E+03  0.10000000000E+00 0. -1.
         21    1    1    2  504  502  0.15667588276E+02  0.10084993608E+02  0.31923110807E+02  0.36963027772E+02  0.00000000000E+00 0.  1.
<mgrwt>
<rscale>  1 0.12637928E+03</rscale>
<asrwt>0</asrwt>
<pdfrwt beam="1">  1       21 0.86119958E-02 0.12637928E+03</pdfrwt>
<pdfrwt beam="2">  1       21 0.28913331E-01 0.12637928E+03</pdfrwt>
<totfact> 0.12069320E+06</totfact>
</mgrwt>
</event>
<event>
 6    1  0.4216855E-002  0.1260155E+03  0.7546771E-02  0.1233491E+00
         21   -1    0    0  504  502  0.00000000000E+00  0.00000000000E+00  0.56366282968E+01  0.56366282968E+01  0.00000000000E+00 0. -1.
         21   -1    0    0  502  503 -0.00000000000E+00 -0.00000000000E+00 -0.89724785424E+03  0.89724785424E+03  0.00000000000E+00 0. -1.
         25    2    1    2    0    0 -0.46752615891E+01 -0.15317409332E+02 -0.80530867430E+03  0.81510856602E+03  0.12499372945E+03 0.  0.
          5    1    3    3  501    0 -0.14934212889E+02 -0.31092482217E+02 -0.79026291331E+03  0.79101533191E+03  0.10000000000E+00 0. -1.
         -5    1    3    3    0  501  0.10258951300E+02  0.15775072885E+02 -0.15045760994E+02  0.24093234117E+02  0.10000000000E+00 0. -1.
         21    1    1    2  504  503  0.46752615891E+01  0.15317409332E+02 -0.86302551642E+02  0.87775916512E+02  0.00000000000E+00 0. -1.
<mgrwt>
<rscale>  1 0.12601553E+03</rscale>
<asrwt>0</asrwt>
<pdfrwt beam="1">  1       21 0.86717335E-03 0.12601553E+03</pdfrwt>
<pdfrwt beam="2">  1       21 0.13803817E+00 0.12601553E+03</pdfrwt>
<totfact> 0.17537961E+06</totfact>
</mgrwt>
</event>
<event>
 6    1  0.4216855E-002  0.1439152E+03  0.7546771E-02  0.1208156E+00
         21   -1    0    0  503  502  0.00000000000E+00  0.00000000000E+00  0.57416066869E+03  0.57416066869E+03  0.00000000000E+00 0. -1.
         21   -1    0    0  504  503 -0.00000000000E+00 -0.00000000000E+00 -0.19049567907E+03  0.19049567907E+03  0.00000000000E+00 0. -1.
         25    2    1    2    0    0  0.33389746523E+02  0.63022977831E+02 -0.16065208627E+03  0.21568653983E+03  0.12499927892E+03 0.  0.
          5    1    3    3  501    0  0.61327263693E+02  0.86962218503E+02 -0.12836992562E+03  0.16674024266E+03  0.10000000000E+00 0.  1.
         -5    1    3    3    0  501 -0.27937517169E+02 -0.23939240672E+02 -0.32282160654E+02  0.48946297164E+02  0.10000000000E+00 0.  1.
         21    1    1    2  504  502 -0.33389746523E+02 -0.63022977831E+02  0.54431707590E+03  0.54896980793E+03  0.00000000000E+00 0. -1.
<mgrwt>
<rscale>  1 0.14391522E+03</rscale>
<asrwt>0</asrwt>
<pdfrwt beam="1">  1       21 0.88332410E-01 0.14391522E+03</pdfrwt>
<pdfrwt beam="2">  1       21 0.29307028E-01 0.14391522E+03</pdfrwt>
<totfact> 0.12668607E+04</totfact>
</mgrwt>
</event>
<event>
 6    1  0.4216855E-002  0.1264338E+03  0.7546771E-02  0.1232845E+00
         21   -1    0    0  504  502  0.00000000000E+00  0.00000000000E+00  0.79568032359E+02  0.79568032359E+02  0.00000000000E+00 0.  1.
         21   -1    0    0  502  503 -0.00000000000E+00 -0.00000000000E+00 -0.68478905003E+02  0.68478905003E+02  0.00000000000E+00 0.  1.
         25    2    1    2    0    0 -0.10896097114E+02 -0.15557017664E+02  0.18258944459E+02  0.12774541012E+03  0.12499902009E+03 0.  0.
          5    1    3    3  501    0 -0.31965841890E+02 -0.56125661343E+02  0.41186156733E+02  0.76604271521E+02  0.10000000000E+00 0.  1.
         -5    1    3    3    0  501  0.21069744775E+02  0.40568643679E+02 -0.22927212274E+02  0.51141138602E+02  0.10000000000E+00 0.  1.
         21    1    1    2  504  503  0.10896097114E+02  0.15557017664E+02 -0.71698171037E+01  0.20301527238E+02  0.00000000000E+00 0. -1.
<mgrwt>
<rscale>  1 0.12643378E+03</rscale>
<asrwt>0</asrwt>
<pdfrwt beam="1">  1       21 0.12241236E-01 0.12643378E+03</pdfrwt>
<pdfrwt beam="2">  1       21 0.10535216E-01 0.12643378E+03</pdfrwt>
<totfact> 0.41307453E+06</totfact>
</mgrwt>
</event>
<event>
 6    1  0.4216855E-002  0.1290454E+03  0.7546771E-02  0.1228879E+00
         21   -1    0    0  504  502  0.00000000000E+00  0.00000000000E+00  0.95199292024E+02  0.95199292024E+02  0.00000000000E+00 0. -1.
         21   -1    0    0  502  503 -0.00000000000E+00 -0.00000000000E+00 -0.96680218278E+02  0.96680218278E+02  0.00000000000E+00 0. -1.
         25    2    1    2    0    0 -0.18508608885E+02  0.26169364448E+02 -0.46020064486E+02  0.13700566341E+03  0.12500120492E+03 0.  0.
          5    1    3    3  501    0  0.49158639625E+02  0.34644677812E+02 -0.14423454778E+02  0.61845546308E+02  0.10000000000E+00 0.  1.
         -5    1    3    3    0  501 -0.67667248509E+02 -0.84753133632E+01 -0.31596609707E+02  0.75160117100E+02  0.10000000000E+00 0.  1.
         21    1    1    2  504  503  0.18508608885E+02 -0.26169364448E+02  0.44539138232E+02  0.54873846894E+02  0.00000000000E+00 0. -1.
<mgrwt>
<rscale>  1 0.12904536E+03</rscale>
<asrwt>0</asrwt>
<pdfrwt beam="1">  1       21 0.14646045E-01 0.12904536E+03</pdfrwt>
<pdfrwt beam="2">  1       21 0.14873880E-01 0.12904536E+03</pdfrwt>
<totfact> 0.16255973E+06</totfact>
</mgrwt>
</event>
<event>
 6    1  0.4216855E-002  0.1403338E+03  0.7546771E-02  0.1212880E+00
         21   -1    0    0  503  502  0.00000000000E+00  0.00000000000E+00  0.41897064718E+02  0.41897064718E+02  0.00000000000E+00 0. -1.
         21   -1    0    0  504  503 -0.00000000000E+00 -0.00000000000E+00 -0.24895567009E+03  0.24895567009E+03  0.00000000000E+00 0. -1.
         25    2    1    2    0    0  0.16743598260E+02  0.61548663854E+02 -0.13730201737E+03  0.19632989273E+03  0.12499998680E+03 0.  0.
          5    1    3    3  501    0  0.54063461048E+02  0.20094765541E+02 -0.11633432468E+02  0.58838798200E+02  0.10000000000E+00 0. -1.
         -5    1    3    3    0  501 -0.37319862789E+02  0.41453898313E+02 -0.12566858490E+03  0.13749109453E+03  0.10000000000E+00 0. -1.
         21    1    1    2  504  502 -0.16743598260E+02 -0.61548663854E+02 -0.69756588004E+02  0.94522842080E+02  0.00000000000E+00 0. -1.
<mgrwt>
<rscale>  1 0.14033383E+03</rscale>
<asrwt>0</asrwt>
<pdfrwt beam="1">  1       21 0.64457024E-02 0.14033383E+03</pdfrwt>
<pdfrwt beam="2">  1       21 0.38300872E-01 0.14033383E+03</pdfrwt>
<totfact> 0.11474342E+06</totfact>
</mgrwt>
</event>
<event>
 6    1  0.4216855E-002  0.1259589E+03  0.7546771E-02  0.1233578E+00
         21   -1    0    0  503  502  0.00000000000E+00  0.00000000000E+00  0.96501333096E+02  0.96501333096E+02  0.00000000000E+00 0.  1.
         21   -1    0    0  504  503 -0.00000000000E+00 -0.00000000000E+00 -0.10186366704E+03  0.10186366704E+03  0.00000000000E+00 0.  1.
         25    2    1    2    0    0  0.78518062382E+01 -0.13359077049E+02 -0.61469369925E+02  0.14015748098E+03  0.12500208092E+03 0.  0.
          5    1    3    3  501    0 -0.33250594280E+02 -0.17856182366E+02  0.24337198268E+02  0.44908289749E+02  0.10000000000E+00 0.  1.
         -5    1    3    3    0  501  0.41102400518E+02  0.44971053165E+01 -0.85806568193E+02  0.95249191228E+02  0.10000000000E+00 0.  1.
         21    1    1    2  504  502 -0.78518062382E+01  0.13359077049E+02  0.56107035978E+02  0.58207519162E+02  0.00000000000E+00 0.  1.
<mgrwt>
<rscale>  1 0.12595887E+03</rscale>
<asrwt>0</asrwt>
<pdfrwt beam="1">  1       21 0.14846359E-01 0.12595887E+03</pdfrwt>
<pdfrwt beam="2">  1       21 0.15671333E-01 0.12595887E+03</pdfrwt>
<totfact> 0.14428827E+06</totfact>
</mgrwt>
</event>
<event>
 6    1  0.4216855E-002  0.1432031E+03  0.7546771E-02  0.1209083E+00
         21   -1    0    0  504  502  0.00000000000E+00  0.00000000000E+00  0.13813515880E+03  0.13813515880E+03  0.00000000000E+00 0.  1.
         21   -1    0    0  502  503 -0.00000000000E+00 -0.00000000000E+00 -0.90242543617E+02  0.90242543617E+02  0.00000000000E+00 0.  1.
         25    2    1    2    0    0 -0.55243629393E+02 -0.42804340766E+02 -0.79287839222E+00  0.14320524524E+03  0.12499217348E+03 0.  0.
          5    1    3    3  501    0  0.31246379337E+02 -0.21071927328E+02  0.30720631122E+02  0.48622315037E+02  0.10000000000E+00 0. -1.
         -5    1    3    3    0  501 -0.86490008730E+02 -0.21732413438E+02 -0.31513509515E+02  0.94582930203E+02  0.10000000000E+00 0. -1.
         21    1    1    2  504  503  0.55243629393E+02  0.42804340766E+02  0.48685493577E+02  0.85172457178E+02  0.00000000000E+00 0.  1.
<mgrwt>
<rscale>  1 0.14320305E+03</rscale>
<asrwt>0</asrwt>
<pdfrwt beam="1">  1       21 0.21251563E-01 0.14320305E+03</pdfrwt>
<pdfrwt beam="2">  1       21 0.13883468E-01 0.14320305E+03</pdfrwt>
<totfact> 0.93205780E+05</totfact>
</mgrwt>
</event>
<event>
 6    1  0.4216855E-002  0.1261178E+03  0.7546771E-02  0.1233333E+00
         21   -1    0    0  503  502  0.00000000000E+00  0.00000000000E+00  0.61885108269E+03  0.61885108269E+03  0.00000000000E+00 0. -1.
         21   -1    0    0  504  503 -0.00000000000E+00 -0.00000000000E+00 -0.22856557133E+02  0.22856557133E+02  0.00000000000E+00 0. -1.
         25    2    1    2    0    0 -0.14250115409E+02  0.87802825143E+01  0.15248439355E+03  0.19788177719E+03  0.12500219325E+03 0.  0.
          5    1    3    3  501    0  0.25833105738E+02  0.30114706348E+02  0.94767670176E+00  0.39688197006E+02  0.10000000000E+00 0. -1.
         -5    1    3    3    0  501 -0.40083221147E+02 -0.21334423834E+02  0.15153671685E+03  0.15819358019E+03  0.10000000000E+00 0. -1.
         21    1    1    2  504  502  0.14250115409E+02 -0.87802825143E+01  0.44351013200E+03  0.44382586263E+03  0.00000000000E+00 0. -1.
<mgrwt>
<rscale>  1 0.12611783E+03</rscale>
<asrwt>0</asrwt>
<pdfrwt beam="1">  1       21 0.95207846E-01 0.12611783E+03</pdfrwt>
<pdfrwt beam="2">  1       21 0.35163939E-02 0.12611783E+03</pdfrwt>
<totfact> 0.45372789E+05</totfact>
</mgrwt>
</event>
<event>
 6    1  0.4216855E-002  0.1267587E+03  0.7546771E-02  0.1232346E+00
         21   -1    0    0  503  502  0.00000000000E+00  0.00000000000E+00  0.64755278932E+02  0.64755278932E+02  0.00000000000E+00 0. -1.
         21   -1    0    0  504  503 -0.00000000000E+00 -0.00000000000E+00 -0.27283560171E+03  0.27283560171E+03  0.00000000000E+00 0.  1.
         25    2    1    2    0    0 -0.20795525821E+02  0.32459830271E+01 -0.25577308232E+03  0.28546037505E+03  0.12499906311E+03 0.  0.
          5    1    3    3  501    0 -0.43819280556E+02  0.54639947958E+02 -0.15299007410E+03  0.16826058966E+03  0.10000000000E+00 0. -1.
         -5    1    3    3    0  501  0.23023754736E+02 -0.51393964931E+02 -0.10278300823E+03  0.11719978538E+03  0.10000000000E+00 0. -1.
         21    1    1    2  504  502  0.20795525821E+02 -0.32459830271E+01  0.47692759550E+02  0.52130505593E+02  0.00000000000E+00 0. -1.
<mgrwt>
<rscale>  1 0.12675865E+03</rscale>
<asrwt>0</asrwt>
<pdfrwt beam="1">  1       21 0.99623502E-02 0.12675865E+03</pdfrwt>
<pdfrwt beam="2">  1       21 0.41974710E-01 0.12675865E+03</pdfrwt>
<totfact> 0.45059905E+05</totfact>
</mgrwt>
</event>
<event>
 6    1  0.4216855E-002  0.1623732E+03  0.7546771E-02  0.1186043E+00
         21   -1    0    0  503  502  0.00000000000E+00  0.00000000000E+00  0.43966307051E+02  0.43966307051E+02  0.00000000000E+00 0.  1.
         21   -1    0    0  504  503 -0.00000000000E+00 -0.00000000000E+00 -0.50364797646E+03  0.50364797646E+03  0.00000000000E+00 0.  1.
         25    2    1    2    0    0  0.79523653093E+02  0.66457519703E+02 -0.39075789352E+03  0.42315103508E+03  0.12499781526E+03 0.  0.
          5    1    3    3  501    0  0.63806877520E+01  0.74637678935E+02 -0.28236426164E+03  0.29213196084E+03  0.10000000000E+00 0.  1.
         -5    1    3    3    0  501  0.73142965341E+02 -0.81801592319E+01 -0.10839363188E+03  0.13101907425E+03  0.10000000000E+00 0.  1.
         21    1    1    2  504  502 -0.79523653093E+02 -0.66457519703E+02 -0.68923775893E+02  0.12446324843E+03  0.00000000000E+00 0.  1.
<mgrwt>
<rscale>  1 0.16237323E+03</rscale>
<asrwt>0</asrwt>
<pdfrwt beam="1">  1       21 0.67640471E-02 0.16237323E+03</pdfrwt>
<pdfrwt beam="2">  1       21 0.77484306E-01 0.16237323E+03</pdfrwt>
<totfact> 0.23931022E+05</totfact>
</mgrwt>
</event>
<event>
 6    1  0.4216855E-002  0.1310592E+03  0.7546771E-02  0.1225892E+00
         21   -1    0    0  503  502  0.00000000000E+00  0.00000000000E+00  0.15355124125E+03  0.15355124125E+03  0.00000000000E+00 0. -1.
         21   -1    0    0  504  503 -0.00000000000E+00 -0.00000000000E+00 -0.59709124155E+02  0.59709124155E+02  0.00000000000E+00 0. -1.
         25    2    1    2    0    0  0.15091390726E+02 -0.36348172632E+02  0.24211509538E+02  0.13327685938E+03  0.12501033687E+03 0.  0.
          5    1    3    3  501    0  0.69503234943E+02 -0.30087754179E+02  0.20065494491E+02  0.78349260930E+02  0.10000000000E+00 0. -1.
         -5    1    3    3    0  501 -0.54411844218E+02 -0.62604184526E+01  0.41460150474E+01  0.54927598447E+02  0.10000000000E+00 0. -1.
         21    1    1    2  504  502 -0.15091390726E+02  0.36348172632E+02  0.69630607554E+02  0.79983506025E+02  0.00000000000E+00 0. -1.
<mgrwt>
<rscale>  1 0.13105924E+03</rscale>
<asrwt>0</asrwt>
<pdfrwt beam="1">  1       21 0.23623268E-01 0.13105924E+03</pdfrwt>
<pdfrwt beam="2">  1       21 0.91860192E-02 0.13105924E+03</pdfrwt>
<totfact> 0.15848516E+06</totfact>
</mgrwt>
</event>
<event>
 6    1  0.4216855E-002  0.1563068E+03  0.7546771E-02  0.1192931E+00
         21   -1    0    0  504  502  0.00000000000E+00  0.00000000000E+00  0.46735839181E+02  0.46735839181E+02  0.00000000000E+00 0. -1.
         21   -1    0    0  502  503 -0.00000000000E+00 -0.00000000000E+00 -0.40576687384E+03  0.40576687384E+03  0.00000000000E+00 0. -1.
         25    2    1    2    0    0  0.47041571398E+02 -0.81247473136E+02 -0.30861053266E+03  0.34593682564E+03  0.12497105719E+03 0.  0.
          5    1    3    3  501    0  0.10439938826E+02 -0.21661379964E+02  0.50540200157E+01  0.24571544985E+02  0.10000000000E+00 0.  1.
         -5    1    3    3    0  501  0.36601632572E+02 -0.59586093172E+02 -0.31366455268E+03  0.32136528066E+03  0.10000000000E+00 0.  1.
         21    1    1    2  504  503 -0.47041571398E+02  0.81247473136E+02 -0.50420501997E+02  0.10656588738E+03  0.00000000000E+00 0. -1.
<mgrwt>
<rscale>  1 0.15630683E+03</rscale>
<asrwt>0</asrwt>
<pdfrwt beam="1">  1       21 0.71901291E-02 0.15630683E+03</pdfrwt>
<pdfrwt beam="2">  1       21 0.62425673E-01 0.15630683E+03</pdfrwt>
<totfact> 0.34643436E+05</totfact>
</mgrwt>
</event>
<event>
 6    1  0.4216855E-002  0.1289183E+03  0.7546771E-02  0.1229070E+00
         21   -1    0    0  504  502  0.00000000000E+00  0.00000000000E+00  0.73626711502E+02  0.73626711502E+02  0.00000000000E+00 0.  1.
         21   -1    0    0  502  503 -0.00000000000E+00 -0.00000000000E+00 -0.10104439092E+03  0.10104439092E+03  0.00000000000E+00 0.  1.
         25    2    1    2    0    0  0.27417562031E+02 -0.15453204525E+02 -0.47439492361E+02  0.13736966503E+03  0.12501757955E+03 0.  0.
          5    1    3    3  501    0 -0.26447378467E+02 -0.54020908773E+02 -0.36122913950E+02  0.70161223797E+02  0.10000000000E+00 0.  1.
         -5    1    3    3    0  501  0.53864940498E+02  0.38567704248E+02 -0.11316578411E+02  0.67208441231E+02  0.10000000000E+00 0.  1.
         21    1    1    2  504  503 -0.27417562031E+02  0.15453204525E+02  0.20021812947E+02  0.37301437392E+02  0.00000000000E+00 0.  1.
<mgrwt>
<rscale>  1 0.12891827E+03</rscale>
<asrwt>0</asrwt>
<pdfrwt beam="1">  1       21 0.11327186E-01 0.12891827E+03</pdfrwt>
<pdfrwt beam="2">  1       21 0.15545291E-01 0.12891827E+03</pdfrwt>
<totfact> 0.23724223E+06</totfact>
</mgrwt>
</event>
<event>
 6    1  0.4216855E-002  0.1272325E+03  0.7546771E-02  0.1231621E+00
         21   -1    0    0  504  502  0.00000000000E+00  0.00000000000E+00  0.86271207703E+02  0.86271207703E+02  0.00000000000E+00 0.  1.
         21   -1    0    0  502  503 -0.00000000000E+00 -0.00000000000E+00 -0.10794989226E+03  0.10794989226E+03  0.00000000000E+00 0.  1.
         25    2    1    2    0    0  0.49861995599E+01  0.23177794001E+02 -0.66464951655E+02  0.14354682600E+03  0.12500411648E+03 0.  0.
          5    1    3    3  501    0  0.15538653159E+02  0.31773589937E+02  0.29845545227E+02  0.46279340200E+02  0.10000000000E+00 0. -1.
         -5    1    3    3    0  501 -0.10552453599E+02 -0.85957959362E+01 -0.96310496882E+02  0.97267485803E+02  0.10000000000E+00 0. -1.
         21    1    1    2  504  503 -0.49861995599E+01 -0.23177794001E+02  0.44786267098E+02  0.50674273960E+02  0.00000000000E+00 0.  1.
<mgrwt>
<rscale>  1 0.12723247E+03</rscale>
<asrwt>0</asrwt>
<pdfrwt beam="1">  1       21 0.13272494E-01 0.12723247E+03</pdfrwt>
<pdfrwt beam="2">  1       21 0.16607676E-01 0.12723247E+03</pdfrwt>
<totfact> 0.15881075E+06</totfact>
</mgrwt>
</event>
<event>
 6    1  0.4216855E-002  0.1260669E+03  0.7546771E-02  0.1233411E+00
         21   -1    0    0  503  502  0.00000000000E+00  0.00000000000E+00  0.46444246626E+03  0.46444246626E+03  0.00000000000E+00 0. -1.
         21   -1    0    0  504  503 -0.00000000000E+00 -0.00000000000E+00 -0.12759860361E+02  0.12759860361E+02  0.00000000000E+00 0. -1.
         25    2    1    2    0    0 -0.15473811174E+02 -0.54570228474E+01  0.31120725534E+03  0.33577198318E+03  0.12499460382E+03 0.  0.
          5    1    3    3  501    0 -0.19228774948E+02  0.10061429426E+02  0.31776929982E+03  0.31850952271E+03  0.10000000000E+00 0. -1.
         -5    1    3    3    0  501  0.37549637737E+01 -0.15518452273E+02 -0.65620444785E+01  0.17262460475E+02  0.10000000000E+00 0. -1.
         21    1    1    2  504  502  0.15473811174E+02  0.54570228474E+01  0.14047535056E+03  0.14143034344E+03  0.00000000000E+00 0. -1.
<mgrwt>
<rscale>  1 0.12606692E+03</rscale>
<asrwt>0</asrwt>
<pdfrwt beam="1">  1       21 0.71452674E-01 0.12606692E+03</pdfrwt>
<pdfrwt beam="2">  1       21 0.19630558E-02 0.12606692E+03</pdfrwt>
<totfact> 0.22368503E+06</totfact>
</mgrwt>
</event>
<event>
 6    1  0.4216855E-002  0.1261675E+03  0.7546771E-02  0.1233256E+00
         21   -1    0    0  504  502  0.00000000000E+00  0.00000000000E+00  0.85493801914E+03  0.85493801914E+03  0.00000000000E+00 0.  1.
         21   -1    0    0  502  503 -0.00000000000E+00 -0.00000000000E+00 -0.60896306376E+01  0.60896306376E+01  0.00000000000E+00 0.  1.
         25    2    1    2    0    0 -0.10590059166E+02  0.13495484965E+02  0.70991662090E+03  0.72104081641E+03  0.12499589125E+03 0.  0.
          5    1    3    3  501    0  0.46506617118E+02  0.24023366723E+02  0.51520814620E+03  0.51786043631E+03  0.10000000000E+00 0. -1.
         -5    1    3    3    0  501 -0.57096676284E+02 -0.10527881757E+02  0.19470847470E+03  0.20318038010E+03  0.10000000000E+00 0. -1.
         21    1    1    2  504  503  0.10590059166E+02 -0.13495484965E+02  0.13893176760E+03  0.13998683337E+03  0.00000000000E+00 0. -1.
<mgrwt>
<rscale>  1 0.12616755E+03</rscale>
<asrwt>0</asrwt>
<pdfrwt beam="1">  1       21 0.13152883E+00 0.12616755E+03</pdfrwt>
<pdfrwt beam="2">  1       21 0.93686693E-03 0.12616755E+03</pdfrwt>
<totfact> 0.17532934E+06</totfact>
</mgrwt>
</event>
<event>
 6    1  0.4216855E-002  0.1261228E+03  0.7546771E-02  0.1233325E+00
         21   -1    0    0  504  502  0.00000000000E+00  0.00000000000E+00  0.31293148513E+02  0.31293148513E+02  0.00000000000E+00 0.  1.
         21   -1    0    0  502  503 -0.00000000000E+00 -0.00000000000E+00 -0.27170446140E+03  0.27170446140E+03  0.00000000000E+00 0.  1.
         25    2    1    2    0    0  0.22060963104E+01  0.16666446845E+02 -0.25252977600E+03  0.28227336180E+03  0.12499730277E+03 0.  0.
          5    1    3    3  501    0  0.64322818999E+01 -0.41745494731E+02 -0.19731163699E+03  0.20178194337E+03  0.10000000000E+00 0.  1.
         -5    1    3    3    0  501 -0.42261855895E+01  0.58411941576E+02 -0.55218139016E+02  0.80491418423E+02  0.10000000000E+00 0.  1.
         21    1    1    2  504  503 -0.22060963104E+01 -0.16666446845E+02  0.12118463121E+02  0.20724248112E+02  0.00000000000E+00 0.  1.
<mgrwt>
<rscale>  1 0.12612281E+03</rscale>
<asrwt>0</asrwt>
<pdfrwt beam="1">  1       21 0.48143304E-02 0.12612281E+03</pdfrwt>
<pdfrwt beam="2">  1       21 0.41800688E-01 0.12612281E+03</pdfrwt>
<totfact> 0.15752654E+06</totfact>
</mgrwt>
</event>
<event>
 6    1  0.4216855E-002  0.1265777E+03  0.7546771E-02  0.1232624E+00
         21   -1    0    0  503  502  0.00000000000E+00  0.00000000000E+00  0.23279158555E+03  0.23279158555E+03  0.00000000000E+00 0.  1.
         21   -1    0    0  504  503 -0.00000000000E+00 -0.00000000000E+00 -0.24630712700E+02  0.24630712700E+02  0.00000000000E+00 0.  1.
         25    2    1    2    0    0 -0.10802048606E+01  0.20024126701E+02  0.15208138947E+03  0.19786525879E+03  0.12497911474E+03 0.  0.
          5    1    3    3  501    0  0.18951591706E+02  0.72227714257E+01  0.16802257198E+03  0.16924221090E+03  0.10000000000E+00 0.  1.
         -5    1    3    3    0  501 -0.20031796566E+02  0.12801355275E+02 -0.15941182515E+02  0.28623047890E+02  0.10000000000E+00 0.  1.
         21    1    1    2  504  502  0.10802048606E+01 -0.20024126701E+02  0.56079483384E+02  0.59557039461E+02  0.00000000000E+00 0.  1.
<mgrwt>
<rscale>  1 0.12657769E+03</rscale>
<asrwt>0</asrwt>
<pdfrwt beam="1">  1       21 0.35814089E-01 0.12657769E+03</pdfrwt>
<pdfrwt beam="2">  1       21 0.37893406E-02 0.12657769E+03</pdfrwt>
<totfact> 0.31922773E+06</totfact>
</mgrwt>
</event>
<event>
 6    1  0.4216855E-002  0.1278101E+03  0.7546771E-02  0.1230742E+00
         21   -1    0    0  504  502  0.00000000000E+00  0.00000000000E+00  0.69027247487E+02  0.69027247487E+02  0.00000000000E+00 0.  1.
         21   -1    0    0  502  503 -0.00000000000E+00 -0.00000000000E+00 -0.86977278619E+02  0.86977278619E+02  0.00000000000E+00 0.  1.
         25    2    1    2    0    0  0.22127629686E+02 -0.14771899918E+02 -0.19801501229E+02  0.12933489986E+03  0.12501030297E+03 0.  0.
          5    1    3    3  501    0 -0.36029706417E+02  0.22589158403E+01 -0.49965813684E+02  0.61642801546E+02  0.10000000000E+00 0. -1.
         -5    1    3    3    0  501  0.58157336103E+02 -0.17030815759E+02  0.30164312456E+02  0.67692098312E+02  0.10000000000E+00 0. -1.
         21    1    1    2  504  503 -0.22127629686E+02  0.14771899918E+02  0.18514700971E+01  0.26669626248E+02  0.00000000000E+00 0. -1.
<mgrwt>
<rscale>  1 0.12781008E+03</rscale>
<asrwt>0</asrwt>
<pdfrwt beam="1">  1       21 0.10619577E-01 0.12781008E+03</pdfrwt>
<pdfrwt beam="2">  1       21 0.13381120E-01 0.12781008E+03</pdfrwt>
<totfact> 0.34781846E+06</totfact>
</mgrwt>
</event>
<event>
 6    1  0.4216855E-002  0.1411341E+03  0.7546771E-02  0.1211811E+00
         21   -1    0    0  504  502  0.00000000000E+00  0.00000000000E+00  0.23938222968E+04  0.23938222968E+04  0.00000000000E+00 0. -1.
         21   -1    0    0  502  503 -0.00000000000E+00 -0.00000000000E+00 -0.17431190667E+02  0.17431190667E+02  0.00000000000E+00 0. -1.
         25    2    1    2    0    0 -0.62106495706E+02 -0.20890135665E+02  0.27739027488E+03  0.31123012946E+03  0.12500085723E+03 0.  0.
          5    1    3    3  501    0 -0.59334453855E+02 -0.50941170658E+02  0.81207539947E+02  0.11273976595E+03  0.10000000000E+00 0. -1.
         -5    1    3    3    0  501 -0.27720418510E+01  0.30051034992E+02  0.19618273493E+03  0.19849036351E+03  0.10000000000E+00 0. -1.
         21    1    1    2  504  503  0.62106495706E+02  0.20890135665E+02  0.20990008313E+04  0.21000233580E+04  0.00000000000E+00 0. -1.
<mgrwt>
<rscale>  1 0.14113408E+03</rscale>
<asrwt>0</asrwt>
<pdfrwt beam="1">  1       21 0.36828009E+00 0.14113408E+03</pdfrwt>
<pdfrwt beam="2">  1       21 0.26817235E-02 0.14113408E+03</pdfrwt>
<totfact> 0.11134944E+04</totfact>
</mgrwt>
</event>
<event>
 6    1  0.4216855E-002  0.1396418E+03  0.7546771E-02  0.1213812E+00
         21   -1    0    0  503  502  0.00000000000E+00  0.00000000000E+00  0.36543186031E+03  0.36543186031E+03  0.00000000000E+00 0. -1.
         21   -1    0    0  504  503 -0.00000000000E+00 -0.00000000000E+00 -0.29887526402E+02  0.29887526402E+02  0.00000000000E+00 0. -1.
         25    2    1    2    0    0 -0.61855508858E+02  0.69839453623E+01  0.18024459607E+03  0.22800863380E+03  0.12499977282E+03 0.  0.
          5    1    3    3  501    0 -0.89682811532E+02 -0.23853376208E+02  0.93001417777E+02  0.13138212949E+03  0.10000000000E+00 0.  1.
         -5    1    3    3    0  501  0.27827302674E+02  0.30837321570E+02  0.87243178296E+02  0.96626504309E+02  0.10000000000E+00 0.  1.
         21    1    1    2  504  502  0.61855508858E+02 -0.69839453623E+01  0.15529973783E+03  0.16731075291E+03  0.00000000000E+00 0. -1.
<mgrwt>
<rscale>  1 0.13964177E+03</rscale>
<asrwt>0</asrwt>
<pdfrwt beam="1">  1       21 0.56220283E-01 0.13964177E+03</pdfrwt>
<pdfrwt beam="2">  1       21 0.45980812E-02 0.13964177E+03</pdfrwt>
<totfact> 0.92597829E+05</totfact>
</mgrwt>
</event>
<event>
 6    1  0.4216855E-002  0.1709144E+03  0.7546771E-02  0.1176898E+00
         21   -1    0    0  504  502  0.00000000000E+00  0.00000000000E+00  0.48367189519E+03  0.48367189519E+03  0.00000000000E+00 0. -1.
         21   -1    0    0  502  503 -0.00000000000E+00 -0.00000000000E+00 -0.34982258084E+03  0.34982258084E+03  0.00000000000E+00 0. -1.
         25    2    1    2    0    0  0.50736695635E+01  0.11644373065E+03 -0.32115310970E+03  0.36380086267E+03  0.12500745291E+03 0.  0.
          5    1    3    3  501    0 -0.73603228609E+01 -0.26299160936E+02 -0.43635869448E+02  0.51477367076E+02  0.10000000000E+00 0.  1.
         -5    1    3    3    0  501  0.12433992424E+02  0.14274289159E+03 -0.27751724025E+03  0.31232349560E+03  0.10000000000E+00 0.  1.
         21    1    1    2  504  503 -0.50736695635E+01 -0.11644373065E+03  0.45500242406E+03  0.46969361336E+03  0.00000000000E+00 0. -1.
<mgrwt>
<rscale>  1 0.17091445E+03</rscale>
<asrwt>0</asrwt>
<pdfrwt beam="1">  1       21 0.74411061E-01 0.17091445E+03</pdfrwt>
<pdfrwt beam="2">  1       21 0.53818859E-01 0.17091445E+03</pdfrwt>
<totfact> 0.53768889E+03</totfact>
</mgrwt>
</event>
<event>
 6    1  0.4216855E-002  0.1270286E+03  0.7546771E-02  0.1231933E+00
         21   -1    0    0  503  502  0.00000000000E+00  0.00000000000E+00  0.65515393016E+02  0.65515393016E+02  0.00000000000E+00 0.  1.
         21   -1    0    0  504  503 -0.00000000000E+00 -0.00000000000E+00 -0.10307302622E+03  0.10307302622E+03  0.00000000000E+00 0.  1.
         25    2    1    2    0    0 -0.18352338267E+02 -0.13202842119E+02 -0.56563578812E+02  0.13905285883E+03  0.12500054296E+03 0.  0.
          5    1    3    3  501    0  0.41028299182E+02  0.30679452071E+02 -0.35305824518E+02  0.62217854013E+02  0.10000000000E+00 0.  1.
         -5    1    3    3    0  501 -0.59380637449E+02 -0.43882294190E+02 -0.21257754294E+02  0.76835004815E+02  0.10000000000E+00 0.  1.
         21    1    1    2  504  502  0.18352338267E+02  0.13202842119E+02  0.19005945611E+02  0.29535560405E+02  0.00000000000E+00 0.  1.
<mgrwt>
<rscale>  1 0.12702858E+03</rscale>
<asrwt>0</asrwt>
<pdfrwt beam="1">  1       21 0.10079291E-01 0.12702858E+03</pdfrwt>
<pdfrwt beam="2">  1       21 0.15857389E-01 0.12702858E+03</pdfrwt>
<totfact> 0.28080588E+06</totfact>
</mgrwt>
</event>
<event>
 6    1  0.4216855E-002  0.1356582E+03  0.7546771E-02  0.1219294E+00
         21   -1    0    0  503  502  0.00000000000E+00  0.00000000000E+00  0.54406451550E+02  0.54406451550E+02  0.00000000000E+00 0. -1.
         21   -1    0    0  504  503 -0.00000000000E+00 -0.00000000000E+00 -0.17439337409E+03  0.17439337409E+03  0.00000000000E+00 0. -1.
         25    2    1    2    0    0  0.17867841417E+02  0.49423905180E+02 -0.11142479884E+03  0.17555236446E+03  0.12506464212E+03 0.  0.
          5    1    3    3  501    0 -0.65365304805E+01  0.88957216285E+02 -0.72834127100E+02  0.11515612285E+03  0.10000000000E+00 0.  1.
         -5    1    3    3    0  501  0.24404371897E+02 -0.39533311105E+02 -0.38590671739E+02  0.60396241604E+02  0.10000000000E+00 0.  1.
         21    1    1    2  504  502 -0.17867841417E+02 -0.49423905180E+02 -0.85621237001E+01  0.53247461182E+02  0.00000000000E+00 0. -1.
<mgrwt>
<rscale>  1 0.13565820E+03</rscale>
<asrwt>0</asrwt>
<pdfrwt beam="1">  1       21 0.83702233E-02 0.13565820E+03</pdfrwt>
<pdfrwt beam="2">  1       21 0.26829750E-01 0.13565820E+03</pdfrwt>
<totfact> 0.14645988E+06</totfact>
</mgrwt>
</event>
<event>
 6    1  0.4216855E-002  0.1267845E+03  0.7546771E-02  0.1232306E+00
         21   -1    0    0  503  502  0.00000000000E+00  0.00000000000E+00  0.18764302497E+02  0.18764302497E+02  0.00000000000E+00 0. -1.
         21   -1    0    0  504  503 -0.00000000000E+00 -0.00000000000E+00 -0.36591026292E+03  0.36591026292E+03  0.00000000000E+00 0. -1.
         25    2    1    2    0    0  0.77399770063E+01  0.19816556896E+02 -0.33893270396E+03  0.36186972485E+03  0.12498686643E+03 0.  0.
          5    1    3    3  501    0  0.43566637984E+02  0.30228210500E+02 -0.31041076223E+03  0.31490736410E+03  0.10000000000E+00 0. -1.
         -5    1    3    3    0  501 -0.35826660978E+02 -0.10411653605E+02 -0.28521941728E+02  0.46962360754E+02  0.10000000000E+00 0. -1.
         21    1    1    2  504  502 -0.77399770063E+01 -0.19816556896E+02 -0.82132564587E+01  0.22804840559E+02  0.00000000000E+00 0. -1.
<mgrwt>
<rscale>  1 0.12678454E+03</rscale>
<asrwt>0</asrwt>
<pdfrwt beam="1">  1       21 0.28868159E-02 0.12678454E+03</pdfrwt>
<pdfrwt beam="2">  1       21 0.56293885E-01 0.12678454E+03</pdfrwt>
<totfact> 0.19935445E+06</totfact>
</mgrwt>
</event>
<event>
 6    1  0.4216855E-002  0.1262548E+03  0.7546771E-02  0.1233121E+00
         21   -1    0    0  504  502  0.00000000000E+00  0.00000000000E+00  0.18038258403E+02  0.18038258403E+02  0.00000000000E+00 0. -1.
         21   -1    0    0  502  503 -0.00000000000E+00 -0.00000000000E+00 -0.49870363269E+03  0.49870363269E+03  0.00000000000E+00 0. -1.
         25    2    1    2    0    0  0.15000491680E+02 -0.94570474757E+01 -0.48265774028E+03  0.49889756371E+03  0.12500333727E+03 0.  0.
          5    1    3    3  501    0  0.20617541038E+02 -0.51898908210E+02 -0.10596404291E+03  0.11977882977E+03  0.10000000000E+00 0.  1.
         -5    1    3    3    0  501 -0.56170493584E+01  0.42441860734E+02 -0.37669369737E+03  0.37911873394E+03  0.10000000000E+00 0.  1.
         21    1    1    2  504  503 -0.15000491680E+02  0.94570474757E+01  0.19923659878E+01  0.17844327385E+02  0.00000000000E+00 0. -1.
<mgrwt>
<rscale>  1 0.12625484E+03</rscale>
<asrwt>0</asrwt>
<pdfrwt beam="1">  1       21 0.27751173E-02 0.12625484E+03</pdfrwt>
<pdfrwt beam="2">  1       21 0.76723618E-01 0.12625484E+03</pdfrwt>
<totfact> 0.10906392E+06</totfact>
</mgrwt>
</event>
<event>
 6    1  0.4216855E-002  0.1763854E+03  0.7546771E-02  0.1171348E+00
         21   -1    0    0  503  502  0.00000000000E+00  0.00000000000E+00  0.29596447079E+03  0.29596447079E+03  0.00000000000E+00 0.  1.
         21   -1    0    0  504  503 -0.00000000000E+00 -0.00000000000E+00 -0.23083319976E+03  0.23083319976E+03  0.00000000000E+00 0.  1.
         25    2    1    2    0    0  0.10171357883E+03 -0.71687810554E+02 -0.17992197232E+03  0.25195974308E+03  0.12500800657E+03 0.  0.
          5    1    3    3  501    0 -0.26851440651E+02 -0.17385431598E+02 -0.13385228892E+02  0.34676035664E+02  0.10000000000E+00 0.  1.
         -5    1    3    3    0  501  0.12856501948E+03 -0.54302378956E+02 -0.16653674343E+03  0.21728370741E+03  0.10000000000E+00 0.  1.
         21    1    1    2  504  502 -0.10171357883E+03  0.71687810554E+02  0.24505324335E+03  0.27483792747E+03  0.00000000000E+00 0.  1.
<mgrwt>
<rscale>  1 0.17638536E+03</rscale>
<asrwt>0</asrwt>
<pdfrwt beam="1">  1       21 0.45532996E-01 0.17638536E+03</pdfrwt>
<pdfrwt beam="2">  1       21 0.35512800E-01 0.17638536E+03</pdfrwt>
<totfact> 0.35662523E+04</totfact>
</mgrwt>
</event>
<event>
 6    1  0.4216855E-002  0.1262799E+03  0.7546771E-02  0.1233082E+00
         21   -1    0    0  503  502  0.00000000000E+00  0.00000000000E+00  0.11540273234E+02  0.11540273234E+02  0.00000000000E+00 0. -1.
         21   -1    0    0  504  503 -0.00000000000E+00 -0.00000000000E+00 -0.46866088122E+03  0.46866088122E+03  0.00000000000E+00 0. -1.
         25    2    1    2    0    0  0.16022234124E+02  0.81762933247E+01 -0.42526234793E+03  0.44361546747E+03  0.12499221835E+03 0.  0.
          5    1    3    3  501    0  0.34602596365E+01 -0.42853343331E+02 -0.34506479599E+03  0.34773280815E+03  0.10000000000E+00 0. -1.
         -5    1    3    3    0  501  0.12561974487E+02  0.51029636656E+02 -0.80197551946E+02  0.95882659321E+02  0.10000000000E+00 0. -1.
         21    1    1    2  504  502 -0.16022234124E+02 -0.81762933247E+01 -0.31858260058E+02  0.36585686993E+02  0.00000000000E+00 0.  1.
<mgrwt>
<rscale>  1 0.12627992E+03</rscale>
<asrwt>0</asrwt>
<pdfrwt beam="1">  1       21 0.17754270E-02 0.12627992E+03</pdfrwt>
<pdfrwt beam="2">  1       21 0.72101660E-01 0.12627992E+03</pdfrwt>
<totfact> 0.25777305E+06</totfact>
</mgrwt>
</event>
<event>
 6    1  0.4216855E-002  0.1524299E+03  0.7546771E-02  0.1197519E+00
         21   -1    0    0  503  502  0.00000000000E+00  0.00000000000E+00  0.89478334957E+02  0.89478334957E+02  0.00000000000E+00 0.  1.
         21   -1    0    0  504  503 -0.00000000000E+00 -0.00000000000E+00 -0.17701653186E+03  0.17701653186E+03  0.00000000000E+00 0.  1.
         25    2    1    2    0    0  0.87103474813E+02  0.54866212707E+01 -0.93826730541E+02  0.17899250118E+03  0.12497096373E+03 0.  0.
          5    1    3    3  501    0  0.89544321375E+02  0.42696840969E+02 -0.10038209737E+03  0.14113036949E+03  0.10000000000E+00 0. -1.
         -5    1    3    3    0  501 -0.24408465621E+01 -0.37210219699E+02  0.65553668254E+01  0.37862131691E+02  0.10000000000E+00 0. -1.
         21    1    1    2  504  502 -0.87103474813E+02 -0.54866212707E+01  0.62885336387E+01  0.87502365641E+02  0.00000000000E+00 0.  1.
<mgrwt>
<rscale>  1 0.15242985E+03</rscale>
<asrwt>0</asrwt>
<pdfrwt beam="1">  1       21 0.13765898E-01 0.15242985E+03</pdfrwt>
<pdfrwt beam="2">  1       21 0.27233312E-01 0.15242985E+03</pdfrwt>
<totfact> 0.59227715E+05</totfact>
</mgrwt>
</event>
<event>
 6    1  0.4216855E-002  0.1348957E+03  0.7546771E-02  0.1220367E+00
         21   -1    0    0  503  502  0.00000000000E+00  0.00000000000E+00  0.12314333571E+03  0.12314333571E+03  0.00000000000E+00 0.  1.
         21   -1    0    0  504  503 -0.00000000000E+00 -0.00000000000E+00 -0.93301012668E+02  0.93301012668E+02  0.00000000000E+00 0.  1.
         25    2    1    2    0    0 -0.33872387403E+02  0.37718714055E+02 -0.29819941064E+02  0.13815242174E+03  0.12500729070E+03 0.  0.
          5    1    3    3  501    0  0.30916023998E+02  0.11043023066E+02  0.31163289310E+02  0.45264881518E+02  0.10000000000E+00 0. -1.
         -5    1    3    3    0  501 -0.64788411400E+02  0.26675690990E+02 -0.60983230374E+02  0.92887540222E+02  0.10000000000E+00 0. -1.
         21    1    1    2  504  502  0.33872387403E+02 -0.37718714055E+02  0.59662264107E+02  0.78291926638E+02  0.00000000000E+00 0.  1.
<mgrwt>
<rscale>  1 0.13489575E+03</rscale>
<asrwt>0</asrwt>
<pdfrwt beam="1">  1       21 0.18945128E-01 0.13489575E+03</pdfrwt>
<pdfrwt beam="2">  1       21 0.14354002E-01 0.13489575E+03</pdfrwt>
<totfact> 0.10857748E+06</totfact>
</mgrwt>
</event>
<event>
 6    1  0.4216855E-002  0.1333476E+03  0.7546771E-02  0.1222571E+00
         21   -1    0    0  503  502  0.00000000000E+00  0.00000000000E+00  0.33481872662E+03  0.33481872662E+03  0.00000000000E+00 0. -1.
         21   -1    0    0  504  503 -0.00000000000E+00 -0.00000000000E+00 -0.30470264567E+02  0.30470264567E+02  0.00000000000E+00 0. -1.
         25    2    1    2    0    0 -0.46398844435E+02  0.20830734342E+01  0.13526564815E+03  0.18994307616E+03  0.12499753858E+03 0.  0.
          5    1    3    3  501    0 -0.86940551255E+02 -0.11726511232E+02  0.10812721775E+03  0.13923963421E+03  0.10000000000E+00 0.  1.
         -5    1    3    3    0  501  0.40541706820E+02  0.13809584667E+02  0.27138430409E+02  0.50703441950E+02  0.10000000000E+00 0.  1.
         21    1    1    2  504  502  0.46398844435E+02 -0.20830734342E+01  0.16908281390E+03  0.17534591503E+03  0.00000000000E+00 0. -1.
<mgrwt>
<rscale>  1 0.13334758E+03</rscale>
<asrwt>0</asrwt>
<pdfrwt beam="1">  1       21 0.51510571E-01 0.13334758E+03</pdfrwt>
<pdfrwt beam="2">  1       21 0.46877333E-02 0.13334758E+03</pdfrwt>
<totfact> 0.10761857E+06</totfact>
</mgrwt>
</event>
<event>
 6    1  0.4216855E-002  0.1398615E+03  0.7546771E-02  0.1213515E+00
         21   -1    0    0  503  502  0.00000000000E+00  0.00000000000E+00  0.13721055464E+03  0.13721055464E+03  0.00000000000E+00 0.  1.
         21   -1    0    0  504  503 -0.00000000000E+00 -0.00000000000E+00 -0.95107920089E+02  0.95107920089E+02  0.00000000000E+00 0.  1.
         25    2    1    2    0    0 -0.60410437328E+02  0.16945605953E+02 -0.23184668771E+02  0.14177010934E+03  0.12499864214E+03 0.  0.
          5    1    3    3  501    0  0.33368201309E+02 -0.18320205536E+02 -0.16094006103E+02  0.41329091714E+02  0.10000000000E+00 0. -1.
         -5    1    3    3    0  501 -0.93778638637E+02  0.35265811490E+02 -0.70906626682E+01  0.10044101763E+03  0.10000000000E+00 0. -1.
         21    1    1    2  504  502  0.60410437328E+02 -0.16945605953E+02  0.65287303319E+02  0.90548365385E+02  0.00000000000E+00 0.  1.
<mgrwt>
<rscale>  1 0.13986149E+03</rscale>
<asrwt>0</asrwt>
<pdfrwt beam="1">  1       21 0.21109316E-01 0.13986149E+03</pdfrwt>
<pdfrwt beam="2">  1       21 0.14631988E-01 0.13986149E+03</pdfrwt>
<totfact> 0.85863155E+05</totfact>
</mgrwt>
</event>
<event>
 6    1  0.4216855E-002  0.1262151E+03  0.7546771E-02  0.1233182E+00
         21   -1    0    0  503  502  0.00000000000E+00  0.00000000000E+00  0.16594964602E+02  0.16594964602E+02  0.00000000000E+00 0. -1.
         21   -1    0    0  504  503 -0.00000000000E+00 -0.00000000000E+00 -0.87603487128E+03  0.87603487128E+03  0.00000000000E+00 0. -1.
         25    2    1    2    0    0  0.55010793542E+01 -0.16722448260E+02 -0.86500687614E+03  0.87416653989E+03  0.12498136481E+03 0.  0.
          5    1    3    3  501    0  0.80204473319E+01 -0.29788651346E+02 -0.48047033779E+02  0.57098325539E+02  0.10000000000E+00 0.  1.
         -5    1    3    3    0  501 -0.25193679777E+01  0.13066203086E+02 -0.81695984236E+03  0.81706821435E+03  0.10000000000E+00 0.  1.
         21    1    1    2  504  502 -0.55010793542E+01  0.16722448260E+02  0.55669694602E+01  0.18463295991E+02  0.00000000000E+00 0. -1.
<mgrwt>
<rscale>  1 0.12621507E+03</rscale>
<asrwt>0</asrwt>
<pdfrwt beam="1">  1       21 0.25530720E-02 0.12621507E+03</pdfrwt>
<pdfrwt beam="2">  1       21 0.13477457E+00 0.12621507E+03</pdfrwt>
<totfact> 0.33222809E+05</totfact>
</mgrwt>
</event>
<event>
 6    1  0.4216855E-002  0.1331804E+03  0.7546771E-02  0.1222811E+00
         21   -1    0    0  504  502  0.00000000000E+00  0.00000000000E+00  0.48465196511E+03  0.48465196511E+03  0.00000000000E+00 0. -1.
         21   -1    0    0  502  503 -0.00000000000E+00 -0.00000000000E+00 -0.16666590302E+02  0.16666590302E+02  0.00000000000E+00 0. -1.
         25    2    1    2    0    0  0.45834511408E+02  0.32612587168E+01  0.36532775777E+03  0.38884622735E+03  0.12500231870E+03 0.  0.
          5    1    3    3  501    0  0.46855250214E+02  0.69670014608E+01  0.36003974032E+02  0.59499997715E+02  0.10000000000E+00 0. -1.
         -5    1    3    3    0  501 -0.10207388062E+01 -0.37057427440E+01  0.32932378374E+03  0.32934622963E+03  0.10000000000E+00 0. -1.
         21    1    1    2  504  503 -0.45834511408E+02 -0.32612587168E+01  0.10265761704E+03  0.11247232807E+03  0.00000000000E+00 0. -1.
<mgrwt>
<rscale>  1 0.13318040E+03</rscale>
<asrwt>0</asrwt>
<pdfrwt beam="1">  1       21 0.74561830E-01 0.13318040E+03</pdfrwt>
<pdfrwt beam="2">  1       21 0.25640912E-02 0.13318040E+03</pdfrwt>
<totfact> 0.13223265E+06</totfact>
</mgrwt>
</event>
<event>
 6    1  0.4216855E-002  0.1272569E+03  0.7546771E-02  0.1231584E+00
         21   -1    0    0  503  502  0.00000000000E+00  0.00000000000E+00  0.97535125020E+02  0.97535125020E+02  0.00000000000E+00 0.  1.
         21   -1    0    0  504  503 -0.00000000000E+00 -0.00000000000E+00 -0.15369271486E+03  0.15369271486E+03  0.00000000000E+00 0.  1.
         25    2    1    2    0    0  0.39860014736E+01 -0.23461072879E+02 -0.12500524999E+03  0.17838341348E+03  0.12501207754E+03 0.  0.
          5    1    3    3  501    0 -0.54451396647E+02 -0.55374283783E+01 -0.96495858594E+02  0.11093727253E+03  0.10000000000E+00 0. -1.
         -5    1    3    3    0  501  0.58437398120E+02 -0.17923644501E+02 -0.28509391398E+02  0.67446140951E+02  0.10000000000E+00 0. -1.
         21    1    1    2  504  502 -0.39860014736E+01  0.23461072879E+02  0.68847660156E+02  0.72844426399E+02  0.00000000000E+00 0.  1.
<mgrwt>
<rscale>  1 0.12725694E+03</rscale>
<asrwt>0</asrwt>
<pdfrwt beam="1">  1       21 0.15005404E-01 0.12725694E+03</pdfrwt>
<pdfrwt beam="2">  1       21 0.23645033E-01 0.12725694E+03</pdfrwt>
<totfact> 0.66363253E+05</totfact>
</mgrwt>
</event>
<event>
 6    1  0.4216855E-002  0.1280608E+03  0.7546771E-02  0.1230362E+00
         21   -1    0    0  504  502  0.00000000000E+00  0.00000000000E+00  0.49108375841E+03  0.49108375841E+03  0.00000000000E+00 0. -1.
         21   -1    0    0  502  503 -0.00000000000E+00 -0.00000000000E+00 -0.24578547716E+02  0.24578547716E+02  0.00000000000E+00 0. -1.
         25    2    1    2    0    0 -0.26685546224E+02  0.84438488799E+01  0.47029376232E+03  0.48741748210E+03  0.12496464307E+03 0.  0.
          5    1    3    3  501    0 -0.21191664152E+02  0.63524628093E+02  0.32736471303E+03  0.33414387671E+03  0.10000000000E+00 0. -1.
         -5    1    3    3    0  501 -0.54938820722E+01 -0.55080779213E+02  0.14292904928E+03  0.15327360539E+03  0.10000000000E+00 0. -1.
         21    1    1    2  504  503  0.26685546224E+02 -0.84438488799E+01 -0.37885516205E+01  0.28244824031E+02  0.00000000000E+00 0. -1.
<mgrwt>
<rscale>  1 0.12806084E+03</rscale>
<asrwt>0</asrwt>
<pdfrwt beam="1">  1       21 0.75551340E-01 0.12806084E+03</pdfrwt>
<pdfrwt beam="2">  1       21 0.37813154E-02 0.12806084E+03</pdfrwt>
<totfact> 0.67834050E+05</totfact>
</mgrwt>
</event>
<event>
 6    1  0.4216855E-002  0.1381105E+03  0.7546771E-02  0.1215894E+00
         21   -1    0    0  504  502  0.00000000000E+00  0.00000000000E+00  0.25688867766E+02  0.25688867766E+02  0.00000000000E+00 0. -1.
         21   -1    0    0  502  503 -0.00000000000E+00 -0.00000000000E+00 -0.41139566111E+03  0.41139566111E+03  0.00000000000E+00 0. -1.
         25    2    1    2    0    0  0.98968279171E+01  0.57886301941E+02 -0.20589671162E+03  0.24792735443E+03  0.12500298422E+03 0.  0.
          5    1    3    3  501    0 -0.11660968518E+02 -0.37928665419E+02 -0.53063374110E+02  0.66259290060E+02  0.10000000000E+00 0.  1.
         -5    1    3    3    0  501  0.21557796435E+02  0.95814967361E+02 -0.15283333751E+03  0.18166806437E+03  0.10000000000E+00 0.  1.
         21    1    1    2  504  503 -0.98968279171E+01 -0.57886301941E+02 -0.17981008172E+03  0.18915717444E+03  0.00000000000E+00 0. -1.
<mgrwt>
<rscale>  1 0.13811053E+03</rscale>
<asrwt>0</asrwt>
<pdfrwt beam="1">  1       21 0.39521334E-02 0.13811053E+03</pdfrwt>
<pdfrwt beam="2">  1       21 0.63291642E-01 0.13811053E+03</pdfrwt>
<totfact> 0.92672513E+05</totfact>
</mgrwt>
</event>
<event>
 6    1  0.4216855E-002  0.1260149E+03  0.7546771E-02  0.1233492E+00
         21   -1    0    0  504  502  0.00000000000E+00  0.00000000000E+00  0.39975902189E+02  0.39975902189E+02  0.00000000000E+00 0. -1.
         21   -1    0    0  502  503 -0.00000000000E+00 -0.00000000000E+00 -0.13603970106E+03  0.13603970106E+03  0.00000000000E+00 0. -1.
         25    2    1    2    0    0  0.32800045055E+01  0.15553975439E+02 -0.98487237578E+02  0.15993587575E+03  0.12500825494E+03 0.  0.
          5    1    3    3  501    0 -0.16809735511E+02 -0.14102678518E+01 -0.12290211787E+03  0.12405441000E+03  0.10000000000E+00 0.  1.
         -5    1    3    3    0  501  0.20089740017E+02  0.16964243291E+02  0.24414880292E+02  0.35881465746E+02  0.10000000000E+00 0.  1.
         21    1    1    2  504  503 -0.32800045055E+01 -0.15553975439E+02  0.24234387046E+01  0.16079727506E+02  0.00000000000E+00 0. -1.
<mgrwt>
<rscale>  1 0.12601487E+03</rscale>
<asrwt>0</asrwt>
<pdfrwt beam="1">  1       21 0.61501387E-02 0.12601487E+03</pdfrwt>
<pdfrwt beam="2">  1       21 0.20929185E-01 0.12601487E+03</pdfrwt>
<totfact> 0.39532508E+06</totfact>
</mgrwt>
</event>
<event>
 6    1  0.4216855E-002  0.1263133E+03  0.7546771E-02  0.1233031E+00
         21   -1    0    0  504  502  0.00000000000E+00  0.00000000000E+00  0.28572942562E+02  0.28572942562E+02  0.00000000000E+00 0.  1.
         21   -1    0    0  502  503 -0.00000000000E+00 -0.00000000000E+00 -0.18716098548E+03  0.18716098548E+03  0.00000000000E+00 0.  1.
         25    2    1    2    0    0  0.10665034826E+02 -0.14738950423E+02 -0.14841548642E+03  0.19489021117E+03  0.12499623263E+03 0.  0.
          5    1    3    3  501    0  0.24337588670E+02 -0.62926904780E+02 -0.11901534326E+03  0.13680926686E+03  0.10000000000E+00 0. -1.
         -5    1    3    3    0  501 -0.13672553844E+02  0.48187954357E+02 -0.29400143156E+02  0.58080944305E+02  0.10000000000E+00 0. -1.
         21    1    1    2  504  503 -0.10665034826E+02  0.14738950423E+02 -0.10172556496E+02  0.20843716873E+02  0.00000000000E+00 0.  1.
<mgrwt>
<rscale>  1 0.12631325E+03</rscale>
<asrwt>0</asrwt>
<pdfrwt beam="1">  1       21 0.43958373E-02 0.12631325E+03</pdfrwt>
<pdfrwt beam="2">  1       21 0.28793998E-01 0.12631325E+03</pdfrwt>
<totfact> 0.38110392E+06</totfact>
</mgrwt>
</event>
<event>
 6    1  0.4216855E-002  0.1353411E+03  0.7546771E-02  0.1219739E+00
         21   -1    0    0  503  502  0.00000000000E+00  0.00000000000E+00  0.39734629206E+03  0.39734629206E+03  0.00000000000E+00 0.  1.
         21   -1    0    0  504  503 -0.00000000000E+00 -0.00000000000E+00 -0.24239654191E+02  0.24239654191E+02  0.00000000000E+00 0.  1.
         25    2    1    2    0    0 -0.47744844598E+02 -0.20323692060E+02  0.20494814899E+03  0.24560327657E+03  0.12499841217E+03 0.  0.
          5    1    3    3  501    0 -0.10034182347E+02 -0.41011477596E+02  0.19748504649E+03  0.20194796285E+03  0.10000000000E+00 0. -1.
         -5    1    3    3    0  501 -0.37710662251E+02  0.20687785537E+02  0.74631024987E+01  0.43655313729E+02  0.10000000000E+00 0. -1.
         21    1    1    2  504  502  0.47744844598E+02  0.20323692060E+02  0.16815848888E+03  0.17598266968E+03  0.00000000000E+00 0.  1.
<mgrwt>
<rscale>  1 0.13534115E+03</rscale>
<asrwt>0</asrwt>
<pdfrwt beam="1">  1       21 0.61130194E-01 0.13534115E+03</pdfrwt>
<pdfrwt beam="2">  1       21 0.37291779E-02 0.13534115E+03</pdfrwt>
<totfact> 0.10992625E+06</totfact>
</mgrwt>
</event>
<event>
 6    1  0.4216855E-002  0.1260894E+03  0.7546771E-02  0.1233377E+00
         21   -1    0    0  503  502  0.00000000000E+00  0.00000000000E+00  0.15093034420E+02  0.15093034420E+02  0.00000000000E+00 0. -1.
         21   -1    0    0  504  503 -0.00000000000E+00 -0.00000000000E+00 -0.33744851509E+03  0.33744851509E+03  0.00000000000E+00 0. -1.
         25    2    1    2    0    0 -0.19164013994E+01 -0.16401681447E+02 -0.28961462844E+03  0.31587206419E+03  0.12500336069E+03 0.  0.
          5    1    3    3  501    0 -0.16983001560E+02 -0.10776601873E+02  0.50747368750E+01  0.20744166512E+02  0.10000000000E+00 0. -1.
         -5    1    3    3    0  501  0.15066600161E+02 -0.56250795742E+01 -0.29468936531E+03  0.29512789768E+03  0.10000000000E+00 0. -1.
         21    1    1    2  504  502  0.19164013994E+01  0.16401681447E+02 -0.32740852226E+02  0.36669485313E+02  0.00000000000E+00 0. -1.
<mgrwt>
<rscale>  1 0.12608936E+03</rscale>
<asrwt>0</asrwt>
<pdfrwt beam="1">  1       21 0.23220053E-02 0.12608936E+03</pdfrwt>
<pdfrwt beam="2">  1       21 0.51915155E-01 0.12608936E+03</pdfrwt>
<totfact> 0.33648509E+06</totfact>
</mgrwt>
</event>
<event>
 6    1  0.4216855E-002  0.1506614E+03  0.7546771E-02  0.1199663E+00
         21   -1    0    0  504  502  0.00000000000E+00  0.00000000000E+00  0.12423834036E+03  0.12423834036E+03  0.00000000000E+00 0. -1.
         21   -1    0    0  502  503 -0.00000000000E+00 -0.00000000000E+00 -0.15233279558E+03  0.15233279558E+03  0.00000000000E+00 0. -1.
         25    2    1    2    0    0 -0.45249898153E+02  0.70896637599E+02 -0.86917815625E+02  0.17393549772E+03  0.12499985675E+03 0.  0.
          5    1    3    3  501    0 -0.37735624018E+02  0.70214716115E+02 -0.11774960361E+03  0.14219375102E+03  0.10000000000E+00 0. -1.
         -5    1    3    3    0  501 -0.75142741354E+01  0.68192148484E+00  0.30831787987E+02  0.31741746693E+02  0.10000000000E+00 0. -1.
         21    1    1    2  504  503  0.45249898153E+02 -0.70896637599E+02  0.58823360402E+02  0.10263563823E+03  0.00000000000E+00 0. -1.
<mgrwt>
<rscale>  1 0.15066138E+03</rscale>
<asrwt>0</asrwt>
<pdfrwt beam="1">  1       21 0.19113591E-01 0.15066138E+03</pdfrwt>
<pdfrwt beam="2">  1       21 0.23435815E-01 0.15066138E+03</pdfrwt>
<totfact> 0.43327361E+05</totfact>
</mgrwt>
</event>
<event>
 6    1  0.4216855E-002  0.1264035E+03  0.7546771E-02  0.1232892E+00
         21   -1    0    0  503  502  0.00000000000E+00  0.00000000000E+00  0.12670465312E+03  0.12670465312E+03  0.00000000000E+00 0. -1.
         21   -1    0    0  504  503 -0.00000000000E+00 -0.00000000000E+00 -0.95923433939E+02  0.95923433939E+02  0.00000000000E+00 0. -1.
         25    2    1    2    0    0 -0.95374618548E+01  0.16396259552E+02 -0.52751212925E+02  0.13696906699E+03  0.12497213426E+03 0.  0.
          5    1    3    3  501    0 -0.50958628515E+02  0.51159434036E+02 -0.33095803017E+02  0.79431805269E+02  0.10000000000E+00 0. -1.
         -5    1    3    3    0  501  0.41421166660E+02 -0.34763174484E+02 -0.19655409907E+02  0.57537261720E+02  0.10000000000E+00 0. -1.
         21    1    1    2  504  502  0.95374618548E+01 -0.16396259552E+02  0.83532432104E+02  0.85659020068E+02  0.00000000000E+00 0. -1.
<mgrwt>
<rscale>  1 0.12640346E+03</rscale>
<asrwt>0</asrwt>
<pdfrwt beam="1">  1       21 0.19493024E-01 0.12640346E+03</pdfrwt>
<pdfrwt beam="2">  1       21 0.14757451E-01 0.12640346E+03</pdfrwt>
<totfact> 0.97945434E+05</totfact>
</mgrwt>
</event>
<event>
 6    1  0.4216855E-002  0.1266444E+03  0.7546771E-02  0.1232522E+00
         21   -1    0    0  503  502  0.00000000000E+00  0.00000000000E+00  0.10362419965E+03  0.10362419965E+03  0.00000000000E+00 0. -1.
         21   -1    0    0  504  503 -0.00000000000E+00 -0.00000000000E+00 -0.52225445970E+02  0.52225445970E+02  0.00000000000E+00 0. -1.
         25    2    1    2    0    0 -0.70039720098E+00  0.20309075505E+02  0.41702864737E+02  0.13333388744E+03  0.12500338998E+03 0.  0.
          5    1    3    3  501    0 -0.29954911571E+02 -0.32346941027E+02 -0.18827198296E+02  0.47938447166E+02  0.10000000000E+00 0. -1.
         -5    1    3    3    0  501  0.29254514370E+02  0.52656016532E+02  0.60530063034E+02  0.85395440270E+02  0.10000000000E+00 0. -1.
         21    1    1    2  504  502  0.70039720098E+00 -0.20309075505E+02  0.96958889385E+01  0.22515758180E+02  0.00000000000E+00 0. -1.
<mgrwt>
<rscale>  1 0.12664437E+03</rscale>
<asrwt>0</asrwt>
<pdfrwt beam="1">  1       21 0.15942185E-01 0.12664437E+03</pdfrwt>
<pdfrwt beam="2">  1       21 0.80346840E-02 0.12664437E+03</pdfrwt>
<totfact> 0.41221918E+06</totfact>
</mgrwt>
</event>
<event>
 6    1  0.4216855E-002  0.1262225E+03  0.7546771E-02  0.1233171E+00
         21   -1    0    0  504  502  0.00000000000E+00  0.00000000000E+00  0.10731063710E+03  0.10731063710E+03  0.00000000000E+00 0.  1.
         21   -1    0    0  502  503 -0.00000000000E+00 -0.00000000000E+00 -0.57596236116E+02  0.57596236116E+02  0.00000000000E+00 0.  1.
         25    2    1    2    0    0 -0.10199627567E+02  0.14298711908E+02  0.16449474576E+02  0.12728984391E+03  0.12499453422E+03 0.  0.
          5    1    3    3  501    0  0.12483854992E+02  0.12960647320E+01 -0.52274513291E+02  0.53760219113E+02  0.10000000000E+00 0. -1.
         -5    1    3    3    0  501 -0.22683482560E+02  0.13002647176E+02  0.68723987867E+02  0.73529624798E+02  0.10000000000E+00 0. -1.
         21    1    1    2  504  503  0.10199627567E+02 -0.14298711908E+02  0.33264926413E+02  0.37617029309E+02  0.00000000000E+00 0.  1.
<mgrwt>
<rscale>  1 0.12622250E+03</rscale>
<asrwt>0</asrwt>
<pdfrwt beam="1">  1       21 0.16509329E-01 0.12622250E+03</pdfrwt>
<pdfrwt beam="2">  1       21 0.88609594E-02 0.12622250E+03</pdfrwt>
<totfact> 0.32661876E+06</totfact>
</mgrwt>
</event>
<event>
 6    1  0.4216855E-002  0.1380521E+03  0.7546771E-02  0.1215974E+00
         21   -1    0    0  503  502  0.00000000000E+00  0.00000000000E+00  0.89909928384E+02  0.89909928384E+02  0.00000000000E+00 0. -1.
         21   -1    0    0  504  503 -0.00000000000E+00 -0.00000000000E+00 -0.50581529130E+03  0.50581529130E+03  0.00000000000E+00 0. -1.
         25    2    1    2    0    0  0.12633409120E+02 -0.57221208100E+02 -0.48549973105E+03  0.50474584971E+03  0.12499805705E+03 0.  0.
          5    1    3    3  501    0 -0.46600320933E+02 -0.59931002692E+02 -0.22081975107E+03  0.23350521934E+03  0.10000000000E+00 0.  1.
         -5    1    3    3    0  501  0.59233730053E+02  0.27097945923E+01 -0.26467997998E+03  0.27124063038E+03  0.10000000000E+00 0.  1.
         21    1    1    2  504  502 -0.12633409120E+02  0.57221208100E+02  0.69594368142E+02  0.90979369967E+02  0.00000000000E+00 0. -1.
<mgrwt>
<rscale>  1 0.13805211E+03</rscale>
<asrwt>0</asrwt>
<pdfrwt beam="1">  1       21 0.13832297E-01 0.13805211E+03</pdfrwt>
<pdfrwt beam="2">  1       21 0.77817737E-01 0.13805211E+03</pdfrwt>
<totfact> 0.68211208E+04</totfact>
</mgrwt>
</event>
<event>
 6    1  0.4216855E-002  0.1268092E+03  0.7546771E-02  0.1232269E+00
         21   -1    0    0  504  502  0.00000000000E+00  0.00000000000E+00  0.34034161494E+03  0.34034161494E+03  0.00000000000E+00 0.  1.
         21   -1    0    0  502  503 -0.00000000000E+00 -0.00000000000E+00 -0.18095397133E+02  0.18095397133E+02  0.00000000000E+00 0.  1.
         25    2    1    2    0    0 -0.51151069972E+01 -0.20703901073E+02  0.30718071297E+03  0.33232599380E+03  0.12500303955E+03 0.  0.
          5    1    3    3  501    0 -0.47881363911E+02 -0.12861223010E+02  0.27175825732E+03  0.27624372660E+03  0.10000000000E+00 0. -1.
         -5    1    3    3    0  501  0.42766256914E+02 -0.78426780631E+01  0.35422455649E+02  0.56082267196E+02  0.10000000000E+00 0. -1.
         21    1    1    2  504  503  0.51151069972E+01  0.20703901073E+02  0.15065504841E+02  0.26111018275E+02  0.00000000000E+00 0. -1.
<mgrwt>
<rscale>  1 0.12680921E+03</rscale>
<asrwt>0</asrwt>
<pdfrwt beam="1">  1       21 0.52360244E-01 0.12680921E+03</pdfrwt>
<pdfrwt beam="2">  1       21 0.27839075E-02 0.12680921E+03</pdfrwt>
<totfact> 0.24608618E+06</totfact>
</mgrwt>
</event>
<event>
 6    1  0.4216855E-002  0.1724144E+03  0.7546771E-02  0.1175353E+00
         21   -1    0    0  503  502  0.00000000000E+00  0.00000000000E+00  0.86040168157E+02  0.86040168157E+02  0.00000000000E+00 0. -1.
         21   -1    0    0  504  503 -0.00000000000E+00 -0.00000000000E+00 -0.35800000264E+03  0.35800000264E+03  0.00000000000E+00 0. -1.
         25    2    1    2    0    0 -0.99929033372E+02  0.64157532837E+02 -0.27576460420E+03  0.32522738949E+03  0.12499894884E+03 0.  0.
          5    1    3    3  501    0 -0.11839571462E+03  0.25560777433E+02 -0.24237174525E+03  0.27095197265E+03  0.10000000000E+00 0.  1.
         -5    1    3    3    0  501  0.18466681251E+02  0.38596755404E+02 -0.33392858950E+02  0.54275416839E+02  0.10000000000E+00 0.  1.
         21    1    1    2  504  502  0.99929033372E+02 -0.64157532837E+02  0.38047697193E+01  0.11881278131E+03  0.00000000000E+00 0. -1.
<mgrwt>
<rscale>  1 0.17241444E+03</rscale>
<asrwt>0</asrwt>
<pdfrwt beam="1">  1       21 0.13236949E-01 0.17241444E+03</pdfrwt>
<pdfrwt beam="2">  1       21 0.55076923E-01 0.17241444E+03</pdfrwt>
<totfact> 0.15404313E+05</totfact>
</mgrwt>
</event>
<event>
 6    1  0.4216855E-002  0.1379895E+03  0.7546771E-02  0.1216060E+00
         21   -1    0    0  503  502  0.00000000000E+00  0.00000000000E+00  0.30837315413E+02  0.30837315413E+02  0.00000000000E+00 0. -1.
         21   -1    0    0  504  503 -0.00000000000E+00 -0.00000000000E+00 -0.33411072817E+03  0.33411072817E+03  0.00000000000E+00 0. -1.
         25    2    1    2    0    0  0.33339075770E+02 -0.47989342682E+02 -0.25154526175E+03  0.28690784503E+03  0.12500648721E+03 0.  0.
          5    1    3    3  501    0  0.61534644607E+02  0.15317998700E+02 -0.81362527704E+02  0.10315534153E+03  0.10000000000E+00 0. -1.
         -5    1    3    3    0  501 -0.28195568837E+02 -0.63307341383E+02 -0.17018273405E+03  0.18375250350E+03  0.10000000000E+00 0. -1.
         21    1    1    2  504  502 -0.33339075770E+02  0.47989342682E+02 -0.51728151008E+02  0.78040198558E+02  0.00000000000E+00 0. -1.
<mgrwt>
<rscale>  1 0.13798947E+03</rscale>
<asrwt>0</asrwt>
<pdfrwt beam="1">  1       21 0.47442026E-02 0.13798947E+03</pdfrwt>
<pdfrwt beam="2">  1       21 0.51401648E-01 0.13798947E+03</pdfrwt>
<totfact> 0.10595911E+06</totfact>
</mgrwt>
</event>
<event>
 6    1  0.4216855E-002  0.1261149E+03  0.7546771E-02  0.1233337E+00
         21   -1    0    0  504  502  0.00000000000E+00  0.00000000000E+00  0.21987062231E+03  0.21987062231E+03  0.00000000000E+00 0.  1.
         21   -1    0    0  502  503 -0.00000000000E+00 -0.00000000000E+00 -0.39179153331E+02  0.39179153331E+02  0.00000000000E+00 0.  1.
         25    2    1    2    0    0  0.16645780025E+02 -0.15927062776E+01  0.64482246311E+02  0.14164363381E+03  0.12500136081E+03 0.  0.
          5    1    3    3  501    0  0.53594640371E+02 -0.27132848697E+02  0.74420980698E+02  0.95640312227E+02  0.10000000000E+00 0.  1.
         -5    1    3    3    0  501 -0.36948860346E+02  0.25540142419E+02 -0.99387343870E+01  0.46003321585E+02  0.10000000000E+00 0.  1.
         21    1    1    2  504  503 -0.16645780025E+02  0.15927062776E+01  0.11620922267E+03  0.11740614183E+03  0.00000000000E+00 0.  1.
<mgrwt>
<rscale>  1 0.12611486E+03</rscale>
<asrwt>0</asrwt>
<pdfrwt beam="1">  1       21 0.33826249E-01 0.12611486E+03</pdfrwt>
<pdfrwt beam="2">  1       21 0.60275622E-02 0.12611486E+03</pdfrwt>
<totfact> 0.16407758E+06</totfact>
</mgrwt>
</event>
<event>
 6    1  0.4216855E-002  0.1262605E+03  0.7546771E-02  0.1233112E+00
         21   -1    0    0  504  502  0.00000000000E+00  0.00000000000E+00  0.24591423299E+02  0.24591423299E+02  0.00000000000E+00 0. -1.
         21   -1    0    0  502  503 -0.00000000000E+00 -0.00000000000E+00 -0.28690817240E+03  0.28690817240E+03  0.00000000000E+00 0. -1.
         25    2    1    2    0    0  0.94131025347E+01 -0.15137346117E+02 -0.26493492039E+03  0.29348292098E+03  0.12499586840E+03 0.  0.
          5    1    3    3  501    0 -0.57819572054E+02 -0.91191042941E+01 -0.13180222800E+03  0.14421545785E+03  0.10000000000E+00 0.  1.
         -5    1    3    3    0  501  0.67232674589E+02 -0.60182418227E+01 -0.13313269239E+03  0.14926746313E+03  0.10000000000E+00 0.  1.
         21    1    1    2  504  503 -0.94131025347E+01  0.15137346117E+02  0.26181712966E+01  0.18016674713E+02  0.00000000000E+00 0. -1.
<mgrwt>
<rscale>  1 0.12626050E+03</rscale>
<asrwt>0</asrwt>
<pdfrwt beam="1">  1       21 0.37832957E-02 0.12626050E+03</pdfrwt>
<pdfrwt beam="2">  1       21 0.44139721E-01 0.12626050E+03</pdfrwt>
<totfact> 0.21085401E+06</totfact>
</mgrwt>
</event>
<event>
 6    1  0.4216855E-002  0.1275310E+03  0.7546771E-02  0.1231166E+00
         21   -1    0    0  503  502  0.00000000000E+00  0.00000000000E+00  0.64671028568E+02  0.64671028568E+02  0.00000000000E+00 0. -1.
         21   -1    0    0  504  503 -0.00000000000E+00 -0.00000000000E+00 -0.92192488248E+02  0.92192488248E+02  0.00000000000E+00 0. -1.
         25    2    1    2    0    0 -0.24494071367E+02 -0.64654645140E+01 -0.31128346397E+02  0.13127501558E+03  0.12498957558E+03 0.  0.
          5    1    3    3  501    0 -0.63040851734E+02 -0.28032933811E+02  0.11435593220E+02  0.69934091527E+02  0.10000000000E+00 0.  1.
         -5    1    3    3    0  501  0.38546780367E+02  0.21567469297E+02 -0.42563939617E+02  0.61340924057E+02  0.10000000000E+00 0.  1.
         21    1    1    2  504  502  0.24494071367E+02  0.64654645140E+01  0.36068867174E+01  0.25588501232E+02  0.00000000000E+00 0. -1.
<mgrwt>
<rscale>  1 0.12753100E+03</rscale>
<asrwt>0</asrwt>
<pdfrwt beam="1">  1       21 0.99493890E-02 0.12753100E+03</pdfrwt>
<pdfrwt beam="2">  1       21 0.14183460E-01 0.12753100E+03</pdfrwt>
<totfact> 0.35126942E+06</totfact>
</mgrwt>
</event>
<event>
 6    1  0.4216855E-002  0.1280335E+03  0.7546771E-02  0.1230403E+00
         21   -1    0    0  504  502  0.00000000000E+00  0.00000000000E+00  0.12774959278E+02  0.12774959278E+02  0.00000000000E+00 0.  1.
         21   -1    0    0  502  503 -0.00000000000E+00 -0.00000000000E+00 -0.50333129110E+03  0.50333129110E+03  0.00000000000E+00 0.  1.
         25    2    1    2    0    0  0.13485948356E+02  0.24191270437E+02 -0.34618907286E+03  0.36910627137E+03  0.12500190810E+03 0.  0.
          5    1    3    3  501    0  0.70808940473E+01  0.74247087796E+02 -0.24385491089E+03  0.25500587576E+03  0.10000000000E+00 0.  1.
         -5    1    3    3    0  501  0.64050543086E+01 -0.50055817360E+02 -0.10233416197E+03  0.11410039561E+03  0.10000000000E+00 0.  1.
         21    1    1    2  504  503 -0.13485948356E+02 -0.24191270437E+02 -0.14436725895E+03  0.14699997900E+03  0.00000000000E+00 0.  1.
<mgrwt>
<rscale>  1 0.12803345E+03</rscale>
<asrwt>0</asrwt>
<pdfrwt beam="1">  1       21 0.19653782E-02 0.12803345E+03</pdfrwt>
<pdfrwt beam="2">  1       21 0.77435589E-01 0.12803345E+03</pdfrwt>
<totfact> 0.18706905E+06</totfact>
</mgrwt>
</event>
<event>
 6    1  0.4216855E-002  0.1284224E+03  0.7546771E-02  0.1229816E+00
         21   -1    0    0  503  502  0.00000000000E+00  0.00000000000E+00  0.12544621838E+03  0.12544621838E+03  0.00000000000E+00 0.  1.
         21   -1    0    0  504  503 -0.00000000000E+00 -0.00000000000E+00 -0.35818982358E+03  0.35818982358E+03  0.00000000000E+00 0.  1.
         25    2    1    2    0    0  0.16603270214E+02  0.24336888404E+02 -0.34471186930E+03  0.36785674810E+03  0.12499744625E+03 0.  0.
          5    1    3    3  501    0  0.11017873640E+02  0.16283574843E+02  0.31024514838E+01  0.19904360186E+02  0.10000000000E+00 0. -1.
         -5    1    3    3    0  501  0.55853965741E+01  0.80533135610E+01 -0.34781432079E+03  0.34795238792E+03  0.10000000000E+00 0. -1.
         21    1    1    2  504  502 -0.16603270214E+02 -0.24336888404E+02  0.11196826410E+03  0.11577929385E+03  0.00000000000E+00 0.  1.
<mgrwt>
<rscale>  1 0.12842241E+03</rscale>
<asrwt>0</asrwt>
<pdfrwt beam="1">  1       21 0.19299418E-01 0.12842241E+03</pdfrwt>
<pdfrwt beam="2">  1       21 0.55106126E-01 0.12842241E+03</pdfrwt>
<totfact> 0.78780700E+04</totfact>
</mgrwt>
</event>
<event>
 6    1  0.4216855E-002  0.1266264E+03  0.7546771E-02  0.1232549E+00
         21   -1    0    0  503  502  0.00000000000E+00  0.00000000000E+00  0.30453830485E+03  0.30453830485E+03  0.00000000000E+00 0.  1.
         21   -1    0    0  504  503 -0.00000000000E+00 -0.00000000000E+00 -0.62508215791E+02  0.62508215791E+02  0.00000000000E+00 0.  1.
         25    2    1    2    0    0 -0.13493707016E+02  0.15075038330E+02  0.24872927128E+01  0.12665082977E+03  0.12499963658E+03 0.  0.
          5    1    3    3  501    0 -0.30382423748E+02  0.44397043326E+02 -0.43758728286E+02  0.69347137145E+02  0.10000000000E+00 0.  1.
         -5    1    3    3    0  501  0.16888716732E+02 -0.29322004996E+02  0.46246020999E+02  0.57303692622E+02  0.10000000000E+00 0.  1.
         21    1    1    2  504  502  0.13493707016E+02 -0.15075038330E+02  0.23954279634E+03  0.24039569087E+03  0.00000000000E+00 0.  1.
<mgrwt>
<rscale>  1 0.12662640E+03</rscale>
<asrwt>0</asrwt>
<pdfrwt beam="1">  1       21 0.46852046E-01 0.12662640E+03</pdfrwt>
<pdfrwt beam="2">  1       21 0.96166487E-02 0.12662640E+03</pdfrwt>
<totfact> 0.38354224E+05</totfact>
</mgrwt>
</event>
<event>
 6    1  0.4216855E-002  0.1687657E+03  0.7546771E-02  0.1179141E+00
         21   -1    0    0  503  502  0.00000000000E+00  0.00000000000E+00  0.38126141936E+03  0.38126141936E+03  0.00000000000E+00 0.  1.
         21   -1    0    0  504  503 -0.00000000000E+00 -0.00000000000E+00 -0.13173163383E+03  0.13173163383E+03  0.00000000000E+00 0.  1.
         25    2    1    2    0    0 -0.86032896712E-01  0.11338966746E+03 -0.63300793590E+02  0.18024661021E+03  0.12499850373E+03 0.  0.
          5    1    3    3  501    0  0.43053487075E+02  0.59561583436E+02 -0.80653745435E+02  0.10911563418E+03  0.10000000000E+00 0. -1.
         -5    1    3    3    0  501 -0.43139519972E+02  0.53828084021E+02  0.17352951845E+02  0.71130976026E+02  0.10000000000E+00 0. -1.
         21    1    1    2  504  502  0.86032896712E-01 -0.11338966746E+03  0.31283057912E+03  0.33274644299E+03  0.00000000000E+00 0.  1.
<mgrwt>
<rscale>  1 0.16876567E+03</rscale>
<asrwt>0</asrwt>
<pdfrwt beam="1">  1       21 0.58655602E-01 0.16876567E+03</pdfrwt>
<pdfrwt beam="2">  1       21 0.20266405E-01 0.16876567E+03</pdfrwt>
<totfact> 0.61928126E+04</totfact>
</mgrwt>
</event>
<event>
 6    1  0.4216855E-002  0.1282526E+03  0.7546771E-02  0.1230072E+00
         21   -1    0    0  503  502  0.00000000000E+00  0.00000000000E+00  0.16761373858E+03  0.16761373858E+03  0.00000000000E+00 0. -1.
         21   -1    0    0  504  503 -0.00000000000E+00 -0.00000000000E+00 -0.37788832338E+02  0.37788832338E+02  0.00000000000E+00 0. -1.
         25    2    1    2    0    0 -0.19373686464E+02  0.20926362250E+02  0.91119884665E+02  0.15732626636E+03  0.12504186636E+03 0.  0.
          5    1    3    3  501    0  0.26068761223E+02  0.49394266310E+02  0.87209078547E+02  0.10356064521E+03  0.10000000000E+00 0.  1.
         -5    1    3    3    0  501 -0.45442447687E+02 -0.28467904060E+02  0.39108061175E+01  0.53765621151E+02  0.10000000000E+00 0.  1.
         21    1    1    2  504  502  0.19373686464E+02 -0.20926362250E+02  0.38705021577E+02  0.48076304553E+02  0.00000000000E+00 0. -1.
<mgrwt>
<rscale>  1 0.12825257E+03</rscale>
<asrwt>0</asrwt>
<pdfrwt beam="1">  1       21 0.25786729E-01 0.12825257E+03</pdfrwt>
<pdfrwt beam="2">  1       21 0.58136666E-02 0.12825257E+03</pdfrwt>
<totfact> 0.29423994E+06</totfact>
</mgrwt>
</event>
<event>
 6    1  0.4216855E-002  0.1296065E+03  0.7546771E-02  0.1228041E+00
         21   -1    0    0  504  502  0.00000000000E+00  0.00000000000E+00  0.50010411729E+03  0.50010411729E+03  0.00000000000E+00 0. -1.
         21   -1    0    0  502  503 -0.00000000000E+00 -0.00000000000E+00 -0.21067022640E+02  0.21067022640E+02  0.00000000000E+00 0. -1.
         25    2    1    2    0    0  0.98998787916E+01 -0.32770552631E+02  0.18929236821E+03  0.22941109602E+03  0.12500373433E+03 0.  0.
          5    1    3    3  501    0  0.64810011576E+02  0.58042987672E-01  0.10814229396E+03  0.12607579749E+03  0.10000000000E+00 0. -1.
         -5    1    3    3    0  501 -0.54910132784E+02 -0.32828595619E+02  0.81150074250E+02  0.10333529854E+03  0.10000000000E+00 0. -1.
         21    1    1    2  504  503 -0.98998787916E+01  0.32770552631E+02  0.28974472645E+03  0.29176004391E+03  0.00000000000E+00 0. -1.
<mgrwt>
<rscale>  1 0.12960652E+03</rscale>
<asrwt>0</asrwt>
<pdfrwt beam="1">  1       21 0.76939086E-01 0.12960652E+03</pdfrwt>
<pdfrwt beam="2">  1       21 0.32410808E-02 0.12960652E+03</pdfrwt>
<totfact> 0.84036712E+05</totfact>
</mgrwt>
</event>
<event>
 6    1  0.4216855E-002  0.1264706E+03  0.7546771E-02  0.1232789E+00
         21   -1    0    0  503  502  0.00000000000E+00  0.00000000000E+00  0.18737086423E+03  0.18737086423E+03  0.00000000000E+00 0. -1.
         21   -1    0    0  504  503 -0.00000000000E+00 -0.00000000000E+00 -0.32234991576E+02  0.32234991576E+02  0.00000000000E+00 0. -1.
         25    2    1    2    0    0 -0.89709002038E+01 -0.17028671143E+02  0.10006789257E+03  0.16127117383E+03  0.12499742274E+03 0.  0.
          5    1    3    3  501    0  0.17712269300E+02  0.50046041915E+02  0.31616810325E+02  0.61789671388E+02  0.10000000000E+00 0. -1.
         -5    1    3    3    0  501 -0.26683169504E+02 -0.67074713058E+02  0.68451082248E+02  0.99481502439E+02  0.10000000000E+00 0. -1.
         21    1    1    2  504  502  0.89709002038E+01  0.17028671143E+02  0.55067980076E+02  0.58334681974E+02  0.00000000000E+00 0. -1.
<mgrwt>
<rscale>  1 0.12647058E+03</rscale>
<asrwt>0</asrwt>
<pdfrwt beam="1">  1       21 0.28826286E-01 0.12647058E+03</pdfrwt>
<pdfrwt beam="2">  1       21 0.49592296E-02 0.12647058E+03</pdfrwt>
<totfact> 0.31081974E+06</totfact>
</mgrwt>
</event>
<event>
 6    1  0.4216855E-002  0.1269853E+03  0.7546771E-02  0.1231999E+00
         21   -1    0    0  503  502  0.00000000000E+00  0.00000000000E+00  0.51160167483E+02  0.51160167483E+02  0.00000000000E+00 0.  1.
         21   -1    0    0  504  503 -0.00000000000E+00 -0.00000000000E+00 -0.12160629445E+03  0.12160629445E+03  0.00000000000E+00 0.  1.
         25    2    1    2    0    0  0.20232481470E+02  0.92538269306E+01 -0.78285573948E+02  0.14917740624E+03  0.12502112151E+03 0.  0.
          5    1    3    3  501    0  0.48864013289E+02 -0.39282541359E+01  0.14550982171E+02  0.51135741487E+02  0.10000000000E+00 0. -1.
         -5    1    3    3    0  501 -0.28631531819E+02  0.13182081066E+02 -0.92836556119E+02  0.98041664753E+02  0.10000000000E+00 0. -1.
         21    1    1    2  504  502 -0.20232481470E+02 -0.92538269306E+01  0.78394469848E+01  0.23589055689E+02  0.00000000000E+00 0.  1.
<mgrwt>
<rscale>  1 0.12698530E+03</rscale>
<asrwt>0</asrwt>
<pdfrwt beam="1">  1       21 0.78707951E-02 0.12698530E+03</pdfrwt>
<pdfrwt beam="2">  1       21 0.18708660E-01 0.12698530E+03</pdfrwt>
<totfact> 0.31908106E+06</totfact>
</mgrwt>
</event>
<event>
 6    1  0.4216855E-002  0.1351185E+03  0.7546771E-02  0.1220053E+00
         21   -1    0    0  504  502  0.00000000000E+00  0.00000000000E+00  0.17072812066E+03  0.17072812066E+03  0.00000000000E+00 0.  1.
         21   -1    0    0  502  503 -0.00000000000E+00 -0.00000000000E+00 -0.80586729677E+02  0.80586729677E+02  0.00000000000E+00 0.  1.
         25    2    1    2    0    0  0.52437533082E+01  0.51022740001E+02 -0.13384170712E+02  0.13577975234E+03  0.12500475260E+03 0.  0.
          5    1    3    3  501    0 -0.21560744863E+02  0.77942910173E+02 -0.39178873694E+02  0.89860765127E+02  0.10000000000E+00 0.  1.
         -5    1    3    3    0  501  0.26804498171E+02 -0.26920170172E+02  0.25794702981E+02  0.45918987208E+02  0.10000000000E+00 0.  1.
         21    1    1    2  504  503 -0.52437533082E+01 -0.51022740001E+02  0.10352556170E+03  0.11553509801E+03  0.00000000000E+00 0.  1.
<mgrwt>
<rscale>  1 0.13511849E+03</rscale>
<asrwt>0</asrwt>
<pdfrwt beam="1">  1       21 0.26265865E-01 0.13511849E+03</pdfrwt>
<pdfrwt beam="2">  1       21 0.12397958E-01 0.13511849E+03</pdfrwt>
<totfact> 0.76565207E+05</totfact>
</mgrwt>
</event>
<event>
 6    1  0.4216855E-002  0.1455351E+03  0.7546771E-02  0.1206069E+00
         21   -1    0    0  504  502  0.00000000000E+00  0.00000000000E+00  0.23146860277E+02  0.23146860277E+02  0.00000000000E+00 0.  1.
         21   -1    0    0  502  503 -0.00000000000E+00 -0.00000000000E+00 -0.57607969847E+03  0.57607969847E+03  0.00000000000E+00 0.  1.
         25    2    1    2    0    0  0.58671053162E+02 -0.45954602103E+02 -0.44397122142E+03  0.46721613543E+03  0.12500541518E+03 0.  0.
          5    1    3    3  501    0  0.73769399429E+02 -0.38415949697E+01 -0.39083424307E+03  0.39775381545E+03  0.10000000000E+00 0. -1.
         -5    1    3    3    0  501 -0.15098346267E+02 -0.42113007134E+02 -0.53136978347E+02  0.69462319985E+02  0.10000000000E+00 0. -1.
         21    1    1    2  504  503 -0.58671053162E+02  0.45954602103E+02 -0.10896161677E+03  0.13201042331E+03  0.00000000000E+00 0.  1.
<mgrwt>
<rscale>  1 0.14553512E+03</rscale>
<asrwt>0</asrwt>
<pdfrwt beam="1">  1       21 0.35610558E-02 0.14553512E+03</pdfrwt>
<pdfrwt beam="2">  1       21 0.88627636E-01 0.14553512E+03</pdfrwt>
<totfact> 0.52245426E+05</totfact>
</mgrwt>
</event>
<event>
 6    1  0.4216855E-002  0.1262902E+03  0.7546771E-02  0.1233067E+00
         21   -1    0    0  503  502  0.00000000000E+00  0.00000000000E+00  0.26619679699E+03  0.26619679699E+03  0.00000000000E+00 0.  1.
         21   -1    0    0  504  503 -0.00000000000E+00 -0.00000000000E+00 -0.33619730866E+02  0.33619730866E+02  0.00000000000E+00 0.  1.
         25    2    1    2    0    0  0.40205972454E+01 -0.17638799952E+02  0.87558785217E+02  0.15367415117E+03  0.12498764500E+03 0.  0.
          5    1    3    3  501    0  0.40330766474E+02 -0.47962364694E+02  0.85912148755E+02  0.10633845238E+03  0.10000000000E+00 0.  1.
         -5    1    3    3    0  501 -0.36310169229E+02  0.30323564742E+02  0.16466364627E+01  0.47335698788E+02  0.10000000000E+00 0.  1.
         21    1    1    2  504  502 -0.40205972454E+01  0.17638799952E+02  0.14501828091E+03  0.14614237669E+03  0.00000000000E+00 0.  1.
<mgrwt>
<rscale>  1 0.12629016E+03</rscale>
<asrwt>0</asrwt>
<pdfrwt beam="1">  1       21 0.40953352E-01 0.12629016E+03</pdfrwt>
<pdfrwt beam="2">  1       21 0.51722665E-02 0.12629016E+03</pdfrwt>
<totfact> 0.14552634E+06</totfact>
</mgrwt>
</event>
<event>
 6    1  0.4216855E-002  0.1268792E+03  0.7546771E-02  0.1232161E+00
         21   -1    0    0  503  502  0.00000000000E+00  0.00000000000E+00  0.84533431022E+02  0.84533431022E+02  0.00000000000E+00 0.  1.
         21   -1    0    0  504  503 -0.00000000000E+00 -0.00000000000E+00 -0.53770636878E+03  0.53770636878E+03  0.00000000000E+00 0. -1.
         25    2    1    2    0    0 -0.15387051021E+02 -0.15384837887E+02 -0.52866355277E+03  0.54367589249E+03  0.12499947791E+03 0.  0.
          5    1    3    3  501    0 -0.51697033754E+02 -0.43519181343E+02 -0.42434544711E+03  0.42969241432E+03  0.10000000000E+00 0.  1.
         -5    1    3    3    0  501  0.36309982733E+02  0.28134343457E+02 -0.10431810566E+03  0.11398347817E+03  0.10000000000E+00 0.  1.
         21    1    1    2  504  502  0.15387051021E+02  0.15384837887E+02  0.75490615013E+02  0.78563907304E+02  0.00000000000E+00 0.  1.
<mgrwt>
<rscale>  1 0.12687917E+03</rscale>
<asrwt>0</asrwt>
<pdfrwt beam="1">  1       21 0.13005143E-01 0.12687917E+03</pdfrwt>
<pdfrwt beam="2">  1       21 0.82724055E-01 0.12687917E+03</pdfrwt>
<totfact> 0.66798063E+04</totfact>
</mgrwt>
</event>
<event>
 6    1  0.4216855E-002  0.1587076E+03  0.7546771E-02  0.1190164E+00
         21   -1    0    0  503  502  0.00000000000E+00  0.00000000000E+00  0.42612533459E+03  0.42612533459E+03  0.00000000000E+00 0.  1.
         21   -1    0    0  504  503 -0.00000000000E+00 -0.00000000000E+00 -0.53697558351E+02  0.53697558351E+02  0.00000000000E+00 0.  1.
         25    2    1    2    0    0 -0.41803689374E+02 -0.88355590547E+02  0.34268481445E+03  0.37765194501E+03  0.12503539774E+03 0.  0.
          5    1    3    3  501    0 -0.65267045129E+02 -0.58700334276E+02  0.10446525948E+03  0.13644968619E+03  0.10000000000E+00 0.  1.
         -5    1    3    3    0  501  0.23463355755E+02 -0.29655256271E+02  0.23821955497E+03  0.24120225881E+03  0.10000000000E+00 0.  1.
         21    1    1    2  504  502  0.41803689374E+02  0.88355590547E+02  0.29742961794E+02  0.10217094794E+03  0.00000000000E+00 0.  1.
<mgrwt>
<rscale>  1 0.15870762E+03</rscale>
<asrwt>0</asrwt>
<pdfrwt beam="1">  1       21 0.65557741E-01 0.15870762E+03</pdfrwt>
<pdfrwt beam="2">  1       21 0.82611631E-02 0.15870762E+03</pdfrwt>
<totfact> 0.24506390E+05</totfact>
</mgrwt>
</event>
<event>
 6    1  0.4216855E-002  0.1860633E+03  0.7546771E-02  0.1162061E+00
         21   -1    0    0  504  502  0.00000000000E+00  0.00000000000E+00  0.25205167714E+02  0.25205167714E+02  0.00000000000E+00 0.  1.
         21   -1    0    0  502  503 -0.00000000000E+00 -0.00000000000E+00 -0.11503707066E+04  0.11503707066E+04  0.00000000000E+00 0.  1.
         25    2    1    2    0    0  0.52241404239E+02  0.12753266468E+03 -0.81823900200E+03  0.83912729886E+03  0.12500325763E+03 0.  0.
          5    1    3    3  501    0  0.27955603762E+01  0.13574664391E+03 -0.61293546700E+03  0.62779364699E+03  0.10000000000E+00 0.  1.
         -5    1    3    3    0  501  0.49445843863E+02 -0.82139792281E+01 -0.20530353500E+03  0.21133365187E+03  0.10000000000E+00 0.  1.
         21    1    1    2  504  503 -0.52241404239E+02 -0.12753266468E+03 -0.30692653686E+03  0.33644857542E+03  0.00000000000E+00 0.  1.
<mgrwt>
<rscale>  1 0.18606332E+03</rscale>
<asrwt>0</asrwt>
<pdfrwt beam="1">  1       21 0.38777183E-02 0.18606332E+03</pdfrwt>
<pdfrwt beam="2">  1       21 0.17698010E+00 0.18606332E+03</pdfrwt>
<totfact> 0.79053777E+04</totfact>
</mgrwt>
</event>
<event>
 6    1  0.4216855E-002  0.1339834E+03  0.7546771E-02  0.1221662E+00
         21   -1    0    0  503  502  0.00000000000E+00  0.00000000000E+00  0.40487752917E+02  0.40487752917E+02  0.00000000000E+00 0.  1.
         21   -1    0    0  504  503 -0.00000000000E+00 -0.00000000000E+00 -0.32758641383E+03  0.32758641383E+03  0.00000000000E+00 0.  1.
         25    2    1    2    0    0  0.27179816731E+02  0.39813258725E+02 -0.29033524037E+03  0.31975943344E+03  0.12501082139E+03 0.  0.
          5    1    3    3  501    0 -0.85800853246E+01  0.75937338739E+02 -0.12237918921E+03  0.14428019002E+03  0.10000000000E+00 0.  1.
         -5    1    3    3    0  501  0.35759902056E+02 -0.36124080014E+02 -0.16795605115E+03  0.17547924342E+03  0.10000000000E+00 0.  1.
         21    1    1    2  504  502 -0.27179816731E+02 -0.39813258725E+02  0.32365794590E+01  0.48314733306E+02  0.00000000000E+00 0.  1.
<mgrwt>
<rscale>  1 0.13398337E+03</rscale>
<asrwt>0</asrwt>
<pdfrwt beam="1">  1       21 0.62288851E-02 0.13398337E+03</pdfrwt>
<pdfrwt beam="2">  1       21 0.50397909E-01 0.13398337E+03</pdfrwt>
<totfact> 0.69690243E+05</totfact>
</mgrwt>
</event>
<event>
 6    1  0.4216855E-002  0.1437135E+03  0.7546771E-02  0.1208418E+00
         21   -1    0    0  503  502  0.00000000000E+00  0.00000000000E+00  0.26660894149E+03  0.26660894149E+03  0.00000000000E+00 0.  1.
         21   -1    0    0  504  503 -0.00000000000E+00 -0.00000000000E+00 -0.46816965700E+02  0.46816965700E+02  0.00000000000E+00 0.  1.
         25    2    1    2    0    0 -0.70869891106E+02 -0.45044728488E+01  0.18524564755E+03  0.23445578287E+03  0.12494291673E+03 0.  0.
          5    1    3    3  501    0 -0.77082825642E+02  0.25311123230E+02  0.48855010547E+02  0.94706055898E+02  0.10000000000E+00 0.  1.
         -5    1    3    3    0  501  0.62129345364E+01 -0.29815596079E+02  0.13639063701E+03  0.13974972697E+03  0.10000000000E+00 0.  1.
         21    1    1    2  504  502  0.70869891106E+02  0.45044728488E+01  0.34546328237E+02  0.78970124323E+02  0.00000000000E+00 0.  1.
<mgrwt>
<rscale>  1 0.14371348E+03</rscale>
<asrwt>0</asrwt>
<pdfrwt beam="1">  1       21 0.41016759E-01 0.14371348E+03</pdfrwt>
<pdfrwt beam="2">  1       21 0.72026103E-02 0.14371348E+03</pdfrwt>
<totfact> 0.82727108E+05</totfact>
</mgrwt>
</event>
<event>
 6    1  0.4216855E-002  0.1265416E+03  0.7546771E-02  0.1232679E+00
         21   -1    0    0  504  502  0.00000000000E+00  0.00000000000E+00  0.75988067869E+01  0.75988067869E+01  0.00000000000E+00 0.  1.
         21   -1    0    0  502  503 -0.00000000000E+00 -0.00000000000E+00 -0.70284546402E+03  0.70284546402E+03  0.00000000000E+00 0.  1.
         25    2    1    2    0    0  0.19018186736E+02  0.43390652766E+01 -0.61149669422E+03  0.62445255482E+03  0.12502906567E+03 0.  0.
          5    1    3    3  501    0  0.71506458810E+02 -0.73665044707E+01 -0.38555184375E+03  0.39219596283E+03  0.10000000000E+00 0. -1.
         -5    1    3    3    0  501 -0.52488272074E+02  0.11705569747E+02 -0.22594485047E+03  0.23225659199E+03  0.10000000000E+00 0. -1.
         21    1    1    2  504  503 -0.19018186736E+02 -0.43390652766E+01 -0.83749963017E+02  0.85991715994E+02  0.00000000000E+00 0.  1.
<mgrwt>
<rscale>  1 0.12654164E+03</rscale>
<asrwt>0</asrwt>
<pdfrwt beam="1">  1       21 0.11690469E-02 0.12654164E+03</pdfrwt>
<pdfrwt beam="2">  1       21 0.10813010E+00 0.12654164E+03</pdfrwt>
<totfact> 0.19916263E+06</totfact>
</mgrwt>
</event>
<event>
 6    1  0.4216855E-002  0.1295848E+03  0.7546771E-02  0.1228073E+00
         21   -1    0    0  504  502  0.00000000000E+00  0.00000000000E+00  0.10849283378E+03  0.10849283378E+03  0.00000000000E+00 0.  1.
         21   -1    0    0  502  503 -0.00000000000E+00 -0.00000000000E+00 -0.62453496915E+02  0.62453496915E+02  0.00000000000E+00 0.  1.
         25    2    1    2    0    0 -0.13689448531E+02  0.31301863175E+02  0.29095271008E+02  0.13281092711E+03  0.12499999970E+03 0.  0.
          5    1    3    3  501    0 -0.47627990348E+01  0.21711042672E+02  0.78558072710E+02  0.81642111784E+02  0.10000000000E+00 0. -1.
         -5    1    3    3    0  501 -0.89266494959E+01  0.95908205026E+01 -0.49462801703E+02  0.51168815322E+02  0.10000000000E+00 0. -1.
         21    1    1    2  504  503  0.13689448531E+02 -0.31301863175E+02  0.16944065861E+02  0.38135403593E+02  0.00000000000E+00 0.  1.
<mgrwt>
<rscale>  1 0.12958475E+03</rscale>
<asrwt>0</asrwt>
<pdfrwt beam="1">  1       21 0.16691205E-01 0.12958475E+03</pdfrwt>
<pdfrwt beam="2">  1       21 0.96082303E-02 0.12958475E+03</pdfrwt>
<totfact> 0.27839932E+06</totfact>
</mgrwt>
</event>
<event>
 6    1  0.4216855E-002  0.1971659E+03  0.7546771E-02  0.1152152E+00
         21   -1    0    0  504  502  0.00000000000E+00  0.00000000000E+00  0.21997993092E+03  0.21997993092E+03  0.00000000000E+00 0. -1.
         21   -1    0    0  502  503 -0.00000000000E+00 -0.00000000000E+00 -0.15888867476E+03  0.15888867476E+03  0.00000000000E+00 0. -1.
         25    2    1    2    0    0  0.25564645957E+01 -0.15246245155E+03 -0.32684706090E+02  0.19985669060E+03  0.12499228824E+03 0.  0.
          5    1    3    3  501    0  0.55214787144E+02 -0.29137669349E+02 -0.17903573955E+02  0.64947859509E+02  0.10000000000E+00 0. -1.
         -5    1    3    3    0  501 -0.52658322548E+02 -0.12332478220E+03 -0.14781132135E+02  0.13490883109E+03  0.10000000000E+00 0. -1.
         21    1    1    2  504  503 -0.25564645957E+01  0.15246245155E+03  0.93775962256E+02  0.17901191508E+03  0.00000000000E+00 0. -1.
<mgrwt>
<rscale>  1 0.19716594E+03</rscale>
<asrwt>0</asrwt>
<pdfrwt beam="1">  1       21 0.33843066E-01 0.19716594E+03</pdfrwt>
<pdfrwt beam="2">  1       21 0.24444412E-01 0.19716594E+03</pdfrwt>
<totfact> 0.13276360E+05</totfact>
</mgrwt>
</event>
<event>
 6    1  0.4216855E-002  0.1454310E+03  0.7546771E-02  0.1206202E+00
         21   -1    0    0  503  502  0.00000000000E+00  0.00000000000E+00  0.17785380323E+03  0.17785380323E+03  0.00000000000E+00 0. -1.
         21   -1    0    0  504  503 -0.00000000000E+00 -0.00000000000E+00 -0.26604118282E+03  0.26604118282E+03  0.00000000000E+00 0. -1.
         25    2    1    2    0    0  0.24451192480E+02  0.70194321158E+02 -0.23670674764E+03  0.27781336086E+03  0.12500030225E+03 0.  0.
          5    1    3    3  501    0 -0.23091535589E+02  0.32958580168E+02 -0.20632413362E+03  0.21021214317E+03  0.10000000000E+00 0. -1.
         -5    1    3    3    0  501  0.47542728069E+02  0.37235740990E+02 -0.30382614020E+02  0.67601217696E+02  0.10000000000E+00 0. -1.
         21    1    1    2  504  502 -0.24451192480E+02 -0.70194321158E+02  0.14851936805E+03  0.16608162518E+03  0.00000000000E+00 0. -1.
<mgrwt>
<rscale>  1 0.14543101E+03</rscale>
<asrwt>0</asrwt>
<pdfrwt beam="1">  1       21 0.27362124E-01 0.14543101E+03</pdfrwt>
<pdfrwt beam="2">  1       21 0.40929413E-01 0.14543101E+03</pdfrwt>
<totfact> 0.74736451E+04</totfact>
</mgrwt>
</event>
<event>
 6    1  0.4216855E-002  0.1293773E+03  0.7546771E-02  0.1228383E+00
         21   -1    0    0  503  502  0.00000000000E+00  0.00000000000E+00  0.87206838413E+02  0.87206838413E+02  0.00000000000E+00 0. -1.
         21   -1    0    0  504  503 -0.00000000000E+00 -0.00000000000E+00 -0.10763001547E+04  0.10763001547E+04  0.00000000000E+00 0.  1.
         25    2    1    2    0    0  0.31768685697E+02  0.10053968903E+02 -0.10690680548E+04  0.10768681423E+04  0.12501263351E+03 0.  0.
          5    1    3    3  501    0  0.32017988343E+01  0.52242385929E+02 -0.86332863294E+03  0.86491378579E+03  0.10000000000E+00 0. -1.
         -5    1    3    3    0  501  0.28566886862E+02 -0.42188417026E+02 -0.20573942183E+03  0.21195435652E+03  0.10000000000E+00 0. -1.
         21    1    1    2  504  502 -0.31768685697E+02 -0.10053968903E+02  0.79974738451E+02  0.86638850823E+02  0.00000000000E+00 0. -1.
<mgrwt>
<rscale>  1 0.12937732E+03</rscale>
<asrwt>0</asrwt>
<pdfrwt beam="1">  1       21 0.13416435E-01 0.12937732E+03</pdfrwt>
<pdfrwt beam="2">  1       21 0.16558465E+00 0.12937732E+03</pdfrwt>
<totfact> 0.11628042E+04</totfact>
</mgrwt>
</event>
<event>
 6    1  0.4216855E-002  0.1450857E+03  0.7546771E-02  0.1206645E+00
         21   -1    0    0  503  502  0.00000000000E+00  0.00000000000E+00  0.57236076085E+03  0.57236076085E+03  0.00000000000E+00 0.  1.
         21   -1    0    0  504  503 -0.00000000000E+00 -0.00000000000E+00 -0.22628288262E+02  0.22628288262E+02  0.00000000000E+00 0.  1.
         25    2    1    2    0    0 -0.39118244217E+01  0.73543351707E+02  0.27965809427E+03  0.31505316936E+03  0.12500369147E+03 0.  0.
          5    1    3    3  501    0 -0.27518765117E+02 -0.25306218905E+02  0.40075299865E+02  0.54806266139E+02  0.10000000000E+00 0. -1.
         -5    1    3    3    0  501  0.23606940695E+02  0.98849570612E+02  0.23958279441E+03  0.26024690322E+03  0.10000000000E+00 0. -1.
         21    1    1    2  504  502  0.39118244217E+01 -0.73543351707E+02  0.27007437831E+03  0.27993587975E+03  0.00000000000E+00 0.  1.
<mgrwt>
<rscale>  1 0.14508566E+03</rscale>
<asrwt>0</asrwt>
<pdfrwt beam="1">  1       21 0.88055491E-01 0.14508566E+03</pdfrwt>
<pdfrwt beam="2">  1       21 0.34812756E-02 0.14508566E+03</pdfrwt>
<totfact> 0.55055475E+05</totfact>
</mgrwt>
</event>
<event>
 6    1  0.4216855E-002  0.1406302E+03  0.7546771E-02  0.1212484E+00
         21   -1    0    0  503  502  0.00000000000E+00  0.00000000000E+00  0.15613831692E+03  0.15613831692E+03  0.00000000000E+00 0. -1.
         21   -1    0    0  504  503 -0.00000000000E+00 -0.00000000000E+00 -0.68110172002E+02  0.68110172002E+02  0.00000000000E+00 0. -1.
         25    2    1    2    0    0 -0.47249722949E+02  0.43811122391E+02  0.49039068424E+02  0.14893515113E+03  0.12499959298E+03 0.  0.
          5    1    3    3  501    0 -0.19302423347E+02  0.82184607933E+02  0.56302122638E+01  0.84608525683E+02  0.10000000000E+00 0.  1.
         -5    1    3    3    0  501 -0.27947299603E+02 -0.38373485542E+02  0.43408856161E+02  0.64326625443E+02  0.10000000000E+00 0.  1.
         21    1    1    2  504  502  0.47249722949E+02 -0.43811122391E+02  0.38989076491E+02  0.75313337793E+02  0.00000000000E+00 0. -1.
<mgrwt>
<rscale>  1 0.14063019E+03</rscale>
<asrwt>0</asrwt>
<pdfrwt beam="1">  1       21 0.24021279E-01 0.14063019E+03</pdfrwt>
<pdfrwt beam="2">  1       21 0.10478488E-01 0.14063019E+03</pdfrwt>
<totfact> 0.12210890E+06</totfact>
</mgrwt>
</event>
<event>
 6    1  0.4216855E-002  0.1273299E+03  0.7546771E-02  0.1231472E+00
         21   -1    0    0  504  502  0.00000000000E+00  0.00000000000E+00  0.88973465759E+02  0.88973465759E+02  0.00000000000E+00 0.  1.
         21   -1    0    0  502  503 -0.00000000000E+00 -0.00000000000E+00 -0.11244924814E+03  0.11244924814E+03  0.00000000000E+00 0.  1.
         25    2    1    2    0    0  0.22709873931E+02 -0.91310048146E+01 -0.72574988859E+02  0.14656065323E+03  0.12495512173E+03 0.  0.
          5    1    3    3  501    0 -0.17339505026E+02 -0.57509863455E+02 -0.54750341102E+02  0.81275166440E+02  0.10000000000E+00 0.  1.
         -5    1    3    3    0  501  0.40049378957E+02  0.48378858640E+02 -0.17824647757E+02  0.65285486793E+02  0.10000000000E+00 0.  1.
         21    1    1    2  504  503 -0.22709873931E+02  0.91310048146E+01  0.49099206481E+02  0.54862060661E+02  0.00000000000E+00 0.  1.
<mgrwt>
<rscale>  1 0.12732987E+03</rscale>
<asrwt>0</asrwt>
<pdfrwt beam="1">  1       21 0.13688225E-01 0.12732987E+03</pdfrwt>
<pdfrwt beam="2">  1       21 0.17299884E-01 0.12732987E+03</pdfrwt>
<totfact> 0.13952995E+06</totfact>
</mgrwt>
</event>
<event>
 6    1  0.4216855E-002  0.1622863E+03  0.7546771E-02  0.1186139E+00
         21   -1    0    0  503  502  0.00000000000E+00  0.00000000000E+00  0.42379088279E+02  0.42379088279E+02  0.00000000000E+00 0.  1.
         21   -1    0    0  504  503 -0.00000000000E+00 -0.00000000000E+00 -0.42560943020E+03  0.42560943020E+03  0.00000000000E+00 0.  1.
         25    2    1    2    0    0  0.57102160051E+02 -0.86320333226E+02 -0.26610494284E+03  0.31168683672E+03  0.12499994788E+03 0.  0.
          5    1    3    3  501    0  0.23635253995E+00 -0.10165648128E+03 -0.14583029556E+03  0.17776552296E+03  0.10000000000E+00 0.  1.
         -5    1    3    3    0  501  0.56865807511E+02  0.15336148059E+02 -0.12027464729E+03  0.13392131377E+03  0.10000000000E+00 0.  1.
         21    1    1    2  504  502 -0.57102160051E+02  0.86320333226E+02 -0.11712539908E+03  0.15630168176E+03  0.00000000000E+00 0.  1.
<mgrwt>
<rscale>  1 0.16228630E+03</rscale>
<asrwt>0</asrwt>
<pdfrwt beam="1">  1       21 0.65198595E-02 0.16228630E+03</pdfrwt>
<pdfrwt beam="2">  1       21 0.65478376E-01 0.16228630E+03</pdfrwt>
<totfact> 0.36926782E+05</totfact>
</mgrwt>
</event>
<event>
 6    1  0.4216855E-002  0.1382018E+03  0.7546771E-02  0.1215769E+00
         21   -1    0    0  504  502  0.00000000000E+00  0.00000000000E+00  0.17762127178E+04  0.17762127178E+04  0.00000000000E+00 0. -1.
         21   -1    0    0  502  503 -0.00000000000E+00 -0.00000000000E+00 -0.20463773628E+02  0.20463773628E+02  0.00000000000E+00 0. -1.
         25    2    1    2    0    0  0.57516438832E+02 -0.13230125342E+02  0.22008656699E+03  0.25988043676E+03  0.12496626540E+03 0.  0.
          5    1    3    3  501    0  0.58069113837E+02 -0.20718510344E+02  0.28115583808E+02  0.67762635026E+02  0.10000000000E+00 0. -1.
         -5    1    3    3    0  501 -0.55267500546E+00  0.74883850014E+01  0.19197098318E+03  0.19211780174E+03  0.10000000000E+00 0. -1.
         21    1    1    2  504  503 -0.57516438832E+02  0.13230125342E+02  0.15356623772E+04  0.15367960547E+04  0.00000000000E+00 0. -1.
<mgrwt>
<rscale>  1 0.13820183E+03</rscale>
<asrwt>0</asrwt>
<pdfrwt beam="1">  1       21 0.27326337E+00 0.13820183E+03</pdfrwt>
<pdfrwt beam="2">  1       21 0.31482743E-02 0.13820183E+03</pdfrwt>
<totfact> 0.30003989E+04</totfact>
</mgrwt>
</event>
<event>
 6    1  0.4216855E-002  0.1265527E+03  0.7546771E-02  0.1232663E+00
         21   -1    0    0  504  502  0.00000000000E+00  0.00000000000E+00  0.47331705035E+02  0.47331705035E+02  0.00000000000E+00 0. -1.
         21   -1    0    0  502  503 -0.00000000000E+00 -0.00000000000E+00 -0.12264011258E+03  0.12264011258E+03  0.00000000000E+00 0. -1.
         25    2    1    2    0    0 -0.10862141045E+02  0.16493309908E+02 -0.79941176648E+02  0.14968689885E+03  0.12500224232E+03 0.  0.
          5    1    3    3  501    0 -0.22836924353E+02  0.31686604833E+01 -0.11125045653E+03  0.11361443395E+03  0.10000000000E+00 0.  1.
         -5    1    3    3    0  501  0.11974783308E+02  0.13324649424E+02  0.31309279882E+02  0.36072464905E+02  0.10000000000E+00 0.  1.
         21    1    1    2  504  503  0.10862141045E+02 -0.16493309908E+02  0.46327690990E+01  0.20284918765E+02  0.00000000000E+00 0. -1.
<mgrwt>
<rscale>  1 0.12655266E+03</rscale>
<asrwt>0</asrwt>
<pdfrwt beam="1">  1       21 0.72818008E-02 0.12655266E+03</pdfrwt>
<pdfrwt beam="2">  1       21 0.18867710E-01 0.12655266E+03</pdfrwt>
<totfact> 0.35900989E+06</totfact>
</mgrwt>
</event>
<event>
 6    1  0.4216855E-002  0.1264135E+03  0.7546771E-02  0.1232877E+00
         21   -1    0    0  504  502  0.00000000000E+00  0.00000000000E+00  0.80823478721E+02  0.80823478721E+02  0.00000000000E+00 0. -1.
         21   -1    0    0  502  503 -0.00000000000E+00 -0.00000000000E+00 -0.17034100905E+03  0.17034100905E+03  0.00000000000E+00 0. -1.
         25    2    1    2    0    0 -0.61480953971E+01 -0.17854502975E+02 -0.14511101827E+03  0.19245147171E+03  0.12499511585E+03 0.  0.
          5    1    3    3  501    0 -0.62822429238E+02  0.38232135276E+00 -0.98545690609E+02  0.11686773260E+03  0.10000000000E+00 0.  1.
         -5    1    3    3    0  501  0.56674333840E+02 -0.18236824327E+02 -0.46565327659E+02  0.75583739109E+02  0.10000000000E+00 0.  1.
         21    1    1    2  504  503  0.61480953971E+01  0.17854502975E+02  0.55593487941E+02  0.58713016061E+02  0.00000000000E+00 0. -1.
<mgrwt>
<rscale>  1 0.12641345E+03</rscale>
<asrwt>0</asrwt>
<pdfrwt beam="1">  1       21 0.12434381E-01 0.12641345E+03</pdfrwt>
<pdfrwt beam="2">  1       21 0.26206309E-01 0.12641345E+03</pdfrwt>
<totfact> 0.76487561E+05</totfact>
</mgrwt>
</event>
<event>
 6    1  0.4216855E-002  0.1318206E+03  0.7546771E-02  0.1224779E+00
         21   -1    0    0  504  502  0.00000000000E+00  0.00000000000E+00  0.12709320581E+03  0.12709320581E+03  0.00000000000E+00 0.  1.
         21   -1    0    0  502  503 -0.00000000000E+00 -0.00000000000E+00 -0.85346501175E+03  0.85346501175E+03  0.00000000000E+00 0.  1.
         25    2    1    2    0    0 -0.13845080196E+02  0.39495016668E+02 -0.84476371260E+03  0.85498677914E+03  0.12500047915E+03 0.  0.
          5    1    3    3  501    0 -0.60254921379E+02  0.20216110886E+02 -0.67377314264E+03  0.67676406852E+03  0.10000000000E+00 0. -1.
         -5    1    3    3    0  501  0.46409841183E+02  0.19278905781E+02 -0.17099056995E+03  0.17822271062E+03  0.10000000000E+00 0. -1.
         21    1    1    2  504  503  0.13845080196E+02 -0.39495016668E+02  0.11839190665E+03  0.12557143842E+03  0.00000000000E+00 0.  1.
<mgrwt>
<rscale>  1 0.13182057E+03</rscale>
<asrwt>0</asrwt>
<pdfrwt beam="1">  1       21 0.19552800E-01 0.13182057E+03</pdfrwt>
<pdfrwt beam="2">  1       21 0.13130231E+00 0.13182057E+03</pdfrwt>
<totfact> 0.10659926E+04</totfact>
</mgrwt>
</event>
<event>
 6    1  0.4216855E-002  0.1271341E+03  0.7546771E-02  0.1231771E+00
         21   -1    0    0  504  502  0.00000000000E+00  0.00000000000E+00  0.28853497169E+02  0.28853497169E+02  0.00000000000E+00 0.  1.
         21   -1    0    0  502  503 -0.00000000000E+00 -0.00000000000E+00 -0.31664350668E+03  0.31664350668E+03  0.00000000000E+00 0.  1.
         25    2    1    2    0    0 -0.22230676841E+02  0.59791174316E+01 -0.29511859492E+03  0.32133792683E+03  0.12503249704E+03 0.  0.
          5    1    3    3  501    0  0.40826251061E+02 -0.31227516811E+02 -0.91389811159E+02  0.10485250672E+03  0.10000000000E+00 0.  1.
         -5    1    3    3    0  501 -0.63056927902E+02  0.37206634243E+02 -0.20372878376E+03  0.21648542011E+03  0.10000000000E+00 0.  1.
         21    1    1    2  504  503  0.22230676841E+02 -0.59791174316E+01  0.73285854124E+01  0.24159077015E+02  0.00000000000E+00 0.  1.
<mgrwt>
<rscale>  1 0.12713410E+03</rscale>
<asrwt>0</asrwt>
<pdfrwt beam="1">  1       21 0.44389994E-02 0.12713410E+03</pdfrwt>
<pdfrwt beam="2">  1       21 0.48714388E-01 0.12713410E+03</pdfrwt>
<totfact> 0.13221961E+06</totfact>
</mgrwt>
</event>
<event>
 6    1  0.4216855E-002  0.1269911E+03  0.7546771E-02  0.1231990E+00
         21   -1    0    0  504  502  0.00000000000E+00  0.00000000000E+00  0.15230176358E+02  0.15230176358E+02  0.00000000000E+00 0. -1.
         21   -1    0    0  502  503 -0.00000000000E+00 -0.00000000000E+00 -0.39254010166E+03  0.39254010166E+03  0.00000000000E+00 0. -1.
         25    2    1    2    0    0 -0.10413594208E+02 -0.19776924039E+02 -0.35089731325E+03  0.37316976149E+03  0.12500870680E+03 0.  0.
          5    1    3    3  501    0  0.52543794193E+02 -0.11614701996E+02 -0.91812003831E+02  0.10641994953E+03  0.10000000000E+00 0. -1.
         -5    1    3    3    0  501 -0.62957388401E+02 -0.81622220432E+01 -0.25908530942E+03  0.26674981196E+03  0.10000000000E+00 0. -1.
         21    1    1    2  504  503  0.10413594208E+02  0.19776924039E+02 -0.26412612055E+02  0.34600516533E+02  0.00000000000E+00 0.  1.
<mgrwt>
<rscale>  1 0.12699113E+03</rscale>
<asrwt>0</asrwt>
<pdfrwt beam="1">  1       21 0.23431042E-02 0.12699113E+03</pdfrwt>
<pdfrwt beam="2">  1       21 0.60390781E-01 0.12699113E+03</pdfrwt>
<totfact> 0.24147127E+06</totfact>
</mgrwt>
</event>
<event>
 6    1  0.4216855E-002  0.1269549E+03  0.7546771E-02  0.1232045E+00
         21   -1    0    0  504  502  0.00000000000E+00  0.00000000000E+00  0.95435961039E+02  0.95435961039E+02  0.00000000000E+00 0.  1.
         21   -1    0    0  502  503 -0.00000000000E+00 -0.00000000000E+00 -0.63486924736E+02  0.63486924736E+02  0.00000000000E+00 0.  1.
         25    2    1    2    0    0  0.21728031781E+02 -0.47411532082E+01  0.94791297881E+01  0.12730829108E+03  0.12499184445E+03 0.  0.
          5    1    3    3  501    0  0.51378320423E+02 -0.30648761268E+01 -0.42960788837E+02  0.67043005994E+02  0.10000000000E+00 0. -1.
         -5    1    3    3    0  501 -0.29650288642E+02 -0.16762770814E+01  0.52439918625E+02  0.60265285089E+02  0.10000000000E+00 0. -1.
         21    1    1    2  504  503 -0.21728031781E+02  0.47411532082E+01  0.22469906514E+02  0.31614594693E+02  0.00000000000E+00 0. -1.
<mgrwt>
<rscale>  1 0.12695490E+03</rscale>
<asrwt>0</asrwt>
<pdfrwt beam="1">  1       21 0.14682456E-01 0.12695490E+03</pdfrwt>
<pdfrwt beam="2">  1       21 0.97672192E-02 0.12695490E+03</pdfrwt>
<totfact> 0.34087761E+06</totfact>
</mgrwt>
</event>
<event>
 6    1  0.4216855E-002  0.1266115E+03  0.7546771E-02  0.1232572E+00
         21   -1    0    0  503  502  0.00000000000E+00  0.00000000000E+00  0.11885635505E+03  0.11885635505E+03  0.00000000000E+00 0. -1.
         21   -1    0    0  504  503 -0.00000000000E+00 -0.00000000000E+00 -0.49780110409E+02  0.49780110409E+02  0.00000000000E+00 0. -1.
         25    2    1    2    0    0 -0.20110889063E+02 -0.61357765338E+00  0.39058231054E+02  0.13249915128E+03  0.12500262133E+03 0.  0.
          5    1    3    3  501    0 -0.56040324113E+02  0.30527653722E+02 -0.95228158929E+01  0.64522473534E+02  0.10000000000E+00 0. -1.
         -5    1    3    3    0  501  0.35929435050E+02 -0.31141231375E+02  0.48581046947E+02  0.67976677744E+02  0.10000000000E+00 0. -1.
         21    1    1    2  504  502  0.20110889063E+02  0.61357765338E+00  0.30018013583E+02  0.36137314177E+02  0.00000000000E+00 0.  1.
<mgrwt>
<rscale>  1 0.12661153E+03</rscale>
<asrwt>0</asrwt>
<pdfrwt beam="1">  1       21 0.18285593E-01 0.12661153E+03</pdfrwt>
<pdfrwt beam="2">  1       21 0.76584786E-02 0.12661153E+03</pdfrwt>
<totfact> 0.34873441E+06</totfact>
</mgrwt>
</event>
<event>
 6    1  0.4216855E-002  0.1895892E+03  0.7546771E-02  0.1158832E+00
         21   -1    0    0  504  502  0.00000000000E+00  0.00000000000E+00  0.11363489484E+03  0.11363489484E+03  0.00000000000E+00 0.  1.
         21   -1    0    0  502  503 -0.00000000000E+00 -0.00000000000E+00 -0.66309661337E+03  0.66309661337E+03  0.00000000000E+00 0.  1.
         25    2    1    2    0    0  0.28909247156E+01 -0.14251393634E+03 -0.59707030096E+03  0.62644792089E+03  0.12500189519E+03 0.  0.
          5    1    3    3  501    0 -0.58615092481E+02 -0.43627708479E+02 -0.23829602998E+03  0.24924709410E+03  0.10000000000E+00 0. -1.
         -5    1    3    3    0  501  0.61506017197E+02 -0.98886227865E+02 -0.35877427098E+03  0.37720082679E+03  0.10000000000E+00 0. -1.
         21    1    1    2  504  503 -0.28909247156E+01  0.14251393634E+03  0.47608582430E+02  0.15028358732E+03  0.00000000000E+00 0.  1.
<mgrwt>
<rscale>  1 0.18958917E+03</rscale>
<asrwt>0</asrwt>
<pdfrwt beam="1">  1       21 0.17482292E-01 0.18958917E+03</pdfrwt>
<pdfrwt beam="2">  1       21 0.10201486E+00 0.18958917E+03</pdfrwt>
<totfact> 0.23238899E+04</totfact>
</mgrwt>
</event>
<event>
 6    1  0.4216855E-002  0.1534413E+03  0.7546771E-02  0.1196307E+00
         21   -1    0    0  504  502  0.00000000000E+00  0.00000000000E+00  0.17698474698E+03  0.17698474698E+03  0.00000000000E+00 0. -1.
         21   -1    0    0  502  503 -0.00000000000E+00 -0.00000000000E+00 -0.83726265316E+02  0.83726265316E+02  0.00000000000E+00 0. -1.
         25    2    1    2    0    0  0.67862638819E+01 -0.88728421161E+02  0.47360861378E+02  0.16058420446E+03  0.12500179772E+03 0.  0.
          5    1    3    3  501    0  0.58425482257E+02 -0.54161529640E+02 -0.42849795174E+01  0.79783327327E+02  0.10000000000E+00 0.  1.
         -5    1    3    3    0  501 -0.51639218375E+02 -0.34566891522E+02  0.51645840895E+02  0.80800877134E+02  0.10000000000E+00 0.  1.
         21    1    1    2  504  503 -0.67862638819E+01  0.88728421161E+02  0.45897620285E+02  0.10012680783E+03  0.00000000000E+00 0. -1.
<mgrwt>
<rscale>  1 0.15344131E+03</rscale>
<asrwt>0</asrwt>
<pdfrwt beam="1">  1       21 0.27228423E-01 0.15344131E+03</pdfrwt>
<pdfrwt beam="2">  1       21 0.12880964E-01 0.15344131E+03</pdfrwt>
<totfact> 0.66744839E+05</totfact>
</mgrwt>
</event>
<event>
 6    1  0.4216855E-002  0.1259417E+03  0.7546771E-02  0.1233605E+00
         21   -1    0    0  503  502  0.00000000000E+00  0.00000000000E+00  0.13894997906E+04  0.13894997906E+04  0.00000000000E+00 0. -1.
         21   -1    0    0  504  503 -0.00000000000E+00 -0.00000000000E+00 -0.63515347296E+01  0.63515347296E+01  0.00000000000E+00 0. -1.
         25    2    1    2    0    0 -0.12605776057E+02  0.88521942656E+01  0.62583124227E+03  0.63837767825E+03  0.12499619735E+03 0.  0.
          5    1    3    3  501    0  0.17053239891E+01  0.63830619630E+02  0.42097029247E+03  0.42578545452E+03  0.10000000000E+00 0. -1.
         -5    1    3    3    0  501 -0.14311100046E+02 -0.54978425365E+02  0.20486094980E+03  0.21259222374E+03  0.10000000000E+00 0. -1.
         21    1    1    2  504  502  0.12605776057E+02 -0.88521942656E+01  0.75731701361E+03  0.75747364709E+03  0.00000000000E+00 0. -1.
<mgrwt>
<rscale>  1 0.12594172E+03</rscale>
<asrwt>0</asrwt>
<pdfrwt beam="1">  1       21 0.21376896E+00 0.12594172E+03</pdfrwt>
<pdfrwt beam="2">  1       21 0.97716030E-03 0.12594172E+03</pdfrwt>
<totfact> 0.44100389E+05</totfact>
</mgrwt>
</event>
<event>
 6    1  0.4216855E-002  0.1294062E+03  0.7546771E-02  0.1228339E+00
         21   -1    0    0  503  502  0.00000000000E+00  0.00000000000E+00  0.26816015916E+03  0.26816015916E+03  0.00000000000E+00 0. -1.
         21   -1    0    0  504  503 -0.00000000000E+00 -0.00000000000E+00 -0.36988675395E+02  0.36988675395E+02  0.00000000000E+00 0. -1.
         25    2    1    2    0    0 -0.32509980669E+02 -0.80070926766E+01  0.84144102362E+02  0.15435737837E+03  0.12499983167E+03 0.  0.
          5    1    3    3  501    0 -0.15783471754E+02 -0.28366053337E+02 -0.25696041444E+02  0.41401056852E+02  0.10000000000E+00 0. -1.
         -5    1    3    3    0  501 -0.16726508914E+02  0.20358960661E+02  0.10984014381E+03  0.11295632152E+03  0.10000000000E+00 0. -1.
         21    1    1    2  504  502  0.32509980669E+02  0.80070926766E+01  0.14702738140E+03  0.15079145618E+03  0.00000000000E+00 0. -1.
<mgrwt>
<rscale>  1 0.12940622E+03</rscale>
<asrwt>0</asrwt>
<pdfrwt beam="1">  1       21 0.41255408E-01 0.12940622E+03</pdfrwt>
<pdfrwt beam="2">  1       21 0.56905656E-02 0.12940622E+03</pdfrwt>
<totfact> 0.12211540E+06</totfact>
</mgrwt>
</event>
<event>
 6    1  0.4216855E-002  0.1400896E+03  0.7546771E-02  0.1213208E+00
         21   -1    0    0  503  502  0.00000000000E+00  0.00000000000E+00  0.42559463964E+03  0.42559463964E+03  0.00000000000E+00 0.  1.
         21   -1    0    0  504  503 -0.00000000000E+00 -0.00000000000E+00 -0.27387517529E+02  0.27387517529E+02  0.00000000000E+00 0.  1.
         25    2    1    2    0    0  0.33209681994E+01  0.63156029722E+02  0.33705691961E+03  0.36501022877E+03  0.12500154851E+03 0.  0.
          5    1    3    3  501    0  0.45763042134E+01  0.95511351991E+02  0.30422089660E+03  0.31889453562E+03  0.10000000000E+00 0.  1.
         -5    1    3    3    0  501 -0.12553360140E+01 -0.32355322269E+02  0.32836023011E+02  0.46115693152E+02  0.10000000000E+00 0.  1.
         21    1    1    2  504  502 -0.33209681994E+01 -0.63156029722E+02  0.61150202492E+02  0.87971928391E+02  0.00000000000E+00 0.  1.
<mgrwt>
<rscale>  1 0.14008961E+03</rscale>
<asrwt>0</asrwt>
<pdfrwt beam="1">  1       21 0.65476093E-01 0.14008961E+03</pdfrwt>
<pdfrwt beam="2">  1       21 0.42134646E-02 0.14008961E+03</pdfrwt>
<totfact> 0.77424958E+05</totfact>
</mgrwt>
</event>
<event>
 6    1  0.4216855E-002  0.1315914E+03  0.7546771E-02  0.1225113E+00
         21   -1    0    0  504  502  0.00000000000E+00  0.00000000000E+00  0.81051269406E+03  0.81051269406E+03  0.00000000000E+00 0. -1.
         21   -1    0    0  502  503 -0.00000000000E+00 -0.00000000000E+00 -0.10831621339E+02  0.10831621339E+02  0.00000000000E+00 0. -1.
         25    2    1    2    0    0  0.32323396207E+02 -0.25425396964E+02  0.43821633328E+03  0.45754765432E+03  0.12500019387E+03 0.  0.
          5    1    3    3  501    0  0.73883298020E+02 -0.24097936010E+02  0.36649959764E+03  0.37464839158E+03  0.10000000000E+00 0.  1.
         -5    1    3    3    0  501 -0.41559901813E+02 -0.13274609539E+01  0.71716735641E+02  0.82899262737E+02  0.10000000000E+00 0.  1.
         21    1    1    2  504  503 -0.32323396207E+02  0.25425396964E+02  0.36146473945E+03  0.36379666108E+03  0.00000000000E+00 0. -1.
<mgrwt>
<rscale>  1 0.13159142E+03</rscale>
<asrwt>0</asrwt>
<pdfrwt beam="1">  1       21 0.12469421E+00 0.13159142E+03</pdfrwt>
<pdfrwt beam="2">  1       21 0.16664039E-02 0.13159142E+03</pdfrwt>
<totfact> 0.80205521E+05</totfact>
</mgrwt>
</event>
<event>
 6    1  0.4216855E-002  0.1582691E+03  0.7546771E-02  0.1190665E+00
         21   -1    0    0  504  502  0.00000000000E+00  0.00000000000E+00  0.11574076215E+04  0.11574076215E+04  0.00000000000E+00 0.  1.
         21   -1    0    0  502  503 -0.00000000000E+00 -0.00000000000E+00 -0.17105481003E+02  0.17105481003E+02  0.00000000000E+00 0.  1.
         25    2    1    2    0    0 -0.95717658178E+02 -0.16180582011E+02  0.44171579310E+03  0.46921418283E+03  0.12500170468E+03 0.  0.
          5    1    3    3  501    0  0.18768645594E+02  0.10105101873E+02  0.13621982737E+02  0.25297105665E+02  0.10000000000E+00 0. -1.
         -5    1    3    3    0  501 -0.11448630377E+03 -0.26285683884E+02  0.42809381036E+03  0.44391707717E+03  0.10000000000E+00 0. -1.
         21    1    1    2  504  503  0.95717658178E+02  0.16180582011E+02  0.69858634740E+03  0.70529891967E+03  0.00000000000E+00 0.  1.
<mgrwt>
<rscale>  1 0.15826910E+03</rscale>
<asrwt>0</asrwt>
<pdfrwt beam="1">  1       21 0.17806265E+00 0.15826910E+03</pdfrwt>
<pdfrwt beam="2">  1       21 0.26316134E-02 0.15826910E+03</pdfrwt>
<totfact> 0.14989276E+05</totfact>
</mgrwt>
</event>
<event>
 6    1  0.4216855E-002  0.1279868E+03  0.7546771E-02  0.1230474E+00
         21   -1    0    0  504  502  0.00000000000E+00  0.00000000000E+00  0.98544473411E+03  0.98544473411E+03  0.00000000000E+00 0.  1.
         21   -1    0    0  502  503 -0.00000000000E+00 -0.00000000000E+00 -0.63637661627E+01  0.63637661627E+01  0.00000000000E+00 0.  1.
         25    2    1    2    0    0  0.25228778923E+02  0.10943326100E+02  0.86740389180E+03  0.87679538359E+03  0.12499754199E+03 0.  0.
          5    1    3    3  501    0 -0.18918781800E+02  0.30202792150E+01  0.76205365839E+03  0.76229445141E+03  0.10000000000E+00 0. -1.
         -5    1    3    3    0  501  0.44147560723E+02  0.79230468845E+01  0.10535023341E+03  0.11450093218E+03  0.10000000000E+00 0. -1.
         21    1    1    2  504  503 -0.25228778923E+02 -0.10943326100E+02  0.11167707615E+03  0.11501311668E+03  0.00000000000E+00 0.  1.
<mgrwt>
<rscale>  1 0.12798685E+03</rscale>
<asrwt>0</asrwt>
<pdfrwt beam="1">  1       21 0.15160676E+00 0.12798685E+03</pdfrwt>
<pdfrwt beam="2">  1       21 0.97904173E-03 0.12798685E+03</pdfrwt>
<totfact> 0.11395582E+06</totfact>
</mgrwt>
</event>
<event>
 6    1  0.4216855E-002  0.1270224E+03  0.7546771E-02  0.1231942E+00
         21   -1    0    0  503  502  0.00000000000E+00  0.00000000000E+00  0.17154577680E+03  0.17154577680E+03  0.00000000000E+00 0. -1.
         21   -1    0    0  504  503 -0.00000000000E+00 -0.00000000000E+00 -0.10320765729E+03  0.10320765729E+03  0.00000000000E+00 0.  1.
         25    2    1    2    0    0 -0.20516679391E+02  0.94823685309E+01 -0.62788146977E+02  0.14169349568E+03  0.12499538340E+03 0.  0.
          5    1    3    3  501    0  0.81183815617E+01 -0.53208504693E+02 -0.45888713593E+02  0.70730736785E+02  0.10000000000E+00 0.  1.
         -5    1    3    3    0  501 -0.28635060953E+02  0.62690873224E+02 -0.16899433384E+02  0.70962758896E+02  0.10000000000E+00 0.  1.
         21    1    1    2  504  502  0.20516679391E+02 -0.94823685309E+01  0.13112626649E+03  0.13305993841E+03  0.00000000000E+00 0. -1.
<mgrwt>
<rscale>  1 0.12702242E+03</rscale>
<asrwt>0</asrwt>
<pdfrwt beam="1">  1       21 0.26391658E-01 0.12702242E+03</pdfrwt>
<pdfrwt beam="2">  1       21 0.15878101E-01 0.12702242E+03</pdfrwt>
<totfact> 0.48689689E+05</totfact>
</mgrwt>
</event>
<event>
 6    1  0.4216855E-002  0.1395304E+03  0.7546771E-02  0.1213962E+00
         21   -1    0    0  503  502  0.00000000000E+00  0.00000000000E+00  0.86813787906E+02  0.86813787906E+02  0.00000000000E+00 0. -1.
         21   -1    0    0  504  503 -0.00000000000E+00 -0.00000000000E+00 -0.61451364711E+03  0.61451364711E+03  0.00000000000E+00 0. -1.
         25    2    1    2    0    0 -0.48180782937E+02  0.39053160514E+02 -0.59421875477E+03  0.61038074372E+03  0.12498874586E+03 0.  0.
          5    1    3    3  501    0 -0.23491024015E+02 -0.98748629498E+01 -0.50521333534E+03  0.50585557755E+03  0.10000000000E+00 0. -1.
         -5    1    3    3    0  501 -0.24689758922E+02  0.48928023464E+02 -0.89005419428E+02  0.10452516617E+03  0.10000000000E+00 0. -1.
         21    1    1    2  504  502  0.48180782937E+02 -0.39053160514E+02  0.66518895566E+02  0.90946691297E+02  0.00000000000E+00 0. -1.
<mgrwt>
<rscale>  1 0.13953037E+03</rscale>
<asrwt>0</asrwt>
<pdfrwt beam="1">  1       21 0.13355968E-01 0.13953037E+03</pdfrwt>
<pdfrwt beam="2">  1       21 0.94540556E-01 0.13953037E+03</pdfrwt>
<totfact> 0.46652764E+04</totfact>
</mgrwt>
</event>
<event>
 6    1  0.4216855E-002  0.1367686E+03  0.7546771E-02  0.1217744E+00
         21   -1    0    0  504  502  0.00000000000E+00  0.00000000000E+00  0.60839903754E+02  0.60839903754E+02  0.00000000000E+00 0. -1.
         21   -1    0    0  502  503 -0.00000000000E+00 -0.00000000000E+00 -0.40825139801E+03  0.40825139801E+03  0.00000000000E+00 0. -1.
         25    2    1    2    0    0  0.30940481736E+02  0.46080574546E+02 -0.38059538086E+03  0.40442366619E+03  0.12499970034E+03 0.  0.
          5    1    3    3  501    0 -0.40879337081E+02  0.43898020196E+02 -0.12077547580E+03  0.13485133271E+03  0.10000000000E+00 0.  1.
         -5    1    3    3    0  501  0.71819818817E+02  0.21825543492E+01 -0.25981990506E+03  0.26957233349E+03  0.10000000000E+00 0.  1.
         21    1    1    2  504  503 -0.30940481736E+02 -0.46080574546E+02  0.33183886602E+02  0.64667635572E+02  0.00000000000E+00 0. -1.
<mgrwt>
<rscale>  1 0.13676863E+03</rscale>
<asrwt>0</asrwt>
<pdfrwt beam="1">  1       21 0.93599847E-02 0.13676863E+03</pdfrwt>
<pdfrwt beam="2">  1       21 0.62807911E-01 0.13676863E+03</pdfrwt>
<totfact> 0.21740546E+05</totfact>
</mgrwt>
</event>
<event>
 6    1  0.4216855E-002  0.1270179E+03  0.7546771E-02  0.1231949E+00
         21   -1    0    0  504  502  0.00000000000E+00  0.00000000000E+00  0.33004310687E+03  0.33004310687E+03  0.00000000000E+00 0.  1.
         21   -1    0    0  502  503 -0.00000000000E+00 -0.00000000000E+00 -0.17486616672E+02  0.17486616672E+02  0.00000000000E+00 0.  1.
         25    2    1    2    0    0  0.11309887488E+02  0.19582253660E+02  0.24011778271E+03  0.27164333111E+03  0.12498868569E+03 0.  0.
          5    1    3    3  501    0  0.37408680440E+02  0.23388922856E+01  0.23729323131E+03  0.24023523350E+03  0.10000000000E+00 0. -1.
         -5    1    3    3    0  501 -0.26098792953E+02  0.17243361375E+02  0.28245514002E+01  0.31408097613E+02  0.10000000000E+00 0. -1.
         21    1    1    2  504  503 -0.11309887488E+02 -0.19582253660E+02  0.72438707490E+02  0.75886392431E+02  0.00000000000E+00 0.  1.
<mgrwt>
<rscale>  1 0.12701791E+03</rscale>
<asrwt>0</asrwt>
<pdfrwt beam="1">  1       21 0.50775858E-01 0.12701791E+03</pdfrwt>
<pdfrwt beam="2">  1       21 0.26902490E-02 0.12701791E+03</pdfrwt>
<totfact> 0.27734446E+06</totfact>
</mgrwt>
</event>
<event>
 6    1  0.4216855E-002  0.1274065E+03  0.7546771E-02  0.1231356E+00
         21   -1    0    0  504  502  0.00000000000E+00  0.00000000000E+00  0.78178971845E+01  0.78178971845E+01  0.00000000000E+00 0. -1.
         21   -1    0    0  502  503 -0.00000000000E+00 -0.00000000000E+00 -0.84891865159E+03  0.84891865159E+03  0.00000000000E+00 0. -1.
         25    2    1    2    0    0  0.36014048150E+01  0.24389470431E+02 -0.78747504281E+03  0.79771508379E+03  0.12499838189E+03 0.  0.
          5    1    3    3  501    0 -0.32734684386E+02 -0.23996740556E+02 -0.10514336301E+03  0.11270554514E+03  0.10000000000E+00 0.  1.
         -5    1    3    3    0  501  0.36336089201E+02  0.48386210987E+02 -0.68233167980E+03  0.68500953866E+03  0.10000000000E+00 0.  1.
         21    1    1    2  504  503 -0.36014048150E+01 -0.24389470431E+02 -0.53625711595E+02  0.59021464982E+02  0.00000000000E+00 0. -1.
<mgrwt>
<rscale>  1 0.12740648E+03</rscale>
<asrwt>0</asrwt>
<pdfrwt beam="1">  1       21 0.12027528E-02 0.12740648E+03</pdfrwt>
<pdfrwt beam="2">  1       21 0.13060293E+00 0.12740648E+03</pdfrwt>
<totfact> 0.12029446E+06</totfact>
</mgrwt>
</event>
<event>
 6    1  0.4216855E-002  0.1301398E+03  0.7546771E-02  0.1227249E+00
         21   -1    0    0  503  502  0.00000000000E+00  0.00000000000E+00  0.89247000559E+02  0.89247000559E+02  0.00000000000E+00 0.  1.
         21   -1    0    0  504  503 -0.00000000000E+00 -0.00000000000E+00 -0.15240302066E+03  0.15240302066E+03  0.00000000000E+00 0.  1.
         25    2    1    2    0    0  0.32371079418E+02  0.16248513472E+02 -0.11816853764E+03  0.17578441519E+03  0.12499782543E+03 0.  0.
          5    1    3    3  501    0  0.71911764664E+01 -0.24702280041E+01  0.26594475872E+02  0.27660281854E+02  0.10000000000E+00 0.  1.
         -5    1    3    3    0  501  0.25179902952E+02  0.18718741476E+02 -0.14476301351E+03  0.14812413333E+03  0.10000000000E+00 0.  1.
         21    1    1    2  504  502 -0.32371079418E+02 -0.16248513472E+02  0.55012517535E+02  0.65865606034E+02  0.00000000000E+00 0.  1.
<mgrwt>
<rscale>  1 0.13013976E+03</rscale>
<asrwt>0</asrwt>
<pdfrwt beam="1">  1       21 0.13730308E-01 0.13013976E+03</pdfrwt>
<pdfrwt beam="2">  1       21 0.23446619E-01 0.13013976E+03</pdfrwt>
<totfact> 0.79086131E+05</totfact>
</mgrwt>
</event>
<event>
 6    1  0.4216855E-002  0.1269765E+03  0.7546771E-02  0.1232012E+00
         21   -1    0    0  504  502  0.00000000000E+00  0.00000000000E+00  0.13851305662E+02  0.13851305662E+02  0.00000000000E+00 0. -1.
         21   -1    0    0  502  503 -0.00000000000E+00 -0.00000000000E+00 -0.40542155916E+03  0.40542155916E+03  0.00000000000E+00 0. -1.
         25    2    1    2    0    0 -0.20242013141E+02  0.93761361939E+01 -0.31867424927E+03  0.34303981124E+03  0.12500153568E+03 0.  0.
          5    1    3    3  501    0 -0.72969859908E+02  0.68701758276E+01 -0.16480856174E+03  0.18037092835E+03  0.10000000000E+00 0.  1.
         -5    1    3    3    0  501  0.52727846767E+02  0.25059603663E+01 -0.15386568753E+03  0.16266888290E+03  0.10000000000E+00 0.  1.
         21    1    1    2  504  503  0.20242013141E+02 -0.93761361939E+01 -0.72896004231E+02  0.76233053584E+02  0.00000000000E+00 0. -1.
<mgrwt>
<rscale>  1 0.12697651E+03</rscale>
<asrwt>0</asrwt>
<pdfrwt beam="1">  1       21 0.21309705E-02 0.12697651E+03</pdfrwt>
<pdfrwt beam="2">  1       21 0.62372536E-01 0.12697651E+03</pdfrwt>
<totfact> 0.26287406E+06</totfact>
</mgrwt>
</event>
<event>
 6    1  0.4216855E-002  0.1428464E+03  0.7546771E-02  0.1209549E+00
         21   -1    0    0  504  502  0.00000000000E+00  0.00000000000E+00  0.77506293253E+02  0.77506293253E+02  0.00000000000E+00 0.  1.
         21   -1    0    0  502  503 -0.00000000000E+00 -0.00000000000E+00 -0.14721383942E+03  0.14721383942E+03  0.00000000000E+00 0.  1.
         25    2    1    2    0    0 -0.54762791905E+02 -0.42162073545E+02 -0.59971540462E+02  0.15492476299E+03  0.12501397001E+03 0.  0.
          5    1    3    3  501    0 -0.36737199922E+02 -0.20401295530E+01  0.34674014238E+02  0.50557702184E+02  0.10000000000E+00 0. -1.
         -5    1    3    3    0  501 -0.18025591983E+02 -0.40121943991E+02 -0.94645554700E+02  0.10436706080E+03  0.10000000000E+00 0. -1.
         21    1    1    2  504  503  0.54762791905E+02  0.42162073545E+02 -0.97360057058E+01  0.69795369688E+02  0.00000000000E+00 0.  1.
<mgrwt>
<rscale>  1 0.14284641E+03</rscale>
<asrwt>0</asrwt>
<pdfrwt beam="1">  1       21 0.11924045E-01 0.14284641E+03</pdfrwt>
<pdfrwt beam="2">  1       21 0.22648283E-01 0.14284641E+03</pdfrwt>
<totfact> 0.10857377E+06</totfact>
</mgrwt>
</event>
<event>
 6    1  0.4216855E-002  0.1267548E+03  0.7546771E-02  0.1232352E+00
         21   -1    0    0  504  502  0.00000000000E+00  0.00000000000E+00  0.38804864326E+03  0.38804864326E+03  0.00000000000E+00 0.  1.
         21   -1    0    0  502  503 -0.00000000000E+00 -0.00000000000E+00 -0.52175932708E+02  0.52175932708E+02  0.00000000000E+00 0. -1.
         25    2    1    2    0    0 -0.17769836452E+02  0.11230345965E+02  0.25691969301E+02  0.12933234383E+03  0.12499956047E+03 0.  0.
          5    1    3    3  501    0 -0.47159862049E+02  0.26078568152E+02  0.60768623341E+02  0.81221794416E+02  0.10000000000E+00 0.  1.
         -5    1    3    3    0  501  0.29390025597E+02 -0.14848222187E+02 -0.35076654040E+02  0.48110549419E+02  0.10000000000E+00 0.  1.
         21    1    1    2  504  503  0.17769836452E+02 -0.11230345965E+02  0.31018074125E+03  0.31089223214E+03  0.00000000000E+00 0.  1.
<mgrwt>
<rscale>  1 0.12675479E+03</rscale>
<asrwt>0</asrwt>
<pdfrwt beam="1">  1       21 0.59699789E-01 0.12675479E+03</pdfrwt>
<pdfrwt beam="2">  1       21 0.80270668E-02 0.12675479E+03</pdfrwt>
<totfact> 0.31688888E+05</totfact>
</mgrwt>
</event>
<event>
 6    1  0.4216855E-002  0.1415408E+03  0.7546771E-02  0.1211271E+00
         21   -1    0    0  503  502  0.00000000000E+00  0.00000000000E+00  0.22937460377E+03  0.22937460377E+03  0.00000000000E+00 0. -1.
         21   -1    0    0  504  503 -0.00000000000E+00 -0.00000000000E+00 -0.81384938057E+02  0.81384938057E+02  0.00000000000E+00 0. -1.
         25    2    1    2    0    0  0.54133724985E+02  0.38460232818E+02 -0.74426361227E+01  0.14173631815E+03  0.12499656539E+03 0.  0.
          5    1    3    3  501    0  0.54307357199E+02 -0.33108147048E+02 -0.24506226842E+02  0.68161599166E+02  0.10000000000E+00 0. -1.
         -5    1    3    3    0  501 -0.17363221418E+00  0.71568379866E+02  0.17063590719E+02  0.73574718980E+02  0.10000000000E+00 0. -1.
         21    1    1    2  504  502 -0.54133724985E+02 -0.38460232818E+02  0.15543230184E+03  0.16902322368E+03  0.00000000000E+00 0. -1.
<mgrwt>
<rscale>  1 0.14154078E+03</rscale>
<asrwt>0</asrwt>
<pdfrwt beam="1">  1       21 0.35288400E-01 0.14154078E+03</pdfrwt>
<pdfrwt beam="2">  1       21 0.12520760E-01 0.14154078E+03</pdfrwt>
<totfact> 0.42456873E+05</totfact>
</mgrwt>
</event>
<event>
 6    1  0.4216855E-002  0.1280339E+03  0.7546771E-02  0.1230403E+00
         21   -1    0    0  503  502  0.00000000000E+00  0.00000000000E+00  0.35120380838E+03  0.35120380838E+03  0.00000000000E+00 0.  1.
         21   -1    0    0  504  503 -0.00000000000E+00 -0.00000000000E+00 -0.20164666798E+02  0.20164666798E+02  0.00000000000E+00 0.  1.
         25    2    1    2    0    0  0.24252956522E+02  0.13348262575E+02  0.31339629804E+03  0.33854086573E+03  0.12500518442E+03 0.  0.
          5    1    3    3  501    0 -0.34120365208E+02 -0.22882111994E+02  0.42668918634E+02  0.59232060480E+02  0.10000000000E+00 0.  1.
         -5    1    3    3    0  501  0.58373321730E+02  0.36230374569E+02  0.27072737940E+03  0.27930880525E+03  0.10000000000E+00 0.  1.
         21    1    1    2  504  502 -0.24252956522E+02 -0.13348262575E+02  0.17642843547E+02  0.32827609451E+02  0.00000000000E+00 0.  1.
<mgrwt>
<rscale>  1 0.12803389E+03</rscale>
<asrwt>0</asrwt>
<pdfrwt beam="1">  1       21 0.54031351E-01 0.12803389E+03</pdfrwt>
<pdfrwt beam="2">  1       21 0.31022567E-02 0.12803389E+03</pdfrwt>
<totfact> 0.19309249E+06</totfact>
</mgrwt>
</event>
<event>
 6    1  0.4216855E-002  0.1264974E+03  0.7546771E-02  0.1232747E+00
         21   -1    0    0  503  502  0.00000000000E+00  0.00000000000E+00  0.13869983502E+02  0.13869983502E+02  0.00000000000E+00 0. -1.
         21   -1    0    0  504  503 -0.00000000000E+00 -0.00000000000E+00 -0.45981169774E+03  0.45981169774E+03  0.00000000000E+00 0. -1.
         25    2    1    2    0    0  0.11620680339E+02  0.15614584545E+02 -0.43089641586E+03  0.44908053360E+03  0.12499099565E+03 0.  0.
          5    1    3    3  501    0  0.51400196882E+02  0.37559477997E+02 -0.12974465028E+03  0.14452120572E+03  0.10000000000E+00 0. -1.
         -5    1    3    3    0  501 -0.39779516544E+02 -0.21944893452E+02 -0.30115176558E+03  0.30455932788E+03  0.10000000000E+00 0. -1.
         21    1    1    2  504  502 -0.11620680339E+02 -0.15614584545E+02 -0.15045298379E+02  0.24601147643E+02  0.00000000000E+00 0. -1.
<mgrwt>
<rscale>  1 0.12649745E+03</rscale>
<asrwt>0</asrwt>
<pdfrwt beam="1">  1       21 0.21338431E-02 0.12649745E+03</pdfrwt>
<pdfrwt beam="2">  1       21 0.70740277E-01 0.12649745E+03</pdfrwt>
<totfact> 0.19984487E+06</totfact>
</mgrwt>
</event>
<event>
 6    1  0.4216855E-002  0.1327119E+03  0.7546771E-02  0.1223486E+00
         21   -1    0    0  503  502  0.00000000000E+00  0.00000000000E+00  0.12070705504E+03  0.12070705504E+03  0.00000000000E+00 0. -1.
         21   -1    0    0  504  503 -0.00000000000E+00 -0.00000000000E+00 -0.76177592417E+02  0.76177592417E+02  0.00000000000E+00 0. -1.
         25    2    1    2    0    0  0.44098792969E+02 -0.65047479557E+01 -0.16209308135E+01  0.13272177578E+03  0.12500170824E+03 0.  0.
          5    1    3    3  501    0 -0.22461190570E+02  0.42573072323E+02  0.10142033638E+02  0.49191893796E+02  0.10000000000E+00 0. -1.
         -5    1    3    3    0  501  0.66559983539E+02 -0.49077820279E+02 -0.11762964451E+02  0.83529881987E+02  0.10000000000E+00 0. -1.
         21    1    1    2  504  502 -0.44098792969E+02  0.65047479557E+01  0.46150393439E+02  0.64162871677E+02  0.00000000000E+00 0. -1.
<mgrwt>
<rscale>  1 0.13271188E+03</rscale>
<asrwt>0</asrwt>
<pdfrwt beam="1">  1       21 0.18570316E-01 0.13271188E+03</pdfrwt>
<pdfrwt beam="2">  1       21 0.11719630E-01 0.13271188E+03</pdfrwt>
<totfact> 0.16169761E+06</totfact>
</mgrwt>
</event>
<event>
 6    1  0.4216855E-002  0.1299796E+03  0.7546771E-02  0.1227486E+00
         21   -1    0    0  503  502  0.00000000000E+00  0.00000000000E+00  0.27404930611E+02  0.27404930611E+02  0.00000000000E+00 0. -1.
         21   -1    0    0  504  503 -0.00000000000E+00 -0.00000000000E+00 -0.21232031528E+04  0.21232031528E+04  0.00000000000E+00 0.  1.
         25    2    1    2    0    0  0.51890961333E+00  0.35621386298E+02 -0.21087123322E+04  0.21127144603E+04  0.12500215372E+03 0.  0.
          5    1    3    3  501    0  0.47709382334E+02 -0.22827192863E+02 -0.69626986227E+03  0.69827573136E+03  0.10000000000E+00 0.  1.
         -5    1    3    3    0  501 -0.47190472721E+02  0.58448579161E+02 -0.14124424699E+04  0.14144387290E+04  0.10000000000E+00 0.  1.
         21    1    1    2  504  502 -0.51890961333E+00 -0.35621386298E+02  0.12914110058E+02  0.37893623046E+02  0.00000000000E+00 0. -1.
<mgrwt>
<rscale>  1 0.12997958E+03</rscale>
<asrwt>0</asrwt>
<pdfrwt beam="1">  1       21 0.42161428E-02 0.12997958E+03</pdfrwt>
<pdfrwt beam="2">  1       21 0.32664667E+00 0.12997958E+03</pdfrwt>
<totfact> 0.93489353E+03</totfact>
</mgrwt>
</event>
<event>
 6    1  0.4216855E-002  0.1344531E+03  0.7546771E-02  0.1220994E+00
         21   -1    0    0  504  502  0.00000000000E+00  0.00000000000E+00  0.18984889736E+03  0.18984889736E+03  0.00000000000E+00 0. -1.
         21   -1    0    0  502  503 -0.00000000000E+00 -0.00000000000E+00 -0.82420956469E+02  0.82420956469E+02  0.00000000000E+00 0. -1.
         25    2    1    2    0    0 -0.38621252599E+01 -0.49379990949E+02 -0.19648986828E+02  0.13588127265E+03  0.12499735219E+03 0.  0.
          5    1    3    3  501    0  0.43558833199E+02 -0.58714083691E+02 -0.40121168162E+02  0.83393247376E+02  0.10000000000E+00 0. -1.
         -5    1    3    3    0  501 -0.47420958459E+02  0.93340927413E+01  0.20472181334E+02  0.52488025273E+02  0.10000000000E+00 0. -1.
         21    1    1    2  504  503  0.38621252599E+01  0.49379990949E+02  0.12707692772E+03  0.13638858118E+03  0.00000000000E+00 0. -1.
<mgrwt>
<rscale>  1 0.13445311E+03</rscale>
<asrwt>0</asrwt>
<pdfrwt beam="1">  1       21 0.29207522E-01 0.13445311E+03</pdfrwt>
<pdfrwt beam="2">  1       21 0.12680147E-01 0.13445311E+03</pdfrwt>
<totfact> 0.60038228E+05</totfact>
</mgrwt>
</event>
<event>
 6    1  0.4216855E-002  0.1438530E+03  0.7546771E-02  0.1208236E+00
         21   -1    0    0  504  502  0.00000000000E+00  0.00000000000E+00  0.10074297841E+03  0.10074297841E+03  0.00000000000E+00 0.  1.
         21   -1    0    0  502  503 -0.00000000000E+00 -0.00000000000E+00 -0.16305534692E+03  0.16305534692E+03  0.00000000000E+00 0.  1.
         25    2    1    2    0    0  0.40234259697E+02 -0.58740926653E+02 -0.10740088572E+03  0.17952337946E+03  0.12499760559E+03 0.  0.
          5    1    3    3  501    0 -0.50655250078E+01  0.50126753916E+01 -0.10078352281E+03  0.10103521628E+03  0.10000000000E+00 0. -1.
         -5    1    3    3    0  501  0.45299784705E+02 -0.63753602045E+02 -0.66173629074E+01  0.78488163183E+02  0.10000000000E+00 0. -1.
         21    1    1    2  504  503 -0.40234259697E+02  0.58740926653E+02  0.45088517206E+02  0.84274945869E+02  0.00000000000E+00 0.  1.
<mgrwt>
<rscale>  1 0.14385303E+03</rscale>
<asrwt>0</asrwt>
<pdfrwt beam="1">  1       21 0.15498920E-01 0.14385303E+03</pdfrwt>
<pdfrwt beam="2">  1       21 0.25085438E-01 0.14385303E+03</pdfrwt>
<totfact> 0.55944723E+05</totfact>
</mgrwt>
</event>
<event>
 6    1  0.4216855E-002  0.1261725E+03  0.7546771E-02  0.1233248E+00
         21   -1    0    0  503  502  0.00000000000E+00  0.00000000000E+00  0.89732342282E+02  0.89732342282E+02  0.00000000000E+00 0. -1.
         21   -1    0    0  504  503 -0.00000000000E+00 -0.00000000000E+00 -0.17263172679E+03  0.17263172679E+03  0.00000000000E+00 0. -1.
         25    2    1    2    0    0  0.58669295648E+01  0.16043169350E+02 -0.14833373821E+03  0.19473671669E+03  0.12501074670E+03 0.  0.
          5    1    3    3  501    0  0.24892121716E+02  0.66983337586E+02 -0.91220410771E+02  0.11587734282E+03  0.10000000000E+00 0. -1.
         -5    1    3    3    0  501 -0.19025192151E+02 -0.50940168237E+02 -0.57113327442E+02  0.78859373874E+02  0.10000000000E+00 0. -1.
         21    1    1    2  504  502 -0.58669295648E+01 -0.16043169350E+02  0.65434353704E+02  0.67627352380E+02  0.00000000000E+00 0. -1.
<mgrwt>
<rscale>  1 0.12617247E+03</rscale>
<asrwt>0</asrwt>
<pdfrwt beam="1">  1       21 0.13804976E-01 0.12617247E+03</pdfrwt>
<pdfrwt beam="2">  1       21 0.26558727E-01 0.12617247E+03</pdfrwt>
<totfact> 0.61890171E+05</totfact>
</mgrwt>
</event>
<event>
 6    1  0.4216855E-002  0.1276624E+03  0.7546771E-02  0.1230966E+00
         21   -1    0    0  504  502  0.00000000000E+00  0.00000000000E+00  0.65142691752E+03  0.65142691752E+03  0.00000000000E+00 0. -1.
         21   -1    0    0  502  503 -0.00000000000E+00 -0.00000000000E+00 -0.26359024087E+02  0.26359024087E+02  0.00000000000E+00 0. -1.
         25    2    1    2    0    0 -0.23133338596E+02 -0.11512021796E+02  0.13055598345E+03  0.18259940391E+03  0.12501999637E+03 0.  0.
          5    1    3    3  501    0 -0.15837751362E+02 -0.29022679592E+02  0.15107756633E+03  0.15465313236E+03  0.10000000000E+00 0.  1.
         -5    1    3    3    0  501 -0.72955872339E+01  0.17510657796E+02 -0.20521582885E+02  0.27946271552E+02  0.10000000000E+00 0.  1.
         21    1    1    2  504  503  0.23133338596E+02  0.11512021796E+02  0.49451190999E+03  0.49518653770E+03  0.00000000000E+00 0. -1.
<mgrwt>
<rscale>  1 0.12766236E+03</rscale>
<asrwt>0</asrwt>
<pdfrwt beam="1">  1       21 0.10021951E+00 0.12766236E+03</pdfrwt>
<pdfrwt beam="2">  1       21 0.40552350E-02 0.12766236E+03</pdfrwt>
<totfact> 0.31792102E+05</totfact>
</mgrwt>
</event>
<event>
 6    1  0.4216855E-002  0.1279011E+03  0.7546771E-02  0.1230604E+00
         21   -1    0    0  503  502  0.00000000000E+00  0.00000000000E+00  0.69138045726E+03  0.69138045726E+03  0.00000000000E+00 0. -1.
         21   -1    0    0  504  503 -0.00000000000E+00 -0.00000000000E+00 -0.38457494170E+02  0.38457494170E+02  0.00000000000E+00 0. -1.
         25    2    1    2    0    0  0.26679554960E+02 -0.46932019593E+01  0.69074858304E+02  0.14536174639E+03  0.12499950586E+03 0.  0.
          5    1    3    3  501    0  0.48177914863E+01 -0.61882743236E+02  0.54084626600E+02  0.82327649424E+02  0.10000000000E+00 0. -1.
         -5    1    3    3    0  501  0.21861763473E+02  0.57189541277E+02  0.14990231704E+02  0.63034096964E+02  0.10000000000E+00 0. -1.
         21    1    1    2  504  502 -0.26679554960E+02  0.46932019593E+01  0.58384810479E+03  0.58447620504E+03  0.00000000000E+00 0. -1.
<mgrwt>
<rscale>  1 0.12790114E+03</rscale>
<asrwt>0</asrwt>
<pdfrwt beam="1">  1       21 0.10636622E+00 0.12790114E+03</pdfrwt>
<pdfrwt beam="2">  1       21 0.59165381E-02 0.12790114E+03</pdfrwt>
<totfact> 0.14656201E+05</totfact>
</mgrwt>
</event>
<event>
 6    1  0.4216855E-002  0.1318406E+03  0.7546771E-02  0.1224750E+00
         21   -1    0    0  503  502  0.00000000000E+00  0.00000000000E+00  0.37521838492E+02  0.37521838492E+02  0.00000000000E+00 0.  1.
         21   -1    0    0  504  503 -0.00000000000E+00 -0.00000000000E+00 -0.23691242560E+03  0.23691242560E+03  0.00000000000E+00 0.  1.
         25    2    1    2    0    0  0.21175484237E+01 -0.41860910164E+02 -0.19036084702E+03  0.23155820997E+03  0.12500053086E+03 0.  0.
          5    1    3    3  501    0 -0.19631935282E+02  0.37500534703E+02 -0.31891989220E+02  0.52998226031E+02  0.10000000000E+00 0.  1.
         -5    1    3    3    0  501  0.21749483706E+02 -0.79361444868E+02 -0.15846885780E+03  0.17855998394E+03  0.10000000000E+00 0.  1.
         21    1    1    2  504  502 -0.21175484237E+01  0.41860910164E+02 -0.90297400918E+01  0.42876054124E+02  0.00000000000E+00 0.  1.
<mgrwt>
<rscale>  1 0.13184063E+03</rscale>
<asrwt>0</asrwt>
<pdfrwt beam="1">  1       21 0.57725905E-02 0.13184063E+03</pdfrwt>
<pdfrwt beam="2">  1       21 0.36448066E-01 0.13184063E+03</pdfrwt>
<totfact> 0.15259126E+06</totfact>
</mgrwt>
</event>
<event>
 6    1  0.4216855E-002  0.1259711E+03  0.7546771E-02  0.1233559E+00
         21   -1    0    0  503  502  0.00000000000E+00  0.00000000000E+00  0.21187448686E+03  0.21187448686E+03  0.00000000000E+00 0.  1.
         21   -1    0    0  504  503 -0.00000000000E+00 -0.00000000000E+00 -0.72828336061E+02  0.72828336061E+02  0.00000000000E+00 0.  1.
         25    2    1    2    0    0 -0.15223040094E+02 -0.33771581780E+01 -0.17677485556E+02  0.12720538059E+03  0.12500227682E+03 0.  0.
          5    1    3    3  501    0  0.47545816325E+02 -0.98768228731E+01 -0.37175710980E+02  0.61157172654E+02  0.10000000000E+00 0.  1.
         -5    1    3    3    0  501 -0.62768856419E+02  0.64996646950E+01  0.19498225424E+02  0.66048207940E+02  0.10000000000E+00 0.  1.
         21    1    1    2  504  502  0.15223040094E+02  0.33771581780E+01  0.15672363636E+03  0.15749744233E+03  0.00000000000E+00 0.  1.
<mgrwt>
<rscale>  1 0.12597109E+03</rscale>
<asrwt>0</asrwt>
<pdfrwt beam="1">  1       21 0.32596075E-01 0.12597109E+03</pdfrwt>
<pdfrwt beam="2">  1       21 0.11204359E-01 0.12597109E+03</pdfrwt>
<totfact> 0.60457886E+05</totfact>
</mgrwt>
</event>
<event>
 6    1  0.4216855E-002  0.1266548E+03  0.7546771E-02  0.1232506E+00
         21   -1    0    0  504  502  0.00000000000E+00  0.00000000000E+00  0.94362065848E+01  0.94362065848E+01  0.00000000000E+00 0.  1.
         21   -1    0    0  502  503 -0.00000000000E+00 -0.00000000000E+00 -0.14265717057E+04  0.14265717057E+04  0.00000000000E+00 0. -1.
         25    2    1    2    0    0  0.14632511970E+01  0.20354191625E+02 -0.14079396170E+04  0.14136249172E+04  0.12500002888E+03 0.  0.
          5    1    3    3  501    0  0.51046237855E+02  0.41865302820E+02 -0.99102700128E+03  0.99322351424E+03  0.10000000000E+00 0.  1.
         -5    1    3    3    0  501 -0.49582986658E+02 -0.21511111195E+02 -0.41691261568E+03  0.42040140293E+03  0.10000000000E+00 0.  1.
         21    1    1    2  504  503 -0.14632511970E+01 -0.20354191625E+02 -0.91958821228E+01  0.22382995081E+02  0.00000000000E+00 0.  1.
<mgrwt>
<rscale>  1 0.12665481E+03</rscale>
<asrwt>0</asrwt>
<pdfrwt beam="1">  1       21 0.14517258E-02 0.12665481E+03</pdfrwt>
<pdfrwt beam="2">  1       21 0.21947232E+00 0.12665481E+03</pdfrwt>
<totfact> 0.21753202E+05</totfact>
</mgrwt>
</event>
<event>
 6    1  0.4216855E-002  0.1990047E+03  0.7546771E-02  0.1150581E+00
         21   -1    0    0  503  502  0.00000000000E+00  0.00000000000E+00  0.62392573702E+03  0.62392573702E+03  0.00000000000E+00 0.  1.
         21   -1    0    0  504  503 -0.00000000000E+00 -0.00000000000E+00 -0.94812499243E+02  0.94812499243E+02  0.00000000000E+00 0.  1.
         25    2    1    2    0    0  0.12645144487E+03  0.89377458237E+02  0.36453432389E+02  0.20231594608E+03  0.12499836542E+03 0.  0.
          5    1    3    3  501    0 -0.13446553355E+02  0.42916603090E+02  0.31339143328E+02  0.54816024322E+02  0.10000000000E+00 0.  1.
         -5    1    3    3    0  501  0.13989799822E+03  0.46460855147E+02  0.51142890608E+01  0.14749992176E+03  0.10000000000E+00 0.  1.
         21    1    1    2  504  502 -0.12645144487E+03 -0.89377458237E+02  0.49265980539E+03  0.51642229018E+03  0.00000000000E+00 0.  1.
<mgrwt>
<rscale>  1 0.19900475E+03</rscale>
<asrwt>0</asrwt>
<pdfrwt beam="1">  1       21 0.95988572E-01 0.19900475E+03</pdfrwt>
<pdfrwt beam="2">  1       21 0.14586539E-01 0.19900475E+03</pdfrwt>
<totfact> 0.37188646E+04</totfact>
</mgrwt>
</event>
<event>
 6    1  0.4216855E-002  0.1277057E+03  0.7546771E-02  0.1230900E+00
         21   -1    0    0  503  502  0.00000000000E+00  0.00000000000E+00  0.80205628939E+01  0.80205628939E+01  0.00000000000E+00 0.  1.
         21   -1    0    0  504  503 -0.00000000000E+00 -0.00000000000E+00 -0.80011814950E+03  0.80011814950E+03  0.00000000000E+00 0.  1.
         25    2    1    2    0    0 -0.31824701152E+01  0.25952509864E+02 -0.72433459504E+03  0.73550618586E+03  0.12500033195E+03 0.  0.
          5    1    3    3  501    0 -0.62516529293E+02  0.19260658477E+02 -0.30456165917E+03  0.31150779065E+03  0.10000000000E+00 0. -1.
         -5    1    3    3    0  501  0.59334059178E+02  0.66918513875E+01 -0.41977293587E+03  0.42399839521E+03  0.10000000000E+00 0. -1.
         21    1    1    2  504  502  0.31824701152E+01 -0.25952509864E+02 -0.67762991567E+02  0.72632526531E+02  0.00000000000E+00 0.  1.
<mgrwt>
<rscale>  1 0.12770569E+03</rscale>
<asrwt>0</asrwt>
<pdfrwt beam="1">  1       21 0.12339328E-02 0.12770569E+03</pdfrwt>
<pdfrwt beam="2">  1       21 0.12309510E+00 0.12770569E+03</pdfrwt>
<totfact> 0.13372316E+06</totfact>
</mgrwt>
</event>
<event>
 6    1  0.4216855E-002  0.1274725E+03  0.7546771E-02  0.1231255E+00
         21   -1    0    0  503  502  0.00000000000E+00  0.00000000000E+00  0.62690871115E+02  0.62690871115E+02  0.00000000000E+00 0.  1.
         21   -1    0    0  504  503 -0.00000000000E+00 -0.00000000000E+00 -0.93609183836E+02  0.93609183836E+02  0.00000000000E+00 0.  1.
         25    2    1    2    0    0 -0.22791724258E+02  0.10254059687E+02 -0.31478150937E+02  0.13130161793E+03  0.12499852979E+03 0.  0.
          5    1    3    3  501    0  0.65570752184E+00 -0.78288845065E+01 -0.76780018763E+02  0.77180973473E+02  0.10000000000E+00 0.  1.
         -5    1    3    3    0  501 -0.23447431780E+02  0.18082944194E+02  0.45301867826E+02  0.54120644456E+02  0.10000000000E+00 0.  1.
         21    1    1    2  504  502  0.22791724258E+02 -0.10254059687E+02  0.55983821589E+00  0.24998437022E+02  0.00000000000E+00 0. -1.
<mgrwt>
<rscale>  1 0.12747251E+03</rscale>
<asrwt>0</asrwt>
<pdfrwt beam="1">  1       21 0.96447494E-02 0.12747251E+03</pdfrwt>
<pdfrwt beam="2">  1       21 0.14401413E-01 0.12747251E+03</pdfrwt>
<totfact> 0.36085132E+06</totfact>
</mgrwt>
</event>
<event>
 6    1  0.4216855E-002  0.1273178E+03  0.7546771E-02  0.1231491E+00
         21   -1    0    0  504  502  0.00000000000E+00  0.00000000000E+00  0.87301669331E+02  0.87301669331E+02  0.00000000000E+00 0.  1.
         21   -1    0    0  502  503 -0.00000000000E+00 -0.00000000000E+00 -0.66824140678E+02  0.66824140678E+02  0.00000000000E+00 0.  1.
         25    2    1    2    0    0  0.23003781717E+02 -0.74604479321E+01  0.24375920418E+02  0.12963030603E+03  0.12499999396E+03 0.  0.
          5    1    3    3  501    0  0.16115915489E+02  0.53284254894E+02  0.37477432116E+02  0.67108140114E+02  0.10000000000E+00 0.  1.
         -5    1    3    3    0  501  0.68878662272E+01 -0.60744702826E+02 -0.13101511698E+02  0.62522165920E+02  0.10000000000E+00 0.  1.
         21    1    1    2  504  503 -0.23003781717E+02  0.74604479321E+01 -0.38983917649E+01  0.24495503974E+02  0.00000000000E+00 0.  1.
<mgrwt>
<rscale>  1 0.12731783E+03</rscale>
<asrwt>0</asrwt>
<pdfrwt beam="1">  1       21 0.13431026E-01 0.12731783E+03</pdfrwt>
<pdfrwt beam="2">  1       21 0.10280637E-01 0.12731783E+03</pdfrwt>
<totfact> 0.36567887E+06</totfact>
</mgrwt>
</event>
<event>
 6    1  0.4216855E-002  0.1365278E+03  0.7546771E-02  0.1218079E+00
         21   -1    0    0  503  502  0.00000000000E+00  0.00000000000E+00  0.13882069534E+03  0.13882069534E+03  0.00000000000E+00 0. -1.
         21   -1    0    0  504  503 -0.00000000000E+00 -0.00000000000E+00 -0.69432425656E+02  0.69432425656E+02  0.00000000000E+00 0. -1.
         25    2    1    2    0    0 -0.54826627718E+02 -0.28557764299E+01  0.69832016447E+02  0.15335037537E+03  0.12500285012E+03 0.  0.
          5    1    3    3  501    0 -0.81803539971E+02 -0.28853403792E+02  0.76065318549E+02  0.11537019003E+03  0.10000000000E+00 0. -1.
         -5    1    3    3    0  501  0.26976912253E+02  0.25997627362E+02 -0.62333021023E+01  0.37980185338E+02  0.10000000000E+00 0. -1.
         21    1    1    2  504  502  0.54826627718E+02  0.28557764299E+01 -0.44374676388E+00  0.54902745625E+02  0.00000000000E+00 0. -1.
<mgrwt>
<rscale>  1 0.13652775E+03</rscale>
<asrwt>0</asrwt>
<pdfrwt beam="1">  1       21 0.21357030E-01 0.13652775E+03</pdfrwt>
<pdfrwt beam="2">  1       21 0.10681912E-01 0.13652775E+03</pdfrwt>
<totfact> 0.14709728E+06</totfact>
</mgrwt>
</event>
<event>
 6    1  0.4216855E-002  0.1267973E+03  0.7546771E-02  0.1232287E+00
         21   -1    0    0  504  502  0.00000000000E+00  0.00000000000E+00  0.10226054965E+02  0.10226054965E+02  0.00000000000E+00 0. -1.
         21   -1    0    0  502  503 -0.00000000000E+00 -0.00000000000E+00 -0.54071255111E+03  0.54071255111E+03  0.00000000000E+00 0. -1.
         25    2    1    2    0    0  0.21200273790E+02  0.32294148388E+01 -0.43697539431E+03  0.45500004816E+03  0.12497066801E+03 0.  0.
          5    1    3    3  501    0  0.62977108733E+02  0.25484944571E+02 -0.15725886762E+03  0.17130662587E+03  0.10000000000E+00 0.  1.
         -5    1    3    3    0  501 -0.41776834943E+02 -0.22255529732E+02 -0.27971652669E+03  0.28369342228E+03  0.10000000000E+00 0.  1.
         21    1    1    2  504  503 -0.21200273790E+02 -0.32294148388E+01 -0.93511101835E+02  0.95938557918E+02  0.00000000000E+00 0. -1.
<mgrwt>
<rscale>  1 0.12679727E+03</rscale>
<asrwt>0</asrwt>
<pdfrwt beam="1">  1       21 0.15732390E-02 0.12679727E+03</pdfrwt>
<pdfrwt beam="2">  1       21 0.83186557E-01 0.12679727E+03</pdfrwt>
<totfact> 0.22780350E+06</totfact>
</mgrwt>
</event>
<event>
 6    1  0.4216855E-002  0.1278799E+03  0.7546771E-02  0.1230636E+00
         21   -1    0    0  503  502  0.00000000000E+00  0.00000000000E+00  0.45319134789E+02  0.45319134789E+02  0.00000000000E+00 0.  1.
         21   -1    0    0  504  503 -0.00000000000E+00 -0.00000000000E+00 -0.20161346679E+03  0.20161346679E+03  0.00000000000E+00 0.  1.
         25    2    1    2    0    0  0.23597816676E+02  0.13070072272E+02 -0.17305254802E+03  0.21517537334E+03  0.12500229267E+03 0.  0.
          5    1    3    3  501    0  0.18513891484E+02 -0.13266304784E+02  0.13651561991E+02  0.26554362453E+02  0.10000000000E+00 0.  1.
         -5    1    3    3    0  501  0.50839251914E+01  0.26336377056E+02 -0.18670411001E+03  0.18862101089E+03  0.10000000000E+00 0.  1.
         21    1    1    2  504  502 -0.23597816676E+02 -0.13070072272E+02  0.16758216024E+02  0.31757228238E+02  0.00000000000E+00 0.  1.
<mgrwt>
<rscale>  1 0.12787985E+03</rscale>
<asrwt>0</asrwt>
<pdfrwt beam="1">  1       21 0.69721746E-02 0.12787985E+03</pdfrwt>
<pdfrwt beam="2">  1       21 0.31017456E-01 0.12787985E+03</pdfrwt>
<totfact> 0.15162310E+06</totfact>
</mgrwt>
</event>
<event>
 6    1  0.4216855E-002  0.1263700E+03  0.7546771E-02  0.1232944E+00
         21   -1    0    0  504  502  0.00000000000E+00  0.00000000000E+00  0.22069624990E+02  0.22069624990E+02  0.00000000000E+00 0.  1.
         21   -1    0    0  502  503 -0.00000000000E+00 -0.00000000000E+00 -0.24788257996E+03  0.24788257996E+03  0.00000000000E+00 0.  1.
         25    2    1    2    0    0 -0.13058553870E+02  0.13167422066E+02 -0.21208444066E+03  0.24687886670E+03  0.12500183205E+03 0.  0.
          5    1    3    3  501    0 -0.90349639378E+01  0.61123229436E+02 -0.17657085567E+03  0.18706939040E+03  0.10000000000E+00 0.  1.
         -5    1    3    3    0  501 -0.40235899327E+01 -0.47955807370E+02 -0.35513584989E+02  0.59809476300E+02  0.10000000000E+00 0.  1.
         21    1    1    2  504  503  0.13058553870E+02 -0.13167422066E+02 -0.13728514304E+02  0.23073338251E+02  0.00000000000E+00 0.  1.
<mgrwt>
<rscale>  1 0.12636995E+03</rscale>
<asrwt>0</asrwt>
<pdfrwt beam="1">  1       21 0.33953268E-02 0.12636995E+03</pdfrwt>
<pdfrwt beam="2">  1       21 0.38135783E-01 0.12636995E+03</pdfrwt>
<totfact> 0.33800896E+06</totfact>
</mgrwt>
</event>
<event>
 6    1  0.4216855E-002  0.1272331E+03  0.7546771E-02  0.1231620E+00
         21   -1    0    0  503  502  0.00000000000E+00  0.00000000000E+00  0.14579496821E+02  0.14579496821E+02  0.00000000000E+00 0.  1.
         21   -1    0    0  504  503 -0.00000000000E+00 -0.00000000000E+00 -0.40430237642E+03  0.40430237642E+03  0.00000000000E+00 0.  1.
         25    2    1    2    0    0  0.42870430783E+01  0.23345037757E+02 -0.35225288421E+03  0.37452682752E+03  0.12499952229E+03 0.  0.
          5    1    3    3  501    0 -0.60036217864E+02  0.54087905579E+01 -0.15730080337E+03  0.16845520239E+03  0.10000000000E+00 0. -1.
         -5    1    3    3    0  501  0.64323260942E+02  0.17936247199E+02 -0.19495208084E+03  0.20607162513E+03  0.10000000000E+00 0. -1.
         21    1    1    2  504  502 -0.42870430783E+01 -0.23345037757E+02 -0.37469995390E+02  0.44355045719E+02  0.00000000000E+00 0. -1.
<mgrwt>
<rscale>  1 0.12723305E+03</rscale>
<asrwt>0</asrwt>
<pdfrwt beam="1">  1       21 0.22429995E-02 0.12723305E+03</pdfrwt>
<pdfrwt beam="2">  1       21 0.62200367E-01 0.12723305E+03</pdfrwt>
<totfact> 0.24339892E+06</totfact>
</mgrwt>
</event>
<event>
 6    1  0.4216855E-002  0.1602992E+03  0.7546771E-02  0.1188359E+00
         21   -1    0    0  503  502  0.00000000000E+00  0.00000000000E+00  0.37303408239E+02  0.37303408239E+02  0.00000000000E+00 0. -1.
         21   -1    0    0  504  503 -0.00000000000E+00 -0.00000000000E+00 -0.64453525558E+03  0.64453525558E+03  0.00000000000E+00 0. -1.
         25    2    1    2    0    0  0.96387996387E+02 -0.27941361193E+02 -0.53417094967E+03  0.55770462223E+03  0.12499790667E+03 0.  0.
          5    1    3    3  501    0  0.73083200486E+02  0.79513787918E+01 -0.49255631115E+03  0.49801215676E+03  0.10000000000E+00 0.  1.
         -5    1    3    3    0  501  0.23304795901E+02 -0.35892739984E+02 -0.41614638516E+02  0.59692465474E+02  0.10000000000E+00 0.  1.
         21    1    1    2  504  502 -0.96387996387E+02  0.27941361193E+02 -0.73060897669E+02  0.12413404159E+03  0.00000000000E+00 0. -1.
<mgrwt>
<rscale>  1 0.16029923E+03</rscale>
<asrwt>0</asrwt>
<pdfrwt beam="1">  1       21 0.57389861E-02 0.16029923E+03</pdfrwt>
<pdfrwt beam="2">  1       21 0.99159266E-01 0.16029923E+03</pdfrwt>
<totfact> 0.18022517E+05</totfact>
</mgrwt>
</event>
<event>
 6    1  0.4216855E-002  0.1269479E+03  0.7546771E-02  0.1232056E+00
         21   -1    0    0  504  502  0.00000000000E+00  0.00000000000E+00  0.40687749883E+02  0.40687749883E+02  0.00000000000E+00 0.  1.
         21   -1    0    0  502  503 -0.00000000000E+00 -0.00000000000E+00 -0.15214476110E+03  0.15214476110E+03  0.00000000000E+00 0.  1.
         25    2    1    2    0    0 -0.17042430776E+02  0.14154283154E+02 -0.11388653820E+03  0.17054595047E+03  0.12499995784E+03 0.  0.
          5    1    3    3  501    0 -0.15799245054E+02  0.15479472233E+02  0.24005409155E+02  0.32641995552E+02  0.10000000000E+00 0.  1.
         -5    1    3    3    0  501 -0.12431857211E+01 -0.13251890797E+01 -0.13789194735E+03  0.13790395492E+03  0.10000000000E+00 0.  1.
         21    1    1    2  504  503  0.17042430776E+02 -0.14154283154E+02  0.24295269789E+01  0.22286560517E+02  0.00000000000E+00 0.  1.
<mgrwt>
<rscale>  1 0.12694793E+03</rscale>
<asrwt>0</asrwt>
<pdfrwt beam="1">  1       21 0.62596540E-02 0.12694793E+03</pdfrwt>
<pdfrwt beam="2">  1       21 0.23406886E-01 0.12694793E+03</pdfrwt>
<totfact> 0.31146146E+06</totfact>
</mgrwt>
</event>
<event>
 6    1  0.4216855E-002  0.1415378E+03  0.7546771E-02  0.1211275E+00
         21   -1    0    0  504  502  0.00000000000E+00  0.00000000000E+00  0.23797709319E+02  0.23797709319E+02  0.00000000000E+00 0. -1.
         21   -1    0    0  502  503 -0.00000000000E+00 -0.00000000000E+00 -0.70981164947E+03  0.70981164947E+03  0.00000000000E+00 0. -1.
         25    2    1    2    0    0 -0.60110876121E+02 -0.28199343061E+02 -0.63303932346E+03  0.64866920108E+03  0.12499770804E+03 0.  0.
          5    1    3    3  501    0 -0.83319254506E+02  0.21824186261E+02 -0.40494576587E+03  0.41400419874E+03  0.10000000000E+00 0. -1.
         -5    1    3    3    0  501  0.23208378384E+02 -0.50023529322E+02 -0.22809355759E+03  0.23466500235E+03  0.10000000000E+00 0. -1.
         21    1    1    2  504  503  0.60110876121E+02  0.28199343061E+02 -0.52974616693E+02  0.84940157705E+02  0.00000000000E+00 0. -1.
<mgrwt>
<rscale>  1 0.14153779E+03</rscale>
<asrwt>0</asrwt>
<pdfrwt beam="1">  1       21 0.36611858E-02 0.14153779E+03</pdfrwt>
<pdfrwt beam="2">  1       21 0.10920180E+00 0.14153779E+03</pdfrwt>
<totfact> 0.30630348E+05</totfact>
</mgrwt>
</event>
<event>
 6    1  0.4216855E-002  0.1280047E+03  0.7546771E-02  0.1230447E+00
         21   -1    0    0  504  502  0.00000000000E+00  0.00000000000E+00  0.34423560554E+03  0.34423560554E+03  0.00000000000E+00 0. -1.
         21   -1    0    0  502  503 -0.00000000000E+00 -0.00000000000E+00 -0.49615733029E+02  0.49615733029E+02  0.00000000000E+00 0.  1.
         25    2    1    2    0    0  0.24327937219E+02 -0.12776779097E+02  0.34893482967E+02  0.13267535951E+03  0.12502040335E+03 0.  0.
          5    1    3    3  501    0  0.46402501969E+02  0.45500234755E+02  0.10888882250E+02  0.65894167484E+02  0.10000000000E+00 0. -1.
         -5    1    3    3    0  501 -0.22074564750E+02 -0.58277013852E+02  0.24004600717E+02  0.66781192022E+02  0.10000000000E+00 0. -1.
         21    1    1    2  504  503 -0.24327937219E+02  0.12776779097E+02  0.25972638955E+03  0.26117597907E+03  0.00000000000E+00 0. -1.
<mgrwt>
<rscale>  1 0.12800467E+03</rscale>
<asrwt>0</asrwt>
<pdfrwt beam="1">  1       21 0.52959322E-01 0.12800467E+03</pdfrwt>
<pdfrwt beam="2">  1       21 0.76331899E-02 0.12800467E+03</pdfrwt>
<totfact> 0.44433928E+05</totfact>
</mgrwt>
</event>
<event>
 6    1  0.4216855E-002  0.1271832E+03  0.7546771E-02  0.1231696E+00
         21   -1    0    0  503  502  0.00000000000E+00  0.00000000000E+00  0.31143999287E+03  0.31143999287E+03  0.00000000000E+00 0.  1.
         21   -1    0    0  504  503 -0.00000000000E+00 -0.00000000000E+00 -0.19099215864E+02  0.19099215864E+02  0.00000000000E+00 0.  1.
         25    2    1    2    0    0  0.21758591043E+02 -0.88078428411E+01  0.21590692807E+03  0.25058204743E+03  0.12499818610E+03 0.  0.
          5    1    3    3  501    0  0.74949208923E+01 -0.93825849180E+00  0.22934167909E+03  0.22946605399E+03  0.10000000000E+00 0.  1.
         -5    1    3    3    0  501  0.14263670151E+02 -0.78695843493E+01 -0.13434751021E+02  0.21115993441E+02  0.10000000000E+00 0.  1.
         21    1    1    2  504  502 -0.21758591043E+02  0.88078428411E+01  0.76433848935E+02  0.79957161298E+02  0.00000000000E+00 0.  1.
<mgrwt>
<rscale>  1 0.12718318E+03</rscale>
<asrwt>0</asrwt>
<pdfrwt beam="1">  1       21 0.47913841E-01 0.12718318E+03</pdfrwt>
<pdfrwt beam="2">  1       21 0.29383411E-02 0.12718318E+03</pdfrwt>
<totfact> 0.27056198E+06</totfact>
</mgrwt>
</event>
<event>
 6    1  0.4216855E-002  0.1294772E+03  0.7546771E-02  0.1228233E+00
         21   -1    0    0  503  502  0.00000000000E+00  0.00000000000E+00  0.13720054357E+03  0.13720054357E+03  0.00000000000E+00 0. -1.
         21   -1    0    0  504  503 -0.00000000000E+00 -0.00000000000E+00 -0.75485035978E+02  0.75485035978E+02  0.00000000000E+00 0. -1.
         25    2    1    2    0    0 -0.24694073213E+02 -0.23049219670E+02 -0.13552959126E+02  0.13018463494E+03  0.12499317059E+03 0.  0.
          5    1    3    3  501    0  0.21157032802E+02  0.30761564660E+01 -0.57603857851E+02  0.61443447290E+02  0.10000000000E+00 0.  1.
         -5    1    3    3    0  501 -0.45851106015E+02 -0.26125376136E+02  0.44050898725E+02  0.68741187650E+02  0.10000000000E+00 0.  1.
         21    1    1    2  504  502  0.24694073213E+02  0.23049219670E+02  0.75268466715E+02  0.82500944606E+02  0.00000000000E+00 0. -1.
<mgrwt>
<rscale>  1 0.12947724E+03</rscale>
<asrwt>0</asrwt>
<pdfrwt beam="1">  1       21 0.21107776E-01 0.12947724E+03</pdfrwt>
<pdfrwt beam="2">  1       21 0.11613083E-01 0.12947724E+03</pdfrwt>
<totfact> 0.12963166E+06</totfact>
</mgrwt>
</event>
<event>
 6    1  0.4216855E-002  0.1307029E+03  0.7546771E-02  0.1226416E+00
         21   -1    0    0  503  502  0.00000000000E+00  0.00000000000E+00  0.24602004227E+03  0.24602004227E+03  0.00000000000E+00 0.  1.
         21   -1    0    0  504  503 -0.00000000000E+00 -0.00000000000E+00 -0.29155242109E+02  0.29155242109E+02  0.00000000000E+00 0.  1.
         25    2    1    2    0    0  0.54782716569E+01  0.37680636835E+02  0.17724123000E+03  0.22022194813E+03  0.12503363937E+03 0.  0.
          5    1    3    3  501    0  0.25284919329E+01  0.82933755079E+02  0.93628076928E+02  0.12510246917E+03  0.10000000000E+00 0.  1.
         -5    1    3    3    0  501  0.29497797241E+01 -0.45253118244E+02  0.83613153069E+02  0.95119478959E+02  0.10000000000E+00 0.  1.
         21    1    1    2  504  502 -0.54782716569E+01 -0.37680636835E+02  0.39623570162E+02  0.54953336250E+02  0.00000000000E+00 0.  1.
<mgrwt>
<rscale>  1 0.13070292E+03</rscale>
<asrwt>0</asrwt>
<pdfrwt beam="1">  1       21 0.37849236E-01 0.13070292E+03</pdfrwt>
<pdfrwt beam="2">  1       21 0.44854220E-02 0.13070292E+03</pdfrwt>
<totfact> 0.21641103E+06</totfact>
</mgrwt>
</event>
<event>
 6    1  0.4216855E-002  0.1774013E+03  0.7546771E-02  0.1170342E+00
         21   -1    0    0  504  502  0.00000000000E+00  0.00000000000E+00  0.20649672805E+03  0.20649672805E+03  0.00000000000E+00 0.  1.
         21   -1    0    0  502  503 -0.00000000000E+00 -0.00000000000E+00 -0.34759382746E+03  0.34759382746E+03  0.00000000000E+00 0.  1.
         25    2    1    2    0    0  0.11039416034E+03  0.60487389166E+02 -0.30172600538E+03  0.35001400048E+03  0.12500249326E+03 0.  0.
          5    1    3    3  501    0  0.95353445579E+02  0.21357730550E+02 -0.29067625451E+03  0.30666125802E+03  0.10000000000E+00 0.  1.
         -5    1    3    3    0  501  0.15040714757E+02  0.39129658615E+02 -0.11049750872E+02  0.43352742452E+02  0.10000000000E+00 0.  1.
         21    1    1    2  504  503 -0.11039416034E+03 -0.60487389166E+02  0.16062890596E+03  0.20407655503E+03  0.00000000000E+00 0.  1.
<mgrwt>
<rscale>  1 0.17740129E+03</rscale>
<asrwt>0</asrwt>
<pdfrwt beam="1">  1       21 0.31768728E-01 0.17740129E+03</pdfrwt>
<pdfrwt beam="2">  1       21 0.53475973E-01 0.17740129E+03</pdfrwt>
<totfact> 0.31791327E+04</totfact>
</mgrwt>
</event>
<event>
 6    1  0.4216855E-002  0.1297163E+03  0.7546771E-02  0.1227877E+00
         21   -1    0    0  503  502  0.00000000000E+00  0.00000000000E+00  0.18506486947E+03  0.18506486947E+03  0.00000000000E+00 0. -1.
         21   -1    0    0  504  503 -0.00000000000E+00 -0.00000000000E+00 -0.26566175910E+03  0.26566175910E+03  0.00000000000E+00 0.  1.
         25    2    1    2    0    0  0.30187676884E+02  0.17054690641E+02 -0.24794374436E+03  0.27982569792E+03  0.12499665011E+03 0.  0.
          5    1    3    3  501    0  0.15699695032E+02  0.32940048118E+02 -0.25469095388E+03  0.25729170057E+03  0.10000000000E+00 0.  1.
         -5    1    3    3    0  501  0.14487981853E+02 -0.15885357477E+02  0.67472095169E+01  0.22533997351E+02  0.10000000000E+00 0.  1.
         21    1    1    2  504  502 -0.30187676884E+02 -0.17054690641E+02  0.16734685474E+03  0.17090093065E+03  0.00000000000E+00 0. -1.
<mgrwt>
<rscale>  1 0.12971631E+03</rscale>
<asrwt>0</asrwt>
<pdfrwt beam="1">  1       21 0.28471518E-01 0.12971631E+03</pdfrwt>
<pdfrwt beam="2">  1       21 0.40871040E-01 0.12971631E+03</pdfrwt>
<totfact> 0.69949321E+04</totfact>
</mgrwt>
</event>
<event>
 6    1  0.4216855E-002  0.1259446E+03  0.7546771E-02  0.1233600E+00
         21   -1    0    0  503  502  0.00000000000E+00  0.00000000000E+00  0.27432585535E+02  0.27432585535E+02  0.00000000000E+00 0.  1.
         21   -1    0    0  504  503 -0.00000000000E+00 -0.00000000000E+00 -0.19482553372E+03  0.19482553372E+03  0.00000000000E+00 0.  1.
         25    2    1    2    0    0  0.13117397360E+02  0.79340167395E+01 -0.16360475052E+03  0.20646681859E+03  0.12500807194E+03 0.  0.
          5    1    3    3  501    0  0.12695811745E+02  0.41027977793E+02 -0.16770511096E+03  0.17311699177E+03  0.10000000000E+00 0.  1.
         -5    1    3    3    0  501  0.42158561418E+00 -0.33093961054E+02  0.41003604461E+01  0.33349826813E+02  0.10000000000E+00 0.  1.
         21    1    1    2  504  502 -0.13117397360E+02 -0.79340167395E+01 -0.37881976642E+01  0.15791300664E+02  0.00000000000E+00 0.  1.
<mgrwt>
<rscale>  1 0.12594456E+03</rscale>
<asrwt>0</asrwt>
<pdfrwt beam="1">  1       21 0.42203976E-02 0.12594456E+03</pdfrwt>
<pdfrwt beam="2">  1       21 0.29973160E-01 0.12594456E+03</pdfrwt>
<totfact> 0.37752254E+06</totfact>
</mgrwt>
</event>
<event>
 6    1  0.4216855E-002  0.1271258E+03  0.7546771E-02  0.1231784E+00
         21   -1    0    0  503  502  0.00000000000E+00  0.00000000000E+00  0.55598295302E+02  0.55598295302E+02  0.00000000000E+00 0. -1.
         21   -1    0    0  504  503 -0.00000000000E+00 -0.00000000000E+00 -0.10329925407E+03  0.10329925407E+03  0.00000000000E+00 0. -1.
         25    2    1    2    0    0 -0.17044762095E+02 -0.15672128875E+02 -0.47593006949E+02  0.13574261054E+03  0.12499928987E+03 0.  0.
          5    1    3    3  501    0 -0.32759924032E+02  0.18008283151E+02  0.31155531626E+02  0.48664032257E+02  0.10000000000E+00 0.  1.
         -5    1    3    3    0  501  0.15715161937E+02 -0.33680412025E+02 -0.78748538574E+02  0.87078578287E+02  0.10000000000E+00 0.  1.
         21    1    1    2  504  502  0.17044762095E+02  0.15672128875E+02 -0.10795181521E+00  0.23154938824E+02  0.00000000000E+00 0. -1.
<mgrwt>
<rscale>  1 0.12712577E+03</rscale>
<asrwt>0</asrwt>
<pdfrwt beam="1">  1       21 0.85535839E-02 0.12712577E+03</pdfrwt>
<pdfrwt beam="2">  1       21 0.15892193E-01 0.12712577E+03</pdfrwt>
<totfact> 0.37216356E+06</totfact>
</mgrwt>
</event>
<event>
 6    1  0.4216855E-002  0.1609042E+03  0.7546771E-02  0.1187680E+00
         21   -1    0    0  504  502  0.00000000000E+00  0.00000000000E+00  0.10165007936E+04  0.10165007936E+04  0.00000000000E+00 0.  1.
         21   -1    0    0  502  503 -0.00000000000E+00 -0.00000000000E+00 -0.64531838555E+02  0.64531838555E+02  0.00000000000E+00 0. -1.
         25    2    1    2    0    0 -0.98409869705E+02 -0.24131669100E+02  0.43159354544E+02  0.16659196712E+03  0.12499325468E+03 0.  0.
          5    1    3    3  501    0 -0.11305538524E+03 -0.20755318508E+01  0.66600092081E+02  0.13123037083E+03  0.10000000000E+00 0. -1.
         -5    1    3    3    0  501  0.14645515532E+02 -0.22056137250E+02 -0.23440737537E+02  0.35361596286E+02  0.10000000000E+00 0. -1.
         21    1    1    2  504  503  0.98409869705E+02  0.24131669100E+02  0.90880960054E+03  0.91444066507E+03  0.00000000000E+00 0.  1.
<mgrwt>
<rscale>  1 0.16090418E+03</rscale>
<asrwt>0</asrwt>
<pdfrwt beam="1">  1       21 0.15638473E+00 0.16090418E+03</pdfrwt>
<pdfrwt beam="2">  1       21 0.99279759E-02 0.16090418E+03</pdfrwt>
<totfact> 0.22494023E+04</totfact>
</mgrwt>
</event>
<event>
 6    1  0.4216855E-002  0.1265954E+03  0.7546771E-02  0.1232597E+00
         21   -1    0    0  503  502  0.00000000000E+00  0.00000000000E+00  0.61575989568E+02  0.61575989568E+02  0.00000000000E+00 0. -1.
         21   -1    0    0  504  503 -0.00000000000E+00 -0.00000000000E+00 -0.91874048623E+02  0.91874048623E+02  0.00000000000E+00 0. -1.
         25    2    1    2    0    0  0.28551307970E+01 -0.19853590382E+02 -0.37668818684E+02  0.13208078644E+03  0.12499630963E+03 0.  0.
          5    1    3    3  501    0  0.39915556615E+02  0.16638019504E+02  0.25540836137E+02  0.50223696235E+02  0.10000000000E+00 0.  1.
         -5    1    3    3    0  501 -0.37060425818E+02 -0.36491609887E+02 -0.63209654822E+02  0.81857090204E+02  0.10000000000E+00 0.  1.
         21    1    1    2  504  502 -0.28551307970E+01  0.19853590382E+02  0.73707596293E+01  0.21369251752E+02  0.00000000000E+00 0. -1.
<mgrwt>
<rscale>  1 0.12659540E+03</rscale>
<asrwt>0</asrwt>
<pdfrwt beam="1">  1       21 0.94732292E-02 0.12659540E+03</pdfrwt>
<pdfrwt beam="2">  1       21 0.14134469E-01 0.12659540E+03</pdfrwt>
<totfact> 0.38491499E+06</totfact>
</mgrwt>
</event>
<event>
 6    1  0.4216855E-002  0.1268679E+03  0.7546771E-02  0.1232179E+00
         21   -1    0    0  503  502  0.00000000000E+00  0.00000000000E+00  0.19373179343E+03  0.19373179343E+03  0.00000000000E+00 0. -1.
         21   -1    0    0  504  503 -0.00000000000E+00 -0.00000000000E+00 -0.93776819846E+02  0.93776819846E+02  0.00000000000E+00 0. -1.
         25    2    1    2    0    0  0.14866020429E+02 -0.15742718331E+02 -0.49729457505E+02  0.13626622288E+03  0.12500653107E+03 0.  0.
          5    1    3    3  501    0 -0.44362061060E+02  0.76526710735E+01  0.13021290080E+02  0.46862776607E+02  0.10000000000E+00 0. -1.
         -5    1    3    3    0  501  0.59228081488E+02 -0.23395389405E+02 -0.62750747584E+02  0.89403446268E+02  0.10000000000E+00 0. -1.
         21    1    1    2  504  502 -0.14866020429E+02  0.15742718331E+02  0.14968443109E+03  0.15124239040E+03  0.00000000000E+00 0. -1.
<mgrwt>
<rscale>  1 0.12686790E+03</rscale>
<asrwt>0</asrwt>
<pdfrwt beam="1">  1       21 0.29804891E-01 0.12686790E+03</pdfrwt>
<pdfrwt beam="2">  1       21 0.14427203E-01 0.12686790E+03</pdfrwt>
<totfact> 0.45859254E+05</totfact>
</mgrwt>
</event>
<event>
 6    1  0.4216855E-002  0.1301396E+03  0.7546771E-02  0.1227249E+00
         21   -1    0    0  504  502  0.00000000000E+00  0.00000000000E+00  0.95485378275E+02  0.95485378275E+02  0.00000000000E+00 0.  1.
         21   -1    0    0  502  503 -0.00000000000E+00 -0.00000000000E+00 -0.10542442763E+03  0.10542442763E+03  0.00000000000E+00 0.  1.
         25    2    1    2    0    0 -0.18763386248E+02  0.30957775169E+02 -0.56547901217E+02  0.14189426914E+03  0.12500347986E+03 0.  0.
          5    1    3    3  501    0 -0.32217915656E+02 -0.27578780748E+02 -0.68583983641E+02  0.80637187754E+02  0.10000000000E+00 0.  1.
         -5    1    3    3    0  501  0.13454529408E+02  0.58536555916E+02  0.12036082424E+02  0.61257081389E+02  0.10000000000E+00 0.  1.
         21    1    1    2  504  503  0.18763386248E+02 -0.30957775169E+02  0.46608851865E+02  0.59015536760E+02  0.00000000000E+00 0.  1.
<mgrwt>
<rscale>  1 0.13013961E+03</rscale>
<asrwt>0</asrwt>
<pdfrwt beam="1">  1       21 0.14690058E-01 0.13013961E+03</pdfrwt>
<pdfrwt beam="2">  1       21 0.16219143E-01 0.13013961E+03</pdfrwt>
<totfact> 0.13827894E+06</totfact>
</mgrwt>
</event>
<event>
 6    1  0.4216855E-002  0.1310673E+03  0.7546771E-02  0.1225881E+00
         21   -1    0    0  504  502  0.00000000000E+00  0.00000000000E+00  0.39045492348E+03  0.39045492348E+03  0.00000000000E+00 0.  1.
         21   -1    0    0  502  503 -0.00000000000E+00 -0.00000000000E+00 -0.23432828346E+02  0.23432828346E+02  0.00000000000E+00 0.  1.
         25    2    1    2    0    0  0.31795886452E+02 -0.23313908932E+02  0.17945899173E+03  0.22222545897E+03  0.12499643257E+03 0.  0.
          5    1    3    3  501    0  0.53708668153E+02  0.29962406519E+02  0.45801715194E+02  0.76682292310E+02  0.10000000000E+00 0.  1.
         -5    1    3    3    0  501 -0.21912781701E+02 -0.53276315451E+02  0.13365727654E+03  0.14554316666E+03  0.10000000000E+00 0.  1.
         21    1    1    2  504  503 -0.31795886452E+02  0.23313908932E+02  0.18756310340E+03  0.19166229286E+03  0.00000000000E+00 0.  1.
<mgrwt>
<rscale>  1 0.13106725E+03</rscale>
<asrwt>0</asrwt>
<pdfrwt beam="1">  1       21 0.60069984E-01 0.13106725E+03</pdfrwt>
<pdfrwt beam="2">  1       21 0.36050508E-02 0.13106725E+03</pdfrwt>
<totfact> 0.12065226E+06</totfact>
</mgrwt>
</event>
<event>
 6    1  0.4216855E-002  0.1264106E+03  0.7546771E-02  0.1232881E+00
         21   -1    0    0  503  502  0.00000000000E+00  0.00000000000E+00  0.80757705952E+03  0.80757705952E+03  0.00000000000E+00 0. -1.
         21   -1    0    0  504  503 -0.00000000000E+00 -0.00000000000E+00 -0.21575364331E+03  0.21575364331E+03  0.00000000000E+00 0. -1.
         25    2    1    2    0    0 -0.16798263918E+02 -0.85296676482E+01 -0.19711546414E+03  0.23416690879E+03  0.12499879227E+03 0.  0.
          5    1    3    3  501    0 -0.40151024379E+00 -0.64463348180E+02 -0.75304056116E+02  0.99128176300E+02  0.10000000000E+00 0.  1.
         -5    1    3    3    0  501 -0.16396753674E+02  0.55933680531E+02 -0.12181140802E+03  0.13503873249E+03  0.10000000000E+00 0.  1.
         21    1    1    2  504  502  0.16798263918E+02  0.85296676482E+01  0.78893888034E+03  0.78916379403E+03  0.00000000000E+00 0. -1.
<mgrwt>
<rscale>  1 0.12641058E+03</rscale>
<asrwt>0</asrwt>
<pdfrwt beam="1">  1       21 0.12424262E+00 0.12641058E+03</pdfrwt>
<pdfrwt beam="2">  1       21 0.33192869E-01 0.12641058E+03</pdfrwt>
<totfact> 0.45084402E+03</totfact>
</mgrwt>
</event>
<event>
 6    1  0.4216855E-002  0.1310009E+03  0.7546771E-02  0.1225978E+00
         21   -1    0    0  503  502  0.00000000000E+00  0.00000000000E+00  0.24172272051E+02  0.24172272051E+02  0.00000000000E+00 0.  1.
         21   -1    0    0  504  503 -0.00000000000E+00 -0.00000000000E+00 -0.35891925201E+03  0.35891925201E+03  0.00000000000E+00 0.  1.
         25    2    1    2    0    0  0.28179847418E+02  0.27241015128E+02 -0.31049989252E+03  0.33700358686E+03  0.12500023039E+03 0.  0.
          5    1    3    3  501    0 -0.25835947187E+02  0.29432354964E+02 -0.26030095412E+03  0.26323061449E+03  0.10000000000E+00 0. -1.
         -5    1    3    3    0  501  0.54015794605E+02 -0.21913398366E+01 -0.50198938399E+02  0.73772972378E+02  0.10000000000E+00 0. -1.
         21    1    1    2  504  502 -0.28179847418E+02 -0.27241015128E+02 -0.24247087434E+02  0.46087937193E+02  0.00000000000E+00 0.  1.
<mgrwt>
<rscale>  1 0.13100089E+03</rscale>
<asrwt>0</asrwt>
<pdfrwt beam="1">  1       21 0.37188113E-02 0.13100089E+03</pdfrwt>
<pdfrwt beam="2">  1       21 0.55218343E-01 0.13100089E+03</pdfrwt>
<totfact> 0.13689307E+06</totfact>
</mgrwt>
</event>
<event>
 6    1  0.4216855E-002  0.1296316E+03  0.7546771E-02  0.1228003E+00
         21   -1    0    0  504  502  0.00000000000E+00  0.00000000000E+00  0.72948455458E+03  0.72948455458E+03  0.00000000000E+00 0. -1.
         21   -1    0    0  502  503 -0.00000000000E+00 -0.00000000000E+00 -0.12395340826E+02  0.12395340826E+02  0.00000000000E+00 0. -1.
         25    2    1    2    0    0 -0.34281014365E+02 -0.20201592937E+01  0.35081459062E+03  0.37399897916E+03  0.12500036171E+03 0.  0.
          5    1    3    3  501    0 -0.21687499082E+02  0.29655458044E+02  0.20780871601E+02  0.42209577500E+02  0.10000000000E+00 0. -1.
         -5    1    3    3    0  501 -0.12593515282E+02 -0.31675617338E+02  0.33003371902E+03  0.33178940166E+03  0.10000000000E+00 0. -1.
         21    1    1    2  504  503  0.34281014365E+02  0.20201592937E+01  0.36627462313E+03  0.36788091624E+03  0.00000000000E+00 0. -1.
<mgrwt>
<rscale>  1 0.12963163E+03</rscale>
<asrwt>0</asrwt>
<pdfrwt beam="1">  1       21 0.11222836E+00 0.12963163E+03</pdfrwt>
<pdfrwt beam="2">  1       21 0.19069761E-02 0.12963163E+03</pdfrwt>
<totfact> 0.83434116E+05</totfact>
</mgrwt>
</event>
<event>
 6    1  0.4216855E-002  0.1268551E+03  0.7546771E-02  0.1232198E+00
         21   -1    0    0  503  502  0.00000000000E+00  0.00000000000E+00  0.19547114007E+03  0.19547114007E+03  0.00000000000E+00 0. -1.
         21   -1    0    0  504  503 -0.00000000000E+00 -0.00000000000E+00 -0.63077476010E+02  0.63077476010E+02  0.00000000000E+00 0. -1.
         25    2    1    2    0    0  0.14410286440E+02  0.16124061214E+02  0.25130427753E+01  0.12688002647E+03  0.12499833610E+03 0.  0.
          5    1    3    3  501    0 -0.78882849946E+00  0.64384738178E+02 -0.25253022752E+02  0.69164600186E+02  0.10000000000E+00 0. -1.
         -5    1    3    3    0  501  0.15199114939E+02 -0.48260676964E+02  0.27766065527E+02  0.57715426281E+02  0.10000000000E+00 0. -1.
         21    1    1    2  504  502 -0.14410286440E+02 -0.16124061214E+02  0.12988062128E+03  0.13166858961E+03  0.00000000000E+00 0. -1.
<mgrwt>
<rscale>  1 0.12685514E+03</rscale>
<asrwt>0</asrwt>
<pdfrwt beam="1">  1       21 0.30072483E-01 0.12685514E+03</pdfrwt>
<pdfrwt beam="2">  1       21 0.97042272E-02 0.12685514E+03</pdfrwt>
<totfact> 0.90932160E+05</totfact>
</mgrwt>
</event>
<event>
 6    1  0.4216855E-002  0.1273105E+03  0.7546771E-02  0.1231502E+00
         21   -1    0    0  504  502  0.00000000000E+00  0.00000000000E+00  0.55062098050E+01  0.55062098050E+01  0.00000000000E+00 0.  1.
         21   -1    0    0  502  503 -0.00000000000E+00 -0.00000000000E+00 -0.13208092046E+04  0.13208092046E+04  0.00000000000E+00 0.  1.
         25    2    1    2    0    0  0.67684875452E+01  0.23222412070E+02 -0.12534840636E+04  0.12599326373E+04  0.12499143940E+03 0.  0.
          5    1    3    3  501    0  0.24773561275E+02  0.22943304008E+02 -0.12293860900E+04  0.12298497034E+04  0.10000000000E+00 0.  1.
         -5    1    3    3    0  501 -0.18005073730E+02  0.27910806246E+00 -0.24097973538E+02  0.30082933865E+02  0.10000000000E+00 0.  1.
         21    1    1    2  504  503 -0.67684875452E+01 -0.23222412070E+02 -0.61818931254E+02  0.66382777190E+02  0.00000000000E+00 0.  1.
<mgrwt>
<rscale>  1 0.12731046E+03</rscale>
<asrwt>0</asrwt>
<pdfrwt beam="1">  1       21 0.84710886E-03 0.12731046E+03</pdfrwt>
<pdfrwt beam="2">  1       21 0.20320150E+00 0.12731046E+03</pdfrwt>
<totfact> 0.64052713E+05</totfact>
</mgrwt>
</event>
<event>
 6    1  0.4216855E-002  0.1993751E+03  0.7546771E-02  0.1150267E+00
         21   -1    0    0  503  502  0.00000000000E+00  0.00000000000E+00  0.22758737848E+04  0.22758737848E+04  0.00000000000E+00 0. -1.
         21   -1    0    0  504  503 -0.00000000000E+00 -0.00000000000E+00 -0.53052480904E+02  0.53052480904E+02  0.00000000000E+00 0. -1.
         25    2    1    2    0    0 -0.14418221984E+03  0.57767611146E+02  0.14800971733E+03  0.24830887436E+03  0.12499924499E+03 0.  0.
          5    1    3    3  501    0 -0.10983276347E+03  0.58428152065E+02  0.16762563484E+03  0.20874733134E+03  0.10000000000E+00 0. -1.
         -5    1    3    3    0  501 -0.34349456365E+02 -0.66054091845E+00 -0.19615917506E+02  0.39561543025E+02  0.10000000000E+00 0. -1.
         21    1    1    2  504  502  0.14418221984E+03 -0.57767611146E+02  0.20748115865E+04  0.20806173913E+04  0.00000000000E+00 0. -1.
<mgrwt>
<rscale>  1 0.19937508E+03</rscale>
<asrwt>0</asrwt>
<pdfrwt beam="1">  1       21 0.35013435E+00 0.19937508E+03</pdfrwt>
<pdfrwt beam="2">  1       21 0.81619219E-02 0.19937508E+03</pdfrwt>
<totfact> 0.20044298E+03</totfact>
</mgrwt>
</event>
<event>
 6    1  0.4216855E-002  0.1830944E+03  0.7546771E-02  0.1164841E+00
         21   -1    0    0  503  502  0.00000000000E+00  0.00000000000E+00  0.59144347648E+02  0.59144347648E+02  0.00000000000E+00 0.  1.
         21   -1    0    0  504  503 -0.00000000000E+00 -0.00000000000E+00 -0.82216914032E+03  0.82216914032E+03  0.00000000000E+00 0.  1.
         25    2    1    2    0    0 -0.41713827941E+02 -0.12711777086E+03 -0.71672409041E+03  0.73974115261E+03  0.12499831994E+03 0.  0.
          5    1    3    3  501    0 -0.49871190150E+02  0.55340910647E+01 -0.20061287128E+03  0.20679288163E+03  0.10000000000E+00 0.  1.
         -5    1    3    3    0  501  0.81573622089E+01 -0.13265186192E+03 -0.51611121913E+03  0.53294827098E+03  0.10000000000E+00 0.  1.
         21    1    1    2  504  502  0.41713827941E+02  0.12711777086E+03 -0.46300702268E+02  0.14157233536E+03  0.00000000000E+00 0.  1.
<mgrwt>
<rscale>  1 0.18309438E+03</rscale>
<asrwt>0</asrwt>
<pdfrwt beam="1">  1       21 0.90991301E-02 0.18309438E+03</pdfrwt>
<pdfrwt beam="2">  1       21 0.12648756E+00 0.18309438E+03</pdfrwt>
<totfact> 0.44604071E+04</totfact>
</mgrwt>
</event>
<event>
 6    1  0.4216855E-002  0.1261188E+03  0.7546771E-02  0.1233331E+00
         21   -1    0    0  504  502  0.00000000000E+00  0.00000000000E+00  0.65334722799E+02  0.65334722799E+02  0.00000000000E+00 0. -1.
         21   -1    0    0  502  503 -0.00000000000E+00 -0.00000000000E+00 -0.92434994771E+02  0.92434994771E+02  0.00000000000E+00 0. -1.
         25    2    1    2    0    0  0.15834274467E+02  0.55061790091E+01 -0.44375017232E+02  0.13369776129E+03  0.12499962786E+03 0.  0.
          5    1    3    3  501    0 -0.41452059984E+02  0.30314145679E+02 -0.49155172911E+02  0.71087704486E+02  0.10000000000E+00 0.  1.
         -5    1    3    3    0  501  0.57286334450E+02 -0.24807966670E+02  0.47801556789E+01  0.62610056807E+02  0.10000000000E+00 0.  1.
         21    1    1    2  504  503 -0.15834274467E+02 -0.55061790091E+01  0.17274745260E+02  0.24071956276E+02  0.00000000000E+00 0. -1.
<mgrwt>
<rscale>  1 0.12611879E+03</rscale>
<asrwt>0</asrwt>
<pdfrwt beam="1">  1       21 0.10051496E-01 0.12611879E+03</pdfrwt>
<pdfrwt beam="2">  1       21 0.14220768E-01 0.12611879E+03</pdfrwt>
<totfact> 0.34326575E+06</totfact>
</mgrwt>
</event>
<event>
 6    1  0.4216855E-002  0.1680355E+03  0.7546771E-02  0.1179912E+00
         21   -1    0    0  503  502  0.00000000000E+00  0.00000000000E+00  0.38703571777E+03  0.38703571777E+03  0.00000000000E+00 0.  1.
         21   -1    0    0  504  503 -0.00000000000E+00 -0.00000000000E+00 -0.61328742770E+02  0.61328742770E+02  0.00000000000E+00 0.  1.
         25    2    1    2    0    0  0.46785650099E+02  0.10208964839E+03  0.98135943735E+02  0.19459336756E+03  0.12499888752E+03 0.  0.
          5    1    3    3  501    0 -0.41523888055E+02  0.20669081480E+02  0.39526690893E+02  0.60941065805E+02  0.10000000000E+00 0.  1.
         -5    1    3    3    0  501  0.88309538154E+02  0.81420566908E+02  0.58609252842E+02  0.13365230175E+03  0.10000000000E+00 0.  1.
         21    1    1    2  504  502 -0.46785650099E+02 -0.10208964839E+03  0.22757103126E+03  0.25377109298E+03  0.00000000000E+00 0.  1.
<mgrwt>
<rscale>  1 0.16803546E+03</rscale>
<asrwt>0</asrwt>
<pdfrwt beam="1">  1       21 0.59543955E-01 0.16803546E+03</pdfrwt>
<pdfrwt beam="2">  1       21 0.94351914E-02 0.16803546E+03</pdfrwt>
<totfact> 0.23842549E+05</totfact>
</mgrwt>
</event>
<event>
 6    1  0.4216855E-002  0.1493373E+03  0.7546771E-02  0.1201290E+00
         21   -1    0    0  503  502  0.00000000000E+00  0.00000000000E+00  0.31114240992E+03  0.31114240992E+03  0.00000000000E+00 0. -1.
         21   -1    0    0  504  503 -0.00000000000E+00 -0.00000000000E+00 -0.80073468008E+02  0.80073468008E+02  0.00000000000E+00 0. -1.
         25    2    1    2    0    0 -0.26740968701E+02  0.77209752650E+02  0.34518808733E+01  0.14937718833E+03  0.12500081440E+03 0.  0.
          5    1    3    3  501    0  0.27046675602E+02  0.80965856287E+02 -0.24273208988E+02  0.88747908257E+02  0.10000000000E+00 0.  1.
         -5    1    3    3    0  501 -0.53787644303E+02 -0.37561036368E+01  0.27725089861E+02  0.60629280072E+02  0.10000000000E+00 0.  1.
         21    1    1    2  504  502  0.26740968701E+02 -0.77209752650E+02  0.22761706104E+03  0.24183868960E+03  0.00000000000E+00 0. -1.
<mgrwt>
<rscale>  1 0.14933730E+03</rscale>
<asrwt>0</asrwt>
<pdfrwt beam="1">  1       21 0.47868063E-01 0.14933730E+03</pdfrwt>
<pdfrwt beam="2">  1       21 0.12318995E-01 0.14933730E+03</pdfrwt>
<totfact> 0.23623004E+05</totfact>
</mgrwt>
</event>
<event>
 6    1  0.4216855E-002  0.1266037E+03  0.7546771E-02  0.1232584E+00
         21   -1    0    0  504  502  0.00000000000E+00  0.00000000000E+00  0.73002994889E+02  0.73002994889E+02  0.00000000000E+00 0.  1.
         21   -1    0    0  502  503 -0.00000000000E+00 -0.00000000000E+00 -0.80538366943E+02  0.80538366943E+02  0.00000000000E+00 0.  1.
         25    2    1    2    0    0  0.19279619200E+02 -0.56877243934E+01 -0.22362349173E+02  0.12856350813E+03  0.12499778812E+03 0.  0.
          5    1    3    3  501    0  0.20213070382E+01  0.16084698452E+02 -0.70849507526E+02  0.72680574592E+02  0.10000000000E+00 0. -1.
         -5    1    3    3    0  501  0.17258312162E+02 -0.21772422845E+02  0.48487158352E+02  0.55882933534E+02  0.10000000000E+00 0. -1.
         21    1    1    2  504  503 -0.19279619200E+02  0.56877243934E+01  0.14826977119E+02  0.24977853706E+02  0.00000000000E+00 0.  1.
<mgrwt>
<rscale>  1 0.12660372E+03</rscale>
<asrwt>0</asrwt>
<pdfrwt beam="1">  1       21 0.11231230E-01 0.12660372E+03</pdfrwt>
<pdfrwt beam="2">  1       21 0.12390518E-01 0.12660372E+03</pdfrwt>
<totfact> 0.36129376E+06</totfact>
</mgrwt>
</event>
<event>
 6    1  0.4216855E-002  0.1267259E+03  0.7546771E-02  0.1232396E+00
         21   -1    0    0  503  502  0.00000000000E+00  0.00000000000E+00  0.16869867401E+03  0.16869867401E+03  0.00000000000E+00 0.  1.
         21   -1    0    0  504  503 -0.00000000000E+00 -0.00000000000E+00 -0.61328366928E+02  0.61328366928E+02  0.00000000000E+00 0.  1.
         25    2    1    2    0    0 -0.51404737093E+01  0.20217687449E+02  0.63602835550E+01  0.12688537036E+03  0.12499705856E+03 0.  0.
          5    1    3    3  501    0  0.30188657580E+02 -0.33857390190E+02 -0.28414409036E+02  0.53526316498E+02  0.10000000000E+00 0. -1.
         -5    1    3    3    0  501 -0.35329131289E+02  0.54075077640E+02  0.34774692591E+02  0.73359053866E+02  0.10000000000E+00 0. -1.
         21    1    1    2  504  502  0.51404737093E+01 -0.20217687449E+02  0.10101002353E+03  0.10314167057E+03  0.00000000000E+00 0.  1.
<mgrwt>
<rscale>  1 0.12672586E+03</rscale>
<asrwt>0</asrwt>
<pdfrwt beam="1">  1       21 0.25953642E-01 0.12672586E+03</pdfrwt>
<pdfrwt beam="2">  1       21 0.94351334E-02 0.12672586E+03</pdfrwt>
<totfact> 0.12657323E+06</totfact>
</mgrwt>
</event>
<event>
 6    1  0.4216855E-002  0.1308035E+03  0.7546771E-02  0.1226268E+00
         21   -1    0    0  503  502  0.00000000000E+00  0.00000000000E+00  0.73648870534E+02  0.73648870534E+02  0.00000000000E+00 0.  1.
         21   -1    0    0  504  503 -0.00000000000E+00 -0.00000000000E+00 -0.18248257518E+03  0.18248257518E+03  0.00000000000E+00 0.  1.
         25    2    1    2    0    0  0.35789121281E+02 -0.14245412917E+02 -0.15049255268E+03  0.19939298775E+03  0.12500304861E+03 0.  0.
          5    1    3    3  501    0  0.31697735553E+02 -0.59204002315E+02 -0.35727173731E+02  0.76067741337E+02  0.10000000000E+00 0. -1.
         -5    1    3    3    0  501  0.40913857275E+01  0.44958589398E+02 -0.11476537895E+03  0.12332524642E+03  0.10000000000E+00 0. -1.
         21    1    1    2  504  502 -0.35789121281E+02  0.14245412917E+02  0.41658848041E+02  0.56738457957E+02  0.00000000000E+00 0.  1.
<mgrwt>
<rscale>  1 0.13080350E+03</rscale>
<asrwt>0</asrwt>
<pdfrwt beam="1">  1       21 0.11330596E-01 0.13080350E+03</pdfrwt>
<pdfrwt beam="2">  1       21 0.28074242E-01 0.13080350E+03</pdfrwt>
<totfact> 0.79083909E+05</totfact>
</mgrwt>
</event>
<event>
 6    1  0.4216855E-002  0.1280775E+03  0.7546771E-02  0.1230337E+00
         21   -1    0    0  503  502  0.00000000000E+00  0.00000000000E+00  0.12899727813E+03  0.12899727813E+03  0.00000000000E+00 0. -1.
         21   -1    0    0  504  503 -0.00000000000E+00 -0.00000000000E+00 -0.11823092472E+03  0.11823092472E+03  0.00000000000E+00 0. -1.
         25    2    1    2    0    0  0.58148584379E+01  0.27292891940E+02 -0.80846498962E+02  0.15145957935E+03  0.12500053301E+03 0.  0.
          5    1    3    3  501    0  0.41976961093E+02  0.54793874418E+02 -0.13674421326E+02  0.70366424770E+02  0.10000000000E+00 0.  1.
         -5    1    3    3    0  501 -0.36162102655E+02 -0.27500982479E+02 -0.67172077636E+02  0.81093154580E+02  0.10000000000E+00 0.  1.
         21    1    1    2  504  502 -0.58148584379E+01 -0.27292891940E+02  0.91612852369E+02  0.95768623506E+02  0.00000000000E+00 0. -1.
<mgrwt>
<rscale>  1 0.12807751E+03</rscale>
<asrwt>0</asrwt>
<pdfrwt beam="1">  1       21 0.19845735E-01 0.12807751E+03</pdfrwt>
<pdfrwt beam="2">  1       21 0.18189373E-01 0.12807751E+03</pdfrwt>
<totfact> 0.64833684E+05</totfact>
</mgrwt>
</event>
<event>
 6    1  0.4216855E-002  0.1279036E+03  0.7546771E-02  0.1230600E+00
         21   -1    0    0  504  502  0.00000000000E+00  0.00000000000E+00  0.25285334828E+02  0.25285334828E+02  0.00000000000E+00 0. -1.
         21   -1    0    0  502  503 -0.00000000000E+00 -0.00000000000E+00 -0.33226930503E+03  0.33226930503E+03  0.00000000000E+00 0. -1.
         25    2    1    2    0    0 -0.25286248193E+02  0.10032133419E+02 -0.30445887129E+03  0.33023405836E+03  0.12497716170E+03 0.  0.
          5    1    3    3  501    0  0.35903315622E+02  0.12589517760E+02 -0.28437197533E+02  0.47499770880E+02  0.10000000000E+00 0.  1.
         -5    1    3    3    0  501 -0.61189563815E+02 -0.25573843411E+01 -0.27602167376E+03  0.28273428748E+03  0.10000000000E+00 0.  1.
         21    1    1    2  504  503  0.25286248193E+02 -0.10032133419E+02 -0.25250989099E+01  0.27320581493E+02  0.00000000000E+00 0. -1.
<mgrwt>
<rscale>  1 0.12790359E+03</rscale>
<asrwt>0</asrwt>
<pdfrwt beam="1">  1       21 0.38900516E-02 0.12790359E+03</pdfrwt>
<pdfrwt beam="2">  1       21 0.51118353E-01 0.12790359E+03</pdfrwt>
<totfact> 0.14913732E+06</totfact>
</mgrwt>
</event>
<event>
 6    1  0.4216855E-002  0.1272374E+03  0.7546771E-02  0.1231614E+00
         21   -1    0    0  503  502  0.00000000000E+00  0.00000000000E+00  0.59428769686E+03  0.59428769686E+03  0.00000000000E+00 0. -1.
         21   -1    0    0  504  503 -0.00000000000E+00 -0.00000000000E+00 -0.10099106180E+02  0.10099106180E+02  0.00000000000E+00 0. -1.
         25    2    1    2    0    0 -0.17065380616E+02 -0.16362650078E+02  0.43114864673E+03  0.44953142542E+03  0.12502153147E+03 0.  0.
          5    1    3    3  501    0 -0.25977443757E+02  0.49442134237E+02  0.26044827551E+03  0.26636941724E+03  0.10000000000E+00 0.  1.
         -5    1    3    3    0  501  0.89120631411E+01 -0.65804784316E+02  0.17070037122E+03  0.18316200819E+03  0.10000000000E+00 0.  1.
         21    1    1    2  504  502  0.17065380616E+02  0.16362650078E+02  0.15303994395E+03  0.15485537762E+03  0.00000000000E+00 0. -1.
<mgrwt>
<rscale>  1 0.12723736E+03</rscale>
<asrwt>0</asrwt>
<pdfrwt beam="1">  1       21 0.91428850E-01 0.12723736E+03</pdfrwt>
<pdfrwt beam="2">  1       21 0.15537091E-02 0.12723736E+03</pdfrwt>
<totfact> 0.18753228E+06</totfact>
</mgrwt>
</event>
<event>
 6    1  0.4216855E-002  0.1324324E+03  0.7546771E-02  0.1223890E+00
         21   -1    0    0  504  502  0.00000000000E+00  0.00000000000E+00  0.86911951078E+03  0.86911951078E+03  0.00000000000E+00 0. -1.
         21   -1    0    0  502  503 -0.00000000000E+00 -0.00000000000E+00 -0.89287098833E+01  0.89287098833E+01  0.00000000000E+00 0. -1.
         25    2    1    2    0    0 -0.35196152534E+02 -0.25980793032E+02  0.64405279357E+03  0.65752745300E+03  0.12499831912E+03 0.  0.
          5    1    3    3  501    0 -0.34390086075E+01 -0.36572136873E+02  0.47551312137E+02  0.60087313650E+02  0.10000000000E+00 0.  1.
         -5    1    3    3    0  501 -0.31757143926E+02  0.10591343841E+02  0.59650148143E+03  0.59744013935E+03  0.10000000000E+00 0.  1.
         21    1    1    2  504  503  0.35196152534E+02  0.25980793032E+02  0.21613800733E+03  0.22052076767E+03  0.00000000000E+00 0. -1.
<mgrwt>
<rscale>  1 0.13243244E+03</rscale>
<asrwt>0</asrwt>
<pdfrwt beam="1">  1       21 0.13371063E+00 0.13243244E+03</pdfrwt>
<pdfrwt beam="2">  1       21 0.13736484E-02 0.13243244E+03</pdfrwt>
<totfact> 0.91815444E+05</totfact>
</mgrwt>
</event>
<event>
 6    1  0.4216855E-002  0.1455897E+03  0.7546771E-02  0.1205999E+00
         21   -1    0    0  504  502  0.00000000000E+00  0.00000000000E+00  0.94958524378E+02  0.94958524378E+02  0.00000000000E+00 0. -1.
         21   -1    0    0  502  503 -0.00000000000E+00 -0.00000000000E+00 -0.11609136662E+04  0.11609136662E+04  0.00000000000E+00 0. -1.
         25    2    1    2    0    0  0.74536423123E+02  0.39919031116E+01 -0.11408678956E+04  0.11501199597E+04  0.12499901161E+03 0.  0.
          5    1    3    3  501    0 -0.34926868590E+02 -0.21510511329E+01 -0.22327473227E+03  0.22600028593E+03  0.10000000000E+00 0.  1.
         -5    1    3    3    0  501  0.10946329171E+03  0.61429542445E+01 -0.91759316331E+03  0.92411967379E+03  0.10000000000E+00 0.  1.
         21    1    1    2  504  503 -0.74536423123E+02 -0.39919031116E+01  0.74912753743E+02  0.10575223088E+03  0.00000000000E+00 0. -1.
<mgrwt>
<rscale>  1 0.14558972E+03</rscale>
<asrwt>0</asrwt>
<pdfrwt beam="1">  1       21 0.14609003E-01 0.14558972E+03</pdfrwt>
<pdfrwt beam="2">  1       21 0.17860211E+00 0.14558972E+03</pdfrwt>
<totfact> 0.79898248E+03</totfact>
</mgrwt>
</event>
<event>
 6    1  0.4216855E-002  0.1310091E+03  0.7546771E-02  0.1225966E+00
         21   -1    0    0  504  502  0.00000000000E+00  0.00000000000E+00  0.86714606487E+02  0.86714606487E+02  0.00000000000E+00 0.  1.
         21   -1    0    0  502  503 -0.00000000000E+00 -0.00000000000E+00 -0.95269892118E+02  0.95269892118E+02  0.00000000000E+00 0.  1.
         25    2    1    2    0    0 -0.38004492874E+02 -0.96646561802E+01  0.21260027423E+02  0.13272295224E+03  0.12500258489E+03 0.  0.
          5    1    3    3  501    0 -0.70286716332E+02 -0.44291390339E+02  0.74633418606E+01  0.83412596307E+02  0.10000000000E+00 0.  1.
         -5    1    3    3    0  501  0.32282223458E+02  0.34626734159E+02  0.13796685563E+02  0.49310355935E+02  0.10000000000E+00 0.  1.
         21    1    1    2  504  503  0.38004492874E+02  0.96646561802E+01 -0.29815313054E+02  0.49261546364E+02  0.00000000000E+00 0.  1.
<mgrwt>
<rscale>  1 0.13100913E+03</rscale>
<asrwt>0</asrwt>
<pdfrwt beam="1">  1       21 0.13340709E-01 0.13100913E+03</pdfrwt>
<pdfrwt beam="2">  1       21 0.14656906E-01 0.13100913E+03</pdfrwt>
<totfact> 0.19741191E+06</totfact>
</mgrwt>
</event>
<event>
 6    1  0.4216855E-002  0.1264308E+03  0.7546771E-02  0.1232850E+00
         21   -1    0    0  503  502  0.00000000000E+00  0.00000000000E+00  0.23827016592E+02  0.23827016592E+02  0.00000000000E+00 0. -1.
         21   -1    0    0  504  503 -0.00000000000E+00 -0.00000000000E+00 -0.22293136115E+03  0.22293136115E+03  0.00000000000E+00 0. -1.
         25    2    1    2    0    0 -0.18931991484E+02 -0.24697340289E+00 -0.17893389021E+03  0.21909380607E+03  0.12500510987E+03 0.  0.
          5    1    3    3  501    0  0.23164720802E+02 -0.35238584928E+02 -0.15265365285E+03  0.15837143014E+03  0.10000000000E+00 0.  1.
         -5    1    3    3    0  501 -0.42096712286E+02  0.34991611525E+02 -0.26280237368E+02  0.60722375929E+02  0.10000000000E+00 0.  1.
         21    1    1    2  504  502  0.18931991484E+02  0.24697340289E+00 -0.20170454345E+02  0.27664571674E+02  0.00000000000E+00 0. -1.
<mgrwt>
<rscale>  1 0.12643085E+03</rscale>
<asrwt>0</asrwt>
<pdfrwt beam="1">  1       21 0.36656950E-02 0.12643085E+03</pdfrwt>
<pdfrwt beam="2">  1       21 0.34297131E-01 0.12643085E+03</pdfrwt>
<totfact> 0.36714045E+06</totfact>
</mgrwt>
</event>
<event>
 6    1  0.4216855E-002  0.1274030E+03  0.7546771E-02  0.1231361E+00
         21   -1    0    0  504  502  0.00000000000E+00  0.00000000000E+00  0.29502076935E+02  0.29502076935E+02  0.00000000000E+00 0. -1.
         21   -1    0    0  502  503 -0.00000000000E+00 -0.00000000000E+00 -0.91309202194E+03  0.91309202194E+03  0.00000000000E+00 0.  1.
         25    2    1    2    0    0 -0.83710404735E+01 -0.23278141080E+02 -0.90250534785E+03  0.91145347210E+03  0.12497832903E+03 0.  0.
          5    1    3    3  501    0 -0.48363169522E+02 -0.50894634334E+02 -0.36047176039E+03  0.36724536758E+03  0.10000000000E+00 0. -1.
         -5    1    3    3    0  501  0.39992129049E+02  0.27616493255E+02 -0.54203358746E+03  0.54420810452E+03  0.10000000000E+00 0. -1.
         21    1    1    2  504  503  0.83710404735E+01  0.23278141080E+02  0.18915402853E+02  0.31140626773E+02  0.00000000000E+00 0. -1.
<mgrwt>
<rscale>  1 0.12740302E+03</rscale>
<asrwt>0</asrwt>
<pdfrwt beam="1">  1       21 0.45387816E-02 0.12740302E+03</pdfrwt>
<pdfrwt beam="2">  1       21 0.14047568E+00 0.12740302E+03</pdfrwt>
<totfact> 0.11582474E+05</totfact>
</mgrwt>
</event>
<event>
 6    1  0.4216855E-002  0.1500241E+03  0.7546771E-02  0.1200443E+00
         21   -1    0    0  504  502  0.00000000000E+00  0.00000000000E+00  0.21797994764E+03  0.21797994764E+03  0.00000000000E+00 0.  1.
         21   -1    0    0  502  503 -0.00000000000E+00 -0.00000000000E+00 -0.68079835838E+02  0.68079835838E+02  0.00000000000E+00 0.  1.
         25    2    1    2    0    0  0.86077741495E+01 -0.82514062359E+02  0.13489465803E+03  0.20175184847E+03  0.12499830131E+03 0.  0.
          5    1    3    3  501    0 -0.37130109442E+02  0.16318592276E+02  0.44609900417E+02  0.60290917196E+02  0.10000000000E+00 0. -1.
         -5    1    3    3    0  501  0.45737883592E+02 -0.98832654634E+02  0.90284757617E+02  0.14146093127E+03  0.10000000000E+00 0. -1.
         21    1    1    2  504  503 -0.86077741495E+01  0.82514062359E+02  0.15005453764E+02  0.84307935009E+02  0.00000000000E+00 0.  1.
<mgrwt>
<rscale>  1 0.15002413E+03</rscale>
<asrwt>0</asrwt>
<pdfrwt beam="1">  1       21 0.33535376E-01 0.15002413E+03</pdfrwt>
<pdfrwt beam="2">  1       21 0.10473821E-01 0.15002413E+03</pdfrwt>
<totfact> 0.64339572E+05</totfact>
</mgrwt>
</event>
<event>
 6    1  0.4216855E-002  0.1346637E+03  0.7546771E-02  0.1220695E+00
         21   -1    0    0  504  502  0.00000000000E+00  0.00000000000E+00  0.92203501234E+02  0.92203501234E+02  0.00000000000E+00 0.  1.
         21   -1    0    0  502  503 -0.00000000000E+00 -0.00000000000E+00 -0.92631629938E+02  0.92631629938E+02  0.00000000000E+00 0.  1.
         25    2    1    2    0    0  0.15426686169E+02 -0.47653954931E+02  0.21391260913E+01  0.13468064120E+03  0.12500166874E+03 0.  0.
          5    1    3    3  501    0  0.26771662576E+02 -0.84864550693E+02 -0.18129703048E+02  0.90815252100E+02  0.10000000000E+00 0. -1.
         -5    1    3    3    0  501 -0.11344976407E+02  0.37210595762E+02  0.20268829139E+02  0.43865389104E+02  0.10000000000E+00 0. -1.
         21    1    1    2  504  503 -0.15426686169E+02  0.47653954931E+02 -0.25672547956E+01  0.50154489968E+02  0.00000000000E+00 0.  1.
<mgrwt>
<rscale>  1 0.13466365E+03</rscale>
<asrwt>0</asrwt>
<pdfrwt beam="1">  1       21 0.14185154E-01 0.13466365E+03</pdfrwt>
<pdfrwt beam="2">  1       21 0.14251020E-01 0.13466365E+03</pdfrwt>
<totfact> 0.18614086E+06</totfact>
</mgrwt>
</event>
<event>
 6    1  0.4216855E-002  0.1405256E+03  0.7546771E-02  0.1212624E+00
         21   -1    0    0  504  502  0.00000000000E+00  0.00000000000E+00  0.11338418548E+04  0.11338418548E+04  0.00000000000E+00 0. -1.
         21   -1    0    0  502  503 -0.00000000000E+00 -0.00000000000E+00 -0.17510136660E+02  0.17510136660E+02  0.00000000000E+00 0. -1.
         25    2    1    2    0    0  0.48533844611E+02  0.42054790513E+02  0.28719277813E+03  0.31972976874E+03  0.12499317474E+03 0.  0.
          5    1    3    3  501    0 -0.31219509772E+02  0.37942199448E+02  0.17666247403E+03  0.18336823067E+03  0.10000000000E+00 0.  1.
         -5    1    3    3    0  501  0.79753354383E+02  0.41125910649E+01  0.11053030410E+03  0.13636153807E+03  0.10000000000E+00 0.  1.
         21    1    1    2  504  503 -0.48533844611E+02 -0.42054790513E+02  0.82913894004E+03  0.83162222275E+03  0.00000000000E+00 0. -1.
<mgrwt>
<rscale>  1 0.14052556E+03</rscale>
<asrwt>0</asrwt>
<pdfrwt beam="1">  1       21 0.17443715E+00 0.14052556E+03</pdfrwt>
<pdfrwt beam="2">  1       21 0.26938681E-02 0.14052556E+03</pdfrwt>
<totfact> 0.15402706E+05</totfact>
</mgrwt>
</event>
<event>
 6    1  0.4216855E-002  0.1263386E+03  0.7546771E-02  0.1232992E+00
         21   -1    0    0  504  502  0.00000000000E+00  0.00000000000E+00  0.41374784235E+03  0.41374784235E+03  0.00000000000E+00 0.  1.
         21   -1    0    0  502  503 -0.00000000000E+00 -0.00000000000E+00 -0.12913662826E+02  0.12913662826E+02  0.00000000000E+00 0.  1.
         25    2    1    2    0    0 -0.10867757914E+02 -0.14833370863E+02  0.32661309765E+03  0.35019644094E+03  0.12499317838E+03 0.  0.
          5    1    3    3  501    0  0.15828552801E+02  0.32608746793E+02  0.25786533092E+02  0.44484027921E+02  0.10000000000E+00 0. -1.
         -5    1    3    3    0  501 -0.26696310715E+02 -0.47442117657E+02  0.30082656455E+03  0.30571241302E+03  0.10000000000E+00 0. -1.
         21    1    1    2  504  503  0.10867757914E+02  0.14833370863E+02  0.74221081874E+02  0.76465064231E+02  0.00000000000E+00 0. -1.
<mgrwt>
<rscale>  1 0.12633856E+03</rscale>
<asrwt>0</asrwt>
<pdfrwt beam="1">  1       21 0.63653504E-01 0.12633856E+03</pdfrwt>
<pdfrwt beam="2">  1       21 0.19867177E-02 0.12633856E+03</pdfrwt>
<totfact> 0.28180220E+06</totfact>
</mgrwt>
</event>
<event>
 6    1  0.4216855E-002  0.1260282E+03  0.7546771E-02  0.1233471E+00
         21   -1    0    0  504  502  0.00000000000E+00  0.00000000000E+00  0.65269362031E+03  0.65269362031E+03  0.00000000000E+00 0. -1.
         21   -1    0    0  502  503 -0.00000000000E+00 -0.00000000000E+00 -0.11963832205E+02  0.11963832205E+02  0.00000000000E+00 0.  1.
         25    2    1    2    0    0  0.20078595911E+01 -0.16054832404E+02  0.32600930477E+03  0.34952133625E+03  0.12498523335E+03 0.  0.
          5    1    3    3  501    0  0.13723539962E+02 -0.12865315841E+02 -0.40471045689E+01  0.19241646400E+02  0.10000000000E+00 0.  1.
         -5    1    3    3    0  501 -0.11715680371E+02 -0.31895165625E+01  0.33005640934E+03  0.33027968985E+03  0.10000000000E+00 0.  1.
         21    1    1    2  504  503 -0.20078595911E+01  0.16054832404E+02  0.31472048333E+03  0.31513611626E+03  0.00000000000E+00 0. -1.
<mgrwt>
<rscale>  1 0.12602816E+03</rscale>
<asrwt>0</asrwt>
<pdfrwt beam="1">  1       21 0.10041438E+00 0.12602816E+03</pdfrwt>
<pdfrwt beam="2">  1       21 0.18405901E-02 0.12602816E+03</pdfrwt>
<totfact> 0.11502866E+06</totfact>
</mgrwt>
</event>
<event>
 6    1  0.4216855E-002  0.1297040E+03  0.7546771E-02  0.1227896E+00
         21   -1    0    0  503  502  0.00000000000E+00  0.00000000000E+00  0.19183275895E+02  0.19183275895E+02  0.00000000000E+00 0. -1.
         21   -1    0    0  504  503 -0.00000000000E+00 -0.00000000000E+00 -0.57477371911E+03  0.57477371911E+03  0.00000000000E+00 0. -1.
         25    2    1    2    0    0 -0.31183458954E+01 -0.34473381115E+02 -0.54110680147E+03  0.55643481537E+03  0.12499998027E+03 0.  0.
          5    1    3    3  501    0 -0.46378255274E+02 -0.10865562791E+02 -0.45286825439E+03  0.45536652145E+03  0.10000000000E+00 0. -1.
         -5    1    3    3    0  501  0.43259909378E+02 -0.23607818323E+02 -0.88238547077E+02  0.10106829392E+03  0.10000000000E+00 0. -1.
         21    1    1    2  504  502  0.31183458954E+01  0.34473381115E+02 -0.14483641741E+02  0.37522179637E+02  0.00000000000E+00 0. -1.
<mgrwt>
<rscale>  1 0.12970402E+03</rscale>
<asrwt>0</asrwt>
<pdfrwt beam="1">  1       21 0.29512732E-02 0.12970402E+03</pdfrwt>
<pdfrwt beam="2">  1       21 0.88426726E-01 0.12970402E+03</pdfrwt>
<totfact> 0.71684941E+05</totfact>
</mgrwt>
</event>
<event>
 6    1  0.4216855E-002  0.1310673E+03  0.7546771E-02  0.1225881E+00
         21   -1    0    0  504  502  0.00000000000E+00  0.00000000000E+00  0.42444346941E+02  0.42444346941E+02  0.00000000000E+00 0.  1.
         21   -1    0    0  502  503 -0.00000000000E+00 -0.00000000000E+00 -0.50008452546E+03  0.50008452546E+03  0.00000000000E+00 0.  1.
         25    2    1    2    0    0  0.32590249503E-02  0.39446069754E+02 -0.47973447373E+03  0.49731659187E+03  0.12499053895E+03 0.  0.
          5    1    3    3  501    0 -0.26479270394E+02 -0.36028266258E+02 -0.25219748706E+03  0.25613037736E+03  0.10000000000E+00 0. -1.
         -5    1    3    3    0  501  0.26482529419E+02  0.75474336013E+02 -0.22753698667E+03  0.24118621450E+03  0.10000000000E+00 0. -1.
         21    1    1    2  504  503 -0.32590249503E-02 -0.39446069754E+02  0.22094295217E+02  0.45212280531E+02  0.00000000000E+00 0.  1.
<mgrwt>
<rscale>  1 0.13106726E+03</rscale>
<asrwt>0</asrwt>
<pdfrwt beam="1">  1       21 0.65298995E-02 0.13106726E+03</pdfrwt>
<pdfrwt beam="2">  1       21 0.76936082E-01 0.13106726E+03</pdfrwt>
<totfact> 0.26019008E+05</totfact>
</mgrwt>
</event>
<event>
 6    1  0.4216855E-002  0.1262028E+03  0.7546771E-02  0.1233201E+00
         21   -1    0    0  504  502  0.00000000000E+00  0.00000000000E+00  0.15204625380E+03  0.15204625380E+03  0.00000000000E+00 0.  1.
         21   -1    0    0  502  503 -0.00000000000E+00 -0.00000000000E+00 -0.34619375412E+02  0.34619375412E+02  0.00000000000E+00 0.  1.
         25    2    1    2    0    0  0.91224132395E+00 -0.17368756637E+02  0.93405378614E+02  0.15700861751E+03  0.12499854131E+03 0.  0.
          5    1    3    3  501    0 -0.44021503972E+01 -0.54524697811E+02  0.10442933182E+03  0.11788900264E+03  0.10000000000E+00 0.  1.
         -5    1    3    3    0  501  0.53143917211E+01  0.37155941174E+02 -0.11023953202E+02  0.39119614876E+02  0.10000000000E+00 0.  1.
         21    1    1    2  504  503 -0.91224132395E+00  0.17368756637E+02  0.24021499771E+02  0.29657011694E+02  0.00000000000E+00 0.  1.
<mgrwt>
<rscale>  1 0.12620278E+03</rscale>
<asrwt>0</asrwt>
<pdfrwt beam="1">  1       21 0.23391731E-01 0.12620278E+03</pdfrwt>
<pdfrwt beam="2">  1       21 0.53260579E-02 0.12620278E+03</pdfrwt>
<totfact> 0.40969270E+06</totfact>
</mgrwt>
</event>
<event>
 6    1  0.4216855E-002  0.1265480E+03  0.7546771E-02  0.1232670E+00
         21   -1    0    0  504  502  0.00000000000E+00  0.00000000000E+00  0.12577440854E+03  0.12577440854E+03  0.00000000000E+00 0. -1.
         21   -1    0    0  502  503 -0.00000000000E+00 -0.00000000000E+00 -0.69641061650E+02  0.69641061650E+02  0.00000000000E+00 0. -1.
         25    2    1    2    0    0 -0.16077941840E+02 -0.11457578587E+02 -0.94738226488E+01  0.12690213561E+03  0.12499848953E+03 0.  0.
          5    1    3    3  501    0 -0.63437963134E+02  0.21371715538E+02 -0.16232423645E+02  0.68881252667E+02  0.10000000000E+00 0. -1.
         -5    1    3    3    0  501  0.47360021294E+02 -0.32829294125E+02  0.67586009959E+01  0.58020882940E+02  0.10000000000E+00 0. -1.
         21    1    1    2  504  503  0.16077941840E+02  0.11457578587E+02  0.65607169542E+02  0.68513334587E+02  0.00000000000E+00 0. -1.
<mgrwt>
<rscale>  1 0.12654801E+03</rscale>
<asrwt>0</asrwt>
<pdfrwt beam="1">  1       21 0.19349909E-01 0.12654801E+03</pdfrwt>
<pdfrwt beam="2">  1       21 0.10714009E-01 0.12654801E+03</pdfrwt>
<totfact> 0.17540567E+06</totfact>
</mgrwt>
</event>
<event>
 6    1  0.4216855E-002  0.1363665E+03  0.7546771E-02  0.1218303E+00
         21   -1    0    0  503  502  0.00000000000E+00  0.00000000000E+00  0.49634302816E+03  0.49634302816E+03  0.00000000000E+00 0.  1.
         21   -1    0    0  504  503 -0.00000000000E+00 -0.00000000000E+00 -0.20491013429E+02  0.20491013429E+02  0.00000000000E+00 0.  1.
         25    2    1    2    0    0  0.34346369606E+02 -0.42343730376E+02  0.40557974972E+03  0.42789104953E+03  0.12499260888E+03 0.  0.
          5    1    3    3  501    0 -0.76972540545E+01 -0.31519299425E+02  0.37092434835E+03  0.37234069903E+03  0.10000000000E+00 0. -1.
         -5    1    3    3    0  501  0.42043623661E+02 -0.10824430950E+02  0.34655401367E+02  0.55550350492E+02  0.10000000000E+00 0. -1.
         21    1    1    2  504  502 -0.34346369606E+02  0.42343730376E+02  0.70272265009E+02  0.88942992061E+02  0.00000000000E+00 0.  1.
<mgrwt>
<rscale>  1 0.13636648E+03</rscale>
<asrwt>0</asrwt>
<pdfrwt beam="1">  1       21 0.76360457E-01 0.13636648E+03</pdfrwt>
<pdfrwt beam="2">  1       21 0.31524640E-02 0.13636648E+03</pdfrwt>
<totfact> 0.89432969E+05</totfact>
</mgrwt>
</event>
<event>
 6    1  0.4216855E-002  0.1315791E+03  0.7546771E-02  0.1225131E+00
         21   -1    0    0  504  502  0.00000000000E+00  0.00000000000E+00  0.18022577060E+02  0.18022577060E+02  0.00000000000E+00 0.  1.
         21   -1    0    0  502  503 -0.00000000000E+00 -0.00000000000E+00 -0.65891519280E+03  0.65891519280E+03  0.00000000000E+00 0.  1.
         25    2    1    2    0    0 -0.68148940190E+01 -0.40531022363E+02 -0.61372226959E+03  0.62766877084E+03  0.12499542050E+03 0.  0.
          5    1    3    3  501    0 -0.59042430012E+02 -0.19318602623E+02 -0.45525002154E+03  0.45946905125E+03  0.10000000000E+00 0. -1.
         -5    1    3    3    0  501  0.52227535993E+02 -0.21212419739E+02 -0.15847224805E+03  0.16819971959E+03  0.10000000000E+00 0. -1.
         21    1    1    2  504  503  0.68148940190E+01  0.40531022363E+02 -0.27170346148E+02  0.49268999016E+02  0.00000000000E+00 0.  1.
<mgrwt>
<rscale>  1 0.13157911E+03</rscale>
<asrwt>0</asrwt>
<pdfrwt beam="1">  1       21 0.27727046E-02 0.13157911E+03</pdfrwt>
<pdfrwt beam="2">  1       21 0.10137155E+00 0.13157911E+03</pdfrwt>
<totfact> 0.57875215E+05</totfact>
</mgrwt>
</event>
<event>
 6    1  0.4216855E-002  0.1647803E+03  0.7546771E-02  0.1183403E+00
         21   -1    0    0  504  502  0.00000000000E+00  0.00000000000E+00  0.14768312434E+02  0.14768312434E+02  0.00000000000E+00 0.  1.
         21   -1    0    0  502  503 -0.00000000000E+00 -0.00000000000E+00 -0.13867889035E+04  0.13867889035E+04  0.00000000000E+00 0.  1.
         25    2    1    2    0    0 -0.11141357983E+02  0.10678456421E+03 -0.10295038019E+04  0.10426076041E+04  0.12500185955E+03 0.  0.
          5    1    3    3  501    0 -0.14108460220E+02  0.93572689397E+02 -0.33870147447E+03  0.35167256882E+03  0.10000000000E+00 0.  1.
         -5    1    3    3    0  501  0.29671022364E+01  0.13211874808E+02 -0.69080232746E+03  0.69093503526E+03  0.10000000000E+00 0.  1.
         21    1    1    2  504  503  0.11141357983E+02 -0.10678456421E+03 -0.34251678918E+03  0.35894961189E+03  0.00000000000E+00 0.  1.
<mgrwt>
<rscale>  1 0.16478027E+03</rscale>
<asrwt>0</asrwt>
<pdfrwt beam="1">  1       21 0.22720471E-02 0.16478027E+03</pdfrwt>
<pdfrwt beam="2">  1       21 0.21335223E+00 0.16478027E+03</pdfrwt>
<totfact> 0.11243602E+05</totfact>
</mgrwt>
</event>
<event>
 6    1  0.4216855E-002  0.1284445E+03  0.7546771E-02  0.1229782E+00
         21   -1    0    0  504  502  0.00000000000E+00  0.00000000000E+00  0.21524512624E+02  0.21524512624E+02  0.00000000000E+00 0. -1.
         21   -1    0    0  502  503 -0.00000000000E+00 -0.00000000000E+00 -0.41033609117E+03  0.41033609117E+03  0.00000000000E+00 0. -1.
         25    2    1    2    0    0 -0.49369789935E+01 -0.29123216506E+02 -0.37987065504E+03  0.40099840014E+03  0.12500186740E+03 0.  0.
          5    1    3    3  501    0  0.55993970941E+02 -0.28760042146E+01 -0.11492291394E+03  0.12787056867E+03  0.10000000000E+00 0.  1.
         -5    1    3    3    0  501 -0.60930949935E+02 -0.26247212291E+02 -0.26494774109E+03  0.27312783147E+03  0.10000000000E+00 0.  1.
         21    1    1    2  504  503  0.49369789935E+01  0.29123216506E+02 -0.89409235067E+01  0.30862203654E+02  0.00000000000E+00 0. -1.
<mgrwt>
<rscale>  1 0.12844455E+03</rscale>
<asrwt>0</asrwt>
<pdfrwt beam="1">  1       21 0.33114636E-02 0.12844455E+03</pdfrwt>
<pdfrwt beam="2">  1       21 0.63128628E-01 0.12844455E+03</pdfrwt>
<totfact> 0.12482951E+06</totfact>
</mgrwt>
</event>
<event>
 6    1  0.4216855E-002  0.1995401E+03  0.7546771E-02  0.1150128E+00
         21   -1    0    0  503  502  0.00000000000E+00  0.00000000000E+00  0.12892874244E+04  0.12892874244E+04  0.00000000000E+00 0.  1.
         21   -1    0    0  504  503 -0.00000000000E+00 -0.00000000000E+00 -0.25990562643E+02  0.25990562643E+02  0.00000000000E+00 0.  1.
         25    2    1    2    0    0 -0.15552868496E+03  0.16784558133E+01  0.86434774231E+03  0.88708131615E+03  0.12499701102E+03 0.  0.
          5    1    3    3  501    0 -0.14759036956E+03  0.45922653585E+02  0.66439062606E+03  0.68213394674E+03  0.10000000000E+00 0. -1.
         -5    1    3    3    0  501 -0.79383153925E+01 -0.44244197772E+02  0.19995711625E+03  0.20494736940E+03  0.10000000000E+00 0. -1.
         21    1    1    2  504  502  0.15552868496E+03 -0.16784558133E+01  0.39894911946E+03  0.42819667091E+03  0.00000000000E+00 0.  1.
<mgrwt>
<rscale>  1 0.19954008E+03</rscale>
<asrwt>0</asrwt>
<pdfrwt beam="1">  1       21 0.19835186E+00 0.19954008E+03</pdfrwt>
<pdfrwt beam="2">  1       21 0.39985491E-02 0.19954008E+03</pdfrwt>
<totfact> 0.53707531E+04</totfact>
</mgrwt>
</event>
<event>
 6    1  0.4216855E-002  0.1375324E+03  0.7546771E-02  0.1216688E+00
         21   -1    0    0  504  502  0.00000000000E+00  0.00000000000E+00  0.46595545538E+03  0.46595545538E+03  0.00000000000E+00 0.  1.
         21   -1    0    0  502  503 -0.00000000000E+00 -0.00000000000E+00 -0.20946424724E+02  0.20946424724E+02  0.00000000000E+00 0.  1.
         25    2    1    2    0    0  0.57340302845E+02 -0.12986368623E+01  0.34821153313E+03  0.37438809288E+03  0.12500230197E+03 0.  0.
          5    1    3    3  501    0  0.28060301274E+02  0.39093876658E+02  0.30382391217E+03  0.30761126655E+03  0.10000000000E+00 0.  1.
         -5    1    3    3    0  501  0.29280001571E+02 -0.40392513520E+02  0.44387620954E+02  0.66776826328E+02  0.10000000000E+00 0.  1.
         21    1    1    2  504  503 -0.57340302845E+02  0.12986368623E+01  0.96797497524E+02  0.11251378722E+03  0.00000000000E+00 0.  1.
<mgrwt>
<rscale>  1 0.13753244E+03</rscale>
<asrwt>0</asrwt>
<pdfrwt beam="1">  1       21 0.71685447E-01 0.13753244E+03</pdfrwt>
<pdfrwt beam="2">  1       21 0.32225272E-02 0.13753244E+03</pdfrwt>
<totfact> 0.99150477E+05</totfact>
</mgrwt>
</event>
<event>
 6    1  0.4216855E-002  0.1264825E+03  0.7546771E-02  0.1232770E+00
         21   -1    0    0  503  502  0.00000000000E+00  0.00000000000E+00  0.44066617270E+02  0.44066617270E+02  0.00000000000E+00 0. -1.
         21   -1    0    0  504  503 -0.00000000000E+00 -0.00000000000E+00 -0.12563124121E+03  0.12563124121E+03  0.00000000000E+00 0. -1.
         25    2    1    2    0    0  0.10553200591E+02  0.16197874889E+02 -0.81310788382E+02  0.15036380494E+03  0.12499635329E+03 0.  0.
          5    1    3    3  501    0  0.55317824576E+01 -0.54432098873E+02 -0.26343026717E+02  0.60724122567E+02  0.10000000000E+00 0.  1.
         -5    1    3    3    0  501  0.50214181337E+01  0.70629973762E+02 -0.54967761665E+02  0.89639682374E+02  0.10000000000E+00 0.  1.
         21    1    1    2  504  502 -0.10553200591E+02 -0.16197874889E+02 -0.25383555453E+00  0.19334053536E+02  0.00000000000E+00 0.  1.
<mgrwt>
<rscale>  1 0.12648253E+03</rscale>
<asrwt>0</asrwt>
<pdfrwt beam="1">  1       21 0.67794797E-02 0.12648253E+03</pdfrwt>
<pdfrwt beam="2">  1       21 0.19327883E-01 0.12648253E+03</pdfrwt>
<totfact> 0.38808486E+06</totfact>
</mgrwt>
</event>
<event>
 6    1  0.4216855E-002  0.1459166E+03  0.7546771E-02  0.1205582E+00
         21   -1    0    0  504  502  0.00000000000E+00  0.00000000000E+00  0.36349159165E+02  0.36349159165E+02  0.00000000000E+00 0.  1.
         21   -1    0    0  502  503 -0.00000000000E+00 -0.00000000000E+00 -0.36042283543E+03  0.36042283543E+03  0.00000000000E+00 0.  1.
         25    2    1    2    0    0  0.72646008700E+02  0.19723540620E+02 -0.25896595295E+03  0.29724573539E+03  0.12500080716E+03 0.  0.
          5    1    3    3  501    0  0.10300602462E+02  0.66803073277E+02 -0.11240165545E+03  0.13115980771E+03  0.10000000000E+00 0. -1.
         -5    1    3    3    0  501  0.62345406238E+02 -0.47079532657E+02 -0.14656429750E+03  0.16608592769E+03  0.10000000000E+00 0. -1.
         21    1    1    2  504  503 -0.72646008700E+02 -0.19723540620E+02 -0.65107723314E+02  0.99526259197E+02  0.00000000000E+00 0.  1.
<mgrwt>
<rscale>  1 0.14591663E+03</rscale>
<asrwt>0</asrwt>
<pdfrwt beam="1">  1       21 0.55921783E-02 0.14591663E+03</pdfrwt>
<pdfrwt beam="2">  1       21 0.55449668E-01 0.14591663E+03</pdfrwt>
<totfact> 0.68535892E+05</totfact>
</mgrwt>
</event>
<event>
 6    1  0.4216855E-002  0.1290944E+03  0.7546771E-02  0.1228806E+00
         21   -1    0    0  504  502  0.00000000000E+00  0.00000000000E+00  0.62947675237E+03  0.62947675237E+03  0.00000000000E+00 0. -1.
         21   -1    0    0  502  503 -0.00000000000E+00 -0.00000000000E+00 -0.18106922677E+02  0.18106922677E+02  0.00000000000E+00 0. -1.
         25    2    1    2    0    0 -0.47852154722E+01  0.31892631748E+02  0.22143724770E+03  0.25631975293E+03  0.12500129131E+03 0.  0.
          5    1    3    3  501    0  0.36046783173E+02 -0.23639132321E+02  0.15388620786E+03  0.15980974352E+03  0.10000000000E+00 0. -1.
         -5    1    3    3    0  501 -0.40831998646E+02  0.55531764069E+02  0.67551039844E+02  0.96510009419E+02  0.10000000000E+00 0. -1.
         21    1    1    2  504  503  0.47852154722E+01 -0.31892631748E+02  0.38993258199E+03  0.39126392211E+03  0.00000000000E+00 0. -1.
<mgrwt>
<rscale>  1 0.12909439E+03</rscale>
<asrwt>0</asrwt>
<pdfrwt beam="1">  1       21 0.96842561E-01 0.12909439E+03</pdfrwt>
<pdfrwt beam="2">  1       21 0.27856809E-02 0.12909439E+03</pdfrwt>
<totfact> 0.63927078E+05</totfact>
</mgrwt>
</event>
<event>
 6    1  0.4216855E-002  0.1261894E+03  0.7546771E-02  0.1233222E+00
         21   -1    0    0  503  502  0.00000000000E+00  0.00000000000E+00  0.86637186553E+03  0.86637186553E+03  0.00000000000E+00 0.  1.
         21   -1    0    0  504  503 -0.00000000000E+00 -0.00000000000E+00 -0.75094804829E+01  0.75094804829E+01  0.00000000000E+00 0.  1.
         25    2    1    2    0    0  0.14587874255E+02  0.92533475461E+01  0.53987529958E+03  0.55442682466E+03  0.12500133717E+03 0.  0.
          5    1    3    3  501    0  0.88011076357E+01 -0.49998372951E+01  0.53891861506E+03  0.53901367472E+03  0.10000000000E+00 0. -1.
         -5    1    3    3    0  501  0.57867666193E+01  0.14253184841E+02  0.95668451611E+00  0.15413149947E+02  0.10000000000E+00 0. -1.
         21    1    1    2  504  502 -0.14587874255E+02 -0.92533475461E+01  0.31898708546E+03  0.31945452135E+03  0.00000000000E+00 0.  1.
<mgrwt>
<rscale>  1 0.12618940E+03</rscale>
<asrwt>0</asrwt>
<pdfrwt beam="1">  1       21 0.13328790E+00 0.12618940E+03</pdfrwt>
<pdfrwt beam="2">  1       21 0.11553054E-02 0.12618940E+03</pdfrwt>
<totfact> 0.12187764E+06</totfact>
</mgrwt>
</event>
<event>
 6    1  0.4216855E-002  0.1667910E+03  0.7546771E-02  0.1181236E+00
         21   -1    0    0  503  502  0.00000000000E+00  0.00000000000E+00  0.62540021261E+02  0.62540021261E+02  0.00000000000E+00 0.  1.
         21   -1    0    0  504  503 -0.00000000000E+00 -0.00000000000E+00 -0.55434832053E+03  0.55434832053E+03  0.00000000000E+00 0. -1.
         25    2    1    2    0    0 -0.10933450076E+03  0.15500791240E+02 -0.47718735313E+03  0.50549678173E+03  0.12499967508E+03 0.  0.
          5    1    3    3  501    0 -0.23022263810E+01 -0.34937211624E+02 -0.21520064894E+03  0.21803036098E+03  0.10000000000E+00 0.  1.
         -5    1    3    3    0  501 -0.10703227438E+03  0.50438002863E+02 -0.26198670418E+03  0.28746642075E+03  0.10000000000E+00 0.  1.
         21    1    1    2  504  502  0.10933450076E+03 -0.15500791240E+02 -0.14620946140E+02  0.11139156006E+03  0.00000000000E+00 0.  1.
<mgrwt>
<rscale>  1 0.16679097E+03</rscale>
<asrwt>0</asrwt>
<pdfrwt beam="1">  1       21 0.96215416E-02 0.16679097E+03</pdfrwt>
<pdfrwt beam="2">  1       21 0.85284358E-01 0.16679097E+03</pdfrwt>
<totfact> 0.10437408E+05</totfact>
</mgrwt>
</event>
<event>
 6    1  0.4216855E-002  0.1260175E+03  0.7546771E-02  0.1233488E+00
         21   -1    0    0  503  502  0.00000000000E+00  0.00000000000E+00  0.11045731289E+02  0.11045731289E+02  0.00000000000E+00 0. -1.
         21   -1    0    0  504  503 -0.00000000000E+00 -0.00000000000E+00 -0.49948983212E+03  0.49948983212E+03  0.00000000000E+00 0. -1.
         25    2    1    2    0    0  0.12704965360E+01 -0.15939151853E+02 -0.46749358298E+03  0.48418039463E+03  0.12499893477E+03 0.  0.
          5    1    3    3  501    0  0.25149821261E+02 -0.47900018652E+02 -0.93184076943E+02  0.10775067282E+03  0.10000000000E+00 0.  1.
         -5    1    3    3    0  501 -0.23879324725E+02  0.31960866799E+02 -0.37430950603E+03  0.37642972181E+03  0.10000000000E+00 0.  1.
         21    1    1    2  504  502 -0.12704965360E+01  0.15939151853E+02 -0.20950517856E+02  0.26355168784E+02  0.00000000000E+00 0.  1.
<mgrwt>
<rscale>  1 0.12601748E+03</rscale>
<asrwt>0</asrwt>
<pdfrwt beam="1">  1       21 0.16993434E-02 0.12601748E+03</pdfrwt>
<pdfrwt beam="2">  1       21 0.76844582E-01 0.12601748E+03</pdfrwt>
<totfact> 0.24031422E+06</totfact>
</mgrwt>
</event>
<event>
 6    1  0.4216855E-002  0.1269750E+03  0.7546771E-02  0.1232015E+00
         21   -1    0    0  504  502  0.00000000000E+00  0.00000000000E+00  0.10786994813E+02  0.10786994813E+02  0.00000000000E+00 0. -1.
         21   -1    0    0  502  503 -0.00000000000E+00 -0.00000000000E+00 -0.52901445777E+03  0.52901445777E+03  0.00000000000E+00 0. -1.
         25    2    1    2    0    0  0.11740279008E+02 -0.18959923958E+02 -0.40647823989E+03  0.42584882328E+03  0.12500139168E+03 0.  0.
          5    1    3    3  501    0 -0.15103282080E+02 -0.51113699578E+02 -0.35728699195E+03  0.36124053486E+03  0.10000000000E+00 0. -1.
         -5    1    3    3    0  501  0.26843561088E+02  0.32153775620E+02 -0.49191247943E+02  0.64608288421E+02  0.10000000000E+00 0. -1.
         21    1    1    2  504  503 -0.11740279008E+02  0.18959923958E+02 -0.11174922307E+03  0.11395262930E+03  0.00000000000E+00 0. -1.
<mgrwt>
<rscale>  1 0.12697504E+03</rscale>
<asrwt>0</asrwt>
<pdfrwt beam="1">  1       21 0.16595372E-02 0.12697504E+03</pdfrwt>
<pdfrwt beam="2">  1       21 0.81386865E-01 0.12697504E+03</pdfrwt>
<totfact> 0.21967407E+06</totfact>
</mgrwt>
</event>
<event>
 6    1  0.4216855E-002  0.1291782E+03  0.7546771E-02  0.1228680E+00
         21   -1    0    0  504  502  0.00000000000E+00  0.00000000000E+00  0.26920771624E+03  0.26920771624E+03  0.00000000000E+00 0.  1.
         21   -1    0    0  502  503 -0.00000000000E+00 -0.00000000000E+00 -0.30350461900E+02  0.30350461900E+02  0.00000000000E+00 0.  1.
         25    2    1    2    0    0  0.22605487411E+02  0.23543602233E+02  0.12004996829E+03  0.17634908560E+03  0.12498678265E+03 0.  0.
          5    1    3    3  501    0  0.43803910699E+02  0.39574781597E+02  0.13393137007E+03  0.14636450328E+03  0.10000000000E+00 0. -1.
         -5    1    3    3    0  501 -0.21198423288E+02 -0.16031179364E+02 -0.13881401776E+02  0.29984582321E+02  0.10000000000E+00 0. -1.
         21    1    1    2  504  503 -0.22605487411E+02 -0.23543602233E+02  0.11880728605E+03  0.12320909254E+03  0.00000000000E+00 0.  1.
<mgrwt>
<rscale>  1 0.12917819E+03</rscale>
<asrwt>0</asrwt>
<pdfrwt beam="1">  1       21 0.41416570E-01 0.12917819E+03</pdfrwt>
<pdfrwt beam="2">  1       21 0.46693020E-02 0.12917819E+03</pdfrwt>
<totfact> 0.16899316E+06</totfact>
</mgrwt>
</event>
<event>
 6    1  0.4216855E-002  0.2305060E+03  0.7546771E-02  0.1126284E+00
         21   -1    0    0  503  502  0.00000000000E+00  0.00000000000E+00  0.36087631691E+03  0.36087631691E+03  0.00000000000E+00 0.  1.
         21   -1    0    0  504  503 -0.00000000000E+00 -0.00000000000E+00 -0.12889730374E+03  0.12889730374E+03  0.00000000000E+00 0.  1.
         25    2    1    2    0    0  0.21730265989E+02 -0.19244906472E+03  0.81417276535E+02  0.24446221954E+03  0.12499662752E+03 0.  0.
          5    1    3    3  501    0 -0.33660939795E+02 -0.13100390815E+03  0.10792514094E+02  0.13568924489E+03  0.10000000000E+00 0.  1.
         -5    1    3    3    0  501  0.55391205784E+02 -0.61445156575E+02  0.70624762441E+02  0.10877297465E+03  0.10000000000E+00 0.  1.
         21    1    1    2  504  502 -0.21730265989E+02  0.19244906472E+03  0.15056173664E+03  0.24531140111E+03  0.00000000000E+00 0.  1.
<mgrwt>
<rscale>  1 0.23050597E+03</rscale>
<asrwt>0</asrwt>
<pdfrwt beam="1">  1       21 0.55519433E-01 0.23050597E+03</pdfrwt>
<pdfrwt beam="2">  1       21 0.19830355E-01 0.23050597E+03</pdfrwt>
<totfact> 0.70564377E+04</totfact>
</mgrwt>
</event>
<event>
 6    1  0.4216855E-002  0.1339217E+03  0.7546771E-02  0.1221750E+00
         21   -1    0    0  504  502  0.00000000000E+00  0.00000000000E+00  0.27237738922E+03  0.27237738922E+03  0.00000000000E+00 0. -1.
         21   -1    0    0  502  503 -0.00000000000E+00 -0.00000000000E+00 -0.41087841914E+02  0.41087841914E+02  0.00000000000E+00 0. -1.
         25    2    1    2    0    0  0.44179286208E+02 -0.18907474586E+02  0.82935993325E+02  0.15752268112E+03  0.12500285658E+03 0.  0.
          5    1    3    3  501    0 -0.44112031679E+02 -0.32352919626E+01  0.28664367789E+02  0.52706683008E+02  0.10000000000E+00 0. -1.
         -5    1    3    3    0  501  0.88291317887E+02 -0.15672182623E+02  0.54271625535E+02  0.10481599811E+03  0.10000000000E+00 0. -1.
         21    1    1    2  504  503 -0.44179286208E+02  0.18907474586E+02  0.14835355398E+03  0.15594255001E+03  0.00000000000E+00 0. -1.
<mgrwt>
<rscale>  1 0.13392168E+03</rscale>
<asrwt>0</asrwt>
<pdfrwt beam="1">  1       21 0.41904213E-01 0.13392168E+03</pdfrwt>
<pdfrwt beam="2">  1       21 0.63212066E-02 0.13392168E+03</pdfrwt>
<totfact> 0.99047856E+05</totfact>
</mgrwt>
</event>
<event>
 6    1  0.4216855E-002  0.1276922E+03  0.7546771E-02  0.1230921E+00
         21   -1    0    0  504  502  0.00000000000E+00  0.00000000000E+00  0.14644816391E+03  0.14644816391E+03  0.00000000000E+00 0. -1.
         21   -1    0    0  502  503 -0.00000000000E+00 -0.00000000000E+00 -0.96993373041E+02  0.96993373041E+02  0.00000000000E+00 0. -1.
         25    2    1    2    0    0  0.13688389418E+02 -0.22204623812E+02 -0.52603174036E+02  0.13810281888E+03  0.12499950936E+03 0.  0.
          5    1    3    3  501    0 -0.22992999436E+02  0.36375786795E+02 -0.53902083764E+02  0.68973331963E+02  0.10000000000E+00 0. -1.
         -5    1    3    3    0  501  0.36681388854E+02 -0.58580410607E+02  0.12989097276E+01  0.69129486919E+02  0.10000000000E+00 0. -1.
         21    1    1    2  504  503 -0.13688389418E+02  0.22204623812E+02  0.10205796490E+03  0.10533871807E+03  0.00000000000E+00 0. -1.
<mgrwt>
<rscale>  1 0.12769219E+03</rscale>
<asrwt>0</asrwt>
<pdfrwt beam="1">  1       21 0.22530487E-01 0.12769219E+03</pdfrwt>
<pdfrwt beam="2">  1       21 0.14922057E-01 0.12769219E+03</pdfrwt>
<totfact> 0.73380898E+05</totfact>
</mgrwt>
</event>
<event>
 6    1  0.4216855E-002  0.1268660E+03  0.7546771E-02  0.1232182E+00
         21   -1    0    0  504  502  0.00000000000E+00  0.00000000000E+00  0.11545762879E+03  0.11545762879E+03  0.00000000000E+00 0.  1.
         21   -1    0    0  502  503 -0.00000000000E+00 -0.00000000000E+00 -0.47873638349E+02  0.47873638349E+02  0.00000000000E+00 0.  1.
         25    2    1    2    0    0 -0.10869494660E+02 -0.18783573336E+02  0.55305988959E+02  0.13839699631E+03  0.12499603046E+03 0.  0.
          5    1    3    3  501    0 -0.40746612940E+02  0.25172043081E+02  0.68549065459E+02  0.83623576784E+02  0.10000000000E+00 0.  1.
         -5    1    3    3    0  501  0.29877118280E+02 -0.43955616417E+02 -0.13243076500E+02  0.54773419526E+02  0.10000000000E+00 0.  1.
         21    1    1    2  504  503  0.10869494660E+02  0.18783573336E+02  0.12278001484E+02  0.24934270831E+02  0.00000000000E+00 0. -1.
<mgrwt>
<rscale>  1 0.12686598E+03</rscale>
<asrwt>0</asrwt>
<pdfrwt beam="1">  1       21 0.17762712E-01 0.12686598E+03</pdfrwt>
<pdfrwt beam="2">  1       21 0.73651752E-02 0.12686598E+03</pdfrwt>
<totfact> 0.39328242E+06</totfact>
</mgrwt>
</event>
<event>
 6    1  0.4216855E-002  0.2233801E+03  0.7546771E-02  0.1131388E+00
         21   -1    0    0  503  502  0.00000000000E+00  0.00000000000E+00  0.61865485069E+02  0.61865485069E+02  0.00000000000E+00 0.  1.
         21   -1    0    0  504  503 -0.00000000000E+00 -0.00000000000E+00 -0.70133486788E+03  0.70133486788E+03  0.00000000000E+00 0.  1.
         25    2    1    2    0    0  0.48615290798E+01 -0.18501772295E+03 -0.42328511013E+03  0.47861147048E+03  0.12507382997E+03 0.  0.
          5    1    3    3  501    0  0.64492605465E+02 -0.10233256333E+03 -0.24517235332E+03  0.27338753174E+03  0.10000000000E+00 0.  1.
         -5    1    3    3    0  501 -0.59631076385E+02 -0.82685159628E+02 -0.17811275681E+03  0.20522393874E+03  0.10000000000E+00 0.  1.
         21    1    1    2  504  502 -0.48615290798E+01  0.18501772295E+03 -0.21618427268E+03  0.28458888247E+03  0.00000000000E+00 0.  1.
<mgrwt>
<rscale>  1 0.22338007E+03</rscale>
<asrwt>0</asrwt>
<pdfrwt beam="1">  1       21 0.95177676E-02 0.22338007E+03</pdfrwt>
<pdfrwt beam="2">  1       21 0.10789766E+00 0.22338007E+03</pdfrwt>
<totfact> 0.59691945E+04</totfact>
</mgrwt>
</event>
<event>
 6    1  0.4216855E-002  0.1260613E+03  0.7546771E-02  0.1233420E+00
         21   -1    0    0  503  502  0.00000000000E+00  0.00000000000E+00  0.18813726854E+02  0.18813726854E+02  0.00000000000E+00 0. -1.
         21   -1    0    0  504  503 -0.00000000000E+00 -0.00000000000E+00 -0.28401192495E+03  0.28401192495E+03  0.00000000000E+00 0. -1.
         25    2    1    2    0    0 -0.79009673790E+00  0.16312772932E+02 -0.25220632606E+03  0.28195654658E+03  0.12499892977E+03 0.  0.
          5    1    3    3  501    0 -0.33453673359E+01 -0.54382559626E+02 -0.12600699459E+03  0.13728228931E+03  0.10000000000E+00 0. -1.
         -5    1    3    3    0  501  0.25552705980E+01  0.70695332559E+02 -0.12619933147E+03  0.14467425727E+03  0.10000000000E+00 0. -1.
         21    1    1    2  504  502  0.79009673790E+00 -0.16312772932E+02 -0.12991872041E+02  0.20869105221E+02  0.00000000000E+00 0. -1.
<mgrwt>
<rscale>  1 0.12606135E+03</rscale>
<asrwt>0</asrwt>
<pdfrwt beam="1">  1       21 0.28944197E-02 0.12606135E+03</pdfrwt>
<pdfrwt beam="2">  1       21 0.43694139E-01 0.12606135E+03</pdfrwt>
<totfact> 0.33446427E+06</totfact>
</mgrwt>
</event>
<event>
 6    1  0.4216855E-002  0.1472738E+03  0.7546771E-02  0.1203863E+00
         21   -1    0    0  503  502  0.00000000000E+00  0.00000000000E+00  0.36702684607E+02  0.36702684607E+02  0.00000000000E+00 0.  1.
         21   -1    0    0  504  503 -0.00000000000E+00 -0.00000000000E+00 -0.35276192482E+03  0.35276192482E+03  0.00000000000E+00 0.  1.
         25    2    1    2    0    0 -0.76126441267E+02 -0.16412096803E+02 -0.23269948411E+03  0.27538813981E+03  0.12499994265E+03 0.  0.
          5    1    3    3  501    0 -0.10139980387E+03  0.18621847904E+02 -0.14887121981E+03  0.18108380251E+03  0.10000000000E+00 0. -1.
         -5    1    3    3    0  501  0.25273362601E+02 -0.35033944707E+02 -0.83828264294E+02  0.94304337299E+02  0.10000000000E+00 0. -1.
         21    1    1    2  504  502  0.76126441267E+02  0.16412096803E+02 -0.83359756101E+02  0.11407646961E+03  0.00000000000E+00 0.  1.
<mgrwt>
<rscale>  1 0.14727382E+03</rscale>
<asrwt>0</asrwt>
<pdfrwt beam="1">  1       21 0.56465672E-02 0.14727382E+03</pdfrwt>
<pdfrwt beam="2">  1       21 0.54271063E-01 0.14727382E+03</pdfrwt>
<totfact> 0.70527086E+05</totfact>
</mgrwt>
</event>
<event>
 6    1  0.4216855E-002  0.1275450E+03  0.7546771E-02  0.1231145E+00
         21   -1    0    0  503  502  0.00000000000E+00  0.00000000000E+00  0.15013482506E+04  0.15013482506E+04  0.00000000000E+00 0.  1.
         21   -1    0    0  504  503 -0.00000000000E+00 -0.00000000000E+00 -0.15924023872E+02  0.15924023872E+02  0.00000000000E+00 0.  1.
         25    2    1    2    0    0 -0.44760322572E+01 -0.25313812746E+02  0.24175282323E+03  0.27333522467E+03  0.12492755311E+03 0.  0.
          5    1    3    3  501    0  0.42553954860E+02 -0.13191902715E+02  0.24752329434E+02  0.50966196483E+02  0.10000000000E+00 0. -1.
         -5    1    3    3    0  501 -0.47029987118E+02 -0.12121910030E+02  0.21700049379E+03  0.22236902819E+03  0.10000000000E+00 0. -1.
         21    1    1    2  504  502  0.44760322572E+01  0.25313812746E+02  0.12436714035E+04  0.12439370498E+04  0.00000000000E+00 0.  1.
<mgrwt>
<rscale>  1 0.12754496E+03</rscale>
<asrwt>0</asrwt>
<pdfrwt beam="1">  1       21 0.23097654E+00 0.12754496E+03</pdfrwt>
<pdfrwt beam="2">  1       21 0.24498510E-02 0.12754496E+03</pdfrwt>
<totfact> 0.80004865E+04</totfact>
</mgrwt>
</event>
<event>
 6    1  0.4216855E-002  0.1269018E+03  0.7546771E-02  0.1232127E+00
         21   -1    0    0  503  502  0.00000000000E+00  0.00000000000E+00  0.55877562331E+02  0.55877562331E+02  0.00000000000E+00 0. -1.
         21   -1    0    0  504  503 -0.00000000000E+00 -0.00000000000E+00 -0.20785456506E+03  0.20785456506E+03  0.00000000000E+00 0. -1.
         25    2    1    2    0    0 -0.14109103746E+02 -0.16695345682E+02 -0.18487254753E+03  0.22423632706E+03  0.12500508056E+03 0.  0.
          5    1    3    3  501    0  0.13982007844E+02 -0.67446932230E+02 -0.98725390009E+02  0.12037980662E+03  0.10000000000E+00 0. -1.
         -5    1    3    3    0  501 -0.28091111590E+02  0.50751586548E+02 -0.86147157518E+02  0.10385652043E+03  0.10000000000E+00 0. -1.
         21    1    1    2  504  502  0.14109103746E+02  0.16695345682E+02  0.32895544803E+02  0.39495800332E+02  0.00000000000E+00 0. -1.
<mgrwt>
<rscale>  1 0.12690182E+03</rscale>
<asrwt>0</asrwt>
<pdfrwt beam="1">  1       21 0.85965482E-02 0.12690182E+03</pdfrwt>
<pdfrwt beam="2">  1       21 0.31977625E-01 0.12690182E+03</pdfrwt>
<totfact> 0.99672993E+05</totfact>
</mgrwt>
</event>
<event>
 6    1  0.4216855E-002  0.2005892E+03  0.7546771E-02  0.1149243E+00
         21   -1    0    0  504  502  0.00000000000E+00  0.00000000000E+00  0.27127895722E+03  0.27127895722E+03  0.00000000000E+00 0. -1.
         21   -1    0    0  502  503 -0.00000000000E+00 -0.00000000000E+00 -0.12541807380E+03  0.12541807380E+03  0.00000000000E+00 0. -1.
         25    2    1    2    0    0 -0.15461994274E+03 -0.26530882668E+02  0.32638314253E+02  0.20322722822E+03  0.12499932922E+03 0.  0.
          5    1    3    3  501    0 -0.86842683772E+02 -0.73516471051E+02 -0.19459079579E+01  0.11379859313E+03  0.10000000000E+00 0. -1.
         -5    1    3    3    0  501 -0.67777258967E+02  0.46985588384E+02  0.34584222211E+02  0.89428635094E+02  0.10000000000E+00 0. -1.
         21    1    1    2  504  503  0.15461994274E+03  0.26530882668E+02  0.11322256916E+03  0.19346980280E+03  0.00000000000E+00 0. -1.
<mgrwt>
<rscale>  1 0.20058925E+03</rscale>
<asrwt>0</asrwt>
<pdfrwt beam="1">  1       21 0.41735224E-01 0.20058925E+03</pdfrwt>
<pdfrwt beam="2">  1       21 0.19295088E-01 0.20058925E+03</pdfrwt>
<totfact> 0.13600905E+05</totfact>
</mgrwt>
</event>
<event>
 6    1  0.4216855E-002  0.1307261E+03  0.7546771E-02  0.1226382E+00
         21   -1    0    0  504  502  0.00000000000E+00  0.00000000000E+00  0.46993751406E+01  0.46993751406E+01  0.00000000000E+00 0.  1.
         21   -1    0    0  502  503 -0.00000000000E+00 -0.00000000000E+00 -0.17684683781E+04  0.17684683781E+04  0.00000000000E+00 0.  1.
         25    2    1    2    0    0 -0.27585115370E+02 -0.26549716302E+02 -0.10096954619E+04  0.10181228994E+04  0.12499394554E+03 0.  0.
          5    1    3    3  501    0 -0.26085160347E+02  0.43846711818E+02 -0.24884771147E+03  0.25402394224E+03  0.10000000000E+00 0.  1.
         -5    1    3    3    0  501 -0.14999550229E+01 -0.70396428120E+02 -0.76084775046E+03  0.76409895716E+03  0.10000000000E+00 0.  1.
         21    1    1    2  504  503  0.27585115370E+02  0.26549716302E+02 -0.75407354105E+03  0.75504485386E+03  0.00000000000E+00 0.  1.
<mgrwt>
<rscale>  1 0.13072610E+03</rscale>
<asrwt>0</asrwt>
<pdfrwt beam="1">  1       21 0.72298078E-03 0.13072610E+03</pdfrwt>
<pdfrwt beam="2">  1       21 0.27207206E+00 0.13072610E+03</pdfrwt>
<totfact> 0.32318513E+05</totfact>
</mgrwt>
</event>
<event>
 6    1  0.4216855E-002  0.1267850E+03  0.7546771E-02  0.1232306E+00
         21   -1    0    0  503  502  0.00000000000E+00  0.00000000000E+00  0.86531492801E+02  0.86531492801E+02  0.00000000000E+00 0. -1.
         21   -1    0    0  504  503 -0.00000000000E+00 -0.00000000000E+00 -0.74018145855E+02  0.74018145855E+02  0.00000000000E+00 0. -1.
         25    2    1    2    0    0  0.20804471459E+02 -0.39351056667E+01  0.33082555347E+02  0.13103009558E+03  0.12500447748E+03 0.  0.
          5    1    3    3  501    0  0.71861503085E+02  0.12910613927E+02  0.18303532052E+02  0.75271434577E+02  0.10000000000E+00 0. -1.
         -5    1    3    3    0  501 -0.51057031627E+02 -0.16845719593E+02  0.14779023295E+02  0.55758661002E+02  0.10000000000E+00 0. -1.
         21    1    1    2  504  502 -0.20804471459E+02  0.39351056667E+01 -0.20569208401E+02  0.29519543078E+02  0.00000000000E+00 0. -1.
<mgrwt>
<rscale>  1 0.12678498E+03</rscale>
<asrwt>0</asrwt>
<pdfrwt beam="1">  1       21 0.13312537E-01 0.12678498E+03</pdfrwt>
<pdfrwt beam="2">  1       21 0.11387407E-01 0.12678498E+03</pdfrwt>
<totfact> 0.31033508E+06</totfact>
</mgrwt>
</event>
<event>
 6    1  0.4216855E-002  0.1260306E+03  0.7546771E-02  0.1233467E+00
         21   -1    0    0  503  502  0.00000000000E+00  0.00000000000E+00  0.24091613293E+03  0.24091613293E+03  0.00000000000E+00 0.  1.
         21   -1    0    0  504  503 -0.00000000000E+00 -0.00000000000E+00 -0.10331482089E+03  0.10331482089E+03  0.00000000000E+00 0.  1.
         25    2    1    2    0    0 -0.84718027262E+01  0.13641717999E+02 -0.64442134753E+02  0.14155036199E+03  0.12500339330E+03 0.  0.
          5    1    3    3  501    0 -0.39262584632E+02  0.30785985472E+02 -0.86583428968E+02  0.99930113706E+02  0.10000000000E+00 0.  1.
         -5    1    3    3    0  501  0.30790781905E+02 -0.17144267473E+02  0.22141294215E+02  0.41620248282E+02  0.10000000000E+00 0.  1.
         21    1    1    2  504  502  0.84718027262E+01 -0.13641717999E+02  0.20204344680E+03  0.20268059183E+03  0.00000000000E+00 0.  1.
<mgrwt>
<rscale>  1 0.12603062E+03</rscale>
<asrwt>0</asrwt>
<pdfrwt beam="1">  1       21 0.37064020E-01 0.12603062E+03</pdfrwt>
<pdfrwt beam="2">  1       21 0.15894588E-01 0.12603062E+03</pdfrwt>
<totfact> 0.25171190E+05</totfact>
</mgrwt>
</event>
<event>
 6    1  0.4216855E-002  0.1293703E+03  0.7546771E-02  0.1228393E+00
         21   -1    0    0  503  502  0.00000000000E+00  0.00000000000E+00  0.85512073298E+02  0.85512073298E+02  0.00000000000E+00 0. -1.
         21   -1    0    0  504  503 -0.00000000000E+00 -0.00000000000E+00 -0.47299782157E+03  0.47299782157E+03  0.00000000000E+00 0.  1.
         25    2    1    2    0    0 -0.30630088116E+02  0.13134543191E+02 -0.46045826644E+03  0.47828703696E+03  0.12500382423E+03 0.  0.
          5    1    3    3  501    0 -0.41115652808E+02 -0.24423823423E+02 -0.63887833537E+02  0.79804043322E+02  0.10000000000E+00 0.  1.
         -5    1    3    3    0  501  0.10485564692E+02  0.37558366615E+02 -0.39657043290E+03  0.39848299364E+03  0.10000000000E+00 0.  1.
         21    1    1    2  504  502  0.30630088116E+02 -0.13134543191E+02  0.72972518167E+02  0.80222857905E+02  0.00000000000E+00 0. -1.
<mgrwt>
<rscale>  1 0.12937030E+03</rscale>
<asrwt>0</asrwt>
<pdfrwt beam="1">  1       21 0.13155703E-01 0.12937030E+03</pdfrwt>
<pdfrwt beam="2">  1       21 0.72768897E-01 0.12937030E+03</pdfrwt>
<totfact> 0.86897854E+04</totfact>
</mgrwt>
</event>
<event>
 6    1  0.4216855E-002  0.1261764E+03  0.7546771E-02  0.1233242E+00
         21   -1    0    0  504  502  0.00000000000E+00  0.00000000000E+00  0.39599091913E+01  0.39599091913E+01  0.00000000000E+00 0.  1.
         21   -1    0    0  502  503 -0.00000000000E+00 -0.00000000000E+00 -0.12978333638E+04  0.12978333638E+04  0.00000000000E+00 0.  1.
         25    2    1    2    0    0 -0.50400428021E+01 -0.16439889771E+02 -0.11426387698E+04  0.11495842000E+04  0.12499921067E+03 0.  0.
          5    1    3    3  501    0  0.16399114050E+02 -0.49658120808E+02 -0.22120800172E+03  0.22730563110E+03  0.10000000000E+00 0.  1.
         -5    1    3    3    0  501 -0.21439156852E+02  0.33218231037E+02 -0.92143076808E+03  0.92227856892E+03  0.10000000000E+00 0.  1.
         21    1    1    2  504  503  0.50400428021E+01  0.16439889771E+02 -0.15123468483E+03  0.15220907299E+03  0.00000000000E+00 0.  1.
<mgrwt>
<rscale>  1 0.12617636E+03</rscale>
<asrwt>0</asrwt>
<pdfrwt beam="1">  1       21 0.60921642E-03 0.12617636E+03</pdfrwt>
<pdfrwt beam="2">  1       21 0.19966679E+00 0.12617636E+03</pdfrwt>
<totfact> 0.11274939E+06</totfact>
</mgrwt>
</event>
<event>
 6    1  0.4216855E-002  0.1281806E+03  0.7546771E-02  0.1230181E+00
         21   -1    0    0  504  502  0.00000000000E+00  0.00000000000E+00  0.34201038836E+03  0.34201038836E+03  0.00000000000E+00 0. -1.
         21   -1    0    0  502  503 -0.00000000000E+00 -0.00000000000E+00 -0.59247229917E+02  0.59247229917E+02  0.00000000000E+00 0.  1.
         25    2    1    2    0    0 -0.23436764663E+01  0.28281672418E+02  0.11700497453E+02  0.12871347140E+03  0.12499964106E+03 0.  0.
          5    1    3    3  501    0 -0.42909335390E+02 -0.13909959017E+02  0.43018133736E+02  0.62331916813E+02  0.10000000000E+00 0. -1.
         -5    1    3    3    0  501  0.40565658924E+02  0.42191631435E+02 -0.31317636282E+02  0.66381554587E+02  0.10000000000E+00 0. -1.
         21    1    1    2  504  503  0.23436764663E+01 -0.28281672418E+02  0.27106266099E+03  0.27254414688E+03  0.00000000000E+00 0. -1.
<mgrwt>
<rscale>  1 0.12818056E+03</rscale>
<asrwt>0</asrwt>
<pdfrwt beam="1">  1       21 0.52616982E-01 0.12818056E+03</pdfrwt>
<pdfrwt beam="2">  1       21 0.91149586E-02 0.12818056E+03</pdfrwt>
<totfact> 0.33143526E+05</totfact>
</mgrwt>
</event>
<event>
 6    1  0.4216855E-002  0.1304483E+03  0.7546771E-02  0.1226792E+00
         21   -1    0    0  504  502  0.00000000000E+00  0.00000000000E+00  0.65048628070E+03  0.65048628070E+03  0.00000000000E+00 0. -1.
         21   -1    0    0  502  503 -0.00000000000E+00 -0.00000000000E+00 -0.11502365670E+02  0.11502365670E+02  0.00000000000E+00 0. -1.
         25    2    1    2    0    0 -0.19809583041E+02  0.31589956509E+02  0.41803596020E+03  0.43791646230E+03  0.12500567586E+03 0.  0.
          5    1    3    3  501    0 -0.43891629238E+02  0.56381714268E+02  0.37943136608E+03  0.38610043303E+03  0.10000000000E+00 0. -1.
         -5    1    3    3    0  501  0.24082046196E+02 -0.24791757758E+02  0.38604594124E+02  0.51816029269E+02  0.10000000000E+00 0. -1.
         21    1    1    2  504  503  0.19809583041E+02 -0.31589956509E+02  0.22094795483E+03  0.22407218407E+03  0.00000000000E+00 0. -1.
<mgrwt>
<rscale>  1 0.13044832E+03</rscale>
<asrwt>0</asrwt>
<pdfrwt beam="1">  1       21 0.10007478E+00 0.13044832E+03</pdfrwt>
<pdfrwt beam="2">  1       21 0.17695952E-02 0.13044832E+03</pdfrwt>
<totfact> 0.12352062E+06</totfact>
</mgrwt>
</event>
<event>
 6    1  0.4216855E-002  0.1259461E+03  0.7546771E-02  0.1233598E+00
         21   -1    0    0  504  502  0.00000000000E+00  0.00000000000E+00  0.21850078834E+04  0.21850078834E+04  0.00000000000E+00 0.  1.
         21   -1    0    0  502  503 -0.00000000000E+00 -0.00000000000E+00 -0.23057760414E+01  0.23057760414E+01  0.00000000000E+00 0.  1.
         25    2    1    2    0    0  0.15378312276E+02 -0.12413933518E+01  0.19997467636E+04  0.20037089445E+04  0.12499752845E+03 0.  0.
          5    1    3    3  501    0 -0.47449672428E+02 -0.48554427211E+01  0.41831812711E+03  0.42102863585E+03  0.10000000000E+00 0. -1.
         -5    1    3    3    0  501  0.62827984704E+02  0.36140493694E+01  0.15814286365E+04  0.15826803087E+04  0.10000000000E+00 0. -1.
         21    1    1    2  504  503 -0.15378312276E+02  0.12413933518E+01  0.18295534374E+03  0.18360471494E+03  0.00000000000E+00 0.  1.
<mgrwt>
<rscale>  1 0.12594608E+03</rscale>
<asrwt>0</asrwt>
<pdfrwt beam="1">  1       21 0.33615340E+00 0.12594608E+03</pdfrwt>
<pdfrwt beam="2">  1       21 0.35473652E-03 0.12594608E+03</pdfrwt>
<totfact> 0.42464355E+05</totfact>
</mgrwt>
</event>
<event>
 6    1  0.4216855E-002  0.1278467E+03  0.7546771E-02  0.1230686E+00
         21   -1    0    0  503  502  0.00000000000E+00  0.00000000000E+00  0.41535960848E+02  0.41535960848E+02  0.00000000000E+00 0. -1.
         21   -1    0    0  504  503 -0.00000000000E+00 -0.00000000000E+00 -0.16581299612E+03  0.16581299612E+03  0.00000000000E+00 0. -1.
         25    2    1    2    0    0 -0.16992525868E+01  0.26801536241E+02 -0.12718665289E+03  0.18033644729E+03  0.12499431886E+03 0.  0.
          5    1    3    3  501    0 -0.40320874759E+02  0.54297920032E+02 -0.11148275092E+03  0.13039344621E+03  0.10000000000E+00 0.  1.
         -5    1    3    3    0  501  0.38621622172E+02 -0.27496383790E+02 -0.15703901968E+02  0.49943001089E+02  0.10000000000E+00 0.  1.
         21    1    1    2  504  502  0.16992525868E+01 -0.26801536241E+02  0.29096176120E+01  0.27012509674E+02  0.00000000000E+00 0.  1.
<mgrwt>
<rscale>  1 0.12784674E+03</rscale>
<asrwt>0</asrwt>
<pdfrwt beam="1">  1       21 0.63901479E-02 0.12784674E+03</pdfrwt>
<pdfrwt beam="2">  1       21 0.25509692E-01 0.12784674E+03</pdfrwt>
<totfact> 0.25577880E+06</totfact>
</mgrwt>
</event>
