<event>
 6    2  0.1181843E-002  0.1389848E+03  0.7546771E-02  0.1214702E+00
          2   -1    0    0  503    0 -0.00000000000E+00  0.00000000000E+00  0.37719084723E+02  0.37719084723E+02  0.00000000000E+00 0. -1.
         21   -1    0    0  502  503  0.00000000000E+00 -0.00000000000E+00 -0.27451738977E+03  0.27451738977E+03  0.00000000000E+00 0.  1.
         25    2    1    2    0    0 -0.47585024072E+02 -0.37762300516E+02 -0.19072360015E+03  0.23599210233E+03  0.12500581926E+03 0.  0.
          5    1    3    3  501    0 -0.65662369067E+02 -0.71944777172E+02 -0.15659477254E+03  0.18441673043E+03  0.10000000000E+00 0. -1.
         -5    1    3    3    0  501  0.18077344995E+02  0.34182476657E+02 -0.34128827612E+02  0.51575371900E+02  0.10000000000E+00 0. -1.
          2    1    1    2  502    0  0.47585024072E+02  0.37762300516E+02 -0.46074704898E+02  0.76244372170E+02  0.00000000000E+00 0. -1.
<mgrwt>
<rscale>  1 0.13898482E+03</rscale>
<asrwt>0</asrwt>
<pdfrwt beam="1">  1       21 0.42233445E-01 0.13898482E+03</pdfrwt>
<pdfrwt beam="2">  1        2 0.58029360E-02 0.13898482E+03</pdfrwt>
<totfact> 0.82896475E+04</totfact>
</mgrwt>
</event>
<event>
 6    2  0.1181843E-002  0.1270874E+03  0.7546771E-02  0.1231843E+00
         21   -1    0    0  502  503  0.00000000000E+00  0.00000000000E+00  0.61744316686E+01  0.61744316686E+01  0.00000000000E+00 0.  1.
          2   -1    0    0  503    0 -0.00000000000E+00 -0.00000000000E+00 -0.91146886245E+03  0.91146886245E+03  0.00000000000E+00 0.  1.
         25    2    1    2    0    0 -0.16073633185E+02 -0.16337435042E+02 -0.77357320841E+03  0.78394305519E+03  0.12500372610E+03 0.  0.
          5    1    3    3  501    0 -0.54536413763E+02 -0.50808960050E+02 -0.50177220621E+03  0.50727815622E+03  0.10000000000E+00 0. -1.
         -5    1    3    3    0  501  0.38462780578E+02  0.34471525008E+02 -0.27180100220E+03  0.27666489897E+03  0.10000000000E+00 0. -1.
          2    1    1    2  502    0  0.16073633185E+02  0.16337435042E+02 -0.13172122237E+03  0.13370023893E+03  0.00000000000E+00 0.  1.
<mgrwt>
<rscale>  1 0.12708739E+03</rscale>
<asrwt>0</asrwt>
<pdfrwt beam="1">  1       21 0.94991280E-03 0.12708739E+03</pdfrwt>
<pdfrwt beam="2">  1        2 0.14022594E+00 0.12708739E+03</pdfrwt>
<totfact> 0.14998822E+06</totfact>
</mgrwt>
</event>
<event>
 6    2  0.1181843E-002  0.1298975E+03  0.7546771E-02  0.1227608E+00
          1   -1    0    0  503    0 -0.00000000000E+00  0.00000000000E+00  0.16062924322E+04  0.16062924322E+04  0.00000000000E+00 0. -1.
         21   -1    0    0  502  503  0.00000000000E+00 -0.00000000000E+00 -0.43017892990E+01  0.43017892990E+01  0.00000000000E+00 0. -1.
         25    2    1    2    0    0 -0.85950509017E+01  0.34284256627E+02  0.13266544017E+04  0.13329985968E+04  0.12499628905E+03 0.  0.
          5    1    3    3  501    0  0.21668488007E+02 -0.38642024884E+02  0.29269509389E+03  0.29602898076E+03  0.10000000000E+00 0. -1.
         -5    1    3    3    0  501 -0.30263538909E+02  0.72926281511E+02  0.10339593078E+04  0.10369696160E+04  0.10000000000E+00 0. -1.
          1    1    1    2  502    0  0.85950509017E+01 -0.34284256627E+02  0.27533624124E+03  0.27759562477E+03  0.00000000000E+00 0. -1.
<mgrwt>
<rscale>  1 0.12989749E+03</rscale>
<asrwt>0</asrwt>
<pdfrwt beam="1">  1       21 0.66181502E-03 0.12989749E+03</pdfrwt>
<pdfrwt beam="2">  1        1 0.24712143E+00 0.12989749E+03</pdfrwt>
<totfact> 0.49374392E+05</totfact>
</mgrwt>
</event>
<event>
 6    2  0.1181843E-002  0.1461230E+03  0.7546771E-02  0.1205320E+00
          2   -1    0    0  503    0 -0.00000000000E+00  0.00000000000E+00  0.72325388596E+03  0.72325388596E+03  0.00000000000E+00 0. -1.
         21   -1    0    0  502  503  0.00000000000E+00 -0.00000000000E+00 -0.76057601229E+02  0.76057601229E+02  0.00000000000E+00 0. -1.
         25    2    1    2    0    0  0.50736266615E+02  0.56142772788E+02 -0.15854805432E+01  0.14613160489E+03  0.12500301002E+03 0.  0.
          5    1    3    3  501    0 -0.19252823588E+02  0.69973363574E+02 -0.13448787491E+02  0.73809367366E+02  0.10000000000E+00 0.  1.
         -5    1    3    3    0  501  0.69989090203E+02 -0.13830590786E+02  0.11863306948E+02  0.72322237525E+02  0.10000000000E+00 0.  1.
          2    1    1    2  502    0 -0.50736266615E+02 -0.56142772788E+02  0.64878176528E+03  0.65317988230E+03  0.00000000000E+00 0. -1.
<mgrwt>
<rscale>  1 0.14612300E+03</rscale>
<asrwt>0</asrwt>
<pdfrwt beam="1">  1       21 0.11701170E-01 0.14612300E+03</pdfrwt>
<pdfrwt beam="2">  1        2 0.11126982E+00 0.14612300E+03</pdfrwt>
<totfact> 0.31372937E+04</totfact>
</mgrwt>
</event>
<event>
 6    2  0.1181843E-002  0.1303363E+03  0.7546771E-02  0.1226958E+00
         21   -1    0    0  502  503  0.00000000000E+00  0.00000000000E+00  0.54700161298E+01  0.54700161298E+01  0.00000000000E+00 0.  1.
          1   -1    0    0  503    0 -0.00000000000E+00 -0.00000000000E+00 -0.22429180074E+04  0.22429180074E+04  0.00000000000E+00 0. -1.
         25    2    1    2    0    0 -0.35381702952E+02 -0.10088972557E+02 -0.80623127128E+03  0.81669847903E+03  0.12503555725E+03 0.  0.
          5    1    3    3  501    0 -0.41822650203E+02 -0.36185433622E+02 -0.14923878875E+03  0.15915635628E+03  0.10000000000E+00 0. -1.
         -5    1    3    3    0  501  0.64409472512E+01  0.26096461065E+02 -0.65699248253E+03  0.65754212275E+03  0.10000000000E+00 0. -1.
          1    1    1    2  502    0  0.35381702952E+02  0.10088972557E+02 -0.14312167200E+04  0.14316895445E+04  0.00000000000E+00 0. -1.
<mgrwt>
<rscale>  1 0.13033627E+03</rscale>
<asrwt>0</asrwt>
<pdfrwt beam="1">  1       21 0.84154085E-03 0.13033627E+03</pdfrwt>
<pdfrwt beam="2">  1        1 0.34506435E+00 0.13033627E+03</pdfrwt>
<totfact> 0.13346737E+05</totfact>
</mgrwt>
</event>
<event>
 6    2  0.1181843E-002  0.1562117E+03  0.7546771E-02  0.1193041E+00
         21   -1    0    0  502  503  0.00000000000E+00  0.00000000000E+00  0.20259582927E+02  0.20259582927E+02  0.00000000000E+00 0. -1.
          2   -1    0    0  503    0 -0.00000000000E+00 -0.00000000000E+00 -0.10025972624E+04  0.10025972624E+04  0.00000000000E+00 0. -1.
         25    2    1    2    0    0  0.93535601319E+02 -0.53211291765E+01 -0.34560786567E+03  0.37927151384E+03  0.12499944505E+03 0.  0.
          5    1    3    3  501    0 -0.15729347888E+02  0.36004658538E+02 -0.81146694034E+02  0.90158437065E+02  0.10000000000E+00 0.  1.
         -5    1    3    3    0  501  0.10926494921E+03 -0.41325787714E+02 -0.26446117164E+03  0.28911307677E+03  0.10000000000E+00 0.  1.
          2    1    1    2  502    0 -0.93535601319E+02  0.53211291765E+01 -0.63672981384E+03  0.64358533153E+03  0.00000000000E+00 0. -1.
<mgrwt>
<rscale>  1 0.15621167E+03</rscale>
<asrwt>0</asrwt>
<pdfrwt beam="1">  1       21 0.31168593E-02 0.15621167E+03</pdfrwt>
<pdfrwt beam="2">  1        2 0.15424571E+00 0.15621167E+03</pdfrwt>
<totfact> 0.19699743E+05</totfact>
</mgrwt>
</event>
<event>
 6    2  0.1181843E-002  0.1266782E+03  0.7546771E-02  0.1232470E+00
         21   -1    0    0  502  503  0.00000000000E+00  0.00000000000E+00  0.13657979400E+02  0.13657979400E+02  0.00000000000E+00 0. -1.
          2   -1    0    0  503    0 -0.00000000000E+00 -0.00000000000E+00 -0.43570938948E+03  0.43570938948E+03  0.00000000000E+00 0. -1.
         25    2    1    2    0    0 -0.19304190238E+02 -0.70828639227E+01 -0.30082356794E+03  0.32640799171E+03  0.12499815721E+03 0.  0.
          5    1    3    3  501    0  0.10362281120E+02  0.79561982297E+01  0.83142933845E+01  0.15485975422E+02  0.10000000000E+00 0.  1.
         -5    1    3    3    0  501 -0.29666471358E+02 -0.15039062152E+02 -0.30913786132E+03  0.31092201629E+03  0.10000000000E+00 0.  1.
          2    1    1    2  502    0  0.19304190238E+02  0.70828639227E+01 -0.12122784215E+03  0.12295937717E+03  0.00000000000E+00 0. -1.
<mgrwt>
<rscale>  1 0.12667817E+03</rscale>
<asrwt>0</asrwt>
<pdfrwt beam="1">  1       21 0.21012276E-02 0.12667817E+03</pdfrwt>
<pdfrwt beam="2">  1        2 0.67032214E-01 0.12667817E+03</pdfrwt>
<totfact> 0.99866601E+05</totfact>
</mgrwt>
</event>
<event>
 6    2  0.1181843E-002  0.1801104E+03  0.7546771E-02  0.1167696E+00
         21   -1    0    0  502  503  0.00000000000E+00  0.00000000000E+00  0.40289411237E+02  0.40289411237E+02  0.00000000000E+00 0. -1.
          2   -1    0    0  503    0 -0.00000000000E+00 -0.00000000000E+00 -0.14557937115E+04  0.14557937115E+04  0.00000000000E+00 0. -1.
         25    2    1    2    0    0 -0.10820080059E+03 -0.71466022619E+02 -0.18296358038E+03  0.25673997743E+03  0.12499975452E+03 0.  0.
          5    1    3    3  501    0 -0.10696962544E+03 -0.68098824375E+02 -0.20137937210E+03  0.23797817580E+03  0.10000000000E+00 0. -1.
         -5    1    3    3    0  501 -0.12311751450E+01 -0.33671982437E+01  0.18415791715E+02  0.18761801639E+02  0.10000000000E+00 0. -1.
          2    1    1    2  502    0  0.10820080059E+03  0.71466022619E+02 -0.12325407199E+04  0.12393431453E+04  0.00000000000E+00 0. -1.
<mgrwt>
<rscale>  1 0.18011037E+03</rscale>
<asrwt>0</asrwt>
<pdfrwt beam="1">  1       21 0.61983704E-02 0.18011037E+03</pdfrwt>
<pdfrwt beam="2">  1        2 0.22396828E+00 0.18011037E+03</pdfrwt>
<totfact> 0.34635760E+04</totfact>
</mgrwt>
</event>
<event>
 6    2  0.1181843E-002  0.1313818E+03  0.7546771E-02  0.1225420E+00
          2   -1    0    0  503    0 -0.00000000000E+00  0.00000000000E+00  0.31910577449E+04  0.31910577449E+04  0.00000000000E+00 0.  1.
         21   -1    0    0  502  503  0.00000000000E+00 -0.00000000000E+00 -0.24690628451E+01  0.24690628451E+01  0.00000000000E+00 0.  1.
         25    2    1    2    0    0  0.36486290342E+02 -0.17485434866E+02  0.27289702636E+04  0.27321310119E+04  0.12499670759E+03 0.  0.
          5    1    3    3  501    0 -0.11925146721E+01  0.29306852331E+02  0.21203476006E+04  0.21205504642E+04  0.10000000000E+00 0. -1.
         -5    1    3    3    0  501  0.37678805015E+02 -0.46792287197E+02  0.60862266296E+03  0.61158054773E+03  0.10000000000E+00 0. -1.
          2    1    1    2  502    0 -0.36486290342E+02  0.17485434866E+02  0.45961841850E+03  0.46139579586E+03  0.00000000000E+00 0.  1.
<mgrwt>
<rscale>  1 0.13138176E+03</rscale>
<asrwt>0</asrwt>
<pdfrwt beam="1">  1       21 0.37985838E-03 0.13138176E+03</pdfrwt>
<pdfrwt beam="2">  1        2 0.49092866E+00 0.13138176E+03</pdfrwt>
<totfact> 0.36411716E+05</totfact>
</mgrwt>
</event>
<event>
 6    2  0.1181843E-002  0.1269125E+03  0.7546771E-02  0.1232110E+00
          1   -1    0    0  503    0 -0.00000000000E+00  0.00000000000E+00  0.12905879184E+04  0.12905879184E+04  0.00000000000E+00 0.  1.
         21   -1    0    0  502  503  0.00000000000E+00 -0.00000000000E+00 -0.16579682023E+02  0.16579682023E+02  0.00000000000E+00 0. -1.
         25    2    1    2    0    0 -0.18735862866E+02 -0.11433425256E+02  0.22810328059E+03  0.26103236427E+03  0.12500013125E+03 0.  0.
          5    1    3    3  501    0 -0.26942059866E+02 -0.57123742199E+02  0.61772254218E+02  0.88344880462E+02  0.10000000000E+00 0.  1.
         -5    1    3    3    0  501  0.82061969993E+01  0.45690316943E+02  0.16633102637E+03  0.17268748381E+03  0.10000000000E+00 0.  1.
          1    1    1    2  502    0  0.18735862866E+02  0.11433425256E+02  0.10459049558E+04  0.10461352361E+04  0.00000000000E+00 0.  1.
<mgrwt>
<rscale>  1 0.12691252E+03</rscale>
<asrwt>0</asrwt>
<pdfrwt beam="1">  1       21 0.25507213E-02 0.12691252E+03</pdfrwt>
<pdfrwt beam="2">  1        1 0.19855191E+00 0.12691252E+03</pdfrwt>
<totfact> 0.92774560E+04</totfact>
</mgrwt>
</event>
<event>
 6    2  0.1181843E-002  0.1271285E+03  0.7546771E-02  0.1231780E+00
         21   -1    0    0  502  503  0.00000000000E+00  0.00000000000E+00  0.44119762346E+01  0.44119762346E+01  0.00000000000E+00 0.  1.
          2   -1    0    0  503    0 -0.00000000000E+00 -0.00000000000E+00 -0.12853543928E+04  0.12853543928E+04  0.00000000000E+00 0.  1.
         25    2    1    2    0    0  0.13041144666E+02 -0.19123754674E+02 -0.11128016312E+04  0.11200397855E+04  0.12500344518E+03 0.  0.
          5    1    3    3  501    0  0.48537047019E+02 -0.29371814431E+02 -0.24623954755E+03  0.25269046914E+03  0.10000000000E+00 0. -1.
         -5    1    3    3    0  501 -0.35495902352E+02  0.10248059756E+02 -0.86656208364E+03  0.86734931638E+03  0.10000000000E+00 0. -1.
          2    1    1    2  502    0 -0.13041144666E+02  0.19123754674E+02 -0.16814078538E+03  0.16972658352E+03  0.00000000000E+00 0.  1.
<mgrwt>
<rscale>  1 0.12712848E+03</rscale>
<asrwt>0</asrwt>
<pdfrwt beam="1">  1       21 0.67876553E-03 0.12712848E+03</pdfrwt>
<pdfrwt beam="2">  1        2 0.19774684E+00 0.12712848E+03</pdfrwt>
<totfact> 0.15476082E+06</totfact>
</mgrwt>
</event>
<event>
 6    2  0.1181843E-002  0.1416575E+03  0.7546771E-02  0.1211116E+00
         21   -1    0    0  502  503  0.00000000000E+00  0.00000000000E+00  0.57170755684E+02  0.57170755684E+02  0.00000000000E+00 0.  1.
          2   -1    0    0  503    0 -0.00000000000E+00 -0.00000000000E+00 -0.67630232465E+03  0.67630232465E+03  0.00000000000E+00 0. -1.
         25    2    1    2    0    0 -0.21846772549E+02 -0.62821537199E+02 -0.35465542549E+02  0.14602958739E+03  0.12507201397E+03 0.  0.
          5    1    3    3  501    0 -0.26901842035E+02 -0.27412575113E+02 -0.80099667486E+02  0.88832004991E+02  0.10000000000E+00 0. -1.
         -5    1    3    3    0  501  0.50550694860E+01 -0.35408962085E+02  0.44634124938E+02  0.57197582400E+02  0.10000000000E+00 0. -1.
          2    1    1    2  502    0  0.21846772549E+02  0.62821537199E+02 -0.58366602642E+03  0.58744349294E+03  0.00000000000E+00 0. -1.
<mgrwt>
<rscale>  1 0.14165746E+03</rscale>
<asrwt>0</asrwt>
<pdfrwt beam="1">  1       21 0.87955008E-02 0.14165746E+03</pdfrwt>
<pdfrwt beam="2">  1        2 0.10404651E+00 0.14165746E+03</pdfrwt>
<totfact> 0.56103141E+04</totfact>
</mgrwt>
</event>
<event>
 6    2  0.1181843E-002  0.1385508E+03  0.7546771E-02  0.1215292E+00
          2   -1    0    0  503    0 -0.00000000000E+00  0.00000000000E+00  0.44180213159E+03  0.44180213159E+03  0.00000000000E+00 0.  1.
         21   -1    0    0  502  503  0.00000000000E+00 -0.00000000000E+00 -0.33731831117E+02  0.33731831117E+02  0.00000000000E+00 0.  1.
         25    2    1    2    0    0  0.54075269280E+02  0.25458890912E+02  0.12624630909E+03  0.18744187327E+03  0.12499614164E+03 0.  0.
          5    1    3    3  501    0  0.32903037646E+02 -0.35721028775E+02  0.11066606245E+03  0.12085358563E+03  0.10000000000E+00 0. -1.
         -5    1    3    3    0  501  0.21172231634E+02  0.61179919688E+02  0.15580246642E+02  0.66588287640E+02  0.10000000000E+00 0. -1.
          2    1    1    2  502    0 -0.54075269280E+02 -0.25458890912E+02  0.28182399138E+03  0.28809208943E+03  0.00000000000E+00 0.  1.
<mgrwt>
<rscale>  1 0.13855080E+03</rscale>
<asrwt>0</asrwt>
<pdfrwt beam="1">  1       21 0.51895128E-02 0.13855080E+03</pdfrwt>
<pdfrwt beam="2">  1        2 0.67969555E-01 0.13855080E+03</pdfrwt>
<totfact> 0.22285293E+05</totfact>
</mgrwt>
</event>
<event>
 6    2  0.1181843E-002  0.1652977E+03  0.7546771E-02  0.1182842E+00
         21   -1    0    0  502  503  0.00000000000E+00  0.00000000000E+00  0.94876055159E+01  0.94876055159E+01  0.00000000000E+00 0.  1.
          2   -1    0    0  503    0 -0.00000000000E+00 -0.00000000000E+00 -0.23928711054E+04  0.23928711054E+04  0.00000000000E+00 0. -1.
         25    2    1    2    0    0  0.48670392768E+02 -0.96592062199E+02 -0.90120409512E+03  0.91623804909E+03  0.12499803166E+03 0.  0.
          5    1    3    3  501    0  0.17719265056E+02 -0.95079292601E-02 -0.55998397735E+03  0.56026425670E+03  0.10000000000E+00 0. -1.
         -5    1    3    3    0  501  0.30951127712E+02 -0.96582554270E+02 -0.34122011777E+03  0.35597379239E+03  0.10000000000E+00 0. -1.
          2    1    1    2  502    0 -0.48670392768E+02  0.96592062199E+02 -0.14821794048E+04  0.14861206618E+04  0.00000000000E+00 0. -1.
<mgrwt>
<rscale>  1 0.16529774E+03</rscale>
<asrwt>0</asrwt>
<pdfrwt beam="1">  1       21 0.14596331E-02 0.16529774E+03</pdfrwt>
<pdfrwt beam="2">  1        2 0.36813364E+00 0.16529774E+03</pdfrwt>
<totfact> 0.12332985E+05</totfact>
</mgrwt>
</event>
<event>
 6    2  0.1181843E-002  0.1272459E+03  0.7546771E-02  0.1231601E+00
         21   -1    0    0  502  503  0.00000000000E+00  0.00000000000E+00  0.31290047294E+02  0.31290047294E+02  0.00000000000E+00 0. -1.
          1   -1    0    0  503    0 -0.00000000000E+00 -0.00000000000E+00 -0.42827569275E+03  0.42827569275E+03  0.00000000000E+00 0.  1.
         25    2    1    2    0    0 -0.23180700823E+02 -0.53730444825E+01 -0.10055467182E+03  0.16218124713E+03  0.12500120158E+03 0.  0.
          5    1    3    3  501    0  0.48503326152E+02 -0.16651042056E+02 -0.23739581019E+02  0.56510242933E+02  0.10000000000E+00 0. -1.
         -5    1    3    3    0  501 -0.71684026975E+02  0.11277997573E+02 -0.76815090803E+02  0.10567100420E+03  0.10000000000E+00 0. -1.
          1    1    1    2  502    0  0.23180700823E+02  0.53730444825E+01 -0.29643097363E+03  0.29738449291E+03  0.00000000000E+00 0.  1.
<mgrwt>
<rscale>  1 0.12724588E+03</rscale>
<asrwt>0</asrwt>
<pdfrwt beam="1">  1       21 0.48138529E-02 0.12724588E+03</pdfrwt>
<pdfrwt beam="2">  1        1 0.65888575E-01 0.12724588E+03</pdfrwt>
<totfact> 0.17256527E+05</totfact>
</mgrwt>
</event>
<event>
 6    2  0.1181843E-002  0.1795022E+03  0.7546771E-02  0.1168286E+00
         21   -1    0    0  502  503  0.00000000000E+00  0.00000000000E+00  0.23257659749E+02  0.23257659749E+02  0.00000000000E+00 0. -1.
          2   -1    0    0  503    0 -0.00000000000E+00 -0.00000000000E+00 -0.16538276628E+04  0.16538276628E+04  0.00000000000E+00 0. -1.
         25    2    1    2    0    0 -0.28686089116E+02  0.12559297378E+03 -0.38408027624E+03  0.42395598931E+03  0.12499814202E+03 0.  0.
          5    1    3    3  501    0 -0.19826329638E+02  0.70635386062E+01 -0.22183380776E+03  0.22283003655E+03  0.10000000000E+00 0.  1.
         -5    1    3    3    0  501 -0.88597594776E+01  0.11852943517E+03 -0.16224646848E+03  0.20112595276E+03  0.10000000000E+00 0.  1.
          2    1    1    2  502    0  0.28686089116E+02 -0.12559297378E+03 -0.12464897268E+04  0.12531293333E+04  0.00000000000E+00 0. -1.
<mgrwt>
<rscale>  1 0.17950215E+03</rscale>
<asrwt>0</asrwt>
<pdfrwt beam="1">  1       21 0.35781003E-02 0.17950215E+03</pdfrwt>
<pdfrwt beam="2">  1        2 0.25443511E+00 0.17950215E+03</pdfrwt>
<totfact> 0.68943565E+04</totfact>
</mgrwt>
</event>
<event>
 6    2  0.1181843E-002  0.1260267E+03  0.7546771E-02  0.1233473E+00
         21   -1    0    0  502  503  0.00000000000E+00  0.00000000000E+00  0.13837267736E+03  0.13837267736E+03  0.00000000000E+00 0. -1.
          3   -1    0    0  503    0 -0.00000000000E+00 -0.00000000000E+00 -0.64085992851E+02  0.64085992851E+02  0.00000000000E+00 0. -1.
         25    2    1    2    0    0  0.11651292571E+02  0.10888946750E+02  0.10747935167E+03  0.16563374749E+03  0.12501362123E+03 0.  0.
          5    1    3    3  501    0 -0.80224198091E+00  0.61428944112E+02  0.93257148714E+02  0.11167392065E+03  0.10000000000E+00 0. -1.
         -5    1    3    3    0  501  0.12453534552E+02 -0.50539997362E+02  0.14222202952E+02  0.53959826843E+02  0.10000000000E+00 0. -1.
          3    1    1    2  502    0 -0.11651292571E+02 -0.10888946750E+02 -0.33192667159E+02  0.36824922716E+02  0.00000000000E+00 0. -1.
<mgrwt>
<rscale>  1 0.12602669E+03</rscale>
<asrwt>0</asrwt>
<pdfrwt beam="1">  1       21 0.21288104E-01 0.12602669E+03</pdfrwt>
<pdfrwt beam="2">  1        3 0.98593835E-02 0.12602669E+03</pdfrwt>
<totfact> 0.73458690E+04</totfact>
</mgrwt>
</event>
<event>
 6    2  0.1181843E-002  0.1351402E+03  0.7546771E-02  0.1220022E+00
         21   -1    0    0  502  503  0.00000000000E+00  0.00000000000E+00  0.72672494615E+02  0.72672494615E+02  0.00000000000E+00 0. -1.
          1   -1    0    0  503    0 -0.00000000000E+00 -0.00000000000E+00 -0.11153838654E+04  0.11153838654E+04  0.00000000000E+00 0.  1.
         25    2    1    2    0    0  0.51421864583E+02 -0.31880974713E+00  0.86701777219E+01  0.13541802215E+03  0.12497423313E+03 0.  0.
          5    1    3    3  501    0 -0.15774620374E+02 -0.49395487422E+02  0.11077110269E+01  0.51865112063E+02  0.10000000000E+00 0. -1.
         -5    1    3    3    0  501  0.67196484957E+02  0.49076677674E+02  0.75624666950E+01  0.83552910091E+02  0.10000000000E+00 0. -1.
          1    1    1    2  502    0 -0.51421864583E+02  0.31880974713E+00 -0.10513815485E+04  0.10526383378E+04  0.00000000000E+00 0.  1.
<mgrwt>
<rscale>  1 0.13514018E+03</rscale>
<asrwt>0</asrwt>
<pdfrwt beam="1">  1       21 0.11180385E-01 0.13514018E+03</pdfrwt>
<pdfrwt beam="2">  1        1 0.17159750E+00 0.13514018E+03</pdfrwt>
<totfact> 0.10053530E+04</totfact>
</mgrwt>
</event>
<event>
 6    2  0.1181843E-002  0.1263028E+03  0.7546771E-02  0.1233047E+00
         21   -1    0    0  502  503  0.00000000000E+00  0.00000000000E+00  0.13439326221E+03  0.13439326221E+03  0.00000000000E+00 0. -1.
          1   -1    0    0  503    0 -0.00000000000E+00 -0.00000000000E+00 -0.11901796554E+04  0.11901796554E+04  0.00000000000E+00 0. -1.
         25    2    1    2    0    0 -0.16476569237E+02 -0.76761698147E+01  0.10463152217E+03  0.16401264808E+03  0.12498796895E+03 0.  0.
          5    1    3    3  501    0  0.49289075423E+02  0.15918841755E+02  0.66892866702E+02  0.84601939071E+02  0.10000000000E+00 0.  1.
         -5    1    3    3    0  501 -0.65765644660E+02 -0.23595011570E+02  0.37738655472E+02  0.79410709010E+02  0.10000000000E+00 0.  1.
          1    1    1    2  502    0  0.16476569237E+02  0.76761698147E+01 -0.11604179154E+04  0.11605602695E+04  0.00000000000E+00 0. -1.
<mgrwt>
<rscale>  1 0.12630278E+03</rscale>
<asrwt>0</asrwt>
<pdfrwt beam="1">  1       21 0.20675887E-01 0.12630278E+03</pdfrwt>
<pdfrwt beam="2">  1        1 0.18310456E+00 0.12630278E+03</pdfrwt>
<totfact> 0.29516293E+03</totfact>
</mgrwt>
</event>
<event>
 6    2  0.1181843E-002  0.1285583E+03  0.7546771E-02  0.1229611E+00
          4   -1    0    0  503    0 -0.00000000000E+00  0.00000000000E+00  0.15792044378E+03  0.15792044378E+03  0.00000000000E+00 0.  1.
         21   -1    0    0  502  503  0.00000000000E+00 -0.00000000000E+00 -0.56737848134E+02  0.56737848134E+02  0.00000000000E+00 0.  1.
         25    2    1    2    0    0 -0.27726749782E+02  0.11583321306E+02  0.22604270380E+02  0.13053041789E+03  0.12499716385E+03 0.  0.
          5    1    3    3  501    0 -0.73811579028E+02 -0.14723853892E+02  0.94279079406E+01  0.75854047487E+02  0.10000000000E+00 0. -1.
         -5    1    3    3    0  501  0.46084829246E+02  0.26307175198E+02  0.13176362439E+02  0.54676370405E+02  0.10000000000E+00 0. -1.
          4    1    1    2  502    0  0.27726749782E+02 -0.11583321306E+02  0.78578325268E+02  0.84127874024E+02  0.00000000000E+00 0.  1.
<mgrwt>
<rscale>  1 0.12855830E+03</rscale>
<asrwt>0</asrwt>
<pdfrwt beam="1">  1       21 0.87288998E-02 0.12855830E+03</pdfrwt>
<pdfrwt beam="2">  1        4 0.24295453E-01 0.12855830E+03</pdfrwt>
<totfact> 0.65265611E+04</totfact>
</mgrwt>
</event>
<event>
 6    2  0.1181843E-002  0.1295201E+03  0.7546771E-02  0.1228170E+00
          2   -1    0    0  503    0 -0.00000000000E+00  0.00000000000E+00  0.46927701381E+03  0.46927701381E+03  0.00000000000E+00 0. -1.
         21   -1    0    0  502  503  0.00000000000E+00 -0.00000000000E+00 -0.15517173992E+02  0.15517173992E+02  0.00000000000E+00 0. -1.
         25    2    1    2    0    0 -0.31562424161E+02  0.12404188126E+02  0.29074632743E+03  0.31829056705E+03  0.12500163062E+03 0.  0.
          5    1    3    3  501    0 -0.47571694682E+02 -0.33213138782E+02  0.24484727646E+03  0.25162745779E+03  0.10000000000E+00 0.  1.
         -5    1    3    3    0  501  0.16009270521E+02  0.45617326908E+02  0.45899050967E+02  0.66663109262E+02  0.10000000000E+00 0.  1.
          2    1    1    2  502    0  0.31562424161E+02 -0.12404188126E+02  0.16301351239E+03  0.16650362076E+03  0.00000000000E+00 0. -1.
<mgrwt>
<rscale>  1 0.12952011E+03</rscale>
<asrwt>0</asrwt>
<pdfrwt beam="1">  1       21 0.23872579E-02 0.12952011E+03</pdfrwt>
<pdfrwt beam="2">  1        2 0.72196453E-01 0.12952011E+03</pdfrwt>
<totfact> 0.75088296E+05</totfact>
</mgrwt>
</event>
<event>
 6    2  0.1181843E-002  0.2038449E+03  0.7546771E-02  0.1146535E+00
         21   -1    0    0  502  503  0.00000000000E+00  0.00000000000E+00  0.33747133881E+02  0.33747133881E+02  0.00000000000E+00 0. -1.
          1   -1    0    0  503    0 -0.00000000000E+00 -0.00000000000E+00 -0.11266929834E+04  0.11266929834E+04  0.00000000000E+00 0. -1.
         25    2    1    2    0    0 -0.52272787096E+02  0.15229947357E+03 -0.80625920547E+03  0.83162891644E+03  0.12500069738E+03 0.  0.
          5    1    3    3  501    0  0.32726442015E+02  0.84152017066E+01 -0.19647805915E+03  0.19936266790E+03  0.10000000000E+00 0. -1.
         -5    1    3    3    0  501 -0.84999229111E+02  0.14388427186E+03 -0.60978114632E+03  0.63226624854E+03  0.10000000000E+00 0. -1.
          1    1    1    2  502    0  0.52272787096E+02 -0.15229947357E+03 -0.28668664408E+03  0.32881120087E+03  0.00000000000E+00 0. -1.
<mgrwt>
<rscale>  1 0.20384491E+03</rscale>
<asrwt>0</asrwt>
<pdfrwt beam="1">  1       21 0.51918663E-02 0.20384491E+03</pdfrwt>
<pdfrwt beam="2">  1        1 0.17333740E+00 0.20384491E+03</pdfrwt>
<totfact> 0.36655402E+04</totfact>
</mgrwt>
</event>
<event>
 6    2  0.1181843E-002  0.1261697E+03  0.7546771E-02  0.1233252E+00
          1   -1    0    0  503    0 -0.00000000000E+00  0.00000000000E+00  0.13324705264E+04  0.13324705264E+04  0.00000000000E+00 0. -1.
         21   -1    0    0  502  503  0.00000000000E+00 -0.00000000000E+00 -0.18327222646E+02  0.18327222646E+02  0.00000000000E+00 0. -1.
         25    2    1    2    0    0  0.75961822677E+01 -0.15392257512E+02  0.19967163715E+03  0.23619390945E+03  0.12499670637E+03 0.  0.
          5    1    3    3  501    0 -0.33682983861E+01  0.51272073439E+02  0.48698066092E+02  0.70793238306E+02  0.10000000000E+00 0. -1.
         -5    1    3    3    0  501  0.10964480654E+02 -0.66664330951E+02  0.15097357106E+03  0.16540067115E+03  0.10000000000E+00 0. -1.
          1    1    1    2  502    0 -0.75961822677E+01  0.15392257512E+02  0.11144716666E+04  0.11146038396E+04  0.00000000000E+00 0. -1.
<mgrwt>
<rscale>  1 0.12616973E+03</rscale>
<asrwt>0</asrwt>
<pdfrwt beam="1">  1       21 0.28195738E-02 0.12616973E+03</pdfrwt>
<pdfrwt beam="2">  1        1 0.20499539E+00 0.12616973E+03</pdfrwt>
<totfact> 0.73887579E+04</totfact>
</mgrwt>
</event>
<event>
 6    2  0.1181843E-002  0.1264368E+03  0.7546771E-02  0.1232841E+00
         21   -1    0    0  502  503  0.00000000000E+00  0.00000000000E+00  0.28069228845E+03  0.28069228845E+03  0.00000000000E+00 0. -1.
          2   -1    0    0  503    0 -0.00000000000E+00 -0.00000000000E+00 -0.57281776416E+02  0.57281776416E+02  0.00000000000E+00 0. -1.
         25    2    1    2    0    0  0.14959784448E+02  0.11594374184E+02  0.26426169840E+03  0.29295135847E+03  0.12501211352E+03 0.  0.
          5    1    3    3  501    0 -0.20651014727E+02  0.19987960552E+02  0.27261384928E+01  0.28869097793E+02  0.10000000000E+00 0. -1.
         -5    1    3    3    0  501  0.35610799175E+02 -0.83935863674E+01  0.26153555990E+03  0.26408226068E+03  0.10000000000E+00 0. -1.
          2    1    1    2  502    0 -0.14959784448E+02 -0.11594374184E+02 -0.40851186366E+02  0.45022706393E+02  0.00000000000E+00 0. -1.
<mgrwt>
<rscale>  1 0.12643676E+03</rscale>
<asrwt>0</asrwt>
<pdfrwt beam="1">  1       21 0.43183428E-01 0.12643676E+03</pdfrwt>
<pdfrwt beam="2">  1        2 0.88125812E-02 0.12643676E+03</pdfrwt>
<totfact> 0.46561939E+04</totfact>
</mgrwt>
</event>
<event>
 6    2  0.1181843E-002  0.1266809E+03  0.7546771E-02  0.1232466E+00
         21   -1    0    0  502  503  0.00000000000E+00  0.00000000000E+00  0.31961245918E+03  0.31961245918E+03  0.00000000000E+00 0.  1.
          2   -1    0    0  503    0 -0.00000000000E+00 -0.00000000000E+00 -0.10411696744E+03  0.10411696744E+03  0.00000000000E+00 0.  1.
         25    2    1    2    0    0  0.19465497012E+02 -0.56543750036E+01  0.30589311938E+03  0.33108705718E+03  0.12504863621E+03 0.  0.
          5    1    3    3  501    0  0.10341815019E+01  0.51556497892E+02  0.22183613252E+03  0.22775078857E+03  0.10000000000E+00 0. -1.
         -5    1    3    3    0  501  0.18431315510E+02 -0.57210872895E+02  0.84056986868E+02  0.10333626861E+03  0.10000000000E+00 0. -1.
          2    1    1    2  502    0 -0.19465497012E+02  0.56543750036E+01 -0.90397627641E+02  0.92642369431E+02  0.00000000000E+00 0.  1.
<mgrwt>
<rscale>  1 0.12668085E+03</rscale>
<asrwt>0</asrwt>
<pdfrwt beam="1">  1       21 0.49171147E-01 0.12668085E+03</pdfrwt>
<pdfrwt beam="2">  1        2 0.16017995E-01 0.12668085E+03</pdfrwt>
<totfact> 0.17440903E+04</totfact>
</mgrwt>
</event>
<event>
 6    2  0.1181843E-002  0.1364455E+03  0.7546771E-02  0.1218193E+00
         21   -1    0    0  502  503  0.00000000000E+00  0.00000000000E+00  0.43781357324E+02  0.43781357324E+02  0.00000000000E+00 0. -1.
          1   -1    0    0  503    0 -0.00000000000E+00 -0.00000000000E+00 -0.10510391198E+04  0.10510391198E+04  0.00000000000E+00 0.  1.
         25    2    1    2    0    0 -0.53536203452E+02  0.11466121721E+02 -0.65288239920E+02  0.15126116343E+03  0.12497915132E+03 0.  0.
          5    1    3    3  501    0  0.24157323378E+02  0.33115743044E+02  0.85952065983E+01  0.41882171465E+02  0.10000000000E+00 0. -1.
         -5    1    3    3    0  501 -0.77693526829E+02 -0.21649621323E+02 -0.73883446518E+02  0.10937899197E+03  0.10000000000E+00 0. -1.
          1    1    1    2  502    0  0.53536203452E+02 -0.11466121721E+02 -0.94196952251E+03  0.94355931365E+03  0.00000000000E+00 0.  1.
<mgrwt>
<rscale>  1 0.13644554E+03</rscale>
<asrwt>0</asrwt>
<pdfrwt beam="1">  1       21 0.67355928E-02 0.13644554E+03</pdfrwt>
<pdfrwt beam="2">  1        1 0.16169834E+00 0.13644554E+03</pdfrwt>
<totfact> 0.26903523E+04</totfact>
</mgrwt>
</event>
<event>
 6    2  0.1181843E-002  0.1261659E+03  0.7546771E-02  0.1233258E+00
          2   -1    0    0  503    0 -0.00000000000E+00  0.00000000000E+00  0.17686785755E+04  0.17686785755E+04  0.00000000000E+00 0.  1.
         21   -1    0    0  502  503  0.00000000000E+00 -0.00000000000E+00 -0.39959184993E+01  0.39959184993E+01  0.00000000000E+00 0.  1.
         25    2    1    2    0    0  0.18795872629E+01  0.17020401344E+02  0.10170304299E+04  0.10248261942E+04  0.12499842378E+03 0.  0.
          5    1    3    3  501    0  0.61314999990E+02  0.79833244865E+01  0.64651804351E+03  0.64946813107E+03  0.10000000000E+00 0. -1.
         -5    1    3    3    0  501 -0.59435412727E+02  0.90370768576E+01  0.37051238642E+03  0.37535806310E+03  0.10000000000E+00 0. -1.
          2    1    1    2  502    0 -0.18795872629E+01 -0.17020401344E+02  0.74765222708E+03  0.74784829983E+03  0.00000000000E+00 0.  1.
<mgrwt>
<rscale>  1 0.12616589E+03</rscale>
<asrwt>0</asrwt>
<pdfrwt beam="1">  1       21 0.61475810E-03 0.12616589E+03</pdfrwt>
<pdfrwt beam="2">  1        2 0.27210377E+00 0.12616589E+03</pdfrwt>
<totfact> 0.10119189E+06</totfact>
</mgrwt>
</event>
<event>
 6    2  0.1181843E-002  0.1454724E+03  0.7546771E-02  0.1206149E+00
         21   -1    0    0  502  503  0.00000000000E+00  0.00000000000E+00  0.18939005957E+02  0.18939005957E+02  0.00000000000E+00 0. -1.
          1   -1    0    0  503    0 -0.00000000000E+00 -0.00000000000E+00 -0.20627187407E+04  0.20627187407E+04  0.00000000000E+00 0.  1.
         25    2    1    2    0    0  0.74380070337E+02 -0.20353739825E+01 -0.27321094734E+03  0.30952615771E+03  0.12500273178E+03 0.  0.
          5    1    3    3  501    0  0.10263524273E+03  0.68788423049E+01 -0.14403206832E+03  0.17699310219E+03  0.10000000000E+00 0.  1.
         -5    1    3    3    0  501 -0.28255172392E+02 -0.89142162873E+01 -0.12917887903E+03  0.13253305552E+03  0.10000000000E+00 0.  1.
          1    1    1    2  502    0 -0.74380070337E+02  0.20353739825E+01 -0.17705687874E+04  0.17721315890E+04  0.00000000000E+00 0.  1.
<mgrwt>
<rscale>  1 0.14547240E+03</rscale>
<asrwt>0</asrwt>
<pdfrwt beam="1">  1       21 0.29136928E-02 0.14547240E+03</pdfrwt>
<pdfrwt beam="2">  1        1 0.31734139E+00 0.14547240E+03</pdfrwt>
<totfact> 0.23703633E+04</totfact>
</mgrwt>
</event>
<event>
 6    2  0.1181843E-002  0.1989685E+03  0.7546771E-02  0.1150612E+00
         21   -1    0    0  502  503  0.00000000000E+00  0.00000000000E+00  0.40785280186E+02  0.40785280186E+02  0.00000000000E+00 0.  1.
          2   -1    0    0  503    0 -0.00000000000E+00 -0.00000000000E+00 -0.16084458279E+04  0.16084458279E+04  0.00000000000E+00 0.  1.
         25    2    1    2    0    0 -0.70784650032E+02 -0.13766727464E+03 -0.23634305060E+03  0.30894418981E+03  0.12500291862E+03 0.  0.
          5    1    3    3  501    0 -0.43422836885E+02 -0.95501660087E+02 -0.50515864114E+02  0.11643870649E+03  0.10000000000E+00 0.  1.
         -5    1    3    3    0  501 -0.27361813147E+02 -0.42165614549E+02 -0.18582718649E+03  0.19250548331E+03  0.10000000000E+00 0.  1.
          2    1    1    2  502    0  0.70784650032E+02  0.13766727464E+03 -0.13313174971E+04  0.13402869183E+04  0.00000000000E+00 0.  1.
<mgrwt>
<rscale>  1 0.19896853E+03</rscale>
<asrwt>0</asrwt>
<pdfrwt beam="1">  1       21 0.62746581E-02 0.19896853E+03</pdfrwt>
<pdfrwt beam="2">  1        2 0.24745322E+00 0.19896853E+03</pdfrwt>
<totfact> 0.28059131E+04</totfact>
</mgrwt>
</event>
<event>
 6    2  0.1181843E-002  0.1412045E+03  0.7546771E-02  0.1211717E+00
          1   -1    0    0  503    0 -0.00000000000E+00  0.00000000000E+00  0.11553251306E+03  0.11553251306E+03  0.00000000000E+00 0.  1.
         21   -1    0    0  502  503  0.00000000000E+00 -0.00000000000E+00 -0.24980465532E+03  0.24980465532E+03  0.00000000000E+00 0.  1.
         25    2    1    2    0    0  0.63851070957E+02  0.15484362430E+02  0.65048522822E+02  0.15546708411E+03  0.12498791613E+03 0.  0.
          5    1    3    3  501    0  0.33897737254E+02  0.92512386957E+01  0.10177301452E+03  0.10766800125E+03  0.10000000000E+00 0. -1.
         -5    1    3    3    0  501  0.29953333703E+02  0.62331237340E+01 -0.36724491700E+02  0.47799082857E+02  0.10000000000E+00 0. -1.
          1    1    1    2  502    0 -0.63851070957E+02 -0.15484362430E+02 -0.19932066508E+03  0.20987008427E+03  0.00000000000E+00 0.  1.
<mgrwt>
<rscale>  1 0.14120448E+03</rscale>
<asrwt>0</asrwt>
<pdfrwt beam="1">  1       21 0.38431485E-01 0.14120448E+03</pdfrwt>
<pdfrwt beam="2">  1        1 0.17774233E-01 0.14120448E+03</pdfrwt>
<totfact> 0.20945665E+04</totfact>
</mgrwt>
</event>
<event>
 6    2  0.1181843E-002  0.1332939E+03  0.7546771E-02  0.1222648E+00
          2   -1    0    0  503    0 -0.00000000000E+00  0.00000000000E+00  0.25659754892E+04  0.25659754892E+04  0.00000000000E+00 0. -1.
         21   -1    0    0  502  503  0.00000000000E+00 -0.00000000000E+00 -0.47913108110E+02  0.47913108110E+02  0.00000000000E+00 0. -1.
         25    2    1    2    0    0  0.30603441835E+02 -0.34670017056E+02  0.45429031026E+02  0.14082283502E+03  0.12501477221E+03 0.  0.
          5    1    3    3  501    0 -0.10960902495E+02  0.42597197333E+02  0.25530379764E+02  0.50857377981E+02  0.10000000000E+00 0. -1.
         -5    1    3    3    0  501  0.41564344330E+02 -0.77267214390E+02  0.19898651262E+02  0.89965457044E+02  0.10000000000E+00 0. -1.
          2    1    1    2  502    0 -0.30603441835E+02  0.34670017056E+02  0.24726333501E+04  0.24730657623E+04  0.00000000000E+00 0. -1.
<mgrwt>
<rscale>  1 0.13329394E+03</rscale>
<asrwt>0</asrwt>
<pdfrwt beam="1">  1       21 0.73712494E-02 0.13329394E+03</pdfrwt>
<pdfrwt beam="2">  1        2 0.39476535E+00 0.13329394E+03</pdfrwt>
<totfact> 0.69214526E+03</totfact>
</mgrwt>
</event>
<event>
 6    2  0.1181843E-002  0.1312402E+03  0.7546771E-02  0.1225627E+00
          2   -1    0    0  503    0 -0.00000000000E+00  0.00000000000E+00  0.21018020980E+02  0.21018020980E+02  0.00000000000E+00 0.  1.
         21   -1    0    0  502  503  0.00000000000E+00 -0.00000000000E+00 -0.66043699878E+03  0.66043699878E+03  0.00000000000E+00 0. -1.
         25    2    1    2    0    0 -0.10279380207E+02 -0.38629557786E+02 -0.62551120609E+03  0.63913085992E+03  0.12500431497E+03 0.  0.
          5    1    3    3  501    0  0.37464364589E+02 -0.57499287472E+02 -0.47887819541E+03  0.48377069229E+03  0.10000000000E+00 0. -1.
         -5    1    3    3    0  501 -0.47743744796E+02  0.18869729686E+02 -0.14663301068E+03  0.15536016763E+03  0.10000000000E+00 0. -1.
          2    1    1    2  502    0  0.10279380207E+02  0.38629557786E+02 -0.13907771706E+02  0.42324159838E+02  0.00000000000E+00 0.  1.
<mgrwt>
<rscale>  1 0.13124019E+03</rscale>
<asrwt>0</asrwt>
<pdfrwt beam="1">  1       21 0.10160569E+00 0.13124019E+03</pdfrwt>
<pdfrwt beam="2">  1        2 0.32335417E-02 0.13124019E+03</pdfrwt>
<totfact> 0.26708042E+04</totfact>
</mgrwt>
</event>
<event>
 6    2  0.1181843E-002  0.1305903E+03  0.7546771E-02  0.1226583E+00
         21   -1    0    0  502  503  0.00000000000E+00  0.00000000000E+00  0.81331662895E+02  0.81331662895E+02  0.00000000000E+00 0. -1.
          2   -1    0    0  503    0 -0.00000000000E+00 -0.00000000000E+00 -0.12084224258E+04  0.12084224258E+04  0.00000000000E+00 0. -1.
         25    2    1    2    0    0  0.36609753750E+02  0.93992699694E+01  0.28402134192E+02  0.13364317032E+03  0.12500078160E+03 0.  0.
          5    1    3    3  501    0  0.55345851437E+01 -0.12272778937E+02 -0.47198252710E+02  0.49080931067E+02  0.10000000000E+00 0. -1.
         -5    1    3    3    0  501  0.31075168606E+02  0.21672048907E+02  0.75600386902E+02  0.84562239253E+02  0.10000000000E+00 0. -1.
          2    1    1    2  502    0 -0.36609753750E+02 -0.93992699694E+01 -0.11554928971E+04  0.11561109184E+04  0.00000000000E+00 0. -1.
<mgrwt>
<rscale>  1 0.13059026E+03</rscale>
<asrwt>0</asrwt>
<pdfrwt beam="1">  1       21 0.12512564E-01 0.13059026E+03</pdfrwt>
<pdfrwt beam="2">  1        2 0.18591113E+00 0.13059026E+03</pdfrwt>
<totfact> 0.14019327E+04</totfact>
</mgrwt>
</event>
<event>
 6    2  0.1181843E-002  0.1596186E+03  0.7546771E-02  0.1189128E+00
          1   -1    0    0  503    0 -0.00000000000E+00  0.00000000000E+00  0.14969786717E+02  0.14969786717E+02  0.00000000000E+00 0. -1.
         21   -1    0    0  502  503  0.00000000000E+00 -0.00000000000E+00 -0.13891702447E+04  0.13891702447E+04  0.00000000000E+00 0.  1.
         25    2    1    2    0    0 -0.43590788407E+02  0.89171860751E+02 -0.11188276306E+04  0.11301563484E+04  0.12500530905E+03 0.  0.
          5    1    3    3  501    0  0.47269784950E+01 -0.21080453740E+02 -0.48665188338E+02  0.53245097536E+02  0.10000000000E+00 0. -1.
         -5    1    3    3    0  501 -0.48317766902E+02  0.11025231449E+03 -0.10701624422E+04  0.10769112508E+04  0.10000000000E+00 0. -1.
          1    1    1    2  502    0  0.43590788407E+02 -0.89171860751E+02 -0.25537282737E+03  0.27398368299E+03  0.00000000000E+00 0. -1.
<mgrwt>
<rscale>  1 0.15961862E+03</rscale>
<asrwt>0</asrwt>
<pdfrwt beam="1">  1       21 0.21371853E+00 0.15961862E+03</pdfrwt>
<pdfrwt beam="2">  1        1 0.23030438E-02 0.15961862E+03</pdfrwt>
<totfact> 0.57597515E+03</totfact>
</mgrwt>
</event>
<event>
 6    2  0.1181843E-002  0.1259378E+03  0.7546771E-02  0.1233611E+00
          2   -1    0    0  503    0 -0.00000000000E+00  0.00000000000E+00  0.15837740702E+04  0.15837740702E+04  0.00000000000E+00 0. -1.
         21   -1    0    0  502  503  0.00000000000E+00 -0.00000000000E+00 -0.47964042696E+01  0.47964042696E+01  0.00000000000E+00 0. -1.
         25    2    1    2    0    0 -0.12796429544E+02  0.84439630853E+01  0.83581550548E+03  0.84525018964E+03  0.12500109902E+03 0.  0.
          5    1    3    3  501    0  0.47476936026E+02  0.35032671782E+02  0.44985222000E+03  0.45370516570E+03  0.10000000000E+00 0. -1.
         -5    1    3    3    0  501 -0.60273365570E+02 -0.26588708696E+02  0.38596328548E+03  0.39154502394E+03  0.10000000000E+00 0. -1.
          2    1    1    2  502    0  0.12796429544E+02 -0.84439630853E+01  0.74316216043E+03  0.74332028482E+03  0.00000000000E+00 0. -1.
<mgrwt>
<rscale>  1 0.12593778E+03</rscale>
<asrwt>0</asrwt>
<pdfrwt beam="1">  1       21 0.73790961E-03 0.12593778E+03</pdfrwt>
<pdfrwt beam="2">  1        2 0.24365713E+00 0.12593778E+03</pdfrwt>
<totfact> 0.94675451E+05</totfact>
</mgrwt>
</event>
<event>
 6    2  0.1181843E-002  0.1545408E+03  0.7546771E-02  0.1195002E+00
          1   -1    0    0  503    0 -0.00000000000E+00  0.00000000000E+00  0.17345435944E+04  0.17345435944E+04  0.00000000000E+00 0. -1.
         21   -1    0    0  502  503  0.00000000000E+00 -0.00000000000E+00 -0.88875681212E+01  0.88875681212E+01  0.00000000000E+00 0. -1.
         25    2    1    2    0    0  0.57317726727E+02 -0.70516129979E+02  0.95289373676E+03  0.96534414780E+03  0.12500001496E+03 0.  0.
          5    1    3    3  501    0  0.50657261763E+02 -0.70642401718E+02  0.29808465656E+03  0.31050117482E+03  0.10000000000E+00 0. -1.
         -5    1    3    3    0  501  0.66604649640E+01  0.12627173926E+00  0.65480908020E+03  0.65484297297E+03  0.10000000000E+00 0. -1.
          1    1    1    2  502    0 -0.57317726727E+02  0.70516129979E+02  0.77276228954E+03  0.77808701475E+03  0.00000000000E+00 0. -1.
<mgrwt>
<rscale>  1 0.15454077E+03</rscale>
<asrwt>0</asrwt>
<pdfrwt beam="1">  1       21 0.13673195E-02 0.15454077E+03</pdfrwt>
<pdfrwt beam="2">  1        1 0.26685259E+00 0.15454077E+03</pdfrwt>
<totfact> 0.13052274E+05</totfact>
</mgrwt>
</event>
<event>
 6    2  0.1181843E-002  0.1303515E+03  0.7546771E-02  0.1226935E+00
          4   -1    0    0  503    0 -0.00000000000E+00  0.00000000000E+00  0.19520165482E+03  0.19520165482E+03  0.00000000000E+00 0.  1.
         21   -1    0    0  502  503  0.00000000000E+00 -0.00000000000E+00 -0.56768056584E+02  0.56768056584E+02  0.00000000000E+00 0. -1.
         25    2    1    2    0    0 -0.35497927769E+02  0.10298327153E+02  0.25080171179E+02  0.13274237459E+03  0.12500145842E+03 0.  0.
          5    1    3    3  501    0 -0.50597581852E+02 -0.19139086850E+02  0.62589136069E+02  0.82727443382E+02  0.10000000000E+00 0.  1.
         -5    1    3    3    0  501  0.15099654083E+02  0.29437414004E+02 -0.37508964890E+02  0.50014931208E+02  0.10000000000E+00 0.  1.
          4    1    1    2  502    0  0.35497927769E+02 -0.10298327153E+02  0.11335342706E+03  0.11922733681E+03  0.00000000000E+00 0.  1.
<mgrwt>
<rscale>  1 0.13035154E+03</rscale>
<asrwt>0</asrwt>
<pdfrwt beam="1">  1       21 0.87335473E-02 0.13035154E+03</pdfrwt>
<pdfrwt beam="2">  1        4 0.30031023E-01 0.13035154E+03</pdfrwt>
<totfact> 0.44018064E+04</totfact>
</mgrwt>
</event>
<event>
 6    2  0.1181843E-002  0.1341408E+03  0.7546771E-02  0.1221438E+00
          1   -1    0    0  503    0 -0.00000000000E+00  0.00000000000E+00  0.10270425653E+04  0.10270425653E+04  0.00000000000E+00 0.  1.
         21   -1    0    0  502  503  0.00000000000E+00 -0.00000000000E+00 -0.90669538738E+01  0.90669538738E+01  0.00000000000E+00 0.  1.
         25    2    1    2    0    0 -0.59344931327E+01 -0.48294120117E+02  0.57351216700E+03  0.58899063825E+03  0.12500490392E+03 0.  0.
          5    1    3    3  501    0  0.54221303525E+02  0.21450960012E+01  0.19412882914E+03  0.20157024457E+03  0.10000000000E+00 0.  1.
         -5    1    3    3    0  501 -0.60155796658E+02 -0.50439216118E+02  0.37938333786E+03  0.38742039368E+03  0.10000000000E+00 0.  1.
          1    1    1    2  502    0  0.59344931327E+01  0.48294120117E+02  0.44446344445E+03  0.44711888094E+03  0.00000000000E+00 0.  1.
<mgrwt>
<rscale>  1 0.13414084E+03</rscale>
<asrwt>0</asrwt>
<pdfrwt beam="1">  1       21 0.13949168E-02 0.13414084E+03</pdfrwt>
<pdfrwt beam="2">  1        1 0.15800646E+00 0.13414084E+03</pdfrwt>
<totfact> 0.37382591E+05</totfact>
</mgrwt>
</event>
<event>
 6    2  0.1181843E-002  0.1284119E+03  0.7546771E-02  0.1229831E+00
         21   -1    0    0  502  503  0.00000000000E+00  0.00000000000E+00  0.15816262027E+02  0.15816262027E+02  0.00000000000E+00 0.  1.
          2   -1    0    0  503    0 -0.00000000000E+00 -0.00000000000E+00 -0.20598758505E+04  0.20598758505E+04  0.00000000000E+00 0.  1.
         25    2    1    2    0    0 -0.24987155422E+02  0.15498997786E+02 -0.24694430691E+03  0.27833630131E+03  0.12500011618E+03 0.  0.
          5    1    3    3  501    0 -0.39978244262E+02  0.24843945997E+02 -0.25472204531E+03  0.25903438388E+03  0.10000000000E+00 0. -1.
         -5    1    3    3    0  501  0.14991088840E+02 -0.93449482110E+01  0.77777384051E+01  0.19301917427E+02  0.10000000000E+00 0. -1.
          2    1    1    2  502    0  0.24987155422E+02 -0.15498997786E+02 -0.17971152815E+04  0.17973558112E+04  0.00000000000E+00 0.  1.
<mgrwt>
<rscale>  1 0.12841186E+03</rscale>
<asrwt>0</asrwt>
<pdfrwt beam="1">  1       21 0.24332727E-02 0.12841186E+03</pdfrwt>
<pdfrwt beam="2">  1        2 0.31690377E+00 0.12841186E+03</pdfrwt>
<totfact> 0.81050475E+04</totfact>
</mgrwt>
</event>
<event>
 6    2  0.1181843E-002  0.1263831E+03  0.7546771E-02  0.1232923E+00
          1   -1    0    0  503    0 -0.00000000000E+00  0.00000000000E+00  0.77595573739E+02  0.77595573739E+02  0.00000000000E+00 0. -1.
         21   -1    0    0  502  503  0.00000000000E+00 -0.00000000000E+00 -0.67770664060E+02  0.67770664060E+02  0.00000000000E+00 0. -1.
         25    2    1    2    0    0 -0.18134749102E+02  0.43065396862E+01  0.91784164427E+01  0.12671594658E+03  0.12500108951E+03 0.  0.
          5    1    3    3  501    0 -0.37371075512E+02  0.50019316526E+02  0.34173098169E+02  0.71178226651E+02  0.10000000000E+00 0.  1.
         -5    1    3    3    0  501  0.19236326410E+02 -0.45712776840E+02 -0.24994681727E+02  0.55537719928E+02  0.10000000000E+00 0.  1.
          1    1    1    2  502    0  0.18134749102E+02 -0.43065396862E+01  0.64649323590E+00  0.18650291220E+02  0.00000000000E+00 0. -1.
<mgrwt>
<rscale>  1 0.12638310E+03</rscale>
<asrwt>0</asrwt>
<pdfrwt beam="1">  1       21 0.10426256E-01 0.12638310E+03</pdfrwt>
<pdfrwt beam="2">  1        1 0.11937781E-01 0.12638310E+03</pdfrwt>
<totfact> 0.39441994E+05</totfact>
</mgrwt>
</event>
<event>
 6    2  0.1181843E-002  0.1318889E+03  0.7546771E-02  0.1224680E+00
         21   -1    0    0  502  503  0.00000000000E+00  0.00000000000E+00  0.10833009941E+02  0.10833009941E+02  0.00000000000E+00 0. -1.
          1   -1    0    0  503    0 -0.00000000000E+00 -0.00000000000E+00 -0.11124955988E+04  0.11124955988E+04  0.00000000000E+00 0. -1.
         25    2    1    2    0    0 -0.12858198737E+01 -0.42099882024E+02 -0.41673625733E+03  0.43710843051E+03  0.12498247255E+03 0.  0.
          5    1    3    3  501    0 -0.32456873042E+02 -0.76607550037E+02 -0.22731069621E+03  0.24205852173E+03  0.10000000000E+00 0. -1.
         -5    1    3    3    0  501  0.31171053168E+02  0.34507668013E+02 -0.18942556112E+03  0.19504990878E+03  0.10000000000E+00 0. -1.
          1    1    1    2  502    0  0.12858198737E+01  0.42099882024E+02 -0.68492633154E+03  0.68622017825E+03  0.00000000000E+00 0. -1.
<mgrwt>
<rscale>  1 0.13188886E+03</rscale>
<asrwt>0</asrwt>
<pdfrwt beam="1">  1       21 0.16666168E-02 0.13188886E+03</pdfrwt>
<pdfrwt beam="2">  1        1 0.17115319E+00 0.13188886E+03</pdfrwt>
<totfact> 0.24434377E+05</totfact>
</mgrwt>
</event>
<event>
 6    2  0.1181843E-002  0.1265525E+03  0.7546771E-02  0.1232663E+00
          2   -1    0    0  503    0 -0.00000000000E+00  0.00000000000E+00  0.77587451977E+03  0.77587451977E+03  0.00000000000E+00 0. -1.
         21   -1    0    0  502  503  0.00000000000E+00 -0.00000000000E+00 -0.67333902914E+03  0.67333902914E+03  0.00000000000E+00 0. -1.
         25    2    1    2    0    0  0.31224506832E+01 -0.19528688073E+02 -0.66726459375E+03  0.67915946687E+03  0.12499769602E+03 0.  0.
          5    1    3    3  501    0  0.25321751748E+02 -0.68365053368E+02 -0.38194553017E+03  0.38884105962E+03  0.10000000000E+00 0.  1.
         -5    1    3    3    0  501 -0.22199301065E+02  0.48836365296E+02 -0.28531906358E+03  0.29031840725E+03  0.10000000000E+00 0.  1.
          2    1    1    2  502    0 -0.31224506832E+01  0.19528688073E+02  0.76980008438E+03  0.77005408204E+03  0.00000000000E+00 0. -1.
<mgrwt>
<rscale>  1 0.12655253E+03</rscale>
<asrwt>0</asrwt>
<pdfrwt beam="1">  1       21 0.10359062E+00 0.12655253E+03</pdfrwt>
<pdfrwt beam="2">  1        2 0.11936531E+00 0.12655253E+03</pdfrwt>
<totfact> 0.37270739E+02</totfact>
</mgrwt>
</event>
<event>
 6    2  0.1181843E-002  0.1394150E+03  0.7546771E-02  0.1214118E+00
         21   -1    0    0  502  503  0.00000000000E+00  0.00000000000E+00  0.12879456567E+02  0.12879456567E+02  0.00000000000E+00 0.  1.
          4   -1    0    0  503    0 -0.00000000000E+00 -0.00000000000E+00 -0.89508679758E+03  0.89508679758E+03  0.00000000000E+00 0.  1.
         25    2    1    2    0    0 -0.42535944192E+02  0.44725855597E+02 -0.44235504106E+03  0.46380439797E+03  0.12500731387E+03 0.  0.
          5    1    3    3  501    0 -0.52859677620E+02  0.53434598772E+02 -0.12288575175E+03  0.14404971311E+03  0.10000000000E+00 0. -1.
         -5    1    3    3    0  501  0.10323733427E+02 -0.87087431750E+01 -0.31946928931E+03  0.31975468486E+03  0.10000000000E+00 0. -1.
          4    1    1    2  502    0  0.42535944192E+02 -0.44725855597E+02 -0.43985229995E+03  0.44416185617E+03  0.00000000000E+00 0.  1.
<mgrwt>
<rscale>  1 0.13941498E+03</rscale>
<asrwt>0</asrwt>
<pdfrwt beam="1">  1       21 0.19814547E-02 0.13941498E+03</pdfrwt>
<pdfrwt beam="2">  1        4 0.13770567E+00 0.13941498E+03</pdfrwt>
<totfact> 0.20140177E+04</totfact>
</mgrwt>
</event>
<event>
 6    2  0.1181843E-002  0.1260477E+03  0.7546771E-02  0.1233441E+00
         21   -1    0    0  502  503  0.00000000000E+00  0.00000000000E+00  0.40994385838E+02  0.40994385838E+02  0.00000000000E+00 0. -1.
          1   -1    0    0  503    0 -0.00000000000E+00 -0.00000000000E+00 -0.12319032693E+04  0.12319032693E+04  0.00000000000E+00 0. -1.
         25    2    1    2    0    0 -0.72839989031E+01  0.14453158510E+02 -0.56091354845E+02  0.13796471717E+03  0.12500429058E+03 0.  0.
          5    1    3    3  501    0 -0.46261440867E+01 -0.50704148698E+02 -0.51767606306E+02  0.72609964653E+02  0.10000000000E+00 0. -1.
         -5    1    3    3    0  501 -0.26578548164E+01  0.65157307208E+02 -0.43237485394E+01  0.65354752515E+02  0.10000000000E+00 0. -1.
          1    1    1    2  502    0  0.72839989031E+01 -0.14453158510E+02 -0.11348175286E+04  0.11349329380E+04  0.00000000000E+00 0. -1.
<mgrwt>
<rscale>  1 0.12604770E+03</rscale>
<asrwt>0</asrwt>
<pdfrwt beam="1">  1       21 0.63068292E-02 0.12604770E+03</pdfrwt>
<pdfrwt beam="2">  1        1 0.18952356E+00 0.12604770E+03</pdfrwt>
<totfact> 0.22573970E+04</totfact>
</mgrwt>
</event>
<event>
 6    2  0.1181843E-002  0.1261435E+03  0.7546771E-02  0.1233293E+00
          2   -1    0    0  503    0 -0.00000000000E+00  0.00000000000E+00  0.70425006310E+02  0.70425006310E+02  0.00000000000E+00 0. -1.
         21   -1    0    0  502  503  0.00000000000E+00 -0.00000000000E+00 -0.13406811054E+03  0.13406811054E+03  0.00000000000E+00 0. -1.
         25    2    1    2    0    0 -0.69099626586E+01  0.15457711164E+02 -0.10222186742E+03  0.16236225657E+03  0.12500201503E+03 0.  0.
          5    1    3    3  501    0 -0.23936773222E+01 -0.45568188083E+02 -0.88616889275E+02  0.99675235245E+02  0.10000000000E+00 0. -1.
         -5    1    3    3    0  501 -0.45162853364E+01  0.61025899248E+02 -0.13604978150E+02  0.62687021326E+02  0.10000000000E+00 0. -1.
          2    1    1    2  502    0  0.69099626586E+01 -0.15457711164E+02  0.38578763194E+02  0.42130860281E+02  0.00000000000E+00 0. -1.
<mgrwt>
<rscale>  1 0.12614354E+03</rscale>
<asrwt>0</asrwt>
<pdfrwt beam="1">  1       21 0.20625863E-01 0.12614354E+03</pdfrwt>
<pdfrwt beam="2">  1        2 0.10834616E-01 0.12614354E+03</pdfrwt>
<totfact> 0.15034029E+05</totfact>
</mgrwt>
</event>
<event>
 6    2  0.1181843E-002  0.1993720E+03  0.7546771E-02  0.1150270E+00
          2   -1    0    0  503    0 -0.00000000000E+00  0.00000000000E+00  0.18084288342E+04  0.18084288342E+04  0.00000000000E+00 0.  1.
         21   -1    0    0  502  503  0.00000000000E+00 -0.00000000000E+00 -0.20762571334E+02  0.20762571334E+02  0.00000000000E+00 0.  1.
         25    2    1    2    0    0  0.87536653955E+02  0.12830374931E+03  0.13529489410E+04  0.13675598773E+04  0.12499865341E+03 0.  0.
          5    1    3    3  501    0 -0.20444301120E+01 -0.17121966975E+01  0.50674909647E+03  0.50675612288E+03  0.10000000000E+00 0. -1.
         -5    1    3    3    0  501  0.89581084067E+02  0.13001594600E+03  0.84619984451E+03  0.86080375446E+03  0.10000000000E+00 0. -1.
          2    1    1    2  502    0 -0.87536653955E+02 -0.12830374931E+03  0.43471732192E+03  0.46163152823E+03  0.00000000000E+00 0.  1.
<mgrwt>
<rscale>  1 0.19937197E+03</rscale>
<asrwt>0</asrwt>
<pdfrwt beam="1">  1       21 0.31942432E-02 0.19937197E+03</pdfrwt>
<pdfrwt beam="2">  1        2 0.27821970E+00 0.19937197E+03</pdfrwt>
<totfact> 0.68983608E+04</totfact>
</mgrwt>
</event>
<event>
 6    2  0.1181843E-002  0.1261793E+03  0.7546771E-02  0.1233238E+00
          1   -1    0    0  503    0 -0.00000000000E+00  0.00000000000E+00  0.96942150250E+02  0.96942150250E+02  0.00000000000E+00 0.  1.
         21   -1    0    0  502  503  0.00000000000E+00 -0.00000000000E+00 -0.56857500608E+02  0.56857500608E+02  0.00000000000E+00 0.  1.
         25    2    1    2    0    0 -0.12256064814E+02 -0.11590720001E+02  0.20303291503E+02  0.12780238091E+03  0.12504666731E+03 0.  0.
          5    1    3    3  501    0 -0.35924108291E+02  0.40673230781E+02  0.39700915070E+02  0.67238574613E+02  0.10000000000E+00 0. -1.
         -5    1    3    3    0  501  0.23668043477E+02 -0.52263950781E+02 -0.19397623567E+02  0.60563806298E+02  0.10000000000E+00 0. -1.
          1    1    1    2  502    0  0.12256064814E+02  0.11590720001E+02  0.19781358139E+02  0.25997269947E+02  0.00000000000E+00 0.  1.
<mgrwt>
<rscale>  1 0.12617934E+03</rscale>
<asrwt>0</asrwt>
<pdfrwt beam="1">  1       21 0.87473078E-02 0.12617934E+03</pdfrwt>
<pdfrwt beam="2">  1        1 0.14914177E-01 0.12617934E+03</pdfrwt>
<totfact> 0.40091630E+05</totfact>
</mgrwt>
</event>
<event>
 6    2  0.1181843E-002  0.1346352E+03  0.7546771E-02  0.1220736E+00
         21   -1    0    0  502  503  0.00000000000E+00  0.00000000000E+00  0.10143382572E+02  0.10143382572E+02  0.00000000000E+00 0. -1.
          2   -1    0    0  503    0 -0.00000000000E+00 -0.00000000000E+00 -0.96899148147E+03  0.96899148147E+03  0.00000000000E+00 0. -1.
         25    2    1    2    0    0  0.22325023602E+02  0.44743861282E+02 -0.50859537972E+03  0.52611396946E+03  0.12500491505E+03 0.  0.
          5    1    3    3  501    0  0.23890701095E+02  0.49925254442E+02 -0.78858435561E+02  0.96342926513E+02  0.10000000000E+00 0. -1.
         -5    1    3    3    0  501 -0.15656774927E+01 -0.51813931603E+01 -0.42973694416E+03  0.42977104295E+03  0.10000000000E+00 0. -1.
          2    1    1    2  502    0 -0.22325023602E+02 -0.44743861282E+02 -0.45025271917E+03  0.45302089458E+03  0.00000000000E+00 0. -1.
<mgrwt>
<rscale>  1 0.13463524E+03</rscale>
<asrwt>0</asrwt>
<pdfrwt beam="1">  1       21 0.15605197E-02 0.13463524E+03</pdfrwt>
<pdfrwt beam="2">  1        2 0.14907568E+00 0.13463524E+03</pdfrwt>
<totfact> 0.63142432E+05</totfact>
</mgrwt>
</event>
<event>
 6    2  0.1181843E-002  0.1332375E+03  0.7546771E-02  0.1222729E+00
          1   -1    0    0  503    0 -0.00000000000E+00  0.00000000000E+00  0.78067221820E+03  0.78067221820E+03  0.00000000000E+00 0. -1.
         21   -1    0    0  502  503  0.00000000000E+00 -0.00000000000E+00 -0.13513677692E+03  0.13513677692E+03  0.00000000000E+00 0. -1.
         25    2    1    2    0    0  0.31396387320E+02  0.33772383063E+02 -0.10141087153E+03  0.16744070262E+03  0.12500366809E+03 0.  0.
          5    1    3    3  501    0  0.33314848605E+02 -0.14074253607E+02  0.16816203608E+02  0.39884313407E+02  0.10000000000E+00 0.  1.
         -5    1    3    3    0  501 -0.19184612844E+01  0.47846636670E+02 -0.11822707514E+03  0.12755638921E+03  0.10000000000E+00 0.  1.
          1    1    1    2  502    0 -0.31396387320E+02 -0.33772383063E+02  0.74694631281E+03  0.74836829250E+03  0.00000000000E+00 0. -1.
<mgrwt>
<rscale>  1 0.13323747E+03</rscale>
<asrwt>0</asrwt>
<pdfrwt beam="1">  1       21 0.20790274E-01 0.13323747E+03</pdfrwt>
<pdfrwt beam="2">  1        1 0.12010341E+00 0.13323747E+03</pdfrwt>
<totfact> 0.58610973E+03</totfact>
</mgrwt>
</event>
<event>
 6    2  0.1181843E-002  0.1358402E+03  0.7546771E-02  0.1219038E+00
         21   -1    0    0  502  503  0.00000000000E+00  0.00000000000E+00  0.46459457477E+02  0.46459457477E+02  0.00000000000E+00 0.  1.
          1   -1    0    0  503    0 -0.00000000000E+00 -0.00000000000E+00 -0.95196416917E+03  0.95196416917E+03  0.00000000000E+00 0. -1.
         25    2    1    2    0    0 -0.63102012013E+01  0.52802287261E+02 -0.55473421146E+02  0.14673055101E+03  0.12499861586E+03 0.  0.
          5    1    3    3  501    0 -0.87318743175E+01  0.93832032982E+02 -0.44342309776E+02  0.10414867488E+03  0.10000000000E+00 0. -1.
         -5    1    3    3    0  501  0.24216731162E+01 -0.41029745722E+02 -0.11131111371E+02  0.42581876133E+02  0.10000000000E+00 0. -1.
          1    1    1    2  502    0  0.63102012013E+01 -0.52802287261E+02 -0.85003129055E+03  0.85169307564E+03  0.00000000000E+00 0. -1.
<mgrwt>
<rscale>  1 0.13584018E+03</rscale>
<asrwt>0</asrwt>
<pdfrwt beam="1">  1       21 0.71476090E-02 0.13584018E+03</pdfrwt>
<pdfrwt beam="2">  1        1 0.14645602E+00 0.13584018E+03</pdfrwt>
<totfact> 0.28721652E+04</totfact>
</mgrwt>
</event>
<event>
 6    2  0.1181843E-002  0.1608392E+03  0.7546771E-02  0.1187753E+00
         21   -1    0    0  502  503  0.00000000000E+00  0.00000000000E+00  0.24428547041E+03  0.24428547041E+03  0.00000000000E+00 0. -1.
          1   -1    0    0  503    0 -0.00000000000E+00 -0.00000000000E+00 -0.19204202716E+03  0.19204202716E+03  0.00000000000E+00 0.  1.
         25    2    1    2    0    0 -0.93493001967E+02 -0.38780653880E+02  0.20035970729E+03  0.25693042902E+03  0.12499741004E+03 0.  0.
          5    1    3    3  501    0 -0.11772742940E+03 -0.26698051284E+02  0.19497550001E+03  0.22932071250E+03  0.10000000000E+00 0.  1.
         -5    1    3    3    0  501  0.24234427430E+02 -0.12082602596E+02  0.53842072776E+01  0.27609716521E+02  0.10000000000E+00 0.  1.
          1    1    1    2  502    0  0.93493001967E+02  0.38780653880E+02 -0.14811626404E+03  0.17939706856E+03  0.00000000000E+00 0.  1.
<mgrwt>
<rscale>  1 0.16083915E+03</rscale>
<asrwt>0</asrwt>
<pdfrwt beam="1">  1       21 0.37582380E-01 0.16083915E+03</pdfrwt>
<pdfrwt beam="2">  1        1 0.29544927E-01 0.16083915E+03</pdfrwt>
<totfact> 0.11492776E+04</totfact>
</mgrwt>
</event>
<event>
 6    2  0.1181843E-002  0.2044895E+03  0.7546771E-02  0.1146006E+00
         21   -1    0    0  502  503  0.00000000000E+00  0.00000000000E+00  0.21471090769E+02  0.21471090769E+02  0.00000000000E+00 0.  1.
          2   -1    0    0  503    0 -0.00000000000E+00 -0.00000000000E+00 -0.16706698134E+04  0.16706698134E+04  0.00000000000E+00 0.  1.
         25    2    1    2    0    0 -0.98316601796E+02  0.12845778604E+03 -0.70001230801E+03  0.72926894659E+03  0.12509359742E+03 0.  0.
          5    1    3    3  501    0 -0.91752387628E+02  0.15315203428E+03 -0.59612150887E+03  0.62228201772E+03  0.10000000000E+00 0. -1.
         -5    1    3    3    0  501 -0.65642141689E+01 -0.24694248239E+02 -0.10389079914E+03  0.10698692888E+03  0.10000000000E+00 0. -1.
          2    1    1    2  502    0  0.98316601796E+02 -0.12845778604E+03 -0.94918641458E+03  0.96287195754E+03  0.00000000000E+00 0.  1.
<mgrwt>
<rscale>  1 0.20448952E+03</rscale>
<asrwt>0</asrwt>
<pdfrwt beam="1">  1       21 0.33032450E-02 0.20448952E+03</pdfrwt>
<pdfrwt beam="2">  1        2 0.25702611E+00 0.20448952E+03</pdfrwt>
<totfact> 0.76880814E+04</totfact>
</mgrwt>
</event>
<event>
 6    2  0.1181843E-002  0.1285130E+03  0.7546771E-02  0.1229679E+00
         21   -1    0    0  502  503  0.00000000000E+00  0.00000000000E+00  0.10666847280E+02  0.10666847280E+02  0.00000000000E+00 0.  1.
          1   -1    0    0  503    0 -0.00000000000E+00 -0.00000000000E+00 -0.12505604113E+04  0.12505604113E+04  0.00000000000E+00 0.  1.
         25    2    1    2    0    0  0.19757070089E+02 -0.22376603517E+02 -0.38637699037E+03  0.40718885447E+03  0.12499812123E+03 0.  0.
          5    1    3    3  501    0 -0.44246985567E+02 -0.33281586930E+01 -0.63427904118E+02  0.77407889733E+02  0.10000000000E+00 0.  1.
         -5    1    3    3    0  501  0.64004055657E+02 -0.19048444824E+02 -0.32294908625E+03  0.32978096473E+03  0.10000000000E+00 0.  1.
          1    1    1    2  502    0 -0.19757070089E+02  0.22376603517E+02 -0.85351657369E+03  0.85403840416E+03  0.00000000000E+00 0.  1.
<mgrwt>
<rscale>  1 0.12851297E+03</rscale>
<asrwt>0</asrwt>
<pdfrwt beam="1">  1       21 0.16410540E-02 0.12851297E+03</pdfrwt>
<pdfrwt beam="2">  1        1 0.19239384E+00 0.12851297E+03</pdfrwt>
<totfact> 0.20120928E+05</totfact>
</mgrwt>
</event>
<event>
 6    2  0.1181843E-002  0.1259149E+03  0.7546771E-02  0.1233646E+00
          1   -1    0    0  503    0 -0.00000000000E+00  0.00000000000E+00  0.45518011706E+02  0.45518011706E+02  0.00000000000E+00 0.  1.
         21   -1    0    0  502  503  0.00000000000E+00 -0.00000000000E+00 -0.12464578994E+03  0.12464578994E+03  0.00000000000E+00 0.  1.
         25    2    1    2    0    0  0.97884625473E+01  0.11577165114E+02 -0.87032608002E+02  0.15306610926E+03  0.12499885679E+03 0.  0.
          5    1    3    3  501    0 -0.32174454838E+02  0.54083335479E+02 -0.61876548385E+02  0.88254858000E+02  0.10000000000E+00 0.  1.
         -5    1    3    3    0  501  0.41962917385E+02 -0.42506170365E+02 -0.25156059617E+02  0.64811251261E+02  0.10000000000E+00 0.  1.
          1    1    1    2  502    0 -0.97884625473E+01 -0.11577165114E+02  0.79048297697E+01  0.17097692383E+02  0.00000000000E+00 0.  1.
<mgrwt>
<rscale>  1 0.12591489E+03</rscale>
<asrwt>0</asrwt>
<pdfrwt beam="1">  1       21 0.19176275E-01 0.12591489E+03</pdfrwt>
<pdfrwt beam="2">  1        1 0.70027712E-02 0.12591489E+03</pdfrwt>
<totfact> 0.26844854E+05</totfact>
</mgrwt>
</event>
<event>
 6    2  0.1181843E-002  0.1374610E+03  0.7546771E-02  0.1216787E+00
         21   -1    0    0  502  503  0.00000000000E+00  0.00000000000E+00  0.28527331804E+02  0.28527331804E+02  0.00000000000E+00 0. -1.
          1   -1    0    0  503    0 -0.00000000000E+00 -0.00000000000E+00 -0.41006849361E+03  0.41006849361E+03  0.00000000000E+00 0. -1.
         25    2    1    2    0    0  0.49171134113E+02  0.29217626866E+02 -0.16565120858E+03  0.21525764674E+03  0.12499624565E+03 0.  0.
          5    1    3    3  501    0 -0.73283665394E+01  0.38401590807E+02 -0.15126634387E+03  0.15623669198E+03  0.10000000000E+00 0.  1.
         -5    1    3    3    0  501  0.56499500652E+02 -0.91839639407E+01 -0.14384864703E+02  0.59020954754E+02  0.10000000000E+00 0.  1.
          1    1    1    2  502    0 -0.49171134113E+02 -0.29217626866E+02 -0.21588995323E+03  0.22333817868E+03  0.00000000000E+00 0. -1.
<mgrwt>
<rscale>  1 0.13746102E+03</rscale>
<asrwt>0</asrwt>
<pdfrwt beam="1">  1       21 0.43888207E-02 0.13746102E+03</pdfrwt>
<pdfrwt beam="2">  1        1 0.63087454E-01 0.13746102E+03</pdfrwt>
<totfact> 0.21358222E+05</totfact>
</mgrwt>
</event>
<event>
 6    2  0.1181843E-002  0.1726141E+03  0.7546771E-02  0.1175149E+00
          1   -1    0    0  503    0 -0.00000000000E+00  0.00000000000E+00  0.32898791435E+02  0.32898791435E+02  0.00000000000E+00 0. -1.
         21   -1    0    0  502  503  0.00000000000E+00 -0.00000000000E+00 -0.13106885327E+04  0.13106885327E+04  0.00000000000E+00 0. -1.
         25    2    1    2    0    0 -0.10781670752E+03  0.50444518551E+02 -0.11710539643E+04  0.11837073130E+04  0.12500609478E+03 0.  0.
          5    1    3    3  501    0 -0.12421150559E+03  0.59350176856E+02 -0.76927334542E+03  0.78149371820E+03  0.10000000000E+00 0.  1.
         -5    1    3    3    0  501  0.16394798069E+02 -0.89056583048E+01 -0.40178061888E+03  0.40221359483E+03  0.10000000000E+00 0.  1.
          1    1    1    2  502    0  0.10781670752E+03 -0.50444518551E+02 -0.10673577700E+03  0.15988001114E+03  0.00000000000E+00 0. -1.
<mgrwt>
<rscale>  1 0.17261407E+03</rscale>
<asrwt>0</asrwt>
<pdfrwt beam="1">  1       21 0.20164438E+00 0.17261407E+03</pdfrwt>
<pdfrwt beam="2">  1        1 0.50613527E-02 0.17261407E+03</pdfrwt>
<totfact> 0.22817303E+03</totfact>
</mgrwt>
</event>
<event>
 6    2  0.1181843E-002  0.1264200E+03  0.7546771E-02  0.1232867E+00
          1   -1    0    0  503    0 -0.00000000000E+00  0.00000000000E+00  0.57845513651E+03  0.57845513651E+03  0.00000000000E+00 0.  1.
         21   -1    0    0  502  503  0.00000000000E+00 -0.00000000000E+00 -0.91444384227E+01  0.91444384227E+01  0.00000000000E+00 0.  1.
         25    2    1    2    0    0 -0.67898288058E+01  0.17676894515E+02  0.48736473462E+03  0.50349419280E+03  0.12499377288E+03 0.  0.
          5    1    3    3  501    0 -0.21430513625E+02 -0.45439054419E+01  0.78946789878E+01  0.23286260911E+02  0.10000000000E+00 0. -1.
         -5    1    3    3    0  501  0.14640684819E+02  0.22220799957E+02  0.47947005563E+03  0.48020793189E+03  0.10000000000E+00 0. -1.
          1    1    1    2  502    0  0.67898288058E+01 -0.17676894515E+02  0.81945963465E+02  0.84105382129E+02  0.00000000000E+00 0.  1.
<mgrwt>
<rscale>  1 0.12642000E+03</rscale>
<asrwt>0</asrwt>
<pdfrwt beam="1">  1       21 0.14068371E-02 0.12642000E+03</pdfrwt>
<pdfrwt beam="2">  1        1 0.88993069E-01 0.12642000E+03</pdfrwt>
<totfact> 0.86747261E+05</totfact>
</mgrwt>
</event>
<event>
 6    2  0.1181843E-002  0.1320681E+03  0.7546771E-02  0.1224419E+00
          1   -1    0    0  503    0 -0.00000000000E+00  0.00000000000E+00  0.15818822036E+04  0.15818822036E+04  0.00000000000E+00 0.  1.
         21   -1    0    0  502  503  0.00000000000E+00 -0.00000000000E+00 -0.36431223810E+02  0.36431223810E+02  0.00000000000E+00 0.  1.
         25    2    1    2    0    0 -0.28287757502E+02 -0.31843753130E+02  0.84598956179E+02  0.15684058923E+03  0.12501106034E+03 0.  0.
          5    1    3    3  501    0 -0.63470129992E+02  0.35003458253E+01  0.61248870018E+01  0.63861052785E+02  0.10000000000E+00 0. -1.
         -5    1    3    3    0  501  0.35182372490E+02 -0.35344098955E+02  0.78474069178E+02  0.92979536449E+02  0.10000000000E+00 0. -1.
          1    1    1    2  502    0  0.28287757502E+02  0.31843753130E+02  0.14608520236E+04  0.14614728382E+04  0.00000000000E+00 0.  1.
<mgrwt>
<rscale>  1 0.13206812E+03</rscale>
<asrwt>0</asrwt>
<pdfrwt beam="1">  1       21 0.56048049E-02 0.13206812E+03</pdfrwt>
<pdfrwt beam="2">  1        1 0.24336644E+00 0.13206812E+03</pdfrwt>
<totfact> 0.16219121E+04</totfact>
</mgrwt>
</event>
<event>
 6    2  0.1181843E-002  0.1261068E+03  0.7546771E-02  0.1233350E+00
         21   -1    0    0  502  503  0.00000000000E+00  0.00000000000E+00  0.10901482881E+03  0.10901482881E+03  0.00000000000E+00 0.  1.
          2   -1    0    0  503    0 -0.00000000000E+00 -0.00000000000E+00 -0.71158150708E+03  0.71158150708E+03  0.00000000000E+00 0.  1.
         25    2    1    2    0    0 -0.97250039629E+01 -0.13555622867E+02  0.72407599982E+02  0.14541591043E+03  0.12499838342E+03 0.  0.
          5    1    3    3  501    0  0.34250877194E+02 -0.34035580473E+02  0.82756507575E+02  0.95813323043E+02  0.10000000000E+00 0.  1.
         -5    1    3    3    0  501 -0.43975881157E+02  0.20479957605E+02 -0.10348907593E+02  0.49602587386E+02  0.10000000000E+00 0.  1.
          2    1    1    2  502    0  0.97250039629E+01  0.13555622867E+02 -0.67497427825E+03  0.67518042545E+03  0.00000000000E+00 0.  1.
<mgrwt>
<rscale>  1 0.12610681E+03</rscale>
<asrwt>0</asrwt>
<pdfrwt beam="1">  1       21 0.16771513E-01 0.12610681E+03</pdfrwt>
<pdfrwt beam="2">  1        2 0.10947407E+00 0.12610681E+03</pdfrwt>
<totfact> 0.16807891E+04</totfact>
</mgrwt>
</event>
<event>
 6    2  0.1181843E-002  0.1286337E+03  0.7546771E-02  0.1229497E+00
         21   -1    0    0  502  503  0.00000000000E+00  0.00000000000E+00  0.33957696436E+03  0.33957696436E+03  0.00000000000E+00 0.  1.
          3   -1    0    0  503    0 -0.00000000000E+00 -0.00000000000E+00 -0.29466630312E+02  0.29466630312E+02  0.00000000000E+00 0.  1.
         25    2    1    2    0    0 -0.28470846289E+02 -0.10616831459E+02  0.31311646115E+03  0.33850930250E+03  0.12499329356E+03 0.  0.
          5    1    3    3  501    0 -0.24842076264E+02 -0.61771854714E+02  0.24093080885E+03  0.24996110786E+03  0.10000000000E+00 0.  1.
         -5    1    3    3    0  501 -0.36287700242E+01  0.51155023254E+02  0.72185652300E+02  0.88548194640E+02  0.10000000000E+00 0.  1.
          3    1    1    2  502    0  0.28470846289E+02  0.10616831459E+02 -0.30061271001E+01  0.30534292177E+02  0.00000000000E+00 0.  1.
<mgrwt>
<rscale>  1 0.12863370E+03</rscale>
<asrwt>0</asrwt>
<pdfrwt beam="1">  1       21 0.52242607E-01 0.12863370E+03</pdfrwt>
<pdfrwt beam="2">  1        3 0.45333280E-02 0.12863370E+03</pdfrwt>
<totfact> 0.44264000E+04</totfact>
</mgrwt>
</event>
<event>
 6    2  0.1181843E-002  0.1270689E+03  0.7546771E-02  0.1231871E+00
          1   -1    0    0  503    0 -0.00000000000E+00  0.00000000000E+00  0.10687713808E+03  0.10687713808E+03  0.00000000000E+00 0.  1.
         21   -1    0    0  502  503  0.00000000000E+00 -0.00000000000E+00 -0.99029210049E+02  0.99029210049E+02  0.00000000000E+00 0.  1.
         25    2    1    2    0    0  0.15025504701E+02 -0.17160594647E+02 -0.55437867374E+02  0.13863567324E+03  0.12500496372E+03 0.  0.
          5    1    3    3  501    0  0.48009278632E+02  0.38432657583E+02 -0.35404163559E+02  0.70960727173E+02  0.10000000000E+00 0. -1.
         -5    1    3    3    0  501 -0.32983773931E+02 -0.55593252230E+02 -0.20033703816E+02  0.67674946065E+02  0.10000000000E+00 0. -1.
          1    1    1    2  502    0 -0.15025504701E+02  0.17160594647E+02  0.63285795405E+02  0.67270674890E+02  0.00000000000E+00 0.  1.
<mgrwt>
<rscale>  1 0.12706885E+03</rscale>
<asrwt>0</asrwt>
<pdfrwt beam="1">  1       21 0.15235263E-01 0.12706885E+03</pdfrwt>
<pdfrwt beam="2">  1        1 0.16442637E-01 0.12706885E+03</pdfrwt>
<totfact> 0.13270521E+05</totfact>
</mgrwt>
</event>
<event>
 6    2  0.1181843E-002  0.1266369E+03  0.7546771E-02  0.1232533E+00
         21   -1    0    0  502  503  0.00000000000E+00  0.00000000000E+00  0.62082870255E+02  0.62082870255E+02  0.00000000000E+00 0. -1.
          3   -1    0    0  503    0 -0.00000000000E+00 -0.00000000000E+00 -0.12428843568E+03  0.12428843568E+03  0.00000000000E+00 0. -1.
         25    2    1    2    0    0 -0.18551120337E+02 -0.83896046877E+01 -0.62099352721E+01  0.12678909274E+03  0.12498952440E+03 0.  0.
          5    1    3    3  501    0 -0.49041131551E+02 -0.51072770136E+02  0.10844529051E+02  0.71631517110E+02  0.10000000000E+00 0.  1.
         -5    1    3    3    0  501  0.30490011214E+02  0.42683165448E+02 -0.17054464323E+02  0.55157575634E+02  0.10000000000E+00 0.  1.
          3    1    1    2  502    0  0.18551120337E+02  0.83896046877E+01 -0.55995630158E+02  0.59582213196E+02  0.00000000000E+00 0. -1.
<mgrwt>
<rscale>  1 0.12663692E+03</rscale>
<asrwt>0</asrwt>
<pdfrwt beam="1">  1       21 0.95512109E-02 0.12663692E+03</pdfrwt>
<pdfrwt beam="2">  1        3 0.19121298E-01 0.12663692E+03</pdfrwt>
<totfact> 0.10090758E+05</totfact>
</mgrwt>
</event>
<event>
 6    2  0.1181843E-002  0.1353322E+03  0.7546771E-02  0.1219752E+00
          4   -1    0    0  503    0 -0.00000000000E+00  0.00000000000E+00  0.67572196379E+02  0.67572196379E+02  0.00000000000E+00 0.  1.
         21   -1    0    0  502  503  0.00000000000E+00 -0.00000000000E+00 -0.12972840440E+03  0.12972840440E+03  0.00000000000E+00 0.  1.
         25    2    1    2    0    0 -0.39951292817E+02 -0.33060701184E+02 -0.42594824666E+02  0.14187710866E+03  0.12500271642E+03 0.  0.
          5    1    3    3  501    0 -0.60003498357E+02 -0.43450510435E+01 -0.73628971536E+02  0.95081726599E+02  0.10000000000E+00 0.  1.
         -5    1    3    3    0  501  0.20052205540E+02 -0.28715650140E+02  0.31034146869E+02  0.46795382058E+02  0.10000000000E+00 0.  1.
          4    1    1    2  502    0  0.39951292817E+02  0.33060701184E+02 -0.19561383357E+02  0.55423492125E+02  0.00000000000E+00 0.  1.
<mgrwt>
<rscale>  1 0.13533216E+03</rscale>
<asrwt>0</asrwt>
<pdfrwt beam="1">  1       21 0.19958216E-01 0.13533216E+03</pdfrwt>
<pdfrwt beam="2">  1        4 0.10395723E-01 0.13533216E+03</pdfrwt>
<totfact> 0.66611458E+04</totfact>
</mgrwt>
</event>
<event>
 6    2  0.1181843E-002  0.1381334E+03  0.7546771E-02  0.1215863E+00
          2   -1    0    0  503    0 -0.00000000000E+00  0.00000000000E+00  0.17385781344E+04  0.17385781344E+04  0.00000000000E+00 0. -1.
         21   -1    0    0  502  503  0.00000000000E+00 -0.00000000000E+00 -0.10958863805E+02  0.10958863805E+02  0.00000000000E+00 0.  1.
         25    2    1    2    0    0 -0.50248263494E+02  0.30502596284E+02  0.45369562254E+03  0.47425790818E+03  0.12500219678E+03 0.  0.
          5    1    3    3  501    0  0.17472847230E+02  0.40273402846E+02  0.58271513950E+02  0.72957704906E+02  0.10000000000E+00 0. -1.
         -5    1    3    3    0  501 -0.67721110725E+02 -0.97708065620E+01  0.39542410859E+03  0.40130020328E+03  0.10000000000E+00 0. -1.
          2    1    1    2  502    0  0.50248263494E+02 -0.30502596284E+02  0.12739236480E+04  0.12752790900E+04  0.00000000000E+00 0. -1.
<mgrwt>
<rscale>  1 0.13813343E+03</rscale>
<asrwt>0</asrwt>
<pdfrwt beam="1">  1       21 0.16859804E-02 0.13813343E+03</pdfrwt>
<pdfrwt beam="2">  1        2 0.26747334E+00 0.13813343E+03</pdfrwt>
<totfact> 0.21383119E+05</totfact>
</mgrwt>
</event>
<event>
 6    2  0.1181843E-002  0.1277075E+03  0.7546771E-02  0.1230898E+00
         21   -1    0    0  502  503  0.00000000000E+00  0.00000000000E+00  0.37137122071E+02  0.37137122071E+02  0.00000000000E+00 0.  1.
          2   -1    0    0  503    0 -0.00000000000E+00 -0.00000000000E+00 -0.33979644999E+03  0.33979644999E+03  0.00000000000E+00 0.  1.
         25    2    1    2    0    0  0.25947580506E+02 -0.35361245995E+01 -0.75677910052E+02  0.14844649328E+03  0.12499373659E+03 0.  0.
          5    1    3    3  501    0  0.69074110765E+02 -0.15884620856E+02 -0.14108174312E+02  0.72267589832E+02  0.10000000000E+00 0. -1.
         -5    1    3    3    0  501 -0.43126530259E+02  0.12348496256E+02 -0.61569735740E+02  0.76178903451E+02  0.10000000000E+00 0. -1.
          2    1    1    2  502    0 -0.25947580506E+02  0.35361245995E+01 -0.22698141786E+03  0.22848707877E+03  0.00000000000E+00 0.  1.
<mgrwt>
<rscale>  1 0.12770754E+03</rscale>
<asrwt>0</asrwt>
<pdfrwt beam="1">  1       21 0.57134036E-02 0.12770754E+03</pdfrwt>
<pdfrwt beam="2">  1        2 0.52276375E-01 0.12770754E+03</pdfrwt>
<totfact> 0.24971153E+05</totfact>
</mgrwt>
</event>
<event>
 6    2  0.1181843E-002  0.1490751E+03  0.7546771E-02  0.1201614E+00
         21   -1    0    0  502  503  0.00000000000E+00  0.00000000000E+00  0.68985523542E+02  0.68985523542E+02  0.00000000000E+00 0.  1.
          2   -1    0    0  503    0 -0.00000000000E+00 -0.00000000000E+00 -0.32069898169E+03  0.32069898169E+03  0.00000000000E+00 0.  1.
         25    2    1    2    0    0 -0.54199355326E+02 -0.60498451771E+02 -0.28000210696E+02  0.15168187947E+03  0.12500299187E+03 0.  0.
          5    1    3    3  501    0  0.22963162320E+02  0.48075200501E+01 -0.43488651036E+02  0.49413478341E+02  0.10000000000E+00 0.  1.
         -5    1    3    3    0  501 -0.77162517646E+02 -0.65305971821E+02  0.15488440341E+02  0.10226840113E+03  0.10000000000E+00 0.  1.
          2    1    1    2  502    0  0.54199355326E+02  0.60498451771E+02 -0.22371324745E+03  0.23800262576E+03  0.00000000000E+00 0.  1.
<mgrwt>
<rscale>  1 0.14907508E+03</rscale>
<asrwt>0</asrwt>
<pdfrwt beam="1">  1       21 0.10613157E-01 0.14907508E+03</pdfrwt>
<pdfrwt beam="2">  1        2 0.49338305E-01 0.14907508E+03</pdfrwt>
<totfact> 0.91780016E+04</totfact>
</mgrwt>
</event>
<event>
 6    2  0.1181843E-002  0.1766170E+03  0.7546771E-02  0.1171118E+00
          2   -1    0    0  503    0 -0.00000000000E+00  0.00000000000E+00  0.19427693970E+04  0.19427693970E+04  0.00000000000E+00 0.  1.
         21   -1    0    0  502  503  0.00000000000E+00 -0.00000000000E+00 -0.21510394019E+02  0.21510394019E+02  0.00000000000E+00 0.  1.
         25    2    1    2    0    0  0.11681445091E+03  0.43848165468E+02  0.39213600331E+03  0.43007464643E+03  0.12500111542E+03 0.  0.
          5    1    3    3  501    0  0.35874294412E+01  0.43181444257E+02  0.35879123041E+02  0.56256806240E+02  0.10000000000E+00 0. -1.
         -5    1    3    3    0  501  0.11322702147E+03  0.66672121144E+00  0.35625688027E+03  0.37381784019E+03  0.10000000000E+00 0. -1.
          2    1    1    2  502    0 -0.11681445091E+03 -0.43848165468E+02  0.15291229996E+04  0.15342051446E+04  0.00000000000E+00 0.  1.
<mgrwt>
<rscale>  1 0.17661698E+03</rscale>
<asrwt>0</asrwt>
<pdfrwt beam="1">  1       21 0.33092929E-02 0.17661698E+03</pdfrwt>
<pdfrwt beam="2">  1        2 0.29888746E+00 0.17661698E+03</pdfrwt>
<totfact> 0.55672049E+04</totfact>
</mgrwt>
</event>
<event>
 6    2  0.1181843E-002  0.1281977E+03  0.7546771E-02  0.1230155E+00
          2   -1    0    0  503    0 -0.00000000000E+00  0.00000000000E+00  0.21768180517E+04  0.21768180517E+04  0.00000000000E+00 0. -1.
         21   -1    0    0  502  503  0.00000000000E+00 -0.00000000000E+00 -0.41814718872E+02  0.41814718872E+02  0.00000000000E+00 0.  1.
         25    2    1    2    0    0  0.11954934981E+02 -0.25845095768E+02  0.56771272745E+02  0.14020562847E+03  0.12499500551E+03 0.  0.
          5    1    3    3  501    0 -0.56773854048E+01  0.23375737607E+02 -0.30272479685E+02  0.38666404539E+02  0.10000000000E+00 0. -1.
         -5    1    3    3    0  501  0.17632320385E+02 -0.49220833375E+02  0.87043752430E+02  0.10153922394E+03  0.10000000000E+00 0. -1.
          2    1    1    2  502    0 -0.11954934981E+02  0.25845095768E+02  0.20782320601E+04  0.20784271421E+04  0.00000000000E+00 0. -1.
<mgrwt>
<rscale>  1 0.12819766E+03</rscale>
<asrwt>0</asrwt>
<pdfrwt beam="1">  1       21 0.64330354E-02 0.12819766E+03</pdfrwt>
<pdfrwt beam="2">  1        2 0.33489500E+00 0.12819766E+03</pdfrwt>
<totfact> 0.14035942E+04</totfact>
</mgrwt>
</event>
<event>
 6    2  0.1181843E-002  0.1367979E+03  0.7546771E-02  0.1217704E+00
          1   -1    0    0  503    0 -0.00000000000E+00  0.00000000000E+00  0.10727802987E+04  0.10727802987E+04  0.00000000000E+00 0.  1.
         21   -1    0    0  502  503  0.00000000000E+00 -0.00000000000E+00 -0.86673212813E+01  0.86673212813E+01  0.00000000000E+00 0.  1.
         25    2    1    2    0    0 -0.43426192503E+02 -0.34682662912E+02  0.72101604090E+03  0.73387859208E+03  0.12499974156E+03 0.  0.
          5    1    3    3  501    0  0.36746246941E+01  0.21621420839E+02  0.22160537777E+02  0.31178328055E+02  0.10000000000E+00 0.  1.
         -5    1    3    3    0  501 -0.47100817197E+02 -0.56304083751E+02  0.69885550312E+03  0.70270026403E+03  0.10000000000E+00 0.  1.
          1    1    1    2  502    0  0.43426192503E+02  0.34682662912E+02  0.34309693657E+03  0.34756902794E+03  0.00000000000E+00 0.  1.
<mgrwt>
<rscale>  1 0.13679787E+03</rscale>
<asrwt>0</asrwt>
<pdfrwt beam="1">  1       21 0.13334349E-02 0.13679787E+03</pdfrwt>
<pdfrwt beam="2">  1        1 0.16504302E+00 0.13679787E+03</pdfrwt>
<totfact> 0.37272938E+05</totfact>
</mgrwt>
</event>
<event>
 6    2  0.1181843E-002  0.1363722E+03  0.7546771E-02  0.1218295E+00
         21   -1    0    0  502  503  0.00000000000E+00  0.00000000000E+00  0.10194644096E+03  0.10194644096E+03  0.00000000000E+00 0.  1.
          1   -1    0    0  503    0 -0.00000000000E+00 -0.00000000000E+00 -0.24657411274E+03  0.24657411274E+03  0.00000000000E+00 0.  1.
         25    2    1    2    0    0  0.45810504140E+02  0.29401831324E+02  0.50896590586E+02  0.14556044148E+03  0.12503723132E+03 0.  0.
          5    1    3    3  501    0 -0.14597537041E+01 -0.18659364432E+02  0.72417135080E+02  0.74796752705E+02  0.10000000000E+00 0.  1.
         -5    1    3    3    0  501  0.47270257844E+02  0.48061195755E+02 -0.21520544494E+02  0.70763688777E+02  0.10000000000E+00 0.  1.
          1    1    1    2  502    0 -0.45810504140E+02 -0.29401831324E+02 -0.19552426237E+03  0.20296011221E+03  0.00000000000E+00 0.  1.
<mgrwt>
<rscale>  1 0.13637221E+03</rscale>
<asrwt>0</asrwt>
<pdfrwt beam="1">  1       21 0.15684068E-01 0.13637221E+03</pdfrwt>
<pdfrwt beam="2">  1        1 0.37934478E-01 0.13637221E+03</pdfrwt>
<totfact> 0.44160250E+04</totfact>
</mgrwt>
</event>
<event>
 6    2  0.1181843E-002  0.1688155E+03  0.7546771E-02  0.1179089E+00
          2   -1    0    0  503    0 -0.00000000000E+00  0.00000000000E+00  0.10303402996E+04  0.10303402996E+04  0.00000000000E+00 0. -1.
         21   -1    0    0  502  503  0.00000000000E+00 -0.00000000000E+00 -0.20151414858E+02  0.20151414858E+02  0.00000000000E+00 0. -1.
         25    2    1    2    0    0  0.76062106154E+02 -0.84195359903E+02  0.49629783690E+03  0.52422342577E+03  0.12499741836E+03 0.  0.
          5    1    3    3  501    0  0.22971023042E+02 -0.25147609929E+02  0.39029094451E+03  0.39177429925E+03  0.10000000000E+00 0.  1.
         -5    1    3    3    0  501  0.53091083112E+02 -0.59047749974E+02  0.10600689239E+03  0.13244912652E+03  0.10000000000E+00 0.  1.
          2    1    1    2  502    0 -0.76062106154E+02  0.84195359903E+02  0.51389104781E+03  0.52626828865E+03  0.00000000000E+00 0. -1.
<mgrwt>
<rscale>  1 0.16881545E+03</rscale>
<asrwt>0</asrwt>
<pdfrwt beam="1">  1       21 0.31002185E-02 0.16881545E+03</pdfrwt>
<pdfrwt beam="2">  1        2 0.15851385E+00 0.16881545E+03</pdfrwt>
<totfact> 0.19154327E+05</totfact>
</mgrwt>
</event>
<event>
 6    2  0.1181843E-002  0.1298104E+03  0.7546771E-02  0.1227737E+00
          2   -1    0    0  503    0 -0.00000000000E+00  0.00000000000E+00  0.23488682392E+03  0.23488682392E+03  0.00000000000E+00 0. -1.
         21   -1    0    0  502  503  0.00000000000E+00 -0.00000000000E+00 -0.73183786030E+03  0.73183786030E+03  0.00000000000E+00 0. -1.
         25    2    1    2    0    0 -0.16456434517E+02  0.30914909698E+02 -0.72473268454E+03  0.73626639057E+03  0.12499675181E+03 0.  0.
          5    1    3    3  501    0  0.13746883787E+02  0.74334289835E+02 -0.37345582075E+03  0.38102995093E+03  0.10000000000E+00 0. -1.
         -5    1    3    3    0  501 -0.30203318304E+02 -0.43419380137E+02 -0.35127686379E+03  0.35523643963E+03  0.10000000000E+00 0. -1.
          2    1    1    2  502    0  0.16456434517E+02 -0.30914909698E+02  0.22778164816E+03  0.23045829366E+03  0.00000000000E+00 0. -1.
<mgrwt>
<rscale>  1 0.12981038E+03</rscale>
<asrwt>0</asrwt>
<pdfrwt beam="1">  1       21 0.11259044E+00 0.12981038E+03</pdfrwt>
<pdfrwt beam="2">  1        2 0.36136435E-01 0.12981038E+03</pdfrwt>
<totfact> 0.11307955E+03</totfact>
</mgrwt>
</event>
<event>
 6    2  0.1181843E-002  0.1441026E+03  0.7546771E-02  0.1207913E+00
         21   -1    0    0  502  503  0.00000000000E+00  0.00000000000E+00  0.26603575718E+03  0.26603575718E+03  0.00000000000E+00 0. -1.
          2   -1    0    0  503    0 -0.00000000000E+00 -0.00000000000E+00 -0.39776218355E+03  0.39776218355E+03  0.00000000000E+00 0. -1.
         25    2    1    2    0    0 -0.12644966577E+02  0.70583790246E+02  0.24286838786E+03  0.28240150462E+03  0.12499435732E+03 0.  0.
          5    1    3    3  501    0 -0.18100137532E+02  0.10620215007E+03  0.19006374777E+03  0.21847368234E+03  0.10000000000E+00 0.  1.
         -5    1    3    3    0  501  0.54551709550E+01 -0.35618359820E+02  0.52804640091E+02  0.63927822281E+02  0.10000000000E+00 0.  1.
          2    1    1    2  502    0  0.12644966577E+02 -0.70583790246E+02 -0.37459481423E+03  0.38139643611E+03  0.00000000000E+00 0. -1.
<mgrwt>
<rscale>  1 0.14410259E+03</rscale>
<asrwt>0</asrwt>
<pdfrwt beam="1">  1       21 0.40928578E-01 0.14410259E+03</pdfrwt>
<pdfrwt beam="2">  1        2 0.61194182E-01 0.14410259E+03</pdfrwt>
<totfact> 0.58464658E+03</totfact>
</mgrwt>
</event>
<event>
 6    2  0.1181843E-002  0.1277954E+03  0.7546771E-02  0.1230764E+00
          2   -1    0    0  503    0 -0.00000000000E+00  0.00000000000E+00  0.96630964968E+03  0.96630964968E+03  0.00000000000E+00 0. -1.
         21   -1    0    0  502  503  0.00000000000E+00 -0.00000000000E+00 -0.20598419063E+02  0.20598419063E+02  0.00000000000E+00 0. -1.
         25    2    1    2    0    0 -0.15871107691E+02  0.21317264108E+02  0.18009094094E+03  0.22082664633E+03  0.12500137163E+03 0.  0.
          5    1    3    3  501    0 -0.18086260379E+02  0.68657522373E+02  0.14631029285E+03  0.16262742692E+03  0.10000000000E+00 0. -1.
         -5    1    3    3    0  501  0.22151526875E+01 -0.47340258265E+02  0.33780648088E+02  0.58199219404E+02  0.10000000000E+00 0. -1.
          2    1    1    2  502    0  0.15871107691E+02 -0.21317264108E+02  0.76562028968E+03  0.76608142242E+03  0.00000000000E+00 0. -1.
<mgrwt>
<rscale>  1 0.12779539E+03</rscale>
<asrwt>0</asrwt>
<pdfrwt beam="1">  1       21 0.31689883E-02 0.12779539E+03</pdfrwt>
<pdfrwt beam="2">  1        2 0.14866299E+00 0.12779539E+03</pdfrwt>
<totfact> 0.20055706E+05</totfact>
</mgrwt>
</event>
<event>
 6    2  0.1181843E-002  0.1283302E+03  0.7546771E-02  0.1229955E+00
         21   -1    0    0  502  503  0.00000000000E+00  0.00000000000E+00  0.34694081734E+03  0.34694081734E+03  0.00000000000E+00 0. -1.
          2   -1    0    0  503    0 -0.00000000000E+00 -0.00000000000E+00 -0.69373200160E+03  0.69373200160E+03  0.00000000000E+00 0.  1.
         25    2    1    2    0    0 -0.28999008799E+02 -0.94202871586E+00  0.33475456224E+03  0.35850976328E+03  0.12500721377E+03 0.  0.
          5    1    3    3  501    0 -0.61668934361E+02 -0.29504148893E+02  0.28216101959E+03  0.29032465146E+03  0.10000000000E+00 0.  1.
         -5    1    3    3    0  501  0.32669925562E+02  0.28562120177E+02  0.52593542646E+02  0.68185111815E+02  0.10000000000E+00 0.  1.
          2    1    1    2  502    0  0.28999008799E+02  0.94202871586E+00 -0.68154574650E+03  0.68216305566E+03  0.00000000000E+00 0.  1.
<mgrwt>
<rscale>  1 0.12833017E+03</rscale>
<asrwt>0</asrwt>
<pdfrwt beam="1">  1       21 0.53375510E-01 0.12833017E+03</pdfrwt>
<pdfrwt beam="2">  1        2 0.10672800E+00 0.12833017E+03</pdfrwt>
<totfact> 0.18419373E+03</totfact>
</mgrwt>
</event>
<event>
 6    2  0.1181843E-002  0.1277238E+03  0.7546771E-02  0.1230873E+00
          2   -1    0    0  503    0 -0.00000000000E+00  0.00000000000E+00  0.67459888222E+03  0.67459888222E+03  0.00000000000E+00 0. -1.
         21   -1    0    0  502  503  0.00000000000E+00 -0.00000000000E+00 -0.43386448034E+02  0.43386448034E+02  0.00000000000E+00 0. -1.
         25    2    1    2    0    0 -0.18796638730E+02 -0.18304953941E+02  0.51558072631E+02  0.13773748335E+03  0.12499997800E+03 0.  0.
          5    1    3    3  501    0  0.32774420105E+02 -0.47955711193E+02 -0.13858349055E+01  0.58102008465E+02  0.10000000000E+00 0. -1.
         -5    1    3    3    0  501 -0.51571058836E+02  0.29650757251E+02  0.52943907536E+02  0.79635474886E+02  0.10000000000E+00 0. -1.
          2    1    1    2  502    0  0.18796638730E+02  0.18304953941E+02  0.57965436155E+03  0.58024784690E+03  0.00000000000E+00 0. -1.
<mgrwt>
<rscale>  1 0.12772384E+03</rscale>
<asrwt>0</asrwt>
<pdfrwt beam="1">  1       21 0.66748387E-02 0.12772384E+03</pdfrwt>
<pdfrwt beam="2">  1        2 0.10378444E+00 0.12772384E+03</pdfrwt>
<totfact> 0.90378853E+04</totfact>
</mgrwt>
</event>
<event>
 6    2  0.1181843E-002  0.1263465E+03  0.7546771E-02  0.1232980E+00
         21   -1    0    0  502  503  0.00000000000E+00  0.00000000000E+00  0.45592563624E+03  0.45592563624E+03  0.00000000000E+00 0. -1.
          4   -1    0    0  503    0 -0.00000000000E+00 -0.00000000000E+00 -0.24741433308E+02  0.24741433308E+02  0.00000000000E+00 0.  1.
         25    2    1    2    0    0  0.11858098875E+02  0.14138918324E+02  0.44170866767E+03  0.45942353222E+03  0.12499164509E+03 0.  0.
          5    1    3    3  501    0  0.13120414604E+02  0.67158954040E+02  0.30949373317E+03  0.31696821805E+03  0.10000000000E+00 0. -1.
         -5    1    3    3    0  501 -0.12623157296E+01 -0.53020035716E+02  0.13221493450E+03  0.14245531416E+03  0.10000000000E+00 0. -1.
          4    1    1    2  502    0 -0.11858098875E+02 -0.14138918324E+02 -0.10524464736E+02  0.21243537329E+02  0.00000000000E+00 0.  1.
<mgrwt>
<rscale>  1 0.12634649E+03</rscale>
<asrwt>0</asrwt>
<pdfrwt beam="1">  1       21 0.70142399E-01 0.12634649E+03</pdfrwt>
<pdfrwt beam="2">  1        4 0.38063747E-02 0.12634649E+03</pdfrwt>
<totfact> 0.27802621E+04</totfact>
</mgrwt>
</event>
<event>
 6    2  0.1181843E-002  0.1417372E+03  0.7546771E-02  0.1211010E+00
         21   -1    0    0  502  503  0.00000000000E+00  0.00000000000E+00  0.15142016396E+02  0.15142016396E+02  0.00000000000E+00 0. -1.
          2   -1    0    0  503    0 -0.00000000000E+00 -0.00000000000E+00 -0.11053149977E+04  0.11053149977E+04  0.00000000000E+00 0.  1.
         25    2    1    2    0    0  0.19148577488E+02  0.64022393289E+02 -0.35494009539E+03  0.38219355747E+03  0.12499563669E+03 0.  0.
          5    1    3    3  501    0  0.27115210770E+02  0.91979242894E+02 -0.33076508091E+03  0.34438490752E+03  0.10000000000E+00 0.  1.
         -5    1    3    3    0  501 -0.79666332821E+01 -0.27956849605E+02 -0.24175014476E+02  0.37808649945E+02  0.10000000000E+00 0.  1.
          2    1    1    2  502    0 -0.19148577488E+02 -0.64022393289E+02 -0.73523288591E+03  0.73826345663E+03  0.00000000000E+00 0.  1.
<mgrwt>
<rscale>  1 0.14173724E+03</rscale>
<asrwt>0</asrwt>
<pdfrwt beam="1">  1       21 0.23295412E-02 0.14173724E+03</pdfrwt>
<pdfrwt beam="2">  1        2 0.17004845E+00 0.14173724E+03</pdfrwt>
<totfact> 0.27562392E+05</totfact>
</mgrwt>
</event>
<event>
 6    2  0.1181843E-002  0.1264564E+03  0.7546771E-02  0.1232811E+00
          3   -1    0    0  503    0 -0.00000000000E+00  0.00000000000E+00  0.23233362251E+02  0.23233362251E+02  0.00000000000E+00 0.  1.
         21   -1    0    0  502  503  0.00000000000E+00 -0.00000000000E+00 -0.38476126678E+03  0.38476126678E+03  0.00000000000E+00 0.  1.
         25    2    1    2    0    0  0.18315098586E+01  0.19038526166E+02 -0.36693872590E+03  0.38811758461E+03  0.12500164405E+03 0.  0.
          5    1    3    3  501    0  0.28143633255E+02 -0.45576853612E+02 -0.20305237392E+03  0.20999902436E+03  0.10000000000E+00 0. -1.
         -5    1    3    3    0  501 -0.26312123396E+02  0.64615379778E+02 -0.16388635197E+03  0.17811856025E+03  0.10000000000E+00 0. -1.
          3    1    1    2  502    0 -0.18315098586E+01 -0.19038526166E+02  0.54108213681E+01  0.19877044419E+02  0.00000000000E+00 0.  1.
<mgrwt>
<rscale>  1 0.12645644E+03</rscale>
<asrwt>0</asrwt>
<pdfrwt beam="1">  1       21 0.59194040E-01 0.12645644E+03</pdfrwt>
<pdfrwt beam="2">  1        3 0.35743635E-02 0.12645644E+03</pdfrwt>
<totfact> 0.49319370E+04</totfact>
</mgrwt>
</event>
<event>
 6    2  0.1181843E-002  0.1301970E+03  0.7546771E-02  0.1227164E+00
          1   -1    0    0  503    0 -0.00000000000E+00  0.00000000000E+00  0.27475259248E+03  0.27475259248E+03  0.00000000000E+00 0.  1.
         21   -1    0    0  502  503  0.00000000000E+00 -0.00000000000E+00 -0.12942721241E+03  0.12942721241E+03  0.00000000000E+00 0. -1.
         25    2    1    2    0    0 -0.36409852318E+02  0.46040151236E+00 -0.94962020379E+02  0.16114909875E+03  0.12500142958E+03 0.  0.
          5    1    3    3  501    0 -0.33947247784E+02  0.19399742191E+01 -0.12573017800E+03  0.13024694542E+03  0.10000000000E+00 0. -1.
         -5    1    3    3    0  501 -0.24626045342E+01 -0.14795727067E+01  0.30768157623E+02  0.30902153323E+02  0.10000000000E+00 0. -1.
          1    1    1    2  502    0  0.36409852318E+02 -0.46040151236E+00  0.24028740044E+03  0.24303070614E+03  0.00000000000E+00 0.  1.
<mgrwt>
<rscale>  1 0.13019695E+03</rscale>
<asrwt>0</asrwt>
<pdfrwt beam="1">  1       21 0.19911879E-01 0.13019695E+03</pdfrwt>
<pdfrwt beam="2">  1        1 0.42269630E-01 0.13019695E+03</pdfrwt>
<totfact> 0.24959745E+04</totfact>
</mgrwt>
</event>
<event>
 6    2  0.1181843E-002  0.1289441E+03  0.7546771E-02  0.1229031E+00
         21   -1    0    0  502  503  0.00000000000E+00  0.00000000000E+00  0.33689875954E+02  0.33689875954E+02  0.00000000000E+00 0. -1.
          1   -1    0    0  503    0 -0.00000000000E+00 -0.00000000000E+00 -0.36186649004E+03  0.36186649004E+03  0.00000000000E+00 0. -1.
         25    2    1    2    0    0  0.29124794944E+02  0.12360544036E+02 -0.94794319168E+02  0.16003920672E+03  0.12500219203E+03 0.  0.
          5    1    3    3  501    0  0.24239204645E+02  0.57645258782E+02 -0.95889455705E+02  0.11447843735E+03  0.10000000000E+00 0. -1.
         -5    1    3    3    0  501  0.48855902989E+01 -0.45284714746E+02  0.10951365366E+01  0.45560769377E+02  0.10000000000E+00 0. -1.
          1    1    1    2  502    0 -0.29124794944E+02 -0.12360544036E+02 -0.23338229492E+03  0.23551715927E+03  0.00000000000E+00 0. -1.
<mgrwt>
<rscale>  1 0.12894411E+03</rscale>
<asrwt>0</asrwt>
<pdfrwt beam="1">  1       21 0.51830580E-02 0.12894411E+03</pdfrwt>
<pdfrwt beam="2">  1        1 0.55671766E-01 0.12894411E+03</pdfrwt>
<totfact> 0.18849528E+05</totfact>
</mgrwt>
</event>
<event>
 6    2  0.1181843E-002  0.1694175E+03  0.7546771E-02  0.1178457E+00
         21   -1    0    0  502  503  0.00000000000E+00  0.00000000000E+00  0.19480411845E+02  0.19480411845E+02  0.00000000000E+00 0.  1.
          2   -1    0    0  503    0 -0.00000000000E+00 -0.00000000000E+00 -0.11804905212E+04  0.11804905212E+04  0.00000000000E+00 0.  1.
         25    2    1    2    0    0 -0.68361358003E+02  0.91678169902E+02 -0.47088482051E+03  0.50043460346E+03  0.12499646414E+03 0.  0.
          5    1    3    3  501    0 -0.72356707160E+02  0.11581213317E+03 -0.32516645044E+03  0.35267715230E+03  0.10000000000E+00 0.  1.
         -5    1    3    3    0  501  0.39953491570E+01 -0.24133963270E+02 -0.14571837007E+03  0.14775745116E+03  0.10000000000E+00 0.  1.
          2    1    1    2  502    0  0.68361358003E+02 -0.91678169902E+02 -0.69012528880E+03  0.69953632954E+03  0.00000000000E+00 0.  1.
<mgrwt>
<rscale>  1 0.16941747E+03</rscale>
<asrwt>0</asrwt>
<pdfrwt beam="1">  1       21 0.29969871E-02 0.16941747E+03</pdfrwt>
<pdfrwt beam="2">  1        2 0.18161389E+00 0.16941747E+03</pdfrwt>
<totfact> 0.16591503E+05</totfact>
</mgrwt>
</event>
<event>
 6    2  0.1181843E-002  0.1273961E+03  0.7546771E-02  0.1231371E+00
          2   -1    0    0  503    0 -0.00000000000E+00  0.00000000000E+00  0.20717605188E+04  0.20717605188E+04  0.00000000000E+00 0. -1.
         21   -1    0    0  502  503  0.00000000000E+00 -0.00000000000E+00 -0.29338143169E+01  0.29338143169E+01  0.00000000000E+00 0. -1.
         25    2    1    2    0    0  0.20218109198E+02  0.13790320678E+02  0.15228732233E+04  0.15281925962E+04  0.12502324513E+03 0.  0.
          5    1    3    3  501    0  0.53200486414E+01 -0.46535878115E+02  0.29033097339E+03  0.29408497918E+03  0.10000000000E+00 0. -1.
         -5    1    3    3    0  501  0.14898060556E+02  0.60326198793E+02  0.12325422499E+04  0.12341076170E+04  0.10000000000E+00 0. -1.
          2    1    1    2  502    0 -0.20218109198E+02 -0.13790320678E+02  0.54595348115E+03  0.54650173693E+03  0.00000000000E+00 0. -1.
<mgrwt>
<rscale>  1 0.12739606E+03</rscale>
<asrwt>0</asrwt>
<pdfrwt beam="1">  1       21 0.45135770E-03 0.12739606E+03</pdfrwt>
<pdfrwt beam="2">  1        2 0.31873122E+00 0.12739606E+03</pdfrwt>
<totfact> 0.11436535E+06</totfact>
</mgrwt>
</event>
<event>
 6    2  0.1181843E-002  0.1500452E+03  0.7546771E-02  0.1200418E+00
          2   -1    0    0  503    0 -0.00000000000E+00  0.00000000000E+00  0.11706542472E+04  0.11706542472E+04  0.00000000000E+00 0.  1.
         21   -1    0    0  502  503  0.00000000000E+00 -0.00000000000E+00 -0.27024615385E+02  0.27024615385E+02  0.00000000000E+00 0.  1.
         25    2    1    2    0    0 -0.82029184977E+02 -0.12573584489E+02  0.19807726714E+03  0.24849175956E+03  0.12500667420E+03 0.  0.
          5    1    3    3  501    0 -0.93598081983E+02  0.35459743338E+02  0.12238281318E+03  0.15809983336E+03  0.10000000000E+00 0. -1.
         -5    1    3    3    0  501  0.11568897005E+02 -0.48033327827E+02  0.75694453966E+02  0.90391926195E+02  0.10000000000E+00 0. -1.
          2    1    1    2  502    0  0.82029184977E+02  0.12573584489E+02  0.94555236464E+03  0.94918710300E+03  0.00000000000E+00 0.  1.
<mgrwt>
<rscale>  1 0.15004516E+03</rscale>
<asrwt>0</asrwt>
<pdfrwt beam="1">  1       21 0.41576340E-02 0.15004516E+03</pdfrwt>
<pdfrwt beam="2">  1        2 0.18010061E+00 0.15004516E+03</pdfrwt>
<totfact> 0.97544336E+04</totfact>
</mgrwt>
</event>
<event>
 6    2  0.1181843E-002  0.1329037E+03  0.7546771E-02  0.1223210E+00
         21   -1    0    0  502  503  0.00000000000E+00  0.00000000000E+00  0.10099309777E+02  0.10099309777E+02  0.00000000000E+00 0.  1.
          1   -1    0    0  503    0 -0.00000000000E+00 -0.00000000000E+00 -0.14424515444E+04  0.14424515444E+04  0.00000000000E+00 0.  1.
         25    2    1    2    0    0  0.45000476475E+02 -0.37338392582E+01 -0.45136659935E+03  0.47052651586E+03  0.12499764269E+03 0.  0.
          5    1    3    3  501    0  0.13509950527E+02  0.16588556590E+02 -0.42295532307E+03  0.42349606171E+03  0.10000000000E+00 0. -1.
         -5    1    3    3    0  501  0.31490525948E+02 -0.20322395849E+02 -0.28411276285E+02  0.47030454151E+02  0.10000000000E+00 0. -1.
          1    1    1    2  502    0 -0.45000476475E+02  0.37338392582E+01 -0.98098563523E+03  0.98202433827E+03  0.00000000000E+00 0.  1.
<mgrwt>
<rscale>  1 0.13290371E+03</rscale>
<asrwt>0</asrwt>
<pdfrwt beam="1">  1       21 0.15537414E-02 0.13290371E+03</pdfrwt>
<pdfrwt beam="2">  1        1 0.22191542E+00 0.13290371E+03</pdfrwt>
<totfact> 0.16401492E+05</totfact>
</mgrwt>
</event>
<event>
 6    2  0.1181843E-002  0.1380191E+03  0.7546771E-02  0.1216020E+00
          1   -1    0    0  503    0 -0.00000000000E+00  0.00000000000E+00  0.87499821637E+03  0.87499821637E+03  0.00000000000E+00 0.  1.
         21   -1    0    0  502  503  0.00000000000E+00 -0.00000000000E+00 -0.74468343918E+02  0.74468343918E+02  0.00000000000E+00 0.  1.
         25    2    1    2    0    0  0.76379138671E+01 -0.58020154120E+02 -0.85400135956E+01  0.13828300737E+03  0.12499832912E+03 0.  0.
          5    1    3    3  501    0  0.46218990472E+02  0.17553994628E+02 -0.18627198725E+02  0.52832947485E+02  0.10000000000E+00 0.  1.
         -5    1    3    3    0  501 -0.38581076605E+02 -0.75574148748E+02  0.10087185130E+02  0.85450059888E+02  0.10000000000E+00 0.  1.
          1    1    1    2  502    0 -0.76379138671E+01  0.58020154120E+02  0.80906988604E+03  0.81118355291E+03  0.00000000000E+00 0.  1.
<mgrwt>
<rscale>  1 0.13801905E+03</rscale>
<asrwt>0</asrwt>
<pdfrwt beam="1">  1       21 0.11456669E-01 0.13801905E+03</pdfrwt>
<pdfrwt beam="2">  1        1 0.13461510E+00 0.13801905E+03</pdfrwt>
<totfact> 0.14457869E+04</totfact>
</mgrwt>
</event>
<event>
 6    2  0.1181843E-002  0.1267016E+03  0.7546771E-02  0.1232434E+00
          4   -1    0    0  503    0 -0.00000000000E+00  0.00000000000E+00  0.35085028200E+02  0.35085028200E+02  0.00000000000E+00 0.  1.
         21   -1    0    0  502  503  0.00000000000E+00 -0.00000000000E+00 -0.40687143988E+03  0.40687143988E+03  0.00000000000E+00 0.  1.
         25    2    1    2    0    0 -0.19461854226E+02 -0.66252878995E+01 -0.39269782007E+03  0.41263164564E+03  0.12502255351E+03 0.  0.
          5    1    3    3  501    0 -0.62790076066E+02  0.22161968266E+02 -0.14539694768E+03  0.15991881967E+03  0.10000000000E+00 0. -1.
         -5    1    3    3    0  501  0.43328221840E+02 -0.28787256165E+02 -0.24730087239E+03  0.25271282597E+03  0.10000000000E+00 0. -1.
          4    1    1    2  502    0  0.19461854226E+02  0.66252878995E+01  0.20911408396E+02  0.29324822434E+02  0.00000000000E+00 0.  1.
<mgrwt>
<rscale>  1 0.12670161E+03</rscale>
<asrwt>0</asrwt>
<pdfrwt beam="1">  1       21 0.62595606E-01 0.12670161E+03</pdfrwt>
<pdfrwt beam="2">  1        4 0.53976966E-02 0.12670161E+03</pdfrwt>
<totfact> 0.20355455E+04</totfact>
</mgrwt>
</event>
<event>
 6    2  0.1181843E-002  0.1260209E+03  0.7546771E-02  0.1233482E+00
         21   -1    0    0  502  503  0.00000000000E+00  0.00000000000E+00  0.13842905230E+03  0.13842905230E+03  0.00000000000E+00 0. -1.
          1   -1    0    0  503    0 -0.00000000000E+00 -0.00000000000E+00 -0.10011438377E+03  0.10011438377E+03  0.00000000000E+00 0.  1.
         25    2    1    2    0    0 -0.61220432832E+00 -0.15907812704E+02  0.10867312742E+03  0.16640644114E+03  0.12501128642E+03 0.  0.
          5    1    3    3  501    0  0.57819411667E+02 -0.21228368665E+02  0.80386008383E+02  0.10127017500E+03  0.10000000000E+00 0. -1.
         -5    1    3    3    0  501 -0.58431615995E+02  0.53205559610E+01  0.28287119033E+02  0.65136266140E+02  0.10000000000E+00 0. -1.
          1    1    1    2  502    0  0.61220432832E+00  0.15907812704E+02 -0.70358458885E+02  0.72136994919E+02  0.00000000000E+00 0.  1.
<mgrwt>
<rscale>  1 0.12602085E+03</rscale>
<asrwt>0</asrwt>
<pdfrwt beam="1">  1       21 0.21296777E-01 0.12602085E+03</pdfrwt>
<pdfrwt beam="2">  1        1 0.15402213E-01 0.12602085E+03</pdfrwt>
<totfact> 0.78163248E+04</totfact>
</mgrwt>
</event>
<event>
 6    2  0.1181843E-002  0.2155942E+03  0.7546771E-02  0.1137211E+00
          2   -1    0    0  503    0 -0.00000000000E+00  0.00000000000E+00  0.10052247043E+04  0.10052247043E+04  0.00000000000E+00 0.  1.
         21   -1    0    0  502  503  0.00000000000E+00 -0.00000000000E+00 -0.76756955942E+02  0.76756955942E+02  0.00000000000E+00 0.  1.
         25    2    1    2    0    0  0.17547242595E+03  0.81142197730E+01  0.10466170531E+03  0.23965582697E+03  0.12499772002E+03 0.  0.
          5    1    3    3  501    0  0.19039512858E+02  0.47193489754E+02  0.75959982351E+01  0.51453257566E+02  0.10000000000E+00 0. -1.
         -5    1    3    3    0  501  0.15643291309E+03 -0.39079269981E+02  0.97065707072E+02  0.18820256940E+03  0.10000000000E+00 0. -1.
          2    1    1    2  502    0 -0.17547242595E+03 -0.81142197730E+01  0.82380604305E+03  0.84232583327E+03  0.00000000000E+00 0.  1.
<mgrwt>
<rscale>  1 0.21559416E+03</rscale>
<asrwt>0</asrwt>
<pdfrwt beam="1">  1       21 0.11808763E-01 0.21559416E+03</pdfrwt>
<pdfrwt beam="2">  1        2 0.15464995E+00 0.21559416E+03</pdfrwt>
<totfact> 0.19914109E+04</totfact>
</mgrwt>
</event>
<event>
 6    2  0.1181843E-002  0.1305226E+03  0.7546771E-02  0.1226682E+00
         21   -1    0    0  502  503  0.00000000000E+00  0.00000000000E+00  0.34546410614E+03  0.34546410614E+03  0.00000000000E+00 0. -1.
          2   -1    0    0  503    0 -0.00000000000E+00 -0.00000000000E+00 -0.27536172236E+02  0.27536172236E+02  0.00000000000E+00 0. -1.
         25    2    1    2    0    0 -0.33958054023E+02 -0.16048287087E+02  0.30744760307E+03  0.33400624953E+03  0.12500179656E+03 0.  0.
          5    1    3    3  501    0 -0.50770911365E+02 -0.62630815919E+02  0.17797519612E+03  0.19538547791E+03  0.10000000000E+00 0. -1.
         -5    1    3    3    0  501  0.16812857342E+02  0.46582528832E+02  0.12947240695E+03  0.13862077162E+03  0.10000000000E+00 0. -1.
          2    1    1    2  502    0  0.33958054023E+02  0.16048287087E+02  0.10480330840E+02  0.38994028850E+02  0.00000000000E+00 0. -1.
<mgrwt>
<rscale>  1 0.13052259E+03</rscale>
<asrwt>0</asrwt>
<pdfrwt beam="1">  1       21 0.53148321E-01 0.13052259E+03</pdfrwt>
<pdfrwt beam="2">  1        2 0.42363344E-02 0.13052259E+03</pdfrwt>
<totfact> 0.77879987E+04</totfact>
</mgrwt>
</event>
<event>
 6    2  0.1181843E-002  0.1347281E+03  0.7546771E-02  0.1220604E+00
         21   -1    0    0  502  503  0.00000000000E+00  0.00000000000E+00  0.15296664147E+02  0.15296664147E+02  0.00000000000E+00 0.  1.
          2   -1    0    0  503    0 -0.00000000000E+00 -0.00000000000E+00 -0.99250974274E+03  0.99250974274E+03  0.00000000000E+00 0. -1.
         25    2    1    2    0    0 -0.25153724973E+02  0.43515326229E+02 -0.30157793225E+03  0.33030427075E+03  0.12500147423E+03 0.  0.
          5    1    3    3  501    0 -0.16004096393E+02  0.63924611451E+02 -0.30078990611E+03  0.30792379686E+03  0.10000000000E+00 0. -1.
         -5    1    3    3    0  501 -0.91496285797E+01 -0.20409285222E+02 -0.78802613324E+00  0.22380473891E+02  0.10000000000E+00 0. -1.
          2    1    1    2  502    0  0.25153724973E+02 -0.43515326229E+02 -0.67563514635E+03  0.67750213614E+03  0.00000000000E+00 0. -1.
<mgrwt>
<rscale>  1 0.13472810E+03</rscale>
<asrwt>0</asrwt>
<pdfrwt beam="1">  1       21 0.23533330E-02 0.13472810E+03</pdfrwt>
<pdfrwt beam="2">  1        2 0.15269380E+00 0.13472810E+03</pdfrwt>
<totfact> 0.31508217E+05</totfact>
</mgrwt>
</event>
<event>
 6    2  0.1181843E-002  0.1396322E+03  0.7546771E-02  0.1213825E+00
          1   -1    0    0  503    0 -0.00000000000E+00  0.00000000000E+00  0.21358711303E+03  0.21358711303E+03  0.00000000000E+00 0.  1.
         21   -1    0    0  502  503  0.00000000000E+00 -0.00000000000E+00 -0.75067742949E+02  0.75067742949E+02  0.00000000000E+00 0.  1.
         25    2    1    2    0    0  0.35492028182E+01  0.62138061491E+02  0.31554977063E+01  0.13966789859E+03  0.12499371666E+03 0.  0.
          5    1    3    3  501    0  0.49503748782E+02  0.75672861471E+02 -0.69984689703E+01  0.90697252850E+02  0.10000000000E+00 0.  1.
         -5    1    3    3    0  501 -0.45954545964E+02 -0.13534799980E+02  0.10153966677E+02  0.48970645743E+02  0.10000000000E+00 0.  1.
          1    1    1    2  502    0 -0.35492028182E+01 -0.62138061491E+02  0.13536387237E+03  0.14898695738E+03  0.00000000000E+00 0.  1.
<mgrwt>
<rscale>  1 0.13963225E+03</rscale>
<asrwt>0</asrwt>
<pdfrwt beam="1">  1       21 0.11548884E-01 0.13963225E+03</pdfrwt>
<pdfrwt beam="2">  1        1 0.32859556E-01 0.13963225E+03</pdfrwt>
<totfact> 0.91312100E+04</totfact>
</mgrwt>
</event>
<event>
 6    2  0.1181843E-002  0.1964968E+03  0.7546771E-02  0.1152729E+00
          1   -1    0    0  503    0 -0.00000000000E+00  0.00000000000E+00  0.30312476093E+04  0.30312476093E+04  0.00000000000E+00 0.  1.
         21   -1    0    0  502  503  0.00000000000E+00 -0.00000000000E+00 -0.10392232155E+02  0.10392232155E+02  0.00000000000E+00 0.  1.
         25    2    1    2    0    0 -0.52877669461E+02  0.14209376403E+03  0.14025093085E+04  0.14162073809E+04  0.12499719908E+03 0.  0.
          5    1    3    3  501    0  0.19618083156E+02  0.50211157505E+02  0.17459258098E+03  0.18272550139E+03  0.10000000000E+00 0. -1.
         -5    1    3    3    0  501 -0.72495752617E+02  0.91882606521E+02  0.12279167275E+04  0.12334818795E+04  0.10000000000E+00 0. -1.
          1    1    1    2  502    0  0.52877669461E+02 -0.14209376403E+03  0.16183460687E+04  0.16254324605E+04  0.00000000000E+00 0.  1.
<mgrwt>
<rscale>  1 0.19649678E+03</rscale>
<asrwt>0</asrwt>
<pdfrwt beam="1">  1       21 0.15988074E-02 0.19649678E+03</pdfrwt>
<pdfrwt beam="2">  1        1 0.46634508E+00 0.19649678E+03</pdfrwt>
<totfact> 0.14129690E+04</totfact>
</mgrwt>
</event>
<event>
 6    2  0.1181843E-002  0.1259346E+03  0.7546771E-02  0.1233616E+00
          2   -1    0    0  503    0 -0.00000000000E+00  0.00000000000E+00  0.64061537061E+03  0.64061537061E+03  0.00000000000E+00 0. -1.
         21   -1    0    0  502  503  0.00000000000E+00 -0.00000000000E+00 -0.20384842604E+03  0.20384842604E+03  0.00000000000E+00 0.  1.
         25    2    1    2    0    0 -0.98332545313E+01 -0.11744043451E+02 -0.18429483445E+03  0.22321316381E+03  0.12499966018E+03 0.  0.
          5    1    3    3  501    0  0.11736170004E+02 -0.65885661048E+02 -0.86449398790E+02  0.10932596475E+03  0.10000000000E+00 0. -1.
         -5    1    3    3    0  501 -0.21569424535E+02  0.54141617597E+02 -0.97845435657E+02  0.11388719906E+03  0.10000000000E+00 0. -1.
          2    1    1    2  502    0  0.98332545313E+01  0.11744043451E+02  0.62106177901E+03  0.62125063284E+03  0.00000000000E+00 0. -1.
<mgrwt>
<rscale>  1 0.12593463E+03</rscale>
<asrwt>0</asrwt>
<pdfrwt beam="1">  1       21 0.31361297E-01 0.12593463E+03</pdfrwt>
<pdfrwt beam="2">  1        2 0.98556210E-01 0.12593463E+03</pdfrwt>
<totfact> 0.58821765E+03</totfact>
</mgrwt>
</event>
<event>
 6    2  0.1181843E-002  0.1387574E+03  0.7546771E-02  0.1215011E+00
          2   -1    0    0  503    0 -0.00000000000E+00  0.00000000000E+00  0.47547134924E+02  0.47547134924E+02  0.00000000000E+00 0.  1.
         21   -1    0    0  502  503  0.00000000000E+00 -0.00000000000E+00 -0.22440687087E+03  0.22440687087E+03  0.00000000000E+00 0.  1.
         25    2    1    2    0    0  0.51053117421E+02 -0.31984316003E+02 -0.87026860026E+02  0.16379041273E+03  0.12499683063E+03 0.  0.
          5    1    3    3  501    0 -0.82729149744E+01  0.40066639091E+02 -0.84277790946E+01  0.41770972585E+02  0.10000000000E+00 0. -1.
         -5    1    3    3    0  501  0.59326032395E+02 -0.72050955095E+02 -0.78599080931E+02  0.12201944014E+03  0.10000000000E+00 0. -1.
          2    1    1    2  502    0 -0.51053117421E+02  0.31984316003E+02 -0.89832875923E+02  0.10816359307E+03  0.00000000000E+00 0.  1.
<mgrwt>
<rscale>  1 0.13875743E+03</rscale>
<asrwt>0</asrwt>
<pdfrwt beam="1">  1       21 0.34524134E-01 0.13875743E+03</pdfrwt>
<pdfrwt beam="2">  1        2 0.73149438E-02 0.13875743E+03</pdfrwt>
<totfact> 0.92063831E+04</totfact>
</mgrwt>
</event>
<event>
 6    2  0.1181843E-002  0.1320224E+03  0.7546771E-02  0.1224485E+00
          2   -1    0    0  503    0 -0.00000000000E+00  0.00000000000E+00  0.26439120340E+03  0.26439120340E+03  0.00000000000E+00 0. -1.
         21   -1    0    0  502  503  0.00000000000E+00 -0.00000000000E+00 -0.12149283235E+04  0.12149283235E+04  0.00000000000E+00 0. -1.
         25    2    1    2    0    0  0.34036386124E+02 -0.25383549169E+02 -0.12096084554E+04  0.12167918963E+04  0.12500841323E+03 0.  0.
          5    1    3    3  501    0  0.45481367481E+02 -0.71275881834E+02 -0.74530981642E+03  0.75009035361E+03  0.10000000000E+00 0. -1.
         -5    1    3    3    0  501 -0.11444981357E+02  0.45892332665E+02 -0.46429863893E+03  0.46670154265E+03  0.10000000000E+00 0. -1.
          2    1    1    2  502    0 -0.34036386124E+02  0.25383549169E+02  0.25907133521E+03  0.26252763069E+03  0.00000000000E+00 0. -1.
<mgrwt>
<rscale>  1 0.13202236E+03</rscale>
<asrwt>0</asrwt>
<pdfrwt beam="1">  1       21 0.18691204E+00 0.13202236E+03</pdfrwt>
<pdfrwt beam="2">  1        2 0.40675571E-01 0.13202236E+03</pdfrwt>
<totfact> 0.26898238E+02</totfact>
</mgrwt>
</event>
<event>
 6    2  0.1181843E-002  0.1287177E+03  0.7546771E-02  0.1229371E+00
         21   -1    0    0  502  503  0.00000000000E+00  0.00000000000E+00  0.18985133120E+04  0.18985133120E+04  0.00000000000E+00 0. -1.
          3   -1    0    0  503    0 -0.00000000000E+00 -0.00000000000E+00 -0.40462348625E+01  0.40462348625E+01  0.00000000000E+00 0. -1.
         25    2    1    2    0    0  0.93583551994E+01 -0.29199940739E+02  0.17572611772E+04  0.17619690979E+04  0.12501216677E+03 0.  0.
          5    1    3    3  501    0 -0.18623260368E+02  0.34737784481E+02  0.11558447934E+04  0.11565166389E+04  0.10000000000E+00 0.  1.
         -5    1    3    3    0  501  0.27981615568E+02 -0.63937725221E+02  0.60141638375E+03  0.60545245904E+03  0.10000000000E+00 0.  1.
          3    1    1    2  502    0 -0.93583551994E+01  0.29199940739E+02  0.13720589991E+03  0.14059044890E+03  0.00000000000E+00 0. -1.
<mgrwt>
<rscale>  1 0.12871774E+03</rscale>
<asrwt>0</asrwt>
<pdfrwt beam="1">  1       21 0.29207826E+00 0.12871774E+03</pdfrwt>
<pdfrwt beam="2">  1        3 0.62249919E-03 0.12871774E+03</pdfrwt>
<totfact> 0.10567907E+04</totfact>
</mgrwt>
</event>
<event>
 6    2  0.1181843E-002  0.1288859E+03  0.7546771E-02  0.1229118E+00
         21   -1    0    0  502  503  0.00000000000E+00  0.00000000000E+00  0.40760472895E+03  0.40760472895E+03  0.00000000000E+00 0. -1.
          2   -1    0    0  503    0 -0.00000000000E+00 -0.00000000000E+00 -0.65207532470E+02  0.65207532470E+02  0.00000000000E+00 0. -1.
         25    2    1    2    0    0 -0.12238146369E+02  0.28930192223E+02  0.39280978630E+03  0.41341396631E+03  0.12499940432E+03 0.  0.
          5    1    3    3  501    0 -0.34357291786E+02 -0.17199343774E+02  0.33080434354E+03  0.33302817393E+03  0.10000000000E+00 0.  1.
         -5    1    3    3    0  501  0.22119145416E+02  0.46129535997E+02  0.62005442754E+02  0.80385792379E+02  0.10000000000E+00 0.  1.
          2    1    1    2  502    0  0.12238146369E+02 -0.28930192223E+02 -0.50412589823E+02  0.59398295104E+02  0.00000000000E+00 0. -1.
<mgrwt>
<rscale>  1 0.12888592E+03</rscale>
<asrwt>0</asrwt>
<pdfrwt beam="1">  1       21 0.62708418E-01 0.12888592E+03</pdfrwt>
<pdfrwt beam="2">  1        2 0.10031928E-01 0.12888592E+03</pdfrwt>
<totfact> 0.18294331E+04</totfact>
</mgrwt>
</event>
<event>
 6    2  0.1181843E-002  0.1715047E+03  0.7546771E-02  0.1176288E+00
         21   -1    0    0  502  503  0.00000000000E+00  0.00000000000E+00  0.36071599762E+02  0.36071599762E+02  0.00000000000E+00 0. -1.
          2   -1    0    0  503    0 -0.00000000000E+00 -0.00000000000E+00 -0.21272782475E+04  0.21272782475E+04  0.00000000000E+00 0.  1.
         25    2    1    2    0    0 -0.10950249251E+03 -0.42412703572E+02 -0.18031007569E+03  0.24884851732E+03  0.12499691150E+03 0.  0.
          5    1    3    3  501    0 -0.11981208401E+03 -0.71061125368E+02 -0.13306199588E+03  0.19263988102E+03  0.10000000000E+00 0.  1.
         -5    1    3    3    0  501  0.10309591497E+02  0.28648421796E+02 -0.47248079815E+02  0.56208636298E+02  0.10000000000E+00 0.  1.
          2    1    1    2  502    0  0.10950249251E+03  0.42412703572E+02 -0.19108965720E+04  0.19145013299E+04  0.00000000000E+00 0.  1.
<mgrwt>
<rscale>  1 0.17150470E+03</rscale>
<asrwt>0</asrwt>
<pdfrwt beam="1">  1       21 0.55494746E-02 0.17150470E+03</pdfrwt>
<pdfrwt beam="2">  1        2 0.32727371E+00 0.17150470E+03</pdfrwt>
<totfact> 0.18783942E+04</totfact>
</mgrwt>
</event>
<event>
 6    2  0.1181843E-002  0.1613590E+03  0.7546771E-02  0.1187171E+00
          1   -1    0    0  503    0 -0.00000000000E+00  0.00000000000E+00  0.14031048331E+04  0.14031048331E+04  0.00000000000E+00 0. -1.
         21   -1    0    0  502  503  0.00000000000E+00 -0.00000000000E+00 -0.12365157785E+02  0.12365157785E+02  0.00000000000E+00 0. -1.
         25    2    1    2    0    0  0.91694162393E+02 -0.44765808134E+02  0.86373881473E+03  0.87868166756E+03  0.12499974339E+03 0.  0.
          5    1    3    3  501    0 -0.29795399231E+02 -0.12279676424E+02  0.11394222030E+03  0.11841197505E+03  0.10000000000E+00 0. -1.
         -5    1    3    3    0  501  0.12148956162E+03 -0.32486131710E+02  0.74979659443E+03  0.76026969252E+03  0.10000000000E+00 0. -1.
          1    1    1    2  502    0 -0.91694162393E+02  0.44765808134E+02  0.52700086054E+03  0.53678832328E+03  0.00000000000E+00 0. -1.
<mgrwt>
<rscale>  1 0.16135902E+03</rscale>
<asrwt>0</asrwt>
<pdfrwt beam="1">  1       21 0.19023331E-02 0.16135902E+03</pdfrwt>
<pdfrwt beam="2">  1        1 0.21586216E+00 0.16135902E+03</pdfrwt>
<totfact> 0.12587272E+05</totfact>
</mgrwt>
</event>
<event>
 6    2  0.1181843E-002  0.1410852E+03  0.7546771E-02  0.1211876E+00
         21   -1    0    0  502  503  0.00000000000E+00  0.00000000000E+00  0.57099513785E+02  0.57099513785E+02  0.00000000000E+00 0.  1.
          2   -1    0    0  503    0 -0.00000000000E+00 -0.00000000000E+00 -0.18756241517E+03  0.18756241517E+03  0.00000000000E+00 0.  1.
         25    2    1    2    0    0  0.65399714459E+02  0.15527855279E+01 -0.81337374618E+02  0.16285208130E+03  0.12500199230E+03 0.  0.
          5    1    3    3  501    0  0.85953366841E+01 -0.13294205448E+02 -0.99999448820E+02  0.10124482938E+03  0.10000000000E+00 0. -1.
         -5    1    3    3    0  501  0.56804377775E+02  0.14846990976E+02  0.18662074202E+02  0.61607251918E+02  0.10000000000E+00 0. -1.
          2    1    1    2  502    0 -0.65399714459E+02 -0.15527855279E+01 -0.49125526770E+02  0.81809847663E+02  0.00000000000E+00 0.  1.
<mgrwt>
<rscale>  1 0.14108519E+03</rscale>
<asrwt>0</asrwt>
<pdfrwt beam="1">  1       21 0.87845404E-02 0.14108519E+03</pdfrwt>
<pdfrwt beam="2">  1        2 0.28855757E-01 0.14108519E+03</pdfrwt>
<totfact> 0.22645945E+05</totfact>
</mgrwt>
</event>
<event>
 6    2  0.1181843E-002  0.1319935E+03  0.7546771E-02  0.1224527E+00
          1   -1    0    0  503    0 -0.00000000000E+00  0.00000000000E+00  0.17665363742E+04  0.17665363742E+04  0.00000000000E+00 0.  1.
         21   -1    0    0  502  503  0.00000000000E+00 -0.00000000000E+00 -0.62915563235E+01  0.62915563235E+01  0.00000000000E+00 0.  1.
         25    2    1    2    0    0  0.25294180879E+01  0.42298709538E+02  0.73837733271E+03  0.75008224560E+03  0.12500684351E+03 0.  0.
          5    1    3    3  501    0 -0.14894206890E+02 -0.15696876542E+02  0.21000132435E+02  0.30153687906E+02  0.10000000000E+00 0. -1.
         -5    1    3    3    0  501  0.17423624978E+02  0.57995586079E+02  0.71737720027E+03  0.71992855769E+03  0.10000000000E+00 0. -1.
          1    1    1    2  502    0 -0.25294180879E+01 -0.42298709538E+02  0.10218674852E+04  0.10227456849E+04  0.00000000000E+00 0.  1.
<mgrwt>
<rscale>  1 0.13199352E+03</rscale>
<asrwt>0</asrwt>
<pdfrwt beam="1">  1       21 0.96793315E-03 0.13199352E+03</pdfrwt>
<pdfrwt beam="2">  1        1 0.27177443E+00 0.13199352E+03</pdfrwt>
<totfact> 0.21522905E+05</totfact>
</mgrwt>
</event>
<event>
 6    2  0.1181843E-002  0.1263248E+03  0.7546771E-02  0.1233013E+00
         21   -1    0    0  502  503  0.00000000000E+00  0.00000000000E+00  0.61020709570E+02  0.61020709570E+02  0.00000000000E+00 0.  1.
          2   -1    0    0  503    0 -0.00000000000E+00 -0.00000000000E+00 -0.61344694643E+03  0.61344694643E+03  0.00000000000E+00 0. -1.
         25    2    1    2    0    0  0.63661301827E+01  0.17230682981E+02 -0.46778410885E+01  0.12641133671E+03  0.12498207792E+03 0.  0.
          5    1    3    3  501    0 -0.13455124048E+02  0.45646691742E+02 -0.50221581813E+02  0.69187268409E+02  0.10000000000E+00 0. -1.
         -5    1    3    3    0  501  0.19821254231E+02 -0.28416008761E+02  0.45543740725E+02  0.57224068296E+02  0.10000000000E+00 0. -1.
          2    1    1    2  502    0 -0.63661301827E+01 -0.17230682981E+02 -0.54774839577E+03  0.54805631930E+03  0.00000000000E+00 0. -1.
<mgrwt>
<rscale>  1 0.12632476E+03</rscale>
<asrwt>0</asrwt>
<pdfrwt beam="1">  1       21 0.93878018E-02 0.12632476E+03</pdfrwt>
<pdfrwt beam="2">  1        2 0.94376450E-01 0.12632476E+03</pdfrwt>
<totfact> 0.56042376E+04</totfact>
</mgrwt>
</event>
<event>
 6    2  0.1181843E-002  0.1276344E+03  0.7546771E-02  0.1231009E+00
         21   -1    0    0  502  503  0.00000000000E+00  0.00000000000E+00  0.91289335725E+01  0.91289335725E+01  0.00000000000E+00 0.  1.
          3   -1    0    0  503    0 -0.00000000000E+00 -0.00000000000E+00 -0.64492678922E+03  0.64492678922E+03  0.00000000000E+00 0. -1.
         25    2    1    2    0    0  0.14442474020E+02 -0.21396493127E+02 -0.53173926582E+03  0.54684291996E+03  0.12499654925E+03 0.  0.
          5    1    3    3  501    0  0.92170472086E+01 -0.21196075367E+01 -0.52596794937E+03  0.52605298256E+03  0.10000000000E+00 0. -1.
         -5    1    3    3    0  501  0.52254268118E+01 -0.19276885590E+02 -0.57713164440E+01  0.20789937396E+02  0.10000000000E+00 0. -1.
          3    1    1    2  502    0 -0.14442474020E+02  0.21396493127E+02 -0.10405858983E+03  0.10721280283E+03  0.00000000000E+00 0. -1.
<mgrwt>
<rscale>  1 0.12763437E+03</rscale>
<asrwt>0</asrwt>
<pdfrwt beam="1">  1       21 0.14044513E-02 0.12763437E+03</pdfrwt>
<pdfrwt beam="2">  1        3 0.99219509E-01 0.12763437E+03</pdfrwt>
<totfact> 0.95222392E+04</totfact>
</mgrwt>
</event>
<event>
 6    2  0.1181843E-002  0.2090915E+03  0.7546771E-02  0.1142287E+00
          1   -1    0    0  503    0 -0.00000000000E+00  0.00000000000E+00  0.29277173533E+02  0.29277173533E+02  0.00000000000E+00 0.  1.
         21   -1    0    0  502  503  0.00000000000E+00 -0.00000000000E+00 -0.12627790080E+04  0.12627790080E+04  0.00000000000E+00 0. -1.
         25    2    1    2    0    0 -0.13841560054E+03 -0.94532817652E+02 -0.81099230607E+03  0.83751285723E+03  0.12499573366E+03 0.  0.
          5    1    3    3  501    0 -0.28337052795E+02 -0.67652316837E+02 -0.15108792726E+03  0.16795057695E+03  0.10000000000E+00 0. -1.
         -5    1    3    3    0  501 -0.11007854774E+03 -0.26880500816E+02 -0.65990437881E+03  0.66956228028E+03  0.10000000000E+00 0. -1.
          1    1    1    2  502    0  0.13841560054E+03  0.94532817652E+02 -0.42250952843E+03  0.45454332434E+03  0.00000000000E+00 0.  1.
<mgrwt>
<rscale>  1 0.20909152E+03</rscale>
<asrwt>0</asrwt>
<pdfrwt beam="1">  1       21 0.19427364E+00 0.20909152E+03</pdfrwt>
<pdfrwt beam="2">  1        1 0.45041817E-02 0.20909152E+03</pdfrwt>
<totfact> 0.29375606E+03</totfact>
</mgrwt>
</event>
<event>
 6    2  0.1181843E-002  0.1278381E+03  0.7546771E-02  0.1230699E+00
         21   -1    0    0  502  503  0.00000000000E+00  0.00000000000E+00  0.37927842197E+03  0.37927842197E+03  0.00000000000E+00 0.  1.
          1   -1    0    0  503    0 -0.00000000000E+00 -0.00000000000E+00 -0.25909943630E+03  0.25909943630E+03  0.00000000000E+00 0. -1.
         25    2    1    2    0    0 -0.53548860566E+00  0.26783299905E+02  0.36776318964E+03  0.38934860305E+03  0.12499975656E+03 0.  0.
          5    1    3    3  501    0 -0.55269558961E+02  0.93724631092E+01  0.92534320825E+02  0.10819046974E+03  0.10000000000E+00 0. -1.
         -5    1    3    3    0  501  0.54734070355E+02  0.17410836796E+02  0.27522886881E+03  0.28115813331E+03  0.10000000000E+00 0. -1.
          1    1    1    2  502    0  0.53548860566E+00 -0.26783299905E+02 -0.24758420397E+03  0.24902925522E+03  0.00000000000E+00 0. -1.
<mgrwt>
<rscale>  1 0.12783807E+03</rscale>
<asrwt>0</asrwt>
<pdfrwt beam="1">  1       21 0.58350527E-01 0.12783807E+03</pdfrwt>
<pdfrwt beam="2">  1        1 0.39861451E-01 0.12783807E+03</pdfrwt>
<totfact> 0.32438758E+03</totfact>
</mgrwt>
</event>
<event>
 6    2  0.1181843E-002  0.1273852E+03  0.7546771E-02  0.1231388E+00
          2   -1    0    0  503    0 -0.00000000000E+00  0.00000000000E+00  0.33603716886E+03  0.33603716886E+03  0.00000000000E+00 0. -1.
         21   -1    0    0  502  503  0.00000000000E+00 -0.00000000000E+00 -0.14977056925E+03  0.14977056925E+03  0.00000000000E+00 0.  1.
         25    2    1    2    0    0  0.21513483548E+01 -0.24433392953E+02 -0.12210884431E+03  0.17645836700E+03  0.12500146573E+03 0.  0.
          5    1    3    3  501    0 -0.60732471648E+02 -0.70206429671E+01 -0.48081755646E+02  0.77779095946E+02  0.10000000000E+00 0. -1.
         -5    1    3    3    0  501  0.62883820003E+02 -0.17412749986E+02 -0.74027088665E+02  0.98679271057E+02  0.10000000000E+00 0. -1.
          2    1    1    2  502    0 -0.21513483548E+01  0.24433392953E+02  0.30837544392E+03  0.30934937110E+03  0.00000000000E+00 0. -1.
<mgrwt>
<rscale>  1 0.12738519E+03</rscale>
<asrwt>0</asrwt>
<pdfrwt beam="1">  1       21 0.23041626E-01 0.12738519E+03</pdfrwt>
<pdfrwt beam="2">  1        2 0.51698026E-01 0.12738519E+03</pdfrwt>
<totfact> 0.21377439E+04</totfact>
</mgrwt>
</event>
<event>
 6    2  0.1181843E-002  0.2006624E+03  0.7546771E-02  0.1149181E+00
         21   -1    0    0  502  503  0.00000000000E+00  0.00000000000E+00  0.13870615963E+03  0.13870615963E+03  0.00000000000E+00 0. -1.
          4   -1    0    0  503    0 -0.00000000000E+00 -0.00000000000E+00 -0.28879315016E+03  0.28879315016E+03  0.00000000000E+00 0. -1.
         25    2    1    2    0    0  0.18093913038E+02  0.15592822263E+03  0.13072924412E+02  0.20108783008E+03  0.12499765500E+03 0.  0.
          5    1    3    3  501    0 -0.20227284338E+02  0.15568724126E+03 -0.82881763400E+01  0.15721438862E+03  0.10000000000E+00 0. -1.
         -5    1    3    3    0  501  0.38321197376E+02  0.24098136718E+00  0.21361100752E+02  0.43873441461E+02  0.10000000000E+00 0. -1.
          4    1    1    2  502    0 -0.18093913038E+02 -0.15592822263E+03 -0.16315991494E+03  0.22641147971E+03  0.00000000000E+00 0. -1.
<mgrwt>
<rscale>  1 0.20066244E+03</rscale>
<asrwt>0</asrwt>
<pdfrwt beam="1">  1       21 0.21339409E-01 0.20066244E+03</pdfrwt>
<pdfrwt beam="2">  1        4 0.44429715E-01 0.20066244E+03</pdfrwt>
<totfact> 0.42449674E+03</totfact>
</mgrwt>
</event>
<event>
 6    2  0.1181843E-002  0.1259632E+03  0.7546771E-02  0.1233572E+00
         21   -1    0    0  502  503  0.00000000000E+00  0.00000000000E+00  0.11540945866E+02  0.11540945866E+02  0.00000000000E+00 0.  1.
          2   -1    0    0  503    0 -0.00000000000E+00 -0.00000000000E+00 -0.14186658678E+04  0.14186658678E+04  0.00000000000E+00 0.  1.
         25    2    1    2    0    0 -0.10895690374E+02  0.11099174214E+02 -0.33390661481E+03  0.35687581044E+03  0.12499923571E+03 0.  0.
          5    1    3    3  501    0  0.33365852590E+02  0.35783982931E+02 -0.55898545849E+02  0.74286142595E+02  0.10000000000E+00 0.  1.
         -5    1    3    3    0  501 -0.44261542964E+02 -0.24684808718E+02 -0.27800806896E+03  0.28258966785E+03  0.10000000000E+00 0.  1.
          2    1    1    2  502    0  0.10895690374E+02 -0.11099174214E+02 -0.10732183071E+04  0.10733310032E+04  0.00000000000E+00 0.  1.
<mgrwt>
<rscale>  1 0.12596316E+03</rscale>
<asrwt>0</asrwt>
<pdfrwt beam="1">  1       21 0.17755313E-02 0.12596316E+03</pdfrwt>
<pdfrwt beam="2">  1        2 0.21825615E+00 0.12596316E+03</pdfrwt>
<totfact> 0.28750438E+05</totfact>
</mgrwt>
</event>
<event>
 6    2  0.1181843E-002  0.1362942E+03  0.7546771E-02  0.1218404E+00
          2   -1    0    0  503    0 -0.00000000000E+00  0.00000000000E+00  0.57611868911E+03  0.57611868911E+03  0.00000000000E+00 0. -1.
         21   -1    0    0  502  503  0.00000000000E+00 -0.00000000000E+00 -0.46565323139E+02  0.46565323139E+02  0.00000000000E+00 0.  1.
         25    2    1    2    0    0  0.47735970724E+02  0.26078389326E+02  0.58196551365E+02  0.14819897353E+03  0.12496916369E+03 0.  0.
          5    1    3    3  501    0  0.24282659850E+02 -0.20218944980E+02 -0.31469772616E+02  0.44596074872E+02  0.10000000000E+00 0.  1.
         -5    1    3    3    0  501  0.23453310874E+02  0.46297334305E+02  0.89666323981E+02  0.10360289866E+03  0.10000000000E+00 0.  1.
          2    1    1    2  502    0 -0.47735970724E+02 -0.26078389326E+02  0.47135681461E+03  0.47448503872E+03  0.00000000000E+00 0. -1.
<mgrwt>
<rscale>  1 0.13629416E+03</rscale>
<asrwt>0</asrwt>
<pdfrwt beam="1">  1       21 0.71638963E-02 0.13629416E+03</pdfrwt>
<pdfrwt beam="2">  1        2 0.88633640E-01 0.13629416E+03</pdfrwt>
<totfact> 0.96112447E+04</totfact>
</mgrwt>
</event>
<event>
 6    2  0.1181843E-002  0.1274092E+03  0.7546771E-02  0.1231351E+00
         21   -1    0    0  502  503  0.00000000000E+00  0.00000000000E+00  0.21882456038E+04  0.21882456038E+04  0.00000000000E+00 0.  1.
          1   -1    0    0  503    0 -0.00000000000E+00 -0.00000000000E+00 -0.71126516195E+01  0.71126516195E+01  0.00000000000E+00 0.  1.
         25    2    1    2    0    0  0.51178197268E+01 -0.24095226095E+02  0.21573793186E+04  0.21611382743E+04  0.12500537758E+03 0.  0.
          5    1    3    3  501    0 -0.34610683267E+02  0.38166709585E+02  0.70350867688E+03  0.70539284485E+03  0.10000000000E+00 0.  1.
         -5    1    3    3    0  501  0.39728502994E+02 -0.62261935680E+02  0.14538706417E+04  0.14557454295E+04  0.10000000000E+00 0.  1.
          1    1    1    2  502    0 -0.51178197268E+01  0.24095226095E+02  0.23753633647E+02  0.34219981163E+02  0.00000000000E+00 0.  1.
<mgrwt>
<rscale>  1 0.12740925E+03</rscale>
<asrwt>0</asrwt>
<pdfrwt beam="1">  1       21 0.33665263E+00 0.12740925E+03</pdfrwt>
<pdfrwt beam="2">  1        1 0.10942558E-02 0.12740925E+03</pdfrwt>
<totfact> 0.32747702E+03</totfact>
</mgrwt>
</event>
<event>
 6    2  0.1181843E-002  0.1288695E+03  0.7546771E-02  0.1229143E+00
         21   -1    0    0  502  503  0.00000000000E+00  0.00000000000E+00  0.21603316049E+02  0.21603316049E+02  0.00000000000E+00 0. -1.
          2   -1    0    0  503    0 -0.00000000000E+00 -0.00000000000E+00 -0.36011150416E+03  0.36011150416E+03  0.00000000000E+00 0. -1.
         25    2    1    2    0    0 -0.21814933621E+02 -0.22558219231E+02 -0.18773075077E+03  0.22770637825E+03  0.12499038094E+03 0.  0.
          5    1    3    3  501    0 -0.45780935882E+01 -0.72552890325E+02 -0.82673170572E+02  0.11008970873E+03  0.10000000000E+00 0. -1.
         -5    1    3    3    0  501 -0.17236840032E+02  0.49994671094E+02 -0.10505758020E+03  0.11761666952E+03  0.10000000000E+00 0. -1.
          2    1    1    2  502    0  0.21814933621E+02  0.22558219231E+02 -0.15077743734E+03  0.15400844196E+03  0.00000000000E+00 0. -1.
<mgrwt>
<rscale>  1 0.12886955E+03</rscale>
<asrwt>0</asrwt>
<pdfrwt beam="1">  1       21 0.33235871E-02 0.12886955E+03</pdfrwt>
<pdfrwt beam="2">  1        2 0.55401769E-01 0.12886955E+03</pdfrwt>
<totfact> 0.58004702E+05</totfact>
</mgrwt>
</event>
<event>
 6    2  0.1181843E-002  0.1264135E+03  0.7546771E-02  0.1232877E+00
          4   -1    0    0  503    0 -0.00000000000E+00  0.00000000000E+00  0.17833245843E+03  0.17833245843E+03  0.00000000000E+00 0. -1.
         21   -1    0    0  502  503  0.00000000000E+00 -0.00000000000E+00 -0.48792475591E+02  0.48792475591E+02  0.00000000000E+00 0.  1.
         25    2    1    2    0    0  0.62493952429E+01  0.17818399992E+02  0.35634789510E+02  0.13134009361E+03  0.12499532650E+03 0.  0.
          5    1    3    3  501    0  0.18335910879E+02  0.20965477587E+02  0.80283316059E+02  0.84977513000E+02  0.10000000000E+00 0.  1.
         -5    1    3    3    0  501 -0.12086515636E+02 -0.31470775952E+01 -0.44648526549E+02  0.46362580607E+02  0.10000000000E+00 0.  1.
          4    1    1    2  502    0 -0.62493952429E+01 -0.17818399992E+02  0.93905193325E+02  0.95784840411E+02  0.00000000000E+00 0. -1.
<mgrwt>
<rscale>  1 0.12641354E+03</rscale>
<asrwt>0</asrwt>
<pdfrwt beam="1">  1       21 0.75065348E-02 0.12641354E+03</pdfrwt>
<pdfrwt beam="2">  1        4 0.27435762E-01 0.12641354E+03</pdfrwt>
<totfact> 0.67449197E+04</totfact>
</mgrwt>
</event>
<event>
 6    2  0.1181843E-002  0.1261399E+03  0.7546771E-02  0.1233298E+00
          1   -1    0    0  503    0 -0.00000000000E+00  0.00000000000E+00  0.69951327732E+03  0.69951327732E+03  0.00000000000E+00 0. -1.
         21   -1    0    0  502  503  0.00000000000E+00 -0.00000000000E+00 -0.16999776420E+03  0.16999776420E+03  0.00000000000E+00 0. -1.
         25    2    1    2    0    0 -0.16138646221E+02  0.50696906696E+01 -0.14647812775E+03  0.19330577671E+03  0.12500049493E+03 0.  0.
          5    1    3    3  501    0  0.40907807675E+02  0.39819956264E+02 -0.49566072359E+02  0.75603460072E+02  0.10000000000E+00 0.  1.
         -5    1    3    3    0  501 -0.57046453896E+02 -0.34750265595E+02 -0.96912055392E+02  0.11770231664E+03  0.10000000000E+00 0.  1.
          1    1    1    2  502    0  0.16138646221E+02 -0.50696906696E+01  0.67599364087E+03  0.67620526481E+03  0.00000000000E+00 0. -1.
<mgrwt>
<rscale>  1 0.12613993E+03</rscale>
<asrwt>0</asrwt>
<pdfrwt beam="1">  1       21 0.26153503E-01 0.12613993E+03</pdfrwt>
<pdfrwt beam="2">  1        1 0.10761743E+00 0.12613993E+03</pdfrwt>
<totfact> 0.44835705E+03</totfact>
</mgrwt>
</event>
<event>
 6    2  0.1181843E-002  0.1330536E+03  0.7546771E-02  0.1222994E+00
         21   -1    0    0  502  503  0.00000000000E+00  0.00000000000E+00  0.38638462344E+01  0.38638462344E+01  0.00000000000E+00 0. -1.
          1   -1    0    0  503    0 -0.00000000000E+00 -0.00000000000E+00 -0.28263646968E+04  0.28263646968E+04  0.00000000000E+00 0. -1.
         25    2    1    2    0    0 -0.38985502237E+02  0.23645072038E+02 -0.12489551683E+04  0.12560224025E+04  0.12499721703E+03 0.  0.
          5    1    3    3  501    0 -0.76760953127E+02  0.66508462459E+01 -0.49794046599E+03  0.50386624749E+03  0.10000000000E+00 0.  1.
         -5    1    3    3    0  501  0.37775450890E+02  0.16994225793E+02 -0.75101470236E+03  0.75215615503E+03  0.10000000000E+00 0.  1.
          1    1    1    2  502    0  0.38985502237E+02 -0.23645072038E+02 -0.15735456822E+04  0.15742061405E+04  0.00000000000E+00 0. -1.
<mgrwt>
<rscale>  1 0.13305361E+03</rscale>
<asrwt>0</asrwt>
<pdfrwt beam="1">  1       21 0.59443870E-03 0.13305361E+03</pdfrwt>
<pdfrwt beam="2">  1        1 0.43482474E+00 0.13305361E+03</pdfrwt>
<totfact> 0.95267848E+04</totfact>
</mgrwt>
</event>
<event>
 6    2  0.1181843E-002  0.1367309E+03  0.7546771E-02  0.1217797E+00
         21   -1    0    0  502  503  0.00000000000E+00  0.00000000000E+00  0.12475554355E+03  0.12475554355E+03  0.00000000000E+00 0.  1.
          2   -1    0    0  503    0 -0.00000000000E+00 -0.00000000000E+00 -0.86901505677E+02  0.86901505677E+02  0.00000000000E+00 0.  1.
         25    2    1    2    0    0  0.48559257848E+02  0.26692330354E+02 -0.11817983071E+02  0.13724070904E+03  0.12499946188E+03 0.  0.
          5    1    3    3  501    0  0.63086890983E+02 -0.25466833039E+02 -0.37092065763E+02  0.77487719940E+02  0.10000000000E+00 0. -1.
         -5    1    3    3    0  501 -0.14527633135E+02  0.52159163393E+02  0.25274082692E+02  0.59752989099E+02  0.10000000000E+00 0. -1.
          2    1    1    2  502    0 -0.48559257848E+02 -0.26692330354E+02  0.49672020947E+02  0.74416340191E+02  0.00000000000E+00 0.  1.
<mgrwt>
<rscale>  1 0.13673093E+03</rscale>
<asrwt>0</asrwt>
<pdfrwt beam="1">  1       21 0.19193161E-01 0.13673093E+03</pdfrwt>
<pdfrwt beam="2">  1        2 0.13369462E-01 0.13673093E+03</pdfrwt>
<totfact> 0.13394653E+05</totfact>
</mgrwt>
</event>
<event>
 6    2  0.1181843E-002  0.1367242E+03  0.7546771E-02  0.1217806E+00
         21   -1    0    0  502  503  0.00000000000E+00  0.00000000000E+00  0.13812999143E+03  0.13812999143E+03  0.00000000000E+00 0.  1.
          1   -1    0    0  503    0 -0.00000000000E+00 -0.00000000000E+00 -0.42561503061E+03  0.42561503061E+03  0.00000000000E+00 0. -1.
         25    2    1    2    0    0  0.23906903208E+02  0.49934045557E+02  0.10185207164E+03  0.17049149722E+03  0.12501422800E+03 0.  0.
          5    1    3    3  501    0 -0.32466974327E+02  0.63031349669E+02  0.84004980044E+02  0.10992680353E+03  0.10000000000E+00 0.  1.
         -5    1    3    3    0  501  0.56373877535E+02 -0.13097304113E+02  0.17847091592E+02  0.60564693689E+02  0.10000000000E+00 0.  1.
          1    1    1    2  502    0 -0.23906903208E+02 -0.49934045557E+02 -0.38933711081E+03  0.39325352482E+03  0.00000000000E+00 0. -1.
<mgrwt>
<rscale>  1 0.13672420E+03</rscale>
<asrwt>0</asrwt>
<pdfrwt beam="1">  1       21 0.21250768E-01 0.13672420E+03</pdfrwt>
<pdfrwt beam="2">  1        1 0.65479235E-01 0.13672420E+03</pdfrwt>
<totfact> 0.12808710E+04</totfact>
</mgrwt>
</event>
<event>
 6    2  0.1181843E-002  0.1913044E+03  0.7546771E-02  0.1157290E+00
          1   -1    0    0  503    0 -0.00000000000E+00  0.00000000000E+00  0.81160001187E+03  0.81160001187E+03  0.00000000000E+00 0. -1.
         21   -1    0    0  502  503  0.00000000000E+00 -0.00000000000E+00 -0.35098838231E+03  0.35098838231E+03  0.00000000000E+00 0.  1.
         25    2    1    2    0    0  0.64475221549E+02  0.12967542708E+03 -0.31773636660E+03  0.37088240474E+03  0.12499835562E+03 0.  0.
          5    1    3    3  501    0 -0.33374824065E+02  0.49752142633E+02 -0.65453854421E+02  0.88732021483E+02  0.10000000000E+00 0. -1.
         -5    1    3    3    0  501  0.97850045614E+02  0.79923284442E+02 -0.25228251218E+03  0.28215038326E+03  0.10000000000E+00 0. -1.
          1    1    1    2  502    0 -0.64475221549E+02 -0.12967542708E+03  0.77834799616E+03  0.79170598944E+03  0.00000000000E+00 0. -1.
<mgrwt>
<rscale>  1 0.19130436E+03</rscale>
<asrwt>0</asrwt>
<pdfrwt beam="1">  1       21 0.53998213E-01 0.19130436E+03</pdfrwt>
<pdfrwt beam="2">  1        1 0.12486154E+00 0.19130436E+03</pdfrwt>
<totfact> 0.81750071E+02</totfact>
</mgrwt>
</event>
<event>
 6    2  0.1181843E-002  0.1455320E+03  0.7546771E-02  0.1206073E+00
         21   -1    0    0  502  503  0.00000000000E+00  0.00000000000E+00  0.40408390661E+02  0.40408390661E+02  0.00000000000E+00 0.  1.
          1   -1    0    0  503    0 -0.00000000000E+00 -0.00000000000E+00 -0.30780179782E+03  0.30780179782E+03  0.00000000000E+00 0.  1.
         25    2    1    2    0    0 -0.71509758723E+02 -0.20973438754E+02 -0.20264705655E+03  0.24949027842E+03  0.12500415501E+03 0.  0.
          5    1    3    3  501    0 -0.63569310820E+02 -0.70610816235E+02 -0.13941829989E+03  0.16871400947E+03  0.10000000000E+00 0.  1.
         -5    1    3    3    0  501 -0.79404479026E+01  0.49637377481E+02 -0.63228756668E+02  0.80776268952E+02  0.10000000000E+00 0.  1.
          1    1    1    2  502    0  0.71509758723E+02  0.20973438754E+02 -0.64746350604E+02  0.98719910060E+02  0.00000000000E+00 0.  1.
<mgrwt>
<rscale>  1 0.14553202E+03</rscale>
<asrwt>0</asrwt>
<pdfrwt beam="1">  1       21 0.62166756E-02 0.14553202E+03</pdfrwt>
<pdfrwt beam="2">  1        1 0.47354122E-01 0.14553202E+03</pdfrwt>
<totfact> 0.17038013E+05</totfact>
</mgrwt>
</event>
<event>
 6    2  0.1181843E-002  0.1729351E+03  0.7546771E-02  0.1174821E+00
          4   -1    0    0  503    0 -0.00000000000E+00  0.00000000000E+00  0.34778947772E+03  0.34778947772E+03  0.00000000000E+00 0.  1.
         21   -1    0    0  502  503  0.00000000000E+00 -0.00000000000E+00 -0.73447113320E+02  0.73447113320E+02  0.00000000000E+00 0.  1.
         25    2    1    2    0    0  0.21198052279E+02  0.11760919374E+03  0.74308504386E+02  0.18822409132E+03  0.12500109942E+03 0.  0.
          5    1    3    3  501    0  0.28869380436E+02  0.31778707183E+02 -0.30406528456E+02  0.52610781497E+02  0.10000000000E+00 0. -1.
         -5    1    3    3    0  501 -0.76713281567E+01  0.85830486558E+02  0.10471503284E+03  0.13561330983E+03  0.10000000000E+00 0. -1.
          4    1    1    2  502    0 -0.21198052279E+02 -0.11760919374E+03  0.20003386001E+03  0.23301249972E+03  0.00000000000E+00 0.  1.
<mgrwt>
<rscale>  1 0.17293512E+03</rscale>
<asrwt>0</asrwt>
<pdfrwt beam="1">  1       21 0.11299556E-01 0.17293512E+03</pdfrwt>
<pdfrwt beam="2">  1        4 0.53506073E-01 0.17293512E+03</pdfrwt>
<totfact> 0.91984522E+03</totfact>
</mgrwt>
</event>
<event>
 6    2  0.1181843E-002  0.1374683E+03  0.7546771E-02  0.1216777E+00
         21   -1    0    0  502  503  0.00000000000E+00  0.00000000000E+00  0.11352300581E+03  0.11352300581E+03  0.00000000000E+00 0. -1.
          1   -1    0    0  503    0 -0.00000000000E+00 -0.00000000000E+00 -0.87671213880E+02  0.87671213880E+02  0.00000000000E+00 0. -1.
         25    2    1    2    0    0  0.18938644571E+02 -0.54035967948E+02 -0.20842711961E+01  0.13748408146E+03  0.12497587918E+03 0.  0.
          5    1    3    3  501    0 -0.42529194600E+02 -0.62269783457E+02  0.58705897291E+00  0.75409634420E+02  0.10000000000E+00 0. -1.
         -5    1    3    3    0  501  0.61467839171E+02  0.82338155093E+01 -0.26713301690E+01  0.62074447038E+02  0.10000000000E+00 0. -1.
          1    1    1    2  502    0 -0.18938644571E+02  0.54035967948E+02  0.27936063122E+02  0.63710138228E+02  0.00000000000E+00 0. -1.
<mgrwt>
<rscale>  1 0.13746828E+03</rscale>
<asrwt>0</asrwt>
<pdfrwt beam="1">  1       21 0.17465078E-01 0.13746828E+03</pdfrwt>
<pdfrwt beam="2">  1        1 0.13487879E-01 0.13746828E+03</pdfrwt>
<totfact> 0.13430014E+05</totfact>
</mgrwt>
</event>
<event>
 6    2  0.1181843E-002  0.1480270E+03  0.7546771E-02  0.1202919E+00
          2   -1    0    0  503    0 -0.00000000000E+00  0.00000000000E+00  0.93331814163E+03  0.93331814163E+03  0.00000000000E+00 0.  1.
         21   -1    0    0  502  503  0.00000000000E+00 -0.00000000000E+00 -0.13846403516E+02  0.13846403516E+02  0.00000000000E+00 0. -1.
         25    2    1    2    0    0  0.69701641594E+02 -0.37833774897E+02  0.59199677110E+03  0.61022305559E+03  0.12498914840E+03 0.  0.
          5    1    3    3  501    0  0.38086337599E+02 -0.81088717045E+02  0.29041449566E+03  0.30391863785E+03  0.10000000000E+00 0. -1.
         -5    1    3    3    0  501  0.31615303995E+02  0.43254942148E+02  0.30158227544E+03  0.30630441774E+03  0.10000000000E+00 0. -1.
          2    1    1    2  502    0 -0.69701641594E+02  0.37833774897E+02  0.32747496701E+03  0.33694148956E+03  0.00000000000E+00 0.  1.
<mgrwt>
<rscale>  1 0.14802703E+03</rscale>
<asrwt>0</asrwt>
<pdfrwt beam="1">  1       21 0.21302167E-02 0.14802703E+03</pdfrwt>
<pdfrwt beam="2">  1        2 0.14358736E+00 0.14802703E+03</pdfrwt>
<totfact> 0.40399262E+05</totfact>
</mgrwt>
</event>
<event>
 6    2  0.1181843E-002  0.1912539E+03  0.7546771E-02  0.1157335E+00
         21   -1    0    0  502  503  0.00000000000E+00  0.00000000000E+00  0.40394890952E+03  0.40394890952E+03  0.00000000000E+00 0.  1.
          1   -1    0    0  503    0 -0.00000000000E+00 -0.00000000000E+00 -0.18089685654E+03  0.18089685654E+03  0.00000000000E+00 0.  1.
         25    2    1    2    0    0  0.84612571720E+02 -0.11750054450E+03  0.34570635473E+03  0.39508343315E+03  0.12494947057E+03 0.  0.
          5    1    3    3  501    0 -0.26838134582E+02 -0.67234633810E+01  0.97213248320E+02  0.10107381499E+03  0.10000000000E+00 0. -1.
         -5    1    3    3    0  501  0.11145070630E+03 -0.11077708112E+03  0.24849310641E+03  0.29400961816E+03  0.10000000000E+00 0. -1.
          1    1    1    2  502    0 -0.84612571720E+02  0.11750054450E+03 -0.12265430176E+03  0.18976233291E+03  0.00000000000E+00 0.  1.
<mgrwt>
<rscale>  1 0.19125385E+03</rscale>
<asrwt>0</asrwt>
<pdfrwt beam="1">  1       21 0.62145986E-01 0.19125385E+03</pdfrwt>
<pdfrwt beam="2">  1        1 0.27830286E-01 0.19125385E+03</pdfrwt>
<totfact> 0.43375812E+03</totfact>
</mgrwt>
</event>
<event>
 6    2  0.1181843E-002  0.1734768E+03  0.7546771E-02  0.1174270E+00
          2   -1    0    0  503    0 -0.00000000000E+00  0.00000000000E+00  0.57315428369E+03  0.57315428369E+03  0.00000000000E+00 0. -1.
         21   -1    0    0  502  503  0.00000000000E+00 -0.00000000000E+00 -0.50410718920E+02  0.50410718920E+02  0.00000000000E+00 0.  1.
         25    2    1    2    0    0 -0.67746118330E+02 -0.99402486018E+02  0.14172812827E+03  0.22401130956E+03  0.12499525469E+03 0.  0.
          5    1    3    3  501    0  0.17325498219E+02 -0.50215808691E+02  0.19615226686E+01  0.53156917727E+02  0.10000000000E+00 0. -1.
         -5    1    3    3    0  501 -0.85071616549E+02 -0.49186677327E+02  0.13976660560E+03  0.17085439183E+03  0.10000000000E+00 0. -1.
          2    1    1    2  502    0  0.67746118330E+02  0.99402486018E+02  0.38101543651E+03  0.39955369305E+03  0.00000000000E+00 0. -1.
<mgrwt>
<rscale>  1 0.17347681E+03</rscale>
<asrwt>0</asrwt>
<pdfrwt beam="1">  1       21 0.77554956E-02 0.17347681E+03</pdfrwt>
<pdfrwt beam="2">  1        2 0.88177578E-01 0.17347681E+03</pdfrwt>
<totfact> 0.84611229E+04</totfact>
</mgrwt>
</event>
<event>
 6    2  0.1181843E-002  0.1263387E+03  0.7546771E-02  0.1232992E+00
         21   -1    0    0  502  503  0.00000000000E+00  0.00000000000E+00  0.98018030300E+03  0.98018030300E+03  0.00000000000E+00 0. -1.
          2   -1    0    0  503    0 -0.00000000000E+00 -0.00000000000E+00 -0.71182059852E+02  0.71182059852E+02  0.00000000000E+00 0.  1.
         25    2    1    2    0    0 -0.13604691654E+02  0.12326715266E+02  0.97484841761E+03  0.98300096277E+03  0.12499767982E+03 0.  0.
          5    1    3    3  501    0 -0.20569931602E+01  0.41024923303E+02  0.10718646086E+03  0.11478772994E+03  0.10000000000E+00 0.  1.
         -5    1    3    3    0  501 -0.11547698494E+02 -0.28698208036E+02  0.86766195674E+03  0.86821323283E+03  0.10000000000E+00 0.  1.
          2    1    1    2  502    0  0.13604691654E+02 -0.12326715266E+02 -0.65850174459E+02  0.68361400078E+02  0.00000000000E+00 0.  1.
<mgrwt>
<rscale>  1 0.12633865E+03</rscale>
<asrwt>0</asrwt>
<pdfrwt beam="1">  1       21 0.15079696E+00 0.12633865E+03</pdfrwt>
<pdfrwt beam="2">  1        2 0.10951087E-01 0.12633865E+03</pdfrwt>
<totfact> 0.21162896E+03</totfact>
</mgrwt>
</event>
<event>
 6    2  0.1181843E-002  0.1260567E+03  0.7546771E-02  0.1233427E+00
         21   -1    0    0  502  503  0.00000000000E+00  0.00000000000E+00  0.63550956593E+02  0.63550956593E+02  0.00000000000E+00 0.  1.
          2   -1    0    0  503    0 -0.00000000000E+00 -0.00000000000E+00 -0.73193201102E+03  0.73193201102E+03  0.00000000000E+00 0.  1.
         25    2    1    2    0    0 -0.16093259838E+02 -0.25178997254E+01  0.84416721695E+00  0.12605953651E+03  0.12499984518E+03 0.  0.
          5    1    3    3  501    0  0.32541136528E+02 -0.30089461671E+02 -0.37673755822E+02  0.58168919088E+02  0.10000000000E+00 0. -1.
         -5    1    3    3    0  501 -0.48634396366E+02  0.27571561946E+02  0.38517923039E+02  0.67890617417E+02  0.10000000000E+00 0. -1.
          2    1    1    2  502    0  0.16093259838E+02  0.25178997254E+01 -0.66922522164E+03  0.66942343111E+03  0.00000000000E+00 0.  1.
<mgrwt>
<rscale>  1 0.12605671E+03</rscale>
<asrwt>0</asrwt>
<pdfrwt beam="1">  1       21 0.97770700E-02 0.12605671E+03</pdfrwt>
<pdfrwt beam="2">  1        2 0.11260493E+00 0.12605671E+03</pdfrwt>
<totfact> 0.42471426E+04</totfact>
</mgrwt>
</event>
<event>
 6    2  0.1181843E-002  0.1627516E+03  0.7546771E-02  0.1185625E+00
          1   -1    0    0  503    0 -0.00000000000E+00  0.00000000000E+00  0.29882304999E+03  0.29882304999E+03  0.00000000000E+00 0. -1.
         21   -1    0    0  502  503  0.00000000000E+00 -0.00000000000E+00 -0.15126958404E+03  0.15126958404E+03  0.00000000000E+00 0.  1.
         25    2    1    2    0    0 -0.93023301876E+02  0.47006625785E+02 -0.93340558653E+02  0.18761808546E+03  0.12500051417E+03 0.  0.
          5    1    3    3  501    0 -0.10246195561E+03 -0.84021967835E+01 -0.78880343277E+02  0.12958073859E+03  0.10000000000E+00 0. -1.
         -5    1    3    3    0  501  0.94386537349E+01  0.55408822569E+02 -0.14460215376E+02  0.58037346868E+02  0.10000000000E+00 0. -1.
          1    1    1    2  502    0  0.93023301876E+02 -0.47006625785E+02  0.24089402460E+03  0.26247454857E+03  0.00000000000E+00 0. -1.
<mgrwt>
<rscale>  1 0.16275161E+03</rscale>
<asrwt>0</asrwt>
<pdfrwt beam="1">  1       21 0.23272244E-01 0.16275161E+03</pdfrwt>
<pdfrwt beam="2">  1        1 0.45972777E-01 0.16275161E+03</pdfrwt>
<totfact> 0.16774131E+04</totfact>
</mgrwt>
</event>
<event>
 6    2  0.1181843E-002  0.1280073E+03  0.7546771E-02  0.1230443E+00
         21   -1    0    0  502  503  0.00000000000E+00  0.00000000000E+00  0.25736178182E+01  0.25736178182E+01  0.00000000000E+00 0.  1.
          2   -1    0    0  503    0 -0.00000000000E+00 -0.00000000000E+00 -0.26900123253E+04  0.26900123253E+04  0.00000000000E+00 0.  1.
         25    2    1    2    0    0 -0.26981226940E+02  0.57840970494E+01 -0.17212669877E+04  0.17260202524E+04  0.12499770530E+03 0.  0.
          5    1    3    3  501    0 -0.68464160947E+02 -0.28404652239E+02 -0.95925599811E+03  0.96211550529E+03  0.10000000000E+00 0.  1.
         -5    1    3    3    0  501  0.41482934006E+02  0.34188749289E+02 -0.76201098958E+03  0.76390474710E+03  0.10000000000E+00 0.  1.
          2    1    1    2  502    0  0.26981226940E+02 -0.57840970494E+01 -0.96617171983E+03  0.96656569078E+03  0.00000000000E+00 0.  1.
<mgrwt>
<rscale>  1 0.12800730E+03</rscale>
<asrwt>0</asrwt>
<pdfrwt beam="1">  1       21 0.39594101E-03 0.12800730E+03</pdfrwt>
<pdfrwt beam="2">  1        2 0.41384826E+00 0.12800730E+03</pdfrwt>
<totfact> 0.66100268E+05</totfact>
</mgrwt>
</event>
<event>
 6    2  0.1181843E-002  0.1497499E+03  0.7546771E-02  0.1200781E+00
         21   -1    0    0  502  503  0.00000000000E+00  0.00000000000E+00  0.30195850683E+02  0.30195850683E+02  0.00000000000E+00 0.  1.
          2   -1    0    0  503    0 -0.00000000000E+00 -0.00000000000E+00 -0.19140354295E+04  0.19140354295E+04  0.00000000000E+00 0. -1.
         25    2    1    2    0    0 -0.75752969577E+02 -0.32604953634E+02 -0.16273102076E+03  0.22114792061E+03  0.12499368893E+03 0.  0.
          5    1    3    3  501    0  0.16309570988E+02 -0.52170533657E+02 -0.72189786916E+02  0.90549113871E+02  0.10000000000E+00 0. -1.
         -5    1    3    3    0  501 -0.92062540565E+02  0.19565580023E+02 -0.90541233842E+02  0.13059880674E+03  0.10000000000E+00 0. -1.
          2    1    1    2  502    0  0.75752969577E+02  0.32604953634E+02 -0.17211085580E+04  0.17230833595E+04  0.00000000000E+00 0. -1.
<mgrwt>
<rscale>  1 0.14974985E+03</rscale>
<asrwt>0</asrwt>
<pdfrwt beam="1">  1       21 0.46455152E-02 0.14974985E+03</pdfrwt>
<pdfrwt beam="2">  1        2 0.29446701E+00 0.14974985E+03</pdfrwt>
<totfact> 0.32926450E+04</totfact>
</mgrwt>
</event>
<event>
 6    2  0.1181843E-002  0.1312247E+03  0.7546771E-02  0.1225650E+00
          2   -1    0    0  503    0 -0.00000000000E+00  0.00000000000E+00  0.16826543361E+03  0.16826543361E+03  0.00000000000E+00 0. -1.
         21   -1    0    0  502  503  0.00000000000E+00 -0.00000000000E+00 -0.13085763874E+03  0.13085763874E+03  0.00000000000E+00 0.  1.
         25    2    1    2    0    0 -0.29345907287E+02 -0.27083024616E+02 -0.94235830585E+02  0.16155593740E+03  0.12500102658E+03 0.  0.
          5    1    3    3  501    0  0.34128329038E+02  0.30204898976E+02 -0.36424063824E+02  0.58342104783E+02  0.10000000000E+00 0. -1.
         -5    1    3    3    0  501 -0.63474236325E+02 -0.57287923592E+02 -0.57811766761E+02  0.10321383261E+03  0.10000000000E+00 0. -1.
          2    1    1    2  502    0  0.29345907287E+02  0.27083024616E+02  0.13164362545E+03  0.13756713495E+03  0.00000000000E+00 0. -1.
<mgrwt>
<rscale>  1 0.13122473E+03</rscale>
<asrwt>0</asrwt>
<pdfrwt beam="1">  1       21 0.20131944E-01 0.13122473E+03</pdfrwt>
<pdfrwt beam="2">  1        2 0.25886990E-01 0.13122473E+03</pdfrwt>
<totfact> 0.57629162E+04</totfact>
</mgrwt>
</event>
<event>
 6    2  0.1181843E-002  0.1308774E+03  0.7546771E-02  0.1226160E+00
         21   -1    0    0  502  503  0.00000000000E+00  0.00000000000E+00  0.86039461183E+01  0.86039461183E+01  0.00000000000E+00 0.  1.
          2   -1    0    0  503    0 -0.00000000000E+00 -0.00000000000E+00 -0.12135652936E+04  0.12135652936E+04  0.00000000000E+00 0.  1.
         25    2    1    2    0    0  0.38618590265E+02  0.35898513135E+01 -0.52374655883E+03  0.53985122675E+03  0.12499842634E+03 0.  0.
          5    1    3    3  501    0  0.42801047456E+01  0.39162866359E+02 -0.50598975804E+02  0.64127340117E+02  0.10000000000E+00 0. -1.
         -5    1    3    3    0  501  0.34338485519E+02 -0.35573015046E+02 -0.47314758302E+03  0.47572388663E+03  0.10000000000E+00 0. -1.
          2    1    1    2  502    0 -0.38618590265E+02 -0.35898513135E+01 -0.68121478866E+03  0.68231801298E+03  0.00000000000E+00 0.  1.
<mgrwt>
<rscale>  1 0.13087738E+03</rscale>
<asrwt>0</asrwt>
<pdfrwt beam="1">  1       21 0.13236851E-02 0.13087738E+03</pdfrwt>
<pdfrwt beam="2">  1        2 0.18670220E+00 0.13087738E+03</pdfrwt>
<totfact> 0.59304462E+05</totfact>
</mgrwt>
</event>
<event>
 6    2  0.1181843E-002  0.1327406E+03  0.7546771E-02  0.1223445E+00
         21   -1    0    0  502  503  0.00000000000E+00  0.00000000000E+00  0.97710367596E+02  0.97710367596E+02  0.00000000000E+00 0. -1.
          3   -1    0    0  503    0 -0.00000000000E+00 -0.00000000000E+00 -0.13363824143E+03  0.13363824143E+03  0.00000000000E+00 0. -1.
         25    2    1    2    0    0  0.19837267955E+02 -0.39942460486E+02  0.43981082426E+02  0.13983708713E+03  0.12502462948E+03 0.  0.
          5    1    3    3  501    0  0.29296636201E+02  0.13288319121E+02  0.72060651968E+02  0.78915270258E+02  0.10000000000E+00 0. -1.
         -5    1    3    3    0  501 -0.94593682459E+01 -0.53230779607E+02 -0.28079569542E+02  0.60921816871E+02  0.10000000000E+00 0. -1.
          3    1    1    2  502    0 -0.19837267955E+02  0.39942460486E+02 -0.79908956259E+02  0.91511521898E+02  0.00000000000E+00 0. -1.
<mgrwt>
<rscale>  1 0.13274063E+03</rscale>
<asrwt>0</asrwt>
<pdfrwt beam="1">  1       21 0.15032364E-01 0.13274063E+03</pdfrwt>
<pdfrwt beam="2">  1        3 0.20559729E-01 0.13274063E+03</pdfrwt>
<totfact> 0.39957036E+04</totfact>
</mgrwt>
</event>
<event>
 6    2  0.1181843E-002  0.1304577E+03  0.7546771E-02  0.1226778E+00
          1   -1    0    0  503    0 -0.00000000000E+00  0.00000000000E+00  0.11061480452E+04  0.11061480452E+04  0.00000000000E+00 0.  1.
         21   -1    0    0  502  503  0.00000000000E+00 -0.00000000000E+00 -0.11237229501E+03  0.11237229501E+03  0.00000000000E+00 0.  1.
         25    2    1    2    0    0  0.26567635134E+02 -0.26241080994E+02 -0.74072188940E+02  0.15001968290E+03  0.12499913006E+03 0.  0.
          5    1    3    3  501    0 -0.31649655486E+02  0.87413274773E+01  0.16550371253E+02  0.36770046058E+02  0.10000000000E+00 0.  1.
         -5    1    3    3    0  501  0.58217290620E+02 -0.34982408471E+02 -0.90622560194E+02  0.11324963685E+03  0.10000000000E+00 0.  1.
          1    1    1    2  502    0 -0.26567635134E+02  0.26241080994E+02  0.10678479392E+04  0.10685006573E+04  0.00000000000E+00 0.  1.
<mgrwt>
<rscale>  1 0.13045772E+03</rscale>
<asrwt>0</asrwt>
<pdfrwt beam="1">  1       21 0.17288046E-01 0.13045772E+03</pdfrwt>
<pdfrwt beam="2">  1        1 0.17017662E+00 0.13045772E+03</pdfrwt>
<totfact> 0.46789560E+03</totfact>
</mgrwt>
</event>
<event>
 6    2  0.1181843E-002  0.1304049E+03  0.7546771E-02  0.1226856E+00
         21   -1    0    0  502  503  0.00000000000E+00  0.00000000000E+00  0.10329887133E+04  0.10329887133E+04  0.00000000000E+00 0. -1.
          1   -1    0    0  503    0 -0.00000000000E+00 -0.00000000000E+00 -0.13489595076E+02  0.13489595076E+02  0.00000000000E+00 0. -1.
         25    2    1    2    0    0 -0.36496170982E+02 -0.71201844804E+01  0.99122303598E+03  0.99976423821E+03  0.12499102931E+03 0.  0.
          5    1    3    3  501    0 -0.46993071335E+01 -0.64569836812E+02  0.48931085360E+03  0.49357519058E+03  0.10000000000E+00 0. -1.
         -5    1    3    3    0  501 -0.31796863848E+02  0.57449652331E+02  0.50191218239E+03  0.50618904762E+03  0.10000000000E+00 0. -1.
          1    1    1    2  502    0  0.36496170982E+02  0.71201844804E+01  0.28276082200E+02  0.46714070128E+02  0.00000000000E+00 0. -1.
<mgrwt>
<rscale>  1 0.13040485E+03</rscale>
<asrwt>0</asrwt>
<pdfrwt beam="1">  1       21 0.15892128E+00 0.13040485E+03</pdfrwt>
<pdfrwt beam="2">  1        1 0.20753231E-02 0.13040485E+03</pdfrwt>
<totfact> 0.15481527E+04</totfact>
</mgrwt>
</event>
<event>
 6    2  0.1181843E-002  0.1355196E+03  0.7546771E-02  0.1219488E+00
         21   -1    0    0  502  503  0.00000000000E+00  0.00000000000E+00  0.22170607579E+02  0.22170607579E+02  0.00000000000E+00 0. -1.
          1   -1    0    0  503    0 -0.00000000000E+00 -0.00000000000E+00 -0.11127498476E+04  0.11127498476E+04  0.00000000000E+00 0.  1.
         25    2    1    2    0    0 -0.31087228908E+02 -0.42251092742E+02 -0.19309808574E+03  0.23590766721E+03  0.12495593661E+03 0.  0.
          5    1    3    3  501    0 -0.19879814054E+01 -0.71577226391E+02 -0.50960123444E+02  0.87887402904E+02  0.10000000000E+00 0. -1.
         -5    1    3    3    0  501 -0.29099247502E+02  0.29326133649E+02 -0.14213796229E+03  0.14802026431E+03  0.10000000000E+00 0. -1.
          1    1    1    2  502    0  0.31087228908E+02  0.42251092742E+02 -0.89748115424E+03  0.89901278793E+03  0.00000000000E+00 0.  1.
<mgrwt>
<rscale>  1 0.13551958E+03</rscale>
<asrwt>0</asrwt>
<pdfrwt beam="1">  1       21 0.34108627E-02 0.13551958E+03</pdfrwt>
<pdfrwt beam="2">  1        1 0.17119228E+00 0.13551958E+03</pdfrwt>
<totfact> 0.76236324E+04</totfact>
</mgrwt>
</event>
<event>
 6    2  0.1181843E-002  0.1265038E+03  0.7546771E-02  0.1232738E+00
          2   -1    0    0  503    0 -0.00000000000E+00  0.00000000000E+00  0.81552644290E+03  0.81552644290E+03  0.00000000000E+00 0. -1.
         21   -1    0    0  502  503  0.00000000000E+00 -0.00000000000E+00 -0.23894606508E+02  0.23894606508E+02  0.00000000000E+00 0. -1.
         25    2    1    2    0    0  0.62861329912E+01  0.18393212416E+02  0.14471592753E+03  0.19221318568E+03  0.12500153334E+03 0.  0.
          5    1    3    3  501    0 -0.33351102628E+02 -0.39348459566E+02  0.88376502413E+02  0.10232797025E+03  0.10000000000E+00 0. -1.
         -5    1    3    3    0  501  0.39637235619E+02  0.57741671982E+02  0.56339425121E+02  0.89885215435E+02  0.10000000000E+00 0. -1.
          2    1    1    2  502    0 -0.62861329912E+01 -0.18393212416E+02  0.64691590886E+03  0.64720786373E+03  0.00000000000E+00 0. -1.
<mgrwt>
<rscale>  1 0.12650379E+03</rscale>
<asrwt>0</asrwt>
<pdfrwt beam="1">  1       21 0.36760939E-02 0.12650379E+03</pdfrwt>
<pdfrwt beam="2">  1        2 0.12546559E+00 0.12650379E+03</pdfrwt>
<totfact> 0.19557012E+05</totfact>
</mgrwt>
</event>
<event>
 6    2  0.1181843E-002  0.1266854E+03  0.7546771E-02  0.1232459E+00
         21   -1    0    0  502  503  0.00000000000E+00  0.00000000000E+00  0.42961185507E+02  0.42961185507E+02  0.00000000000E+00 0.  1.
          4   -1    0    0  503    0 -0.00000000000E+00 -0.00000000000E+00 -0.12611259918E+03  0.12611259918E+03  0.00000000000E+00 0.  1.
         25    2    1    2    0    0 -0.14600087465E+02  0.14430340131E+02 -0.71585346405E+02  0.14551171385E+03  0.12501119860E+03 0.  0.
          5    1    3    3  501    0  0.39402374488E+01  0.62926299407E+02 -0.82057650170E+01  0.63581358964E+02  0.10000000000E+00 0.  1.
         -5    1    3    3    0  501 -0.18540324914E+02 -0.48495959276E+02 -0.63379581388E+02  0.81930354881E+02  0.10000000000E+00 0.  1.
          4    1    1    2  502    0  0.14600087465E+02 -0.14430340131E+02 -0.11566067266E+02  0.23562070840E+02  0.00000000000E+00 0.  1.
<mgrwt>
<rscale>  1 0.12668543E+03</rscale>
<asrwt>0</asrwt>
<pdfrwt beam="1">  1       21 0.66094132E-02 0.12668543E+03</pdfrwt>
<pdfrwt beam="2">  1        4 0.19401938E-01 0.12668543E+03</pdfrwt>
<totfact> 0.15793824E+05</totfact>
</mgrwt>
</event>
<event>
 6    2  0.1181843E-002  0.1264644E+03  0.7546771E-02  0.1232798E+00
          2   -1    0    0  503    0 -0.00000000000E+00  0.00000000000E+00  0.41203399300E+02  0.41203399300E+02  0.00000000000E+00 0. -1.
         21   -1    0    0  502  503  0.00000000000E+00 -0.00000000000E+00 -0.32090292756E+03  0.32090292756E+03  0.00000000000E+00 0.  1.
         25    2    1    2    0    0 -0.42093487794E+01  0.18711859389E+02 -0.30510382868E+03  0.33027504070E+03  0.12500161573E+03 0.  0.
          5    1    3    3  501    0 -0.47411770088E+02 -0.55804886886E+01 -0.45386920727E+02  0.65871089030E+02  0.10000000000E+00 0. -1.
         -5    1    3    3    0  501  0.43202421309E+02  0.24292348078E+02 -0.25971690795E+03  0.26440395167E+03  0.10000000000E+00 0. -1.
          2    1    1    2  502    0  0.42093487794E+01 -0.18711859389E+02  0.25404300418E+02  0.31831286161E+02  0.00000000000E+00 0. -1.
<mgrwt>
<rscale>  1 0.12646445E+03</rscale>
<asrwt>0</asrwt>
<pdfrwt beam="1">  1       21 0.49369681E-01 0.12646445E+03</pdfrwt>
<pdfrwt beam="2">  1        2 0.63389845E-02 0.12646445E+03</pdfrwt>
<totfact> 0.53686605E+04</totfact>
</mgrwt>
</event>
<event>
 6    2  0.1181843E-002  0.1749789E+03  0.7546771E-02  0.1172753E+00
          2   -1    0    0  503    0 -0.00000000000E+00  0.00000000000E+00  0.22082552525E+03  0.22082552525E+03  0.00000000000E+00 0.  1.
         21   -1    0    0  502  503  0.00000000000E+00 -0.00000000000E+00 -0.14647989654E+03  0.14647989654E+03  0.00000000000E+00 0. -1.
         25    2    1    2    0    0 -0.65354119683E+02 -0.10354289286E+03 -0.60519474286E+02  0.18514920415E+03  0.12500131763E+03 0.  0.
          5    1    3    3  501    0 -0.21887442559E+02  0.45315363875E+01 -0.64836613116E+02  0.68581275609E+02  0.10000000000E+00 0.  1.
         -5    1    3    3    0  501 -0.43466677124E+02 -0.10807442925E+03  0.43171388297E+01  0.11656792854E+03  0.10000000000E+00 0.  1.
          2    1    1    2  502    0  0.65354119683E+02  0.10354289286E+03  0.13486510299E+03  0.18215621764E+03  0.00000000000E+00 0.  1.
<mgrwt>
<rscale>  1 0.17497892E+03</rscale>
<asrwt>0</asrwt>
<pdfrwt beam="1">  1       21 0.22535369E-01 0.17497892E+03</pdfrwt>
<pdfrwt beam="2">  1        2 0.33973158E-01 0.17497892E+03</pdfrwt>
<totfact> 0.34807979E+04</totfact>
</mgrwt>
</event>
<event>
 6    2  0.1181843E-002  0.1297516E+03  0.7546771E-02  0.1227825E+00
          2   -1    0    0  503    0 -0.00000000000E+00  0.00000000000E+00  0.92918423374E+03  0.92918423374E+03  0.00000000000E+00 0.  1.
         21   -1    0    0  502  503  0.00000000000E+00 -0.00000000000E+00 -0.11552241572E+02  0.11552241572E+02  0.00000000000E+00 0.  1.
         25    2    1    2    0    0 -0.26773355258E+02 -0.22218853301E+02  0.37167778867E+03  0.39367479477E+03  0.12499990183E+03 0.  0.
          5    1    3    3  501    0  0.24356210031E+02 -0.81108077735E+01  0.90978179500E+01  0.27235830468E+02  0.10000000000E+00 0. -1.
         -5    1    3    3    0  501 -0.51129565289E+02 -0.14108045528E+02  0.36257997072E+03  0.36643896430E+03  0.10000000000E+00 0. -1.
          2    1    1    2  502    0  0.26773355258E+02  0.22218853301E+02  0.54595420350E+03  0.54706168054E+03  0.00000000000E+00 0.  1.
<mgrwt>
<rscale>  1 0.12975155E+03</rscale>
<asrwt>0</asrwt>
<pdfrwt beam="1">  1       21 0.17772687E-02 0.12975155E+03</pdfrwt>
<pdfrwt beam="2">  1        2 0.14295136E+00 0.12975155E+03</pdfrwt>
<totfact> 0.54107322E+05</totfact>
</mgrwt>
</event>
<event>
 6    2  0.1181843E-002  0.1260272E+03  0.7546771E-02  0.1233473E+00
         21   -1    0    0  502  503  0.00000000000E+00  0.00000000000E+00  0.33747906510E+02  0.33747906510E+02  0.00000000000E+00 0.  1.
          1   -1    0    0  503    0 -0.00000000000E+00 -0.00000000000E+00 -0.29157763444E+03  0.29157763444E+03  0.00000000000E+00 0. -1.
         25    2    1    2    0    0 -0.13965211433E+02 -0.79573061618E+01 -0.85603510364E+02  0.15235093048E+03  0.12499799670E+03 0.  0.
          5    1    3    3  501    0  0.12051792949E+02 -0.40500986724E+02  0.13894049163E+02  0.44481796738E+02  0.10000000000E+00 0.  1.
         -5    1    3    3    0  501 -0.26017004382E+02  0.32543680562E+02 -0.99497559526E+02  0.10786913374E+03  0.10000000000E+00 0.  1.
          1    1    1    2  502    0  0.13965211433E+02  0.79573061618E+01 -0.17222621757E+03  0.17297461047E+03  0.00000000000E+00 0. -1.
<mgrwt>
<rscale>  1 0.12602716E+03</rscale>
<asrwt>0</asrwt>
<pdfrwt beam="1">  1       21 0.51919857E-02 0.12602716E+03</pdfrwt>
<pdfrwt beam="2">  1        1 0.44858097E-01 0.12602716E+03</pdfrwt>
<totfact> 0.24535886E+05</totfact>
</mgrwt>
</event>
<event>
 6    2  0.1181843E-002  0.1521700E+03  0.7546771E-02  0.1197832E+00
          2   -1    0    0  503    0 -0.00000000000E+00  0.00000000000E+00  0.11808476537E+04  0.11808476537E+04  0.00000000000E+00 0.  1.
         21   -1    0    0  502  503  0.00000000000E+00 -0.00000000000E+00 -0.23042462950E+02  0.23042462950E+02  0.00000000000E+00 0.  1.
         25    2    1    2    0    0 -0.74893077296E+02 -0.43837798045E+02  0.25520945318E+03  0.29713227078E+03  0.12499998313E+03 0.  0.
          5    1    3    3  501    0 -0.93759085428E+02  0.96688654847E+01  0.17670796671E+03  0.20027473270E+03  0.10000000000E+00 0. -1.
         -5    1    3    3    0  501  0.18866008133E+02 -0.53506663529E+02  0.78501486468E+02  0.96857538078E+02  0.10000000000E+00 0. -1.
          2    1    1    2  502    0  0.74893077296E+02  0.43837798045E+02  0.90259573758E+03  0.90675784588E+03  0.00000000000E+00 0.  1.
<mgrwt>
<rscale>  1 0.15217004E+03</rscale>
<asrwt>0</asrwt>
<pdfrwt beam="1">  1       21 0.35449952E-02 0.15217004E+03</pdfrwt>
<pdfrwt beam="2">  1        2 0.18166882E+00 0.15217004E+03</pdfrwt>
<totfact> 0.12552624E+05</totfact>
</mgrwt>
</event>
<event>
 6    2  0.1181843E-002  0.1340859E+03  0.7546771E-02  0.1221516E+00
         21   -1    0    0  502  503  0.00000000000E+00  0.00000000000E+00  0.18659664267E+02  0.18659664267E+02  0.00000000000E+00 0. -1.
          1   -1    0    0  503    0 -0.00000000000E+00 -0.00000000000E+00 -0.11440929104E+04  0.11440929104E+04  0.00000000000E+00 0. -1.
         25    2    1    2    0    0 -0.39595008041E+02  0.28031677745E+02 -0.23168179863E+03  0.26768543219E+03  0.12500198068E+03 0.  0.
          5    1    3    3  501    0  0.40786515606E+01  0.65122775630E+02 -0.67901274504E+02  0.94171144113E+02  0.10000000000E+00 0.  1.
         -5    1    3    3    0  501 -0.43673659602E+02 -0.37091097885E+02 -0.16378052412E+03  0.17351428808E+03  0.10000000000E+00 0.  1.
          1    1    1    2  502    0  0.39595008041E+02 -0.28031677745E+02 -0.89375144746E+03  0.89506714243E+03  0.00000000000E+00 0. -1.
<mgrwt>
<rscale>  1 0.13408592E+03</rscale>
<asrwt>0</asrwt>
<pdfrwt beam="1">  1       21 0.28707176E-02 0.13408592E+03</pdfrwt>
<pdfrwt beam="2">  1        1 0.17601429E+00 0.13408592E+03</pdfrwt>
<totfact> 0.96254052E+04</totfact>
</mgrwt>
</event>
<event>
 6    2  0.1181843E-002  0.1261711E+03  0.7546771E-02  0.1233250E+00
         21   -1    0    0  502  503  0.00000000000E+00  0.00000000000E+00  0.52581103008E+03  0.52581103008E+03  0.00000000000E+00 0. -1.
          3   -1    0    0  503    0 -0.00000000000E+00 -0.00000000000E+00 -0.13990450175E+02  0.13990450175E+02  0.00000000000E+00 0. -1.
         25    2    1    2    0    0  0.14040514718E+02 -0.96161082425E+01  0.50648956723E+03  0.52196821675E+03  0.12501812665E+03 0.  0.
          5    1    3    3  501    0 -0.53902012007E+02 -0.18678439561E+02  0.25516696417E+03  0.26146606014E+03  0.10000000000E+00 0. -1.
         -5    1    3    3    0  501  0.67942526724E+02  0.90623313181E+01  0.25132260306E+03  0.26050215661E+03  0.10000000000E+00 0. -1.
          3    1    1    2  502    0 -0.14040514718E+02  0.96161082425E+01  0.53310126779E+01  0.17833263511E+02  0.00000000000E+00 0. -1.
<mgrwt>
<rscale>  1 0.12617106E+03</rscale>
<asrwt>0</asrwt>
<pdfrwt beam="1">  1       21 0.80893989E-01 0.12617106E+03</pdfrwt>
<pdfrwt beam="2">  1        3 0.21523774E-02 0.12617106E+03</pdfrwt>
<totfact> 0.54549043E+04</totfact>
</mgrwt>
</event>
<event>
 6    2  0.1181843E-002  0.1309716E+03  0.7546771E-02  0.1226021E+00
         21   -1    0    0  502  503  0.00000000000E+00  0.00000000000E+00  0.56671497755E+01  0.56671497755E+01  0.00000000000E+00 0.  1.
          2   -1    0    0  503    0 -0.00000000000E+00 -0.00000000000E+00 -0.13686214795E+04  0.13686214795E+04  0.00000000000E+00 0.  1.
         25    2    1    2    0    0 -0.38854326965E+02  0.43444842472E+01 -0.87210504788E+03  0.88188478003E+03  0.12500006976E+03 0.  0.
          5    1    3    3  501    0 -0.38287534334E+02 -0.55554713138E+02 -0.35807049997E+03  0.36437172556E+03  0.10000000000E+00 0. -1.
         -5    1    3    3    0  501 -0.56679263069E+00  0.59899197386E+02 -0.51403454791E+03  0.51751305447E+03  0.10000000000E+00 0. -1.
          2    1    1    2  502    0  0.38854326965E+02 -0.43444842472E+01 -0.49084928189E+03  0.49240384930E+03  0.00000000000E+00 0.  1.
<mgrwt>
<rscale>  1 0.13097156E+03</rscale>
<asrwt>0</asrwt>
<pdfrwt beam="1">  1       21 0.87186785E-03 0.13097156E+03</pdfrwt>
<pdfrwt beam="2">  1        2 0.21055748E+00 0.13097156E+03</pdfrwt>
<totfact> 0.94604161E+05</totfact>
</mgrwt>
</event>
<event>
 6    2  0.1181843E-002  0.1332372E+03  0.7546771E-02  0.1222730E+00
          1   -1    0    0  503    0 -0.00000000000E+00  0.00000000000E+00  0.18095397613E+04  0.18095397613E+04  0.00000000000E+00 0.  1.
         21   -1    0    0  502  503  0.00000000000E+00 -0.00000000000E+00 -0.27864531405E+02  0.27864531405E+02  0.00000000000E+00 0.  1.
         25    2    1    2    0    0  0.19619178779E+02  0.41757560391E+02  0.13359714837E+03  0.18868055331E+03  0.12499418835E+03 0.  0.
          5    1    3    3  501    0 -0.36264078465E+02  0.13515122590E+02 -0.25915166494E+01  0.38787470710E+02  0.10000000000E+00 0.  1.
         -5    1    3    3    0  501  0.55883257244E+02  0.28242437801E+02  0.13618866502E+03  0.14989308260E+03  0.10000000000E+00 0.  1.
          1    1    1    2  502    0 -0.19619178779E+02 -0.41757560391E+02  0.16480780815E+04  0.16487237394E+04  0.00000000000E+00 0.  1.
<mgrwt>
<rscale>  1 0.13323721E+03</rscale>
<asrwt>0</asrwt>
<pdfrwt beam="1">  1       21 0.42868524E-02 0.13323721E+03</pdfrwt>
<pdfrwt beam="2">  1        1 0.27839064E+00 0.13323721E+03</pdfrwt>
<totfact> 0.18198657E+04</totfact>
</mgrwt>
</event>
<event>
 6    2  0.1181843E-002  0.1389265E+03  0.7546771E-02  0.1214781E+00
         21   -1    0    0  502  503  0.00000000000E+00  0.00000000000E+00  0.98500985783E+01  0.98500985783E+01  0.00000000000E+00 0. -1.
          2   -1    0    0  503    0 -0.00000000000E+00 -0.00000000000E+00 -0.15091544590E+04  0.15091544590E+04  0.00000000000E+00 0. -1.
         25    2    1    2    0    0  0.57360014078E+02  0.19647409831E+02 -0.53327170112E+03  0.55107104190E+03  0.12499757630E+03 0.  0.
          5    1    3    3  501    0 -0.24262441164E+02 -0.14733417143E+02 -0.35362451690E+02  0.45345921773E+02  0.10000000000E+00 0.  1.
         -5    1    3    3    0  501  0.81622455242E+02  0.34380826974E+02 -0.49790924943E+03  0.50572512013E+03  0.10000000000E+00 0.  1.
          2    1    1    2  502    0 -0.57360014078E+02 -0.19647409831E+02 -0.96603265933E+03  0.96793351571E+03  0.00000000000E+00 0. -1.
<mgrwt>
<rscale>  1 0.13892655E+03</rscale>
<asrwt>0</asrwt>
<pdfrwt beam="1">  1       21 0.15153993E-02 0.13892655E+03</pdfrwt>
<pdfrwt beam="2">  1        2 0.23217768E+00 0.13892655E+03</pdfrwt>
<totfact> 0.33314704E+05</totfact>
</mgrwt>
</event>
<event>
 6    2  0.1181843E-002  0.1473562E+03  0.7546771E-02  0.1203760E+00
         21   -1    0    0  502  503  0.00000000000E+00  0.00000000000E+00  0.11166995383E+03  0.11166995383E+03  0.00000000000E+00 0.  1.
          2   -1    0    0  503    0 -0.00000000000E+00 -0.00000000000E+00 -0.77572931008E+03  0.77572931008E+03  0.00000000000E+00 0.  1.
         25    2    1    2    0    0  0.66640327791E+02  0.40611633466E+02  0.60031458880E+02  0.15911515273E+03  0.12499447072E+03 0.  0.
          5    1    3    3  501    0  0.15077144642E+02  0.29670278272E+02  0.91747707328E+02  0.97597630623E+02  0.10000000000E+00 0. -1.
         -5    1    3    3    0  501  0.51563183150E+02  0.10941355194E+02 -0.31716248448E+02  0.61517522102E+02  0.10000000000E+00 0. -1.
          2    1    1    2  502    0 -0.66640327791E+02 -0.40611633466E+02 -0.72409081513E+03  0.72828411119E+03  0.00000000000E+00 0.  1.
<mgrwt>
<rscale>  1 0.14735622E+03</rscale>
<asrwt>0</asrwt>
<pdfrwt beam="1">  1       21 0.17179992E-01 0.14735622E+03</pdfrwt>
<pdfrwt beam="2">  1        2 0.11934298E+00 0.14735622E+03</pdfrwt>
<totfact> 0.14422696E+04</totfact>
</mgrwt>
</event>
<event>
 6    2  0.1181843E-002  0.1379458E+03  0.7546771E-02  0.1216120E+00
          2   -1    0    0  503    0 -0.00000000000E+00  0.00000000000E+00  0.40148987391E+02  0.40148987391E+02  0.00000000000E+00 0.  1.
         21   -1    0    0  502  503  0.00000000000E+00 -0.00000000000E+00 -0.31097537219E+03  0.31097537219E+03  0.00000000000E+00 0.  1.
         25    2    1    2    0    0  0.55447164188E+02  0.18167233780E+02 -0.99365125957E+02  0.17000727126E+03  0.12499843049E+03 0.  0.
          5    1    3    3  501    0  0.84440222641E+02  0.37346009272E+02 -0.38751403526E+02  0.10013269638E+03  0.10000000000E+00 0. -1.
         -5    1    3    3    0  501 -0.28993058452E+02 -0.19178775493E+02 -0.60613722431E+02  0.69874574881E+02  0.10000000000E+00 0. -1.
          2    1    1    2  502    0 -0.55447164188E+02 -0.18167233780E+02 -0.17146125884E+03  0.18111708832E+03  0.00000000000E+00 0.  1.
<mgrwt>
<rscale>  1 0.13794580E+03</rscale>
<asrwt>0</asrwt>
<pdfrwt beam="1">  1       21 0.47842365E-01 0.13794580E+03</pdfrwt>
<pdfrwt beam="2">  1        2 0.61767673E-02 0.13794580E+03</pdfrwt>
<totfact> 0.59328238E+04</totfact>
</mgrwt>
</event>
<event>
 6    2  0.1181843E-002  0.1315579E+03  0.7546771E-02  0.1225162E+00
         21   -1    0    0  502  503  0.00000000000E+00  0.00000000000E+00  0.51611363612E+01  0.51611363612E+01  0.00000000000E+00 0. -1.
          2   -1    0    0  503    0 -0.00000000000E+00 -0.00000000000E+00 -0.18754730542E+04  0.18754730542E+04  0.00000000000E+00 0. -1.
         25    2    1    2    0    0 -0.40969003577E+02  0.18757412833E+01 -0.91144228920E+03  0.92088789993E+03  0.12500200011E+03 0.  0.
          5    1    3    3  501    0 -0.75267405124E+02 -0.18631000672E+02 -0.77044614910E+03  0.77433815296E+03  0.10000000000E+00 0.  1.
         -5    1    3    3    0  501  0.34298401547E+02  0.20506741955E+02 -0.14099614010E+03  0.14654974697E+03  0.10000000000E+00 0.  1.
          2    1    1    2  502    0  0.40969003577E+02 -0.18757412833E+01 -0.95886962862E+03  0.95974629062E+03  0.00000000000E+00 0. -1.
<mgrwt>
<rscale>  1 0.13155789E+03</rscale>
<asrwt>0</asrwt>
<pdfrwt beam="1">  1       21 0.79402083E-03 0.13155789E+03</pdfrwt>
<pdfrwt beam="2">  1        2 0.28853437E+00 0.13155789E+03</pdfrwt>
<totfact> 0.59997122E+05</totfact>
</mgrwt>
</event>
<event>
 6    2  0.1181843E-002  0.1814262E+03  0.7546771E-02  0.1166430E+00
          1   -1    0    0  503    0 -0.00000000000E+00  0.00000000000E+00  0.17348480154E+04  0.17348480154E+04  0.00000000000E+00 0.  1.
         21   -1    0    0  502  503  0.00000000000E+00 -0.00000000000E+00 -0.17058404357E+02  0.17058404357E+02  0.00000000000E+00 0.  1.
         25    2    1    2    0    0 -0.10819611528E+03  0.74724565951E+02  0.61197873813E+03  0.63830512362E+03  0.12500117916E+03 0.  0.
          5    1    3    3  501    0 -0.81980262276E+02  0.10753451774E+03  0.51820252017E+03  0.53555419690E+03  0.10000000000E+00 0.  1.
         -5    1    3    3    0  501 -0.26215853004E+02 -0.32809951793E+02  0.93776217961E+02  0.10275092671E+03  0.10000000000E+00 0.  1.
          1    1    1    2  502    0  0.10819611528E+03 -0.74724565951E+02  0.11058108729E+04  0.11136012961E+04  0.00000000000E+00 0.  1.
<mgrwt>
<rscale>  1 0.18142617E+03</rscale>
<asrwt>0</asrwt>
<pdfrwt beam="1">  1       21 0.26243713E-02 0.18142617E+03</pdfrwt>
<pdfrwt beam="2">  1        1 0.26689956E+00 0.18142617E+03</pdfrwt>
<totfact> 0.45227144E+04</totfact>
</mgrwt>
</event>
<event>
 6    2  0.1181843E-002  0.1826260E+03  0.7546771E-02  0.1165286E+00
         21   -1    0    0  502  503  0.00000000000E+00  0.00000000000E+00  0.23848698001E+02  0.23848698001E+02  0.00000000000E+00 0.  1.
          2   -1    0    0  503    0 -0.00000000000E+00 -0.00000000000E+00 -0.10831478671E+04  0.10831478671E+04  0.00000000000E+00 0. -1.
         25    2    1    2    0    0  0.11459334348E+02 -0.13262852259E+03 -0.50727315522E+03  0.53914591453E+03  0.12502248520E+03 0.  0.
          5    1    3    3  501    0 -0.99030879440E+01  0.22517054188E+02 -0.48552975084E+02  0.54428763257E+02  0.10000000000E+00 0.  1.
         -5    1    3    3    0  501  0.21362422292E+02 -0.15514557678E+03 -0.45872018013E+03  0.48471715127E+03  0.10000000000E+00 0.  1.
          2    1    1    2  502    0 -0.11459334348E+02  0.13262852259E+03 -0.55202601393E+03  0.56785065062E+03  0.00000000000E+00 0. -1.
<mgrwt>
<rscale>  1 0.18262602E+03</rscale>
<asrwt>0</asrwt>
<pdfrwt beam="1">  1       21 0.36690299E-02 0.18262602E+03</pdfrwt>
<pdfrwt beam="2">  1        2 0.16663816E+00 0.18262602E+03</pdfrwt>
<totfact> 0.13488192E+05</totfact>
</mgrwt>
</event>
<event>
 6    2  0.1181843E-002  0.1301877E+03  0.7546771E-02  0.1227177E+00
          4   -1    0    0  503    0 -0.00000000000E+00  0.00000000000E+00  0.16712314856E+03  0.16712314856E+03  0.00000000000E+00 0. -1.
         21   -1    0    0  502  503  0.00000000000E+00 -0.00000000000E+00 -0.50656167538E+02  0.50656167538E+02  0.00000000000E+00 0. -1.
         25    2    1    2    0    0  0.19973158417E+02 -0.30530786241E+02  0.12481347234E+03  0.18035312362E+03  0.12497115811E+03 0.  0.
          5    1    3    3  501    0 -0.46222670256E+02  0.50691003528E+01  0.80877612169E+02  0.93292171022E+02  0.10000000000E+00 0.  1.
         -5    1    3    3    0  501  0.66195828672E+02 -0.35599886594E+02  0.43935860167E+02  0.87060952601E+02  0.10000000000E+00 0.  1.
          4    1    1    2  502    0 -0.19973158417E+02  0.30530786241E+02 -0.83464913175E+01  0.37426192472E+02  0.00000000000E+00 0. -1.
<mgrwt>
<rscale>  1 0.13018773E+03</rscale>
<asrwt>0</asrwt>
<pdfrwt beam="1">  1       21 0.77932566E-02 0.13018773E+03</pdfrwt>
<pdfrwt beam="2">  1        4 0.25711253E-01 0.13018773E+03</pdfrwt>
<totfact> 0.71634746E+04</totfact>
</mgrwt>
</event>
<event>
 6    2  0.1181843E-002  0.1305878E+03  0.7546771E-02  0.1226586E+00
         21   -1    0    0  502  503  0.00000000000E+00  0.00000000000E+00  0.70179845490E+03  0.70179845490E+03  0.00000000000E+00 0.  1.
          1   -1    0    0  503    0 -0.00000000000E+00 -0.00000000000E+00 -0.92522670515E+02  0.92522670515E+02  0.00000000000E+00 0. -1.
         25    2    1    2    0    0 -0.35849494870E+02 -0.11901505117E+02  0.69155970499E+03  0.70378121325E+03  0.12500535369E+03 0.  0.
          5    1    3    3  501    0 -0.28019495121E+02 -0.44176890260E+02  0.11584398592E+03  0.12710833495E+03  0.10000000000E+00 0. -1.
         -5    1    3    3    0  501 -0.78299997483E+01  0.32275385144E+02  0.57571571907E+03  0.57667287830E+03  0.10000000000E+00 0. -1.
          1    1    1    2  502    0  0.35849494870E+02  0.11901505117E+02 -0.82283920600E+02  0.90539912170E+02  0.00000000000E+00 0. -1.
<mgrwt>
<rscale>  1 0.13058779E+03</rscale>
<asrwt>0</asrwt>
<pdfrwt beam="1">  1       21 0.10796899E+00 0.13058779E+03</pdfrwt>
<pdfrwt beam="2">  1        1 0.14234257E-01 0.13058779E+03</pdfrwt>
<totfact> 0.29911752E+03</totfact>
</mgrwt>
</event>
<event>
 6    2  0.1181843E-002  0.1314858E+03  0.7546771E-02  0.1225268E+00
         21   -1    0    0  502  503  0.00000000000E+00  0.00000000000E+00  0.35552835114E+03  0.35552835114E+03  0.00000000000E+00 0. -1.
          2   -1    0    0  503    0 -0.00000000000E+00 -0.00000000000E+00 -0.11584517805E+04  0.11584517805E+04  0.00000000000E+00 0. -1.
         25    2    1    2    0    0  0.40814053151E+02 -0.78101257627E-01  0.34299569883E+03  0.36733439673E+03  0.12499086594E+03 0.  0.
          5    1    3    3  501    0 -0.30742824937E+02 -0.10205682274E+02  0.24159215794E+02  0.40409837213E+02  0.10000000000E+00 0.  1.
         -5    1    3    3    0  501  0.71556878088E+02  0.10127581017E+02  0.31883648304E+03  0.32692455952E+03  0.10000000000E+00 0.  1.
          2    1    1    2  502    0 -0.40814053151E+02  0.78101257627E-01 -0.11459191282E+04  0.11466457350E+04  0.00000000000E+00 0. -1.
<mgrwt>
<rscale>  1 0.13148578E+03</rscale>
<asrwt>0</asrwt>
<pdfrwt beam="1">  1       21 0.54696670E-01 0.13148578E+03</pdfrwt>
<pdfrwt beam="2">  1        2 0.17822335E+00 0.13148578E+03</pdfrwt>
<totfact> 0.89031508E+02</totfact>
</mgrwt>
</event>
<event>
 6    2  0.1181843E-002  0.2177704E+03  0.7546771E-02  0.1135556E+00
         21   -1    0    0  502  503  0.00000000000E+00  0.00000000000E+00  0.22524969953E+03  0.22524969953E+03  0.00000000000E+00 0. -1.
          3   -1    0    0  503    0 -0.00000000000E+00 -0.00000000000E+00 -0.18766319427E+03  0.18766319427E+03  0.00000000000E+00 0. -1.
         25    2    1    2    0    0 -0.72731739822E+02 -0.16282045375E+03 -0.34652089048E+02  0.22051013747E+03  0.12499418913E+03 0.  0.
          5    1    3    3  501    0 -0.10751821314E+03 -0.13731493542E+03 -0.31841529708E+02  0.17728353183E+03  0.10000000000E+00 0. -1.
         -5    1    3    3    0  501  0.34786473318E+02 -0.25505518334E+02 -0.28105593406E+01  0.43226605640E+02  0.10000000000E+00 0. -1.
          3    1    1    2  502    0  0.72731739822E+02  0.16282045375E+03  0.72238594307E+02  0.19240275633E+03  0.00000000000E+00 0. -1.
<mgrwt>
<rscale>  1 0.21777041E+03</rscale>
<asrwt>0</asrwt>
<pdfrwt beam="1">  1       21 0.34653800E-01 0.21777041E+03</pdfrwt>
<pdfrwt beam="2">  1        3 0.28871261E-01 0.21777041E+03</pdfrwt>
<totfact> 0.45688201E+03</totfact>
</mgrwt>
</event>
<event>
 6    2  0.1181843E-002  0.1355435E+03  0.7546771E-02  0.1219455E+00
         21   -1    0    0  502  503  0.00000000000E+00  0.00000000000E+00  0.40254732851E+03  0.40254732851E+03  0.00000000000E+00 0.  1.
          2   -1    0    0  503    0 -0.00000000000E+00 -0.00000000000E+00 -0.50618587303E+02  0.50618587303E+02  0.00000000000E+00 0.  1.
         25    2    1    2    0    0  0.52405295395E+02 -0.36335867527E+00  0.37286117837E+03  0.39673353203E+03  0.12500236033E+03 0.  0.
          5    1    3    3  501    0  0.34343778497E+02 -0.44805370628E+02  0.32163580230E+03  0.32655262314E+03  0.10000000000E+00 0.  1.
         -5    1    3    3    0  501  0.18061516898E+02  0.44442011953E+02  0.51225376062E+02  0.70180908884E+02  0.10000000000E+00 0.  1.
          2    1    1    2  502    0 -0.52405295395E+02  0.36335867527E+00 -0.20932437154E+02  0.56432383789E+02  0.00000000000E+00 0.  1.
<mgrwt>
<rscale>  1 0.13554349E+03</rscale>
<asrwt>0</asrwt>
<pdfrwt beam="1">  1       21 0.61930356E-01 0.13554349E+03</pdfrwt>
<pdfrwt beam="2">  1        2 0.77874752E-02 0.13554349E+03</pdfrwt>
<totfact> 0.25728501E+04</totfact>
</mgrwt>
</event>
<event>
 6    2  0.1181843E-002  0.1405492E+03  0.7546771E-02  0.1212592E+00
         21   -1    0    0  502  503  0.00000000000E+00  0.00000000000E+00  0.17874805973E+02  0.17874805973E+02  0.00000000000E+00 0.  1.
          3   -1    0    0  503    0 -0.00000000000E+00 -0.00000000000E+00 -0.10228291682E+04  0.10228291682E+04  0.00000000000E+00 0.  1.
         25    2    1    2    0    0 -0.15186967887E+02  0.62483913076E+02 -0.28387812083E+03  0.31676624944E+03  0.12497674148E+03 0.  0.
          5    1    3    3  501    0 -0.54135528664E+02  0.46764318298E+02 -0.25730571090E+03  0.26706515271E+03  0.10000000000E+00 0. -1.
         -5    1    3    3    0  501  0.38948560777E+02  0.15719594778E+02 -0.26572409927E+02  0.49701096728E+02  0.10000000000E+00 0. -1.
          3    1    1    2  502    0  0.15186967887E+02 -0.62483913076E+02 -0.72107624135E+03  0.72393772469E+03  0.00000000000E+00 0.  1.
<mgrwt>
<rscale>  1 0.14054917E+03</rscale>
<asrwt>0</asrwt>
<pdfrwt beam="1">  1       21 0.27499698E-02 0.14054917E+03</pdfrwt>
<pdfrwt beam="2">  1        3 0.15735835E+00 0.14054917E+03</pdfrwt>
<totfact> 0.10833755E+04</totfact>
</mgrwt>
</event>
<event>
 6    2  0.1181843E-002  0.1260490E+03  0.7546771E-02  0.1233439E+00
          2   -1    0    0  503    0 -0.00000000000E+00  0.00000000000E+00  0.13917480638E+03  0.13917480638E+03  0.00000000000E+00 0.  1.
         21   -1    0    0  502  503  0.00000000000E+00 -0.00000000000E+00 -0.36388105493E+02  0.36388105493E+02  0.00000000000E+00 0.  1.
         25    2    1    2    0    0  0.16070417888E+02  0.22199302510E+01  0.92599705107E+02  0.15640667778E+03  0.12500062819E+03 0.  0.
          5    1    3    3  501    0  0.46964465085E+02 -0.19930632906E+02 -0.53890486569E+01  0.51302465381E+02  0.10000000000E+00 0.  1.
         -5    1    3    3    0  501 -0.30894047197E+02  0.22150563157E+02  0.97988753764E+02  0.10510421240E+03  0.10000000000E+00 0.  1.
          2    1    1    2  502    0 -0.16070417888E+02 -0.22199302510E+01  0.10186995777E+02  0.19156234087E+02  0.00000000000E+00 0.  1.
<mgrwt>
<rscale>  1 0.12604897E+03</rscale>
<asrwt>0</asrwt>
<pdfrwt beam="1">  1       21 0.55981702E-02 0.12604897E+03</pdfrwt>
<pdfrwt beam="2">  1        2 0.21411508E-01 0.12604897E+03</pdfrwt>
<totfact> 0.67556981E+05</totfact>
</mgrwt>
</event>
<event>
 6    2  0.1181843E-002  0.1289215E+03  0.7546771E-02  0.1229065E+00
         21   -1    0    0  502  503  0.00000000000E+00  0.00000000000E+00  0.10627082777E+03  0.10627082777E+03  0.00000000000E+00 0. -1.
          1   -1    0    0  503    0 -0.00000000000E+00 -0.00000000000E+00 -0.94480658556E+02  0.94480658556E+02  0.00000000000E+00 0.  1.
         25    2    1    2    0    0  0.27603478752E+02 -0.15277254211E+02  0.60741557012E+02  0.14251417094E+03  0.12500162254E+03 0.  0.
          5    1    3    3  501    0 -0.41401242982E+02  0.46227821113E+01  0.56998997450E+02  0.70599778649E+02  0.10000000000E+00 0.  1.
         -5    1    3    3    0  501  0.69004721734E+02 -0.19900036323E+02  0.37425595615E+01  0.71914392296E+02  0.10000000000E+00 0.  1.
          1    1    1    2  502    0 -0.27603478752E+02  0.15277254211E+02 -0.48951387798E+02  0.58237315381E+02  0.00000000000E+00 0.  1.
<mgrwt>
<rscale>  1 0.12892150E+03</rscale>
<asrwt>0</asrwt>
<pdfrwt beam="1">  1       21 0.16349358E-01 0.12892150E+03</pdfrwt>
<pdfrwt beam="2">  1        1 0.14535486E-01 0.12892150E+03</pdfrwt>
<totfact> 0.13701930E+05</totfact>
</mgrwt>
</event>
<event>
 6    2  0.1181843E-002  0.1361247E+03  0.7546771E-02  0.1218641E+00
          1   -1    0    0  503    0 -0.00000000000E+00  0.00000000000E+00  0.18510760336E+03  0.18510760336E+03  0.00000000000E+00 0.  1.
         21   -1    0    0  502  503  0.00000000000E+00 -0.00000000000E+00 -0.51264801229E+02  0.51264801229E+02  0.00000000000E+00 0.  1.
         25    2    1    2    0    0  0.52348109794E+02 -0.12862834947E+02  0.70834477309E+02  0.15345180330E+03  0.12499662250E+03 0.  0.
          5    1    3    3  501    0  0.51757146424E+02  0.46513146162E+02  0.13447903750E+02  0.70874050873E+02  0.10000000000E+00 0.  1.
         -5    1    3    3    0  501  0.59096336934E+00 -0.59375981109E+02  0.57386573560E+02  0.82577752423E+02  0.10000000000E+00 0.  1.
          1    1    1    2  502    0 -0.52348109794E+02  0.12862834947E+02  0.63008324820E+02  0.82920601291E+02  0.00000000000E+00 0.  1.
<mgrwt>
<rscale>  1 0.13612470E+03</rscale>
<asrwt>0</asrwt>
<pdfrwt beam="1">  1       21 0.78868926E-02 0.13612470E+03</pdfrwt>
<pdfrwt beam="2">  1        1 0.28478092E-01 0.13612470E+03</pdfrwt>
<totfact> 0.21218680E+05</totfact>
</mgrwt>
</event>
<event>
 6    2  0.1181843E-002  0.2234195E+03  0.7546771E-02  0.1131359E+00
          3   -1    0    0  503    0 -0.00000000000E+00  0.00000000000E+00  0.16494475973E+03  0.16494475973E+03  0.00000000000E+00 0.  1.
         21   -1    0    0  502  503  0.00000000000E+00 -0.00000000000E+00 -0.43529768736E+03  0.43529768736E+03  0.00000000000E+00 0.  1.
         25    2    1    2    0    0 -0.15424236014E+03  0.10246887271E+03 -0.33623410094E+03  0.40369498582E+03  0.12500278160E+03 0.  0.
          5    1    3    3  501    0 -0.44821688584E+02  0.68153959890E+02 -0.50826028656E+02  0.96110567604E+02  0.10000000000E+00 0. -1.
         -5    1    3    3    0  501 -0.10942067156E+03  0.34314912815E+02 -0.28540807228E+03  0.30758441822E+03  0.10000000000E+00 0. -1.
          3    1    1    2  502    0  0.15424236014E+03 -0.10246887271E+03  0.65881173311E+02  0.19654746127E+03  0.00000000000E+00 0.  1.
<mgrwt>
<rscale>  1 0.22341950E+03</rscale>
<asrwt>0</asrwt>
<pdfrwt beam="1">  1       21 0.66968873E-01 0.22341950E+03</pdfrwt>
<pdfrwt beam="2">  1        3 0.25376118E-01 0.22341950E+03</pdfrwt>
<totfact> 0.14675158E+03</totfact>
</mgrwt>
</event>
<event>
 6    2  0.1181843E-002  0.1310189E+03  0.7546771E-02  0.1225952E+00
         21   -1    0    0  502  503  0.00000000000E+00  0.00000000000E+00  0.15406748903E+02  0.15406748903E+02  0.00000000000E+00 0.  1.
          2   -1    0    0  503    0 -0.00000000000E+00 -0.00000000000E+00 -0.61693364976E+03  0.61693364976E+03  0.00000000000E+00 0.  1.
         25    2    1    2    0    0 -0.37135174718E+02 -0.12828296895E+02 -0.28849027801E+03  0.31684790486E+03  0.12498947118E+03 0.  0.
          5    1    3    3  501    0  0.36214708863E+02  0.11084928596E+02 -0.17865178320E+03  0.18262215205E+03  0.10000000000E+00 0. -1.
         -5    1    3    3    0  501 -0.73349883581E+02 -0.23913225491E+02 -0.10983849482E+03  0.13422575281E+03  0.10000000000E+00 0. -1.
          2    1    1    2  502    0  0.37135174718E+02  0.12828296895E+02 -0.31303662285E+03  0.31549249381E+03  0.00000000000E+00 0.  1.
<mgrwt>
<rscale>  1 0.13101891E+03</rscale>
<asrwt>0</asrwt>
<pdfrwt beam="1">  1       21 0.23702690E-02 0.13101891E+03</pdfrwt>
<pdfrwt beam="2">  1        2 0.94912873E-01 0.13101891E+03</pdfrwt>
<totfact> 0.56089748E+05</totfact>
</mgrwt>
</event>
<event>
 6    2  0.1181843E-002  0.1260795E+03  0.7546771E-02  0.1233392E+00
         21   -1    0    0  502  503  0.00000000000E+00  0.00000000000E+00  0.58399698324E+03  0.58399698324E+03  0.00000000000E+00 0.  1.
          2   -1    0    0  503    0 -0.00000000000E+00 -0.00000000000E+00 -0.15029957467E+03  0.15029957467E+03  0.00000000000E+00 0. -1.
         25    2    1    2    0    0  0.13751978441E+02 -0.90604404246E+01  0.57671410137E+03  0.59033481678E+03  0.12499933076E+03 0.  0.
          5    1    3    3  501    0 -0.15977038271E+02  0.38417771991E+02  0.77280333159E+02  0.87769304713E+02  0.10000000000E+00 0.  1.
         -5    1    3    3    0  501  0.29729016712E+02 -0.47478212415E+02  0.49943376821E+03  0.50256551206E+03  0.10000000000E+00 0.  1.
          2    1    1    2  502    0 -0.13751978441E+02  0.90604404246E+01 -0.14301669279E+03  0.14396174113E+03  0.00000000000E+00 0. -1.
<mgrwt>
<rscale>  1 0.12607950E+03</rscale>
<asrwt>0</asrwt>
<pdfrwt beam="1">  1       21 0.89845689E-01 0.12607950E+03</pdfrwt>
<pdfrwt beam="2">  1        2 0.23123012E-01 0.12607950E+03</pdfrwt>
<totfact> 0.31235824E+03</totfact>
</mgrwt>
</event>
<event>
 6    2  0.1181843E-002  0.1285634E+03  0.7546771E-02  0.1229603E+00
         21   -1    0    0  502  503  0.00000000000E+00  0.00000000000E+00  0.17155474988E+03  0.17155474988E+03  0.00000000000E+00 0. -1.
          2   -1    0    0  503    0 -0.00000000000E+00 -0.00000000000E+00 -0.12688118954E+04  0.12688118954E+04  0.00000000000E+00 0.  1.
         25    2    1    2    0    0 -0.41274478056E+00 -0.30003972211E+02  0.14726207811E+03  0.19548572460E+03  0.12501256003E+03 0.  0.
          5    1    3    3  501    0 -0.25412211691E+02 -0.11262055846E+01 -0.14496964878E+02  0.29278333845E+02  0.10000000000E+00 0.  1.
         -5    1    3    3    0  501  0.24999466911E+02 -0.28877766627E+02  0.16175904299E+03  0.16620739075E+03  0.10000000000E+00 0.  1.
          2    1    1    2  502    0  0.41274478056E+00  0.30003972211E+02 -0.12445192236E+04  0.12448809206E+04  0.00000000000E+00 0.  1.
<mgrwt>
<rscale>  1 0.12856340E+03</rscale>
<asrwt>0</asrwt>
<pdfrwt beam="1">  1       21 0.26393038E-01 0.12856340E+03</pdfrwt>
<pdfrwt beam="2">  1        2 0.19520183E+00 0.12856340E+03</pdfrwt>
<totfact> 0.33067886E+03</totfact>
</mgrwt>
</event>
<event>
 6    2  0.1181843E-002  0.1274047E+03  0.7546771E-02  0.1231358E+00
          4   -1    0    0  503    0 -0.00000000000E+00  0.00000000000E+00  0.18987378813E+03  0.18987378813E+03  0.00000000000E+00 0. -1.
         21   -1    0    0  502  503  0.00000000000E+00 -0.00000000000E+00 -0.30686476076E+02  0.30686476076E+02  0.00000000000E+00 0. -1.
         25    2    1    2    0    0  0.24616876291E+02 -0.31485258202E+00  0.14041727223E+03  0.18960216146E+03  0.12500351819E+03 0.  0.
          5    1    3    3  501    0 -0.40426624094E+02  0.21698065080E+01  0.11103749115E+03  0.11818779309E+03  0.10000000000E+00 0. -1.
         -5    1    3    3    0  501  0.65043500386E+02 -0.24846590900E+01  0.29379781089E+02  0.71414368373E+02  0.10000000000E+00 0. -1.
          4    1    1    2  502    0 -0.24616876291E+02  0.31485258202E+00  0.18770039814E+02  0.30958102738E+02  0.00000000000E+00 0. -1.
<mgrwt>
<rscale>  1 0.12740475E+03</rscale>
<asrwt>0</asrwt>
<pdfrwt beam="1">  1       21 0.47209964E-02 0.12740475E+03</pdfrwt>
<pdfrwt beam="2">  1        4 0.29211351E-01 0.12740475E+03</pdfrwt>
<totfact> 0.13176043E+05</totfact>
</mgrwt>
</event>
<event>
 6    2  0.1181843E-002  0.1270582E+03  0.7546771E-02  0.1231887E+00
         21   -1    0    0  502  503  0.00000000000E+00  0.00000000000E+00  0.41782176680E+01  0.41782176680E+01  0.00000000000E+00 0. -1.
          1   -1    0    0  503    0 -0.00000000000E+00 -0.00000000000E+00 -0.17579459227E+04  0.17579459227E+04  0.00000000000E+00 0. -1.
         25    2    1    2    0    0 -0.19707808247E+02 -0.11395249551E+02 -0.10035828656E+04  0.10115939660E+04  0.12500213748E+03 0.  0.
          5    1    3    3  501    0 -0.50254918439E+02  0.35113574931E+01 -0.16972704528E+03  0.17704566179E+03  0.10000000000E+00 0. -1.
         -5    1    3    3    0  501  0.30547110192E+02 -0.14906607044E+02 -0.83385582035E+03  0.83454830418E+03  0.10000000000E+00 0. -1.
          1    1    1    2  502    0  0.19707808247E+02  0.11395249551E+02 -0.75018483935E+03  0.75053017435E+03  0.00000000000E+00 0. -1.
<mgrwt>
<rscale>  1 0.12705819E+03</rscale>
<asrwt>0</asrwt>
<pdfrwt beam="1">  1       21 0.64280367E-03 0.12705819E+03</pdfrwt>
<pdfrwt beam="2">  1        1 0.27045282E+00 0.12705819E+03</pdfrwt>
<totfact> 0.41321892E+05</totfact>
</mgrwt>
</event>
<event>
 6    2  0.1181843E-002  0.1288659E+03  0.7546771E-02  0.1229148E+00
         21   -1    0    0  502  503  0.00000000000E+00  0.00000000000E+00  0.24573308207E+03  0.24573308207E+03  0.00000000000E+00 0.  1.
          3   -1    0    0  503    0 -0.00000000000E+00 -0.00000000000E+00 -0.61663236689E+02  0.61663236689E+02  0.00000000000E+00 0. -1.
         25    2    1    2    0    0  0.31263740311E+02  0.18408904804E+01  0.22292460822E+03  0.25749137981E+03  0.12500247755E+03 0.  0.
          5    1    3    3  501    0 -0.40649762871E+01 -0.40985959291E+02  0.18672633899E+03  0.19121482308E+03  0.10000000000E+00 0. -1.
         -5    1    3    3    0  501  0.35328716598E+02  0.42826849772E+02  0.36198269227E+02  0.66276556737E+02  0.10000000000E+00 0. -1.
          3    1    1    2  502    0 -0.31263740311E+02 -0.18408904804E+01 -0.38854762837E+02  0.49904938945E+02  0.00000000000E+00 0. -1.
<mgrwt>
<rscale>  1 0.12886594E+03</rscale>
<asrwt>0</asrwt>
<pdfrwt beam="1">  1       21 0.37805089E-01 0.12886594E+03</pdfrwt>
<pdfrwt beam="2">  1        3 0.94866519E-02 0.12886594E+03</pdfrwt>
<totfact> 0.26075660E+04</totfact>
</mgrwt>
</event>
<event>
 6    2  0.1181843E-002  0.1278416E+03  0.7546771E-02  0.1230694E+00
          1   -1    0    0  503    0 -0.00000000000E+00  0.00000000000E+00  0.44382920676E+03  0.44382920676E+03  0.00000000000E+00 0.  1.
         21   -1    0    0  502  503  0.00000000000E+00 -0.00000000000E+00 -0.11159069257E+03  0.11159069257E+03  0.00000000000E+00 0.  1.
         25    2    1    2    0    0  0.25299914782E+02 -0.89348917308E+01 -0.74388149947E+02  0.14790896456E+03  0.12499418773E+03 0.  0.
          5    1    3    3  501    0  0.11012927551E+02 -0.17015911166E+02  0.33296396391E+02  0.38980582585E+02  0.10000000000E+00 0.  1.
         -5    1    3    3    0  501  0.14286987232E+02  0.80810194351E+01 -0.10768454634E+03  0.10892838197E+03  0.10000000000E+00 0.  1.
          1    1    1    2  502    0 -0.25299914782E+02  0.89348917308E+01  0.40662666414E+03  0.40751093478E+03  0.00000000000E+00 0.  1.
<mgrwt>
<rscale>  1 0.12784156E+03</rscale>
<asrwt>0</asrwt>
<pdfrwt beam="1">  1       21 0.17167799E-01 0.12784156E+03</pdfrwt>
<pdfrwt beam="2">  1        1 0.68281416E-01 0.12784156E+03</pdfrwt>
<totfact> 0.18013158E+04</totfact>
</mgrwt>
</event>
<event>
 6    2  0.1181843E-002  0.1398391E+03  0.7546771E-02  0.1213546E+00
          2   -1    0    0  503    0 -0.00000000000E+00  0.00000000000E+00  0.19055488415E+04  0.19055488415E+04  0.00000000000E+00 0. -1.
         21   -1    0    0  502  503  0.00000000000E+00 -0.00000000000E+00 -0.12250726992E+02  0.12250726992E+02  0.00000000000E+00 0.  1.
         25    2    1    2    0    0  0.62589040757E+02 -0.35956101408E+01  0.41027438209E+03  0.43345132521E+03  0.12499866514E+03 0.  0.
          5    1    3    3  501    0 -0.62477932781E+00 -0.15352407947E+02  0.33110384036E+03  0.33146017842E+03  0.10000000000E+00 0. -1.
         -5    1    3    3    0  501  0.63213820084E+02  0.11756797806E+02  0.79170541734E+02  0.10199114679E+03  0.10000000000E+00 0. -1.
          2    1    1    2  502    0 -0.62589040757E+02  0.35956101408E+01  0.14830237324E+04  0.14843482432E+04  0.00000000000E+00 0. -1.
<mgrwt>
<rscale>  1 0.13983913E+03</rscale>
<asrwt>0</asrwt>
<pdfrwt beam="1">  1       21 0.18847287E-02 0.13983913E+03</pdfrwt>
<pdfrwt beam="2">  1        2 0.29316113E+00 0.13983913E+03</pdfrwt>
<totfact> 0.14683020E+05</totfact>
</mgrwt>
</event>
<event>
 6    2  0.1181843E-002  0.2210315E+03  0.7546771E-02  0.1133116E+00
         21   -1    0    0  502  503  0.00000000000E+00  0.00000000000E+00  0.78465927990E+02  0.78465927990E+02  0.00000000000E+00 0.  1.
          2   -1    0    0  503    0 -0.00000000000E+00 -0.00000000000E+00 -0.51872394826E+03  0.51872394826E+03  0.00000000000E+00 0. -1.
         25    2    1    2    0    0 -0.78376238844E+02 -0.16458830644E+03 -0.24980727302E+03  0.33355446027E+03  0.12499103520E+03 0.  0.
          5    1    3    3  501    0 -0.81561490556E+02 -0.18370450183E+03 -0.23454170069E+03  0.30888418557E+03  0.10000000000E+00 0. -1.
         -5    1    3    3    0  501  0.31852517124E+01  0.19116195398E+02 -0.15265572335E+02  0.24670274699E+02  0.10000000000E+00 0. -1.
          2    1    1    2  502    0  0.78376238844E+02  0.16458830644E+03 -0.19045074725E+03  0.26363541598E+03  0.00000000000E+00 0. -1.
<mgrwt>
<rscale>  1 0.22103146E+03</rscale>
<asrwt>0</asrwt>
<pdfrwt beam="1">  1       21 0.12071682E-01 0.22103146E+03</pdfrwt>
<pdfrwt beam="2">  1        2 0.79803682E-01 0.22103146E+03</pdfrwt>
<totfact> 0.43346813E+04</totfact>
</mgrwt>
</event>
<event>
 6    2  0.1181843E-002  0.1544031E+03  0.7546771E-02  0.1195164E+00
         21   -1    0    0  502  503  0.00000000000E+00  0.00000000000E+00  0.30567004770E+03  0.30567004770E+03  0.00000000000E+00 0. -1.
          4   -1    0    0  503    0 -0.00000000000E+00 -0.00000000000E+00 -0.76896500888E+02  0.76896500888E+02  0.00000000000E+00 0. -1.
         25    2    1    2    0    0 -0.90495735728E+02  0.51255681523E+01  0.24586612891E+03  0.29032823770E+03  0.12499833049E+03 0.  0.
          5    1    3    3  501    0 -0.88729230493E+02 -0.25628792720E+02  0.24231516927E+03  0.25931903636E+03  0.10000000000E+00 0. -1.
         -5    1    3    3    0  501 -0.17665052351E+01  0.30754360872E+02  0.35509596418E+01  0.31009201340E+02  0.10000000000E+00 0. -1.
          4    1    1    2  502    0  0.90495735728E+02 -0.51255681523E+01 -0.17092582094E+02  0.92238310893E+02  0.00000000000E+00 0. -1.
<mgrwt>
<rscale>  1 0.15440315E+03</rscale>
<asrwt>0</asrwt>
<pdfrwt beam="1">  1       21 0.47026160E-01 0.15440315E+03</pdfrwt>
<pdfrwt beam="2">  1        4 0.11830231E-01 0.15440315E+03</pdfrwt>
<totfact> 0.10234225E+04</totfact>
</mgrwt>
</event>
<event>
 6    2  0.1181843E-002  0.1402971E+03  0.7546771E-02  0.1212930E+00
         21   -1    0    0  502  503  0.00000000000E+00  0.00000000000E+00  0.59793110178E+01  0.59793110178E+01  0.00000000000E+00 0. -1.
          2   -1    0    0  503    0 -0.00000000000E+00 -0.00000000000E+00 -0.18566631099E+04  0.18566631099E+04  0.00000000000E+00 0. -1.
         25    2    1    2    0    0  0.28995948675E+02 -0.56714901089E+02 -0.14685294851E+04  0.14752159575E+04  0.12500370990E+03 0.  0.
          5    1    3    3  501    0 -0.15894426821E+02  0.28970059093E+02 -0.67565329043E+03  0.67646084588E+03  0.10000000000E+00 0. -1.
         -5    1    3    3    0  501  0.44890375496E+02 -0.85684960182E+02 -0.79287619471E+03  0.79875511163E+03  0.10000000000E+00 0. -1.
          2    1    1    2  502    0 -0.28995948675E+02  0.56714901089E+02 -0.38215431369E+03  0.38742646336E+03  0.00000000000E+00 0. -1.
<mgrwt>
<rscale>  1 0.14029709E+03</rscale>
<asrwt>0</asrwt>
<pdfrwt beam="1">  1       21 0.91989448E-03 0.14029709E+03</pdfrwt>
<pdfrwt beam="2">  1        2 0.28564033E+00 0.14029709E+03</pdfrwt>
<totfact> 0.48762994E+05</totfact>
</mgrwt>
</event>
<event>
 6    2  0.1181843E-002  0.1270463E+03  0.7546771E-02  0.1231905E+00
         21   -1    0    0  502  503  0.00000000000E+00  0.00000000000E+00  0.60237964709E+02  0.60237964709E+02  0.00000000000E+00 0.  1.
          2   -1    0    0  503    0 -0.00000000000E+00 -0.00000000000E+00 -0.11554737513E+03  0.11554737513E+03  0.00000000000E+00 0.  1.
         25    2    1    2    0    0 -0.58049715366E+01 -0.21947210172E+02 -0.12922523839E+02  0.12770180957E+03  0.12500153126E+03 0.  0.
          5    1    3    3  501    0 -0.73985468631E+01  0.46867150080E+02  0.19890204748E+02  0.51448017427E+02  0.10000000000E+00 0.  1.
         -5    1    3    3    0  501  0.15935753265E+01 -0.68814360252E+02 -0.32812728587E+02  0.76253792145E+02  0.10000000000E+00 0.  1.
          2    1    1    2  502    0  0.58049715366E+01  0.21947210172E+02 -0.42386886582E+02  0.48083530268E+02  0.00000000000E+00 0.  1.
<mgrwt>
<rscale>  1 0.12704629E+03</rscale>
<asrwt>0</asrwt>
<pdfrwt beam="1">  1       21 0.92673792E-02 0.12704629E+03</pdfrwt>
<pdfrwt beam="2">  1        2 0.17776519E-01 0.12704629E+03</pdfrwt>
<totfact> 0.35187081E+05</totfact>
</mgrwt>
</event>
<event>
 6    2  0.1181843E-002  0.1275434E+03  0.7546771E-02  0.1231147E+00
          4   -1    0    0  503    0 -0.00000000000E+00  0.00000000000E+00  0.63664741226E+02  0.63664741226E+02  0.00000000000E+00 0.  1.
         21   -1    0    0  502  503  0.00000000000E+00 -0.00000000000E+00 -0.24963898552E+03  0.24963898552E+03  0.00000000000E+00 0.  1.
         25    2    1    2    0    0 -0.13873657525E+02 -0.21274586895E+02 -0.22970126117E+03  0.26273557052E+03  0.12498889636E+03 0.  0.
          5    1    3    3  501    0 -0.40518742273E+01  0.46885087686E+02 -0.15098216566E+03  0.15814630403E+03  0.10000000000E+00 0. -1.
         -5    1    3    3    0  501 -0.98217832979E+01 -0.68159674580E+02 -0.78719095510E+02  0.10458926649E+03  0.10000000000E+00 0. -1.
          4    1    1    2  502    0  0.13873657525E+02  0.21274586895E+02  0.43727016869E+02  0.50568156234E+02  0.00000000000E+00 0.  1.
<mgrwt>
<rscale>  1 0.12754337E+03</rscale>
<asrwt>0</asrwt>
<pdfrwt beam="1">  1       21 0.38405999E-01 0.12754337E+03</pdfrwt>
<pdfrwt beam="2">  1        4 0.97945754E-02 0.12754337E+03</pdfrwt>
<totfact> 0.20898411E+04</totfact>
</mgrwt>
</event>
<event>
 6    2  0.1181843E-002  0.1686524E+03  0.7546771E-02  0.1179261E+00
         21   -1    0    0  502  503  0.00000000000E+00  0.00000000000E+00  0.16286854327E+03  0.16286854327E+03  0.00000000000E+00 0. -1.
          1   -1    0    0  503    0 -0.00000000000E+00 -0.00000000000E+00 -0.15565091843E+03  0.15565091843E+03  0.00000000000E+00 0. -1.
         25    2    1    2    0    0  0.11320555522E+03 -0.18367246525E+01  0.77130718978E+02  0.18545289181E+03  0.12499902391E+03 0.  0.
          5    1    3    3  501    0  0.31667727996E+02  0.61854397372E+01  0.96084521449E+02  0.10135753511E+03  0.10000000000E+00 0. -1.
         -5    1    3    3    0  501  0.81537827226E+02 -0.80221643897E+01 -0.18953802471E+02  0.84095356699E+02  0.10000000000E+00 0. -1.
          1    1    1    2  502    0 -0.11320555522E+03  0.18367246525E+01 -0.69913094136E+02  0.13306656989E+03  0.00000000000E+00 0. -1.
<mgrwt>
<rscale>  1 0.16865239E+03</rscale>
<asrwt>0</asrwt>
<pdfrwt beam="1">  1       21 0.25056699E-01 0.16865239E+03</pdfrwt>
<pdfrwt beam="2">  1        1 0.23946295E-01 0.16865239E+03</pdfrwt>
<totfact> 0.32936024E+04</totfact>
</mgrwt>
</event>
<event>
 6    2  0.1181843E-002  0.1259705E+03  0.7546771E-02  0.1233560E+00
          2   -1    0    0  503    0 -0.00000000000E+00  0.00000000000E+00  0.35853217896E+03  0.35853217896E+03  0.00000000000E+00 0.  1.
         21   -1    0    0  502  503  0.00000000000E+00 -0.00000000000E+00 -0.28252487232E+03  0.28252487232E+03  0.00000000000E+00 0. -1.
         25    2    1    2    0    0  0.14778054287E+02 -0.50185953122E+01 -0.26829757073E+03  0.29639863232E+03  0.12499994237E+03 0.  0.
          5    1    3    3  501    0 -0.20263055562E+02  0.37004269647E+02 -0.29667358189E+02  0.51575861939E+02  0.10000000000E+00 0.  1.
         -5    1    3    3    0  501  0.35041109849E+02 -0.42022864959E+02 -0.23863021254E+03  0.24482277038E+03  0.10000000000E+00 0.  1.
          2    1    1    2  502    0 -0.14778054287E+02  0.50185953122E+01  0.34430487737E+03  0.34465841897E+03  0.00000000000E+00 0.  1.
<mgrwt>
<rscale>  1 0.12597048E+03</rscale>
<asrwt>0</asrwt>
<pdfrwt beam="1">  1       21 0.43465365E-01 0.12597048E+03</pdfrwt>
<pdfrwt beam="2">  1        2 0.55158797E-01 0.12597048E+03</pdfrwt>
<totfact> 0.58205558E+03</totfact>
</mgrwt>
</event>
<event>
 6    2  0.1181843E-002  0.1312979E+03  0.7546771E-02  0.1225543E+00
         21   -1    0    0  502  503  0.00000000000E+00  0.00000000000E+00  0.17177507086E+03  0.17177507086E+03  0.00000000000E+00 0. -1.
          2   -1    0    0  503    0 -0.00000000000E+00 -0.00000000000E+00 -0.21677427255E+03  0.21677427255E+03  0.00000000000E+00 0.  1.
         25    2    1    2    0    0  0.39976877091E+02  0.41118682003E+01  0.14426355018E+03  0.19506692196E+03  0.12499629583E+03 0.  0.
          5    1    3    3  501    0  0.71258564951E+01  0.60094664727E+02  0.40999242709E+02  0.73096473664E+02  0.10000000000E+00 0. -1.
         -5    1    3    3    0  501  0.32851020596E+02 -0.55982796527E+02  0.10326430747E+03  0.12197044830E+03  0.10000000000E+00 0. -1.
          2    1    1    2  502    0 -0.39976877091E+02 -0.41118682003E+01 -0.18926275187E+03  0.19348242144E+03  0.00000000000E+00 0.  1.
<mgrwt>
<rscale>  1 0.13129788E+03</rscale>
<asrwt>0</asrwt>
<pdfrwt beam="1">  1       21 0.26426934E-01 0.13129788E+03</pdfrwt>
<pdfrwt beam="2">  1        2 0.33349888E-01 0.13129788E+03</pdfrwt>
<totfact> 0.26285037E+04</totfact>
</mgrwt>
</event>
<event>
 6    2  0.1181843E-002  0.1407868E+03  0.7546771E-02  0.1212274E+00
         21   -1    0    0  502  503  0.00000000000E+00  0.00000000000E+00  0.67810477042E+03  0.67810477042E+03  0.00000000000E+00 0. -1.
          2   -1    0    0  503    0 -0.00000000000E+00 -0.00000000000E+00 -0.76718838817E+03  0.76718838817E+03  0.00000000000E+00 0.  1.
         25    2    1    2    0    0  0.34630985242E+02  0.54741125587E+02  0.66940192561E+03  0.68404667061E+03  0.12500005438E+03 0.  0.
          5    1    3    3  501    0 -0.21010756380E+02  0.68437260939E+02  0.50267616873E+03  0.50774841327E+03  0.10000000000E+00 0.  1.
         -5    1    3    3    0  501  0.55641741622E+02 -0.13696135353E+02  0.16672575688E+03  0.17629825734E+03  0.10000000000E+00 0.  1.
          2    1    1    2  502    0 -0.34630985242E+02 -0.54741125587E+02 -0.75848554336E+03  0.76124648798E+03  0.00000000000E+00 0.  1.
<mgrwt>
<rscale>  1 0.14078675E+03</rscale>
<asrwt>0</asrwt>
<pdfrwt beam="1">  1       21 0.10432381E+00 0.14078675E+03</pdfrwt>
<pdfrwt beam="2">  1        2 0.11802898E+00 0.14078675E+03</pdfrwt>
<totfact> 0.36633534E+02</totfact>
</mgrwt>
</event>
<event>
 6    2  0.1181843E-002  0.1268840E+03  0.7546771E-02  0.1232154E+00
         21   -1    0    0  502  503  0.00000000000E+00  0.00000000000E+00  0.23190004309E+03  0.23190004309E+03  0.00000000000E+00 0. -1.
          1   -1    0    0  503    0 -0.00000000000E+00 -0.00000000000E+00 -0.10983038881E+03  0.10983038881E+03  0.00000000000E+00 0.  1.
         25    2    1    2    0    0 -0.20903937706E+02 -0.58948400819E+01  0.21317123777E+03  0.24807562816E+03  0.12501126719E+03 0.  0.
          5    1    3    3  501    0 -0.51597004752E+02 -0.39172555994E+02  0.18179945721E+03  0.19299687222E+03  0.10000000000E+00 0.  1.
         -5    1    3    3    0  501  0.30693067046E+02  0.33277715912E+02  0.31371780553E+02  0.55078755941E+02  0.10000000000E+00 0.  1.
          1    1    1    2  502    0  0.20903937706E+02  0.58948400819E+01 -0.91101583484E+02  0.93654803745E+02  0.00000000000E+00 0.  1.
<mgrwt>
<rscale>  1 0.12688397E+03</rscale>
<asrwt>0</asrwt>
<pdfrwt beam="1">  1       21 0.35676930E-01 0.12688397E+03</pdfrwt>
<pdfrwt beam="2">  1        1 0.16896983E-01 0.12688397E+03</pdfrwt>
<totfact> 0.25895823E+04</totfact>
</mgrwt>
</event>
<event>
 6    2  0.1181843E-002  0.1321768E+03  0.7546771E-02  0.1224261E+00
         21   -1    0    0  502  503  0.00000000000E+00  0.00000000000E+00  0.17576275371E+02  0.17576275371E+02  0.00000000000E+00 0. -1.
          2   -1    0    0  503    0 -0.00000000000E+00 -0.00000000000E+00 -0.17158394365E+04  0.17158394365E+04  0.00000000000E+00 0.  1.
         25    2    1    2    0    0 -0.35068676567E+02  0.24951560176E+02 -0.23579691619E+03  0.27031629283E+03  0.12497327734E+03 0.  0.
          5    1    3    3  501    0 -0.59333440401E+02 -0.87860471638E+01 -0.21620760517E+03  0.22437332797E+03  0.10000000000E+00 0. -1.
         -5    1    3    3    0  501  0.24264763834E+02  0.33737607340E+02 -0.19589311028E+02  0.45942964853E+02  0.10000000000E+00 0. -1.
          2    1    1    2  502    0  0.35068676567E+02 -0.24951560176E+02 -0.14624662450E+04  0.14630994191E+04  0.00000000000E+00 0.  1.
<mgrwt>
<rscale>  1 0.13217682E+03</rscale>
<asrwt>0</asrwt>
<pdfrwt beam="1">  1       21 0.27040429E-02 0.13217682E+03</pdfrwt>
<pdfrwt beam="2">  1        2 0.26397525E+00 0.13217682E+03</pdfrwt>
<totfact> 0.10220416E+05</totfact>
</mgrwt>
</event>
<event>
 6    2  0.1181843E-002  0.1358532E+03  0.7546771E-02  0.1219020E+00
          2   -1    0    0  503    0 -0.00000000000E+00  0.00000000000E+00  0.15748997647E+04  0.15748997647E+04  0.00000000000E+00 0.  1.
         21   -1    0    0  502  503  0.00000000000E+00 -0.00000000000E+00 -0.20935127902E+02  0.20935127902E+02  0.00000000000E+00 0.  1.
         25    2    1    2    0    0 -0.51120833118E+02  0.14795305780E+02  0.20565459684E+03  0.24647496860E+03  0.12499542509E+03 0.  0.
          5    1    3    3  501    0 -0.73339529936E+02  0.15805912188E+02  0.21070837710E+03  0.22366614337E+03  0.10000000000E+00 0.  1.
         -5    1    3    3    0  501  0.22218696818E+02 -0.10106064088E+01 -0.50537802539E+01  0.22808825232E+02  0.10000000000E+00 0.  1.
          2    1    1    2  502    0  0.51120833118E+02 -0.14795305780E+02  0.13483100399E+04  0.13493599240E+04  0.00000000000E+00 0.  1.
<mgrwt>
<rscale>  1 0.13585322E+03</rscale>
<asrwt>0</asrwt>
<pdfrwt beam="1">  1       21 0.32207901E-02 0.13585322E+03</pdfrwt>
<pdfrwt beam="2">  1        2 0.24229218E+00 0.13585322E+03</pdfrwt>
<totfact> 0.90611782E+04</totfact>
</mgrwt>
</event>
<event>
 6    2  0.1181843E-002  0.1274297E+03  0.7546771E-02  0.1231320E+00
         21   -1    0    0  502  503  0.00000000000E+00  0.00000000000E+00  0.17035032004E+02  0.17035032004E+02  0.00000000000E+00 0.  1.
          3   -1    0    0  503    0 -0.00000000000E+00 -0.00000000000E+00 -0.18883137341E+04  0.18883137341E+04  0.00000000000E+00 0.  1.
         25    2    1    2    0    0 -0.21002338621E+02  0.13126789837E+02 -0.22267437272E+03  0.25655840779E+03  0.12499971801E+03 0.  0.
          5    1    3    3  501    0 -0.30873713993E+02 -0.31740271320E+02 -0.20089519425E+03  0.20571708755E+03  0.10000000000E+00 0. -1.
         -5    1    3    3    0  501  0.98713753715E+01  0.44867061157E+02 -0.21779178476E+02  0.50841320239E+02  0.10000000000E+00 0. -1.
          3    1    1    2  502    0  0.21002338621E+02 -0.13126789837E+02 -0.16486043293E+04  0.16487903583E+04  0.00000000000E+00 0.  1.
<mgrwt>
<rscale>  1 0.12742975E+03</rscale>
<asrwt>0</asrwt>
<pdfrwt beam="1">  1       21 0.26207735E-02 0.12742975E+03</pdfrwt>
<pdfrwt beam="2">  1        3 0.29050988E+00 0.12742975E+03</pdfrwt>
<totfact> 0.19910564E+03</totfact>
</mgrwt>
</event>
<event>
 6    2  0.1181843E-002  0.1277635E+03  0.7546771E-02  0.1230813E+00
          1   -1    0    0  503    0 -0.00000000000E+00  0.00000000000E+00  0.10213136763E+04  0.10213136763E+04  0.00000000000E+00 0.  1.
         21   -1    0    0  502  503  0.00000000000E+00 -0.00000000000E+00 -0.58213718484E+01  0.58213718484E+01  0.00000000000E+00 0.  1.
         25    2    1    2    0    0  0.99335740006E+01  0.24513697491E+02  0.84105099738E+03  0.85069988479E+03  0.12499566603E+03 0.  0.
          5    1    3    3  501    0 -0.45953928920E+02  0.33336186093E+02  0.61733726493E+03  0.61994223405E+03  0.10000000000E+00 0. -1.
         -5    1    3    3    0  501  0.55887502921E+02 -0.88224886014E+01  0.22371373246E+03  0.23075765075E+03  0.10000000000E+00 0. -1.
          1    1    1    2  502    0 -0.99335740006E+01 -0.24513697491E+02  0.17444130704E+03  0.17643516333E+03  0.00000000000E+00 0.  1.
<mgrwt>
<rscale>  1 0.12776351E+03</rscale>
<asrwt>0</asrwt>
<pdfrwt beam="1">  1       21 0.89559648E-03 0.12776351E+03</pdfrwt>
<pdfrwt beam="2">  1        1 0.15712504E+00 0.12776351E+03</pdfrwt>
<totfact> 0.75885253E+05</totfact>
</mgrwt>
</event>
<event>
 6    2  0.1181843E-002  0.1263343E+03  0.7546771E-02  0.1232999E+00
          2   -1    0    0  503    0 -0.00000000000E+00  0.00000000000E+00  0.57433717655E+03  0.57433717655E+03  0.00000000000E+00 0. -1.
         21   -1    0    0  502  503  0.00000000000E+00 -0.00000000000E+00 -0.50274957166E+02  0.50274957166E+02  0.00000000000E+00 0.  1.
         25    2    1    2    0    0 -0.12577685768E+02 -0.13445233025E+02  0.29533046616E+02  0.12974035720E+03  0.12498554706E+03 0.  0.
          5    1    3    3  501    0 -0.53556620479E+02 -0.23009374695E+01 -0.26204254199E+02  0.59668072271E+02  0.10000000000E+00 0. -1.
         -5    1    3    3    0  501  0.40978934711E+02 -0.11144295556E+02  0.55737300816E+02  0.70072284933E+02  0.10000000000E+00 0. -1.
          2    1    1    2  502    0  0.12577685768E+02  0.13445233025E+02  0.49452917276E+03  0.49487177651E+03  0.00000000000E+00 0. -1.
<mgrwt>
<rscale>  1 0.12633432E+03</rscale>
<asrwt>0</asrwt>
<pdfrwt beam="1">  1       21 0.77346092E-02 0.12633432E+03</pdfrwt>
<pdfrwt beam="2">  1        2 0.88359561E-01 0.12633432E+03</pdfrwt>
<totfact> 0.84419114E+04</totfact>
</mgrwt>
</event>
<event>
 6    2  0.1181843E-002  0.1264907E+03  0.7546771E-02  0.1232758E+00
         21   -1    0    0  502  503  0.00000000000E+00  0.00000000000E+00  0.81473493186E+03  0.81473493186E+03  0.00000000000E+00 0.  1.
          1   -1    0    0  503    0 -0.00000000000E+00 -0.00000000000E+00 -0.51659488033E+02  0.51659488033E+02  0.00000000000E+00 0.  1.
         25    2    1    2    0    0  0.16884469515E+02  0.94704298515E+01  0.80780861630E+03  0.81765192229E+03  0.12500052441E+03 0.  0.
          5    1    3    3  501    0  0.59118023923E+02 -0.29045061670E+02  0.52574946748E+03  0.52985948035E+03  0.10000000000E+00 0.  1.
         -5    1    3    3    0  501 -0.42233554408E+02  0.38515491521E+02  0.28205914882E+03  0.28779244194E+03  0.10000000000E+00 0.  1.
          1    1    1    2  502    0 -0.16884469515E+02 -0.94704298515E+01 -0.44733172477E+02  0.48742497600E+02  0.00000000000E+00 0.  1.
<mgrwt>
<rscale>  1 0.12649073E+03</rscale>
<asrwt>0</asrwt>
<pdfrwt beam="1">  1       21 0.12534383E+00 0.12649073E+03</pdfrwt>
<pdfrwt beam="2">  1        1 0.79476141E-02 0.12649073E+03</pdfrwt>
<totfact> 0.45035184E+03</totfact>
</mgrwt>
</event>
<event>
 6    2  0.1181843E-002  0.1414473E+03  0.7546771E-02  0.1211395E+00
          2   -1    0    0  503    0 -0.00000000000E+00  0.00000000000E+00  0.36189811212E+03  0.36189811212E+03  0.00000000000E+00 0. -1.
         21   -1    0    0  502  503  0.00000000000E+00 -0.00000000000E+00 -0.66552031648E+02  0.66552031648E+02  0.00000000000E+00 0. -1.
         25    2    1    2    0    0 -0.65560733232E+02  0.91801929339E+01  0.17146765354E+02  0.14248275993E+03  0.12499935853E+03 0.  0.
          5    1    3    3  501    0  0.24092298253E+02  0.22748021341E+01  0.42632668446E+02  0.49022117240E+02  0.10000000000E+00 0. -1.
         -5    1    3    3    0  501 -0.89653031485E+02  0.69053907998E+01 -0.25485903092E+02  0.93460642695E+02  0.10000000000E+00 0. -1.
          2    1    1    2  502    0  0.65560733232E+02 -0.91801929339E+01  0.27819931511E+03  0.28596738383E+03  0.00000000000E+00 0. -1.
<mgrwt>
<rscale>  1 0.14144725E+03</rscale>
<asrwt>0</asrwt>
<pdfrwt beam="1">  1       21 0.10238774E-01 0.14144725E+03</pdfrwt>
<pdfrwt beam="2">  1        2 0.55676632E-01 0.14144725E+03</pdfrwt>
<totfact> 0.85858988E+04</totfact>
</mgrwt>
</event>
<event>
 6    2  0.1181843E-002  0.1365919E+03  0.7546771E-02  0.1217990E+00
         21   -1    0    0  502  503  0.00000000000E+00  0.00000000000E+00  0.12121330316E+03  0.12121330316E+03  0.00000000000E+00 0.  1.
          1   -1    0    0  503    0 -0.00000000000E+00 -0.00000000000E+00 -0.18959761944E+04  0.18959761944E+04  0.00000000000E+00 0.  1.
         25    2    1    2    0    0  0.54079515878E+02  0.10350131632E+02  0.82194829172E+02  0.15941564300E+03  0.12500255209E+03 0.  0.
          5    1    3    3  501    0  0.43816166862E+02  0.17172381949E+02 -0.23779000716E+02  0.52727583439E+02  0.10000000000E+00 0. -1.
         -5    1    3    3    0  501  0.10263349016E+02 -0.68222503171E+01  0.10597382989E+03  0.10668805956E+03  0.10000000000E+00 0. -1.
          1    1    1    2  502    0 -0.54079515878E+02 -0.10350131632E+02 -0.18569577204E+04  0.18577738545E+04  0.00000000000E+00 0.  1.
<mgrwt>
<rscale>  1 0.13659194E+03</rscale>
<asrwt>0</asrwt>
<pdfrwt beam="1">  1       21 0.18648200E-01 0.13659194E+03</pdfrwt>
<pdfrwt beam="2">  1        1 0.29168865E+00 0.13659194E+03</pdfrwt>
<totfact> 0.12334987E+03</totfact>
</mgrwt>
</event>
<event>
 6    2  0.1181843E-002  0.1298426E+03  0.7546771E-02  0.1227690E+00
          1   -1    0    0  503    0 -0.00000000000E+00  0.00000000000E+00  0.36627222070E+03  0.36627222070E+03  0.00000000000E+00 0.  1.
         21   -1    0    0  502  503  0.00000000000E+00 -0.00000000000E+00 -0.36926242745E+03  0.36926242745E+03  0.00000000000E+00 0.  1.
         25    2    1    2    0    0 -0.27669472052E+02  0.21667681096E+02 -0.35695124308E+03  0.37983322375E+03  0.12499599929E+03 0.  0.
          5    1    3    3  501    0 -0.16787075168E+02  0.19623604485E+02 -0.36514568756E+03  0.36605774802E+03  0.10000000000E+00 0. -1.
         -5    1    3    3    0  501 -0.10882396884E+02  0.20440766111E+01  0.81944444782E+01  0.13775475725E+02  0.10000000000E+00 0. -1.
          1    1    1    2  502    0  0.27669472052E+02 -0.21667681096E+02  0.35396103633E+03  0.35570142441E+03  0.00000000000E+00 0.  1.
<mgrwt>
<rscale>  1 0.12984255E+03</rscale>
<asrwt>0</asrwt>
<pdfrwt beam="1">  1       21 0.56809604E-01 0.12984255E+03</pdfrwt>
<pdfrwt beam="2">  1        1 0.56349572E-01 0.12984255E+03</pdfrwt>
<totfact> 0.22335212E+03</totfact>
</mgrwt>
</event>
<event>
 6    2  0.1181843E-002  0.1281614E+03  0.7546771E-02  0.1230210E+00
         21   -1    0    0  502  503  0.00000000000E+00  0.00000000000E+00  0.45766039005E+03  0.45766039005E+03  0.00000000000E+00 0. -1.
          2   -1    0    0  503    0 -0.00000000000E+00 -0.00000000000E+00 -0.16145620381E+03  0.16145620381E+03  0.00000000000E+00 0.  1.
         25    2    1    2    0    0  0.28245741227E+02 -0.86175488955E+00  0.44735270625E+03  0.46534910828E+03  0.12500713689E+03 0.  0.
          5    1    3    3  501    0 -0.45823615040E+02  0.66315083378E+01  0.10131448980E+03  0.11139307178E+03  0.10000000000E+00 0. -1.
         -5    1    3    3    0  501  0.74069356266E+02 -0.74932632274E+01  0.34603821645E+03  0.35395603650E+03  0.10000000000E+00 0. -1.
          2    1    1    2  502    0 -0.28245741227E+02  0.86175488955E+00 -0.15114852001E+03  0.15376748557E+03  0.00000000000E+00 0.  1.
<mgrwt>
<rscale>  1 0.12816142E+03</rscale>
<asrwt>0</asrwt>
<pdfrwt beam="1">  1       21 0.70409290E-01 0.12816142E+03</pdfrwt>
<pdfrwt beam="2">  1        2 0.24839416E-01 0.12816142E+03</pdfrwt>
<totfact> 0.49674176E+03</totfact>
</mgrwt>
</event>
<event>
 6    2  0.1181843E-002  0.1342822E+03  0.7546771E-02  0.1221237E+00
         21   -1    0    0  502  503  0.00000000000E+00  0.00000000000E+00  0.63190335694E+02  0.63190335694E+02  0.00000000000E+00 0. -1.
          3   -1    0    0  503    0 -0.00000000000E+00 -0.00000000000E+00 -0.22226130360E+03  0.22226130360E+03  0.00000000000E+00 0. -1.
         25    2    1    2    0    0 -0.42496491411E+02  0.24492126202E+02 -0.17246769337E+02  0.13538525622E+03  0.12500360204E+03 0.  0.
          5    1    3    3  501    0 -0.81590021704E+02 -0.70912745113E+00 -0.30361766418E+02  0.87059068243E+02  0.10000000000E+00 0. -1.
         -5    1    3    3    0  501  0.39093530292E+02  0.25201253653E+02  0.13114997081E+02  0.48326187981E+02  0.10000000000E+00 0. -1.
          3    1    1    2  502    0  0.42496491411E+02 -0.24492126202E+02 -0.14182419857E+03  0.15006638307E+03  0.00000000000E+00 0. -1.
<mgrwt>
<rscale>  1 0.13428223E+03</rscale>
<asrwt>0</asrwt>
<pdfrwt beam="1">  1       21 0.97215899E-02 0.13428223E+03</pdfrwt>
<pdfrwt beam="2">  1        3 0.34194047E-01 0.13428223E+03</pdfrwt>
<totfact> 0.34340468E+04</totfact>
</mgrwt>
</event>
<event>
 6    2  0.1181843E-002  0.1285119E+03  0.7546771E-02  0.1229681E+00
          2   -1    0    0  503    0 -0.00000000000E+00  0.00000000000E+00  0.55763440122E+02  0.55763440122E+02  0.00000000000E+00 0. -1.
         21   -1    0    0  502  503  0.00000000000E+00 -0.00000000000E+00 -0.20229534953E+03  0.20229534953E+03  0.00000000000E+00 0. -1.
         25    2    1    2    0    0  0.20025792484E+02 -0.22411866203E+02 -0.17469361420E+03  0.21687134341E+03  0.12494797573E+03 0.  0.
          5    1    3    3  501    0 -0.41508914910E+01 -0.55543028234E+02 -0.23917160517E+02  0.60615991725E+02  0.10000000000E+00 0. -1.
         -5    1    3    3    0  501  0.24176683975E+02  0.33131162031E+02 -0.15077645368E+03  0.15625535168E+03  0.10000000000E+00 0. -1.
          2    1    1    2  502    0 -0.20025792484E+02  0.22411866203E+02  0.28161704790E+02  0.41187446243E+02  0.00000000000E+00 0. -1.
<mgrwt>
<rscale>  1 0.12851195E+03</rscale>
<asrwt>0</asrwt>
<pdfrwt beam="1">  1       21 0.31122361E-01 0.12851195E+03</pdfrwt>
<pdfrwt beam="2">  1        2 0.85789908E-02 0.12851195E+03</pdfrwt>
<totfact> 0.92010820E+04</totfact>
</mgrwt>
</event>
<event>
 6    2  0.1181843E-002  0.1323900E+03  0.7546771E-02  0.1223952E+00
          2   -1    0    0  503    0 -0.00000000000E+00  0.00000000000E+00  0.76378640213E+03  0.76378640213E+03  0.00000000000E+00 0.  1.
         21   -1    0    0  502  503  0.00000000000E+00 -0.00000000000E+00 -0.26744763921E+02  0.26744763921E+02  0.00000000000E+00 0.  1.
         25    2    1    2    0    0  0.44331031834E+01  0.43395409105E+02  0.14294132132E+03  0.19483157695E+03  0.12499723236E+03 0.  0.
          5    1    3    3  501    0  0.76915190056E+01 -0.41850889472E+02  0.25268429889E+02  0.49488988304E+02  0.10000000000E+00 0.  1.
         -5    1    3    3    0  501 -0.32584158221E+01  0.85246298578E+02  0.11767289143E+03  0.14534258864E+03  0.10000000000E+00 0.  1.
          2    1    1    2  502    0 -0.44331031834E+01 -0.43395409105E+02  0.59410031688E+03  0.59569958910E+03  0.00000000000E+00 0.  1.
<mgrwt>
<rscale>  1 0.13239004E+03</rscale>
<asrwt>0</asrwt>
<pdfrwt beam="1">  1       21 0.41145796E-02 0.13239004E+03</pdfrwt>
<pdfrwt beam="2">  1        2 0.11750558E+00 0.13239004E+03</pdfrwt>
<totfact> 0.17616689E+05</totfact>
</mgrwt>
</event>
<event>
 6    2  0.1181843E-002  0.1275864E+03  0.7546771E-02  0.1231082E+00
          1   -1    0    0  503    0 -0.00000000000E+00  0.00000000000E+00  0.42130704606E+02  0.42130704606E+02  0.00000000000E+00 0. -1.
         21   -1    0    0  502  503  0.00000000000E+00 -0.00000000000E+00 -0.14305065558E+03  0.14305065558E+03  0.00000000000E+00 0. -1.
         25    2    1    2    0    0  0.24154558578E+02  0.83775020664E+01 -0.94639823122E+02  0.15885522779E+03  0.12499864814E+03 0.  0.
          5    1    3    3  501    0  0.51710971620E+02  0.15765454136E+02  0.58663160189E+01  0.54378284210E+02  0.10000000000E+00 0. -1.
         -5    1    3    3    0  501 -0.27556413041E+02 -0.73879520698E+01 -0.10050613914E+03  0.10447694358E+03  0.10000000000E+00 0. -1.
          1    1    1    2  502    0 -0.24154558578E+02 -0.83775020664E+01 -0.62801278533E+01  0.26326132394E+02  0.00000000000E+00 0. -1.
<mgrwt>
<rscale>  1 0.12758639E+03</rscale>
<asrwt>0</asrwt>
<pdfrwt beam="1">  1       21 0.22007793E-01 0.12758639E+03</pdfrwt>
<pdfrwt beam="2">  1        1 0.64816469E-02 0.12758639E+03</pdfrwt>
<totfact> 0.23106496E+05</totfact>
</mgrwt>
</event>
<event>
 6    2  0.1181843E-002  0.1383839E+03  0.7546771E-02  0.1215520E+00
          2   -1    0    0  503    0 -0.00000000000E+00  0.00000000000E+00  0.62377350537E+03  0.62377350537E+03  0.00000000000E+00 0.  1.
         21   -1    0    0  502  503  0.00000000000E+00 -0.00000000000E+00 -0.82397663219E+02  0.82397663219E+02  0.00000000000E+00 0.  1.
         25    2    1    2    0    0  0.38301431106E+02 -0.45350962408E+02 -0.21613029293E+02  0.14006148064E+03  0.12500554351E+03 0.  0.
          5    1    3    3  501    0 -0.67719133953E+01  0.22367295582E+02 -0.48950856462E+02  0.54243442655E+02  0.10000000000E+00 0. -1.
         -5    1    3    3    0  501  0.45073344501E+02 -0.67718257990E+02  0.27337827169E+02  0.85818037988E+02  0.10000000000E+00 0. -1.
          2    1    1    2  502    0 -0.38301431106E+02  0.45350962408E+02  0.56298887145E+03  0.56610968795E+03  0.00000000000E+00 0.  1.
<mgrwt>
<rscale>  1 0.13838387E+03</rscale>
<asrwt>0</asrwt>
<pdfrwt beam="1">  1       21 0.12676564E-01 0.13838387E+03</pdfrwt>
<pdfrwt beam="2">  1        2 0.95965152E-01 0.13838387E+03</pdfrwt>
<totfact> 0.32397838E+04</totfact>
</mgrwt>
</event>
<event>
 6    2  0.1181843E-002  0.1288807E+03  0.7546771E-02  0.1229126E+00
         21   -1    0    0  502  503  0.00000000000E+00  0.00000000000E+00  0.29086318043E+02  0.29086318043E+02  0.00000000000E+00 0.  1.
          2   -1    0    0  503    0 -0.00000000000E+00 -0.00000000000E+00 -0.31345590129E+03  0.31345590129E+03  0.00000000000E+00 0. -1.
         25    2    1    2    0    0  0.31063866786E+02  0.43727429478E+01 -0.12301140478E+03  0.17816294309E+03  0.12500457545E+03 0.  0.
          5    1    3    3  501    0 -0.21243991190E+02  0.28043700320E+02  0.71500165180E+01  0.35901100617E+02  0.10000000000E+00 0. -1.
         -5    1    3    3    0  501  0.52307857976E+02 -0.23670957372E+02 -0.13016142130E+03  0.14226184247E+03  0.10000000000E+00 0. -1.
          2    1    1    2  502    0 -0.31063866786E+02 -0.43727429478E+01 -0.16135817847E+03  0.16437927625E+03  0.00000000000E+00 0. -1.
<mgrwt>
<rscale>  1 0.12888068E+03</rscale>
<asrwt>0</asrwt>
<pdfrwt beam="1">  1       21 0.44748180E-02 0.12888068E+03</pdfrwt>
<pdfrwt beam="2">  1        2 0.48223986E-01 0.12888068E+03</pdfrwt>
<totfact> 0.41028343E+05</totfact>
</mgrwt>
</event>
<event>
 6    2  0.1181843E-002  0.1419939E+03  0.7546771E-02  0.1210671E+00
         21   -1    0    0  502  503  0.00000000000E+00  0.00000000000E+00  0.72738570985E+01  0.72738570985E+01  0.00000000000E+00 0. -1.
          1   -1    0    0  503    0 -0.00000000000E+00 -0.00000000000E+00 -0.32881193378E+04  0.32881193378E+04  0.00000000000E+00 0. -1.
         25    2    1    2    0    0 -0.67285925206E+02 -0.30465018674E+01 -0.73127309864E+03  0.74493127432E+03  0.12500232708E+03 0.  0.
          5    1    3    3  501    0 -0.30705454028E+02  0.61500215501E+01 -0.32468443074E+02  0.45109394452E+02  0.10000000000E+00 0. -1.
         -5    1    3    3    0  501 -0.36580471178E+02 -0.91965234175E+01 -0.69880465556E+03  0.69982187987E+03  0.10000000000E+00 0. -1.
          1    1    1    2  502    0  0.67285925206E+02  0.30465018674E+01 -0.25495723820E+04  0.25504619206E+04  0.00000000000E+00 0. -1.
<mgrwt>
<rscale>  1 0.14199387E+03</rscale>
<asrwt>0</asrwt>
<pdfrwt beam="1">  1       21 0.11190537E-02 0.14199387E+03</pdfrwt>
<pdfrwt beam="2">  1        1 0.50586507E+00 0.14199387E+03</pdfrwt>
<totfact> 0.16849856E+04</totfact>
</mgrwt>
</event>
<event>
 6    2  0.1181843E-002  0.1283767E+03  0.7546771E-02  0.1229885E+00
          1   -1    0    0  503    0 -0.00000000000E+00  0.00000000000E+00  0.33890423187E+03  0.33890423187E+03  0.00000000000E+00 0.  1.
         21   -1    0    0  502  503  0.00000000000E+00 -0.00000000000E+00 -0.19756579497E+03  0.19756579497E+03  0.00000000000E+00 0. -1.
         25    2    1    2    0    0  0.28594006055E+02  0.62027924955E+01 -0.17596690144E+03  0.21781854080E+03  0.12499789797E+03 0.  0.
          5    1    3    3  501    0  0.54035037713E+02  0.52629713409E+02 -0.10443269552E+03  0.12882495848E+03  0.10000000000E+00 0. -1.
         -5    1    3    3    0  501 -0.25441031658E+02 -0.46426920913E+02 -0.71534205921E+02  0.88993582319E+02  0.10000000000E+00 0. -1.
          1    1    1    2  502    0 -0.28594006055E+02 -0.62027924955E+01  0.31730533834E+03  0.31865148604E+03  0.00000000000E+00 0.  1.
<mgrwt>
<rscale>  1 0.12837666E+03</rscale>
<asrwt>0</asrwt>
<pdfrwt beam="1">  1       21 0.30394738E-01 0.12837666E+03</pdfrwt>
<pdfrwt beam="2">  1        1 0.52139113E-01 0.12837666E+03</pdfrwt>
<totfact> 0.86654887E+03</totfact>
</mgrwt>
</event>
<event>
 6    2  0.1181843E-002  0.1281741E+03  0.7546771E-02  0.1230190E+00
          2   -1    0    0  503    0 -0.00000000000E+00  0.00000000000E+00  0.33474520858E+03  0.33474520858E+03  0.00000000000E+00 0. -1.
         21   -1    0    0  502  503  0.00000000000E+00 -0.00000000000E+00 -0.23849954852E+02  0.23849954852E+02  0.00000000000E+00 0. -1.
         25    2    1    2    0    0 -0.26538494468E+02  0.10216110029E+02  0.15982732891E+03  0.20487405720E+03  0.12497977298E+03 0.  0.
          5    1    3    3  501    0  0.35016774401E+02  0.45315858674E+02  0.74170736727E+02  0.93707042016E+02  0.10000000000E+00 0.  1.
         -5    1    3    3    0  501 -0.61555268868E+02 -0.35099748645E+02  0.85656592187E+02  0.11116701519E+03  0.10000000000E+00 0.  1.
          2    1    1    2  502    0  0.26538494468E+02 -0.10216110029E+02  0.15106792481E+03  0.15372110623E+03  0.00000000000E+00 0. -1.
<mgrwt>
<rscale>  1 0.12817412E+03</rscale>
<asrwt>0</asrwt>
<pdfrwt beam="1">  1       21 0.36692241E-02 0.12817412E+03</pdfrwt>
<pdfrwt beam="2">  1        2 0.51499259E-01 0.12817412E+03</pdfrwt>
<totfact> 0.53209794E+05</totfact>
</mgrwt>
</event>
<event>
 6    2  0.1181843E-002  0.1644126E+03  0.7546771E-02  0.1183803E+00
         21   -1    0    0  502  503  0.00000000000E+00  0.00000000000E+00  0.63229331364E+02  0.63229331364E+02  0.00000000000E+00 0.  1.
          1   -1    0    0  503    0 -0.00000000000E+00 -0.00000000000E+00 -0.29364064322E+03  0.29364064322E+03  0.00000000000E+00 0.  1.
         25    2    1    2    0    0  0.10521469635E+03 -0.18354414622E+02 -0.15647823501E+03  0.22697341298E+03  0.12499790120E+03 0.  0.
          5    1    3    3  501    0  0.65959831165E+02 -0.28212772572E+02 -0.69636534811E+01  0.72077474521E+02  0.10000000000E+00 0.  1.
         -5    1    3    3    0  501  0.39254865185E+02  0.98583579504E+01 -0.14951458153E+03  0.15489593846E+03  0.10000000000E+00 0.  1.
          1    1    1    2  502    0 -0.10521469635E+03  0.18354414622E+02 -0.73933076850E+02  0.12989656160E+03  0.00000000000E+00 0.  1.
<mgrwt>
<rscale>  1 0.16441257E+03</rscale>
<asrwt>0</asrwt>
<pdfrwt beam="1">  1       21 0.97275896E-02 0.16441257E+03</pdfrwt>
<pdfrwt beam="2">  1        1 0.45175483E-01 0.16441257E+03</pdfrwt>
<totfact> 0.83616318E+04</totfact>
</mgrwt>
</event>
<event>
 6    2  0.1181843E-002  0.1306546E+03  0.7546771E-02  0.1226488E+00
         21   -1    0    0  502  503  0.00000000000E+00  0.00000000000E+00  0.24318856679E+03  0.24318856679E+03  0.00000000000E+00 0. -1.
          2   -1    0    0  503    0 -0.00000000000E+00 -0.00000000000E+00 -0.50907176960E+02  0.50907176960E+02  0.00000000000E+00 0.  1.
         25    2    1    2    0    0 -0.29181689898E+01  0.37911034442E+02  0.21368419371E+03  0.25046270288E+03  0.12499947459E+03 0.  0.
          5    1    3    3  501    0 -0.58084438471E+02  0.39177397116E+02  0.15394382365E+03  0.16913716705E+03  0.10000000000E+00 0.  1.
         -5    1    3    3    0  501  0.55166269482E+02 -0.12663626736E+01  0.59740370060E+02  0.81325535829E+02  0.10000000000E+00 0.  1.
          2    1    1    2  502    0  0.29181689898E+01 -0.37911034442E+02 -0.21402803873E+02  0.43633040879E+02  0.00000000000E+00 0.  1.
<mgrwt>
<rscale>  1 0.13065462E+03</rscale>
<asrwt>0</asrwt>
<pdfrwt beam="1">  1       21 0.37413625E-01 0.13065462E+03</pdfrwt>
<pdfrwt beam="2">  1        2 0.78318735E-02 0.13065462E+03</pdfrwt>
<totfact> 0.71937949E+04</totfact>
</mgrwt>
</event>
<event>
 6    2  0.1181843E-002  0.1319023E+03  0.7546771E-02  0.1224660E+00
          1   -1    0    0  503    0 -0.00000000000E+00  0.00000000000E+00  0.61611573704E+03  0.61611573704E+03  0.00000000000E+00 0. -1.
         21   -1    0    0  502  503  0.00000000000E+00 -0.00000000000E+00 -0.27843619692E+02  0.27843619692E+02  0.00000000000E+00 0.  1.
         25    2    1    2    0    0 -0.21234147156E+02  0.36373314960E+02  0.13502304407E+03  0.18875761083E+03  0.12499722464E+03 0.  0.
          5    1    3    3  501    0  0.20254967866E+02  0.73266981476E+02  0.84919868335E+02  0.11397240164E+03  0.10000000000E+00 0. -1.
         -5    1    3    3    0  501 -0.41489115023E+02 -0.36893666516E+02  0.50103175735E+02  0.74785209187E+02  0.10000000000E+00 0. -1.
          1    1    1    2  502    0  0.21234147156E+02 -0.36373314960E+02  0.45324907328E+03  0.45520174590E+03  0.00000000000E+00 0. -1.
<mgrwt>
<rscale>  1 0.13190229E+03</rscale>
<asrwt>0</asrwt>
<pdfrwt beam="1">  1       21 0.42836343E-02 0.13190229E+03</pdfrwt>
<pdfrwt beam="2">  1        1 0.94787026E-01 0.13190229E+03</pdfrwt>
<totfact> 0.13032021E+05</totfact>
</mgrwt>
</event>
<event>
 6    2  0.1181843E-002  0.1382572E+03  0.7546771E-02  0.1215693E+00
         21   -1    0    0  502  503  0.00000000000E+00  0.00000000000E+00  0.13874415715E+03  0.13874415715E+03  0.00000000000E+00 0.  1.
          3   -1    0    0  503    0 -0.00000000000E+00 -0.00000000000E+00 -0.13828884380E+04  0.13828884380E+04  0.00000000000E+00 0.  1.
         25    2    1    2    0    0 -0.56904194162E+02 -0.15840311597E+02  0.10349287603E+03  0.17270157047E+03  0.12500421700E+03 0.  0.
          5    1    3    3  501    0  0.31159879238E+02  0.94325228763E+00 -0.54155569112E+01  0.31641208189E+02  0.10000000000E+00 0.  1.
         -5    1    3    3    0  501 -0.88064073400E+02 -0.16783563884E+02  0.10890843294E+03  0.14106036228E+03  0.10000000000E+00 0.  1.
          3    1    1    2  502    0  0.56904194162E+02  0.15840311597E+02 -0.13476371569E+04  0.13489310247E+04  0.00000000000E+00 0.  1.
<mgrwt>
<rscale>  1 0.13825721E+03</rscale>
<asrwt>0</asrwt>
<pdfrwt beam="1">  1       21 0.21345254E-01 0.13825721E+03</pdfrwt>
<pdfrwt beam="2">  1        3 0.21275207E+00 0.13825721E+03</pdfrwt>
<totfact> 0.13960953E+02</totfact>
</mgrwt>
</event>
<event>
 6    2  0.1181843E-002  0.1263628E+03  0.7546771E-02  0.1232955E+00
         21   -1    0    0  502  503  0.00000000000E+00  0.00000000000E+00  0.93689042276E+02  0.93689042276E+02  0.00000000000E+00 0.  1.
          3   -1    0    0  503    0 -0.00000000000E+00 -0.00000000000E+00 -0.69523533318E+03  0.69523533318E+03  0.00000000000E+00 0.  1.
         25    2    1    2    0    0 -0.15011006595E+02 -0.10823149657E+02  0.50890201173E+02  0.13622548080E+03  0.12500039263E+03 0.  0.
          5    1    3    3  501    0 -0.64887212034E+02 -0.22813791991E+02  0.49799429414E+02  0.84916503464E+02  0.10000000000E+00 0.  1.
         -5    1    3    3    0  501  0.49876205439E+02  0.11990642334E+02  0.10907717592E+01  0.51308977339E+02  0.10000000000E+00 0.  1.
          3    1    1    2  502    0  0.15011006595E+02  0.10823149657E+02 -0.65243649208E+03  0.65269889466E+03  0.00000000000E+00 0.  1.
<mgrwt>
<rscale>  1 0.12636285E+03</rscale>
<asrwt>0</asrwt>
<pdfrwt beam="1">  1       21 0.14413698E-01 0.12636285E+03</pdfrwt>
<pdfrwt beam="2">  1        3 0.10695929E+00 0.12636285E+03</pdfrwt>
<totfact> 0.16112883E+03</totfact>
</mgrwt>
</event>
<event>
 6    2  0.1181843E-002  0.1259195E+03  0.7546771E-02  0.1233639E+00
          1   -1    0    0  503    0 -0.00000000000E+00  0.00000000000E+00  0.62055570538E+03  0.62055570538E+03  0.00000000000E+00 0.  1.
         21   -1    0    0  502  503  0.00000000000E+00 -0.00000000000E+00 -0.80901701392E+01  0.80901701392E+01  0.00000000000E+00 0.  1.
         25    2    1    2    0    0 -0.10938196838E+02  0.10422131946E+02  0.56373587303E+03  0.57762779085E+03  0.12500986055E+03 0.  0.
          5    1    3    3  501    0 -0.59307488907E+02  0.32316496125E+02  0.39509731168E+03  0.40082867894E+03  0.10000000000E+00 0. -1.
         -5    1    3    3    0  501  0.48369292068E+02 -0.21894364179E+02  0.16863856136E+03  0.17679911192E+03  0.10000000000E+00 0. -1.
          1    1    1    2  502    0  0.10938196838E+02 -0.10422131946E+02  0.48729662205E+02  0.51018084666E+02  0.00000000000E+00 0.  1.
<mgrwt>
<rscale>  1 0.12591954E+03</rscale>
<asrwt>0</asrwt>
<pdfrwt beam="1">  1       21 0.12446420E-02 0.12591954E+03</pdfrwt>
<pdfrwt beam="2">  1        1 0.95470072E-01 0.12591954E+03</pdfrwt>
<totfact> 0.95776792E+05</totfact>
</mgrwt>
</event>
<event>
 6    2  0.1181843E-002  0.1413915E+03  0.7546771E-02  0.1211469E+00
          3   -1    0    0  503    0 -0.00000000000E+00  0.00000000000E+00  0.19208408762E+03  0.19208408762E+03  0.00000000000E+00 0.  1.
         21   -1    0    0  502  503  0.00000000000E+00 -0.00000000000E+00 -0.77550339365E+02  0.77550339365E+02  0.00000000000E+00 0.  1.
         25    2    1    2    0    0 -0.33031854004E+02 -0.57221862185E+02  0.47126701654E+01  0.14147002442E+03  0.12500445456E+03 0.  0.
          5    1    3    3  501    0 -0.41973922238E+01  0.21569587277E+02 -0.40562139063E+02  0.46132009734E+02  0.10000000000E+00 0. -1.
         -5    1    3    3    0  501 -0.28834461780E+02 -0.78791449461E+02  0.45274809229E+02  0.95338014690E+02  0.10000000000E+00 0. -1.
          3    1    1    2  502    0  0.33031854004E+02  0.57221862185E+02  0.10982107809E+03  0.12816440256E+03  0.00000000000E+00 0.  1.
<mgrwt>
<rscale>  1 0.14139151E+03</rscale>
<asrwt>0</asrwt>
<pdfrwt beam="1">  1       21 0.11930822E-01 0.14139151E+03</pdfrwt>
<pdfrwt beam="2">  1        3 0.29551398E-01 0.14139151E+03</pdfrwt>
<totfact> 0.31562881E+04</totfact>
</mgrwt>
</event>
<event>
 6    2  0.1181843E-002  0.1373199E+03  0.7546771E-02  0.1216981E+00
          2   -1    0    0  503    0 -0.00000000000E+00  0.00000000000E+00  0.60518773302E+02  0.60518773302E+02  0.00000000000E+00 0. -1.
         21   -1    0    0  502  503  0.00000000000E+00 -0.00000000000E+00 -0.15746712215E+03  0.15746712215E+03  0.00000000000E+00 0. -1.
         25    2    1    2    0    0 -0.16306047784E+02 -0.54475325973E+02 -0.58021058653E+02  0.14907448670E+03  0.12499324383E+03 0.  0.
          5    1    3    3  501    0  0.19101545483E+02  0.34562660015E+02 -0.28872393108E+02  0.48919030969E+02  0.10000000000E+00 0.  1.
         -5    1    3    3    0  501 -0.35407593267E+02 -0.89037985988E+02 -0.29148665544E+02  0.10015545573E+03  0.10000000000E+00 0.  1.
          2    1    1    2  502    0  0.16306047784E+02  0.54475325973E+02 -0.38927290196E+02  0.68911408752E+02  0.00000000000E+00 0. -1.
<mgrwt>
<rscale>  1 0.13731992E+03</rscale>
<asrwt>0</asrwt>
<pdfrwt beam="1">  1       21 0.24225711E-01 0.13731992E+03</pdfrwt>
<pdfrwt beam="2">  1        2 0.93105805E-02 0.13731992E+03</pdfrwt>
<totfact> 0.13454136E+05</totfact>
</mgrwt>
</event>
<event>
 6    2  0.1181843E-002  0.1283579E+03  0.7546771E-02  0.1229913E+00
          1   -1    0    0  503    0 -0.00000000000E+00  0.00000000000E+00  0.65080623276E+02  0.65080623276E+02  0.00000000000E+00 0. -1.
         21   -1    0    0  502  503  0.00000000000E+00 -0.00000000000E+00 -0.19210556833E+03  0.19210556833E+03  0.00000000000E+00 0. -1.
         25    2    1    2    0    0  0.74554604184E+01  0.28197910735E+02 -0.16516148555E+03  0.20917471609E+03  0.12500015793E+03 0.  0.
          5    1    3    3  501    0 -0.21304708070E+02  0.65613936299E+02 -0.13909335306E+03  0.15526123176E+03  0.10000000000E+00 0.  1.
         -5    1    3    3    0  501  0.28760168488E+02 -0.37416025565E+02 -0.26068132487E+02  0.53913484323E+02  0.10000000000E+00 0.  1.
          1    1    1    2  502    0 -0.74554604184E+01 -0.28197910735E+02  0.38136540500E+02  0.48011475515E+02  0.00000000000E+00 0. -1.
<mgrwt>
<rscale>  1 0.12835788E+03</rscale>
<asrwt>0</asrwt>
<pdfrwt beam="1">  1       21 0.29554702E-01 0.12835788E+03</pdfrwt>
<pdfrwt beam="2">  1        1 0.10012404E-01 0.12835788E+03</pdfrwt>
<totfact> 0.73901363E+04</totfact>
</mgrwt>
</event>
<event>
 6    2  0.1181843E-002  0.1682465E+03  0.7546771E-02  0.1179689E+00
         21   -1    0    0  502  503  0.00000000000E+00  0.00000000000E+00  0.22036999214E+02  0.22036999214E+02  0.00000000000E+00 0. -1.
          2   -1    0    0  503    0 -0.00000000000E+00 -0.00000000000E+00 -0.11755992188E+04  0.11755992188E+04  0.00000000000E+00 0. -1.
         25    2    1    2    0    0  0.98771741266E+02 -0.54086440426E+02 -0.37553192182E+03  0.41149860655E+03  0.12500271589E+03 0.  0.
          5    1    3    3  501    0  0.10093638415E+03 -0.32152946020E+02 -0.37476031955E+03  0.38944482625E+03  0.10000000000E+00 0. -1.
         -5    1    3    3    0  501 -0.21646428849E+01 -0.21933494406E+02 -0.77160227062E+00  0.22053780305E+02  0.10000000000E+00 0. -1.
          2    1    1    2  502    0 -0.98771741266E+02  0.54086440426E+02 -0.77803029779E+03  0.78613761148E+03  0.00000000000E+00 0. -1.
<mgrwt>
<rscale>  1 0.16824648E+03</rscale>
<asrwt>0</asrwt>
<pdfrwt beam="1">  1       21 0.33903063E-02 0.16824648E+03</pdfrwt>
<pdfrwt beam="2">  1        2 0.18086149E+00 0.16824648E+03</pdfrwt>
<totfact> 0.13614857E+05</totfact>
</mgrwt>
</event>
<event>
 6    2  0.1181843E-002  0.1361119E+03  0.7546771E-02  0.1218659E+00
         21   -1    0    0  502  503  0.00000000000E+00  0.00000000000E+00  0.11722149231E+02  0.11722149231E+02  0.00000000000E+00 0. -1.
          1   -1    0    0  503    0 -0.00000000000E+00 -0.00000000000E+00 -0.83813518086E+03  0.83813518086E+03  0.00000000000E+00 0. -1.
         25    2    1    2    0    0 -0.30491794001E+02 -0.44402202494E+02 -0.46702751529E+03  0.48645775051E+03  0.12500055161E+03 0.  0.
          5    1    3    3  501    0 -0.48146344195E+02  0.12335782785E+02 -0.75136757528E+02  0.90087648032E+02  0.10000000000E+00 0.  1.
         -5    1    3    3    0  501  0.17654550194E+02 -0.56737985279E+02 -0.39189075777E+03  0.39637010248E+03  0.10000000000E+00 0.  1.
          1    1    1    2  502    0  0.30491794001E+02  0.44402202494E+02 -0.35938551633E+03  0.36339957958E+03  0.00000000000E+00 0. -1.
<mgrwt>
<rscale>  1 0.13611188E+03</rscale>
<asrwt>0</asrwt>
<pdfrwt beam="1">  1       21 0.18034079E-02 0.13611188E+03</pdfrwt>
<pdfrwt beam="2">  1        1 0.12894385E+00 0.13611188E+03</pdfrwt>
<totfact> 0.34453759E+05</totfact>
</mgrwt>
</event>
<event>
 6    2  0.1181843E-002  0.1325472E+03  0.7546771E-02  0.1223724E+00
         21   -1    0    0  502  503  0.00000000000E+00  0.00000000000E+00  0.10789168495E+03  0.10789168495E+03  0.00000000000E+00 0. -1.
          2   -1    0    0  503    0 -0.00000000000E+00 -0.00000000000E+00 -0.26420037873E+03  0.26420037873E+03  0.00000000000E+00 0.  1.
         25    2    1    2    0    0 -0.12386576738E+02 -0.42346163735E+02  0.64154890979E+02  0.14725697507E+03  0.12498856669E+03 0.  0.
          5    1    3    3  501    0 -0.55395587168E+02  0.16029517021E+02  0.14775237040E+02  0.59530950968E+02  0.10000000000E+00 0.  1.
         -5    1    3    3    0  501  0.43009010430E+02 -0.58375680756E+02  0.49379653939E+02  0.87726024104E+02  0.10000000000E+00 0.  1.
          2    1    1    2  502    0  0.12386576738E+02  0.42346163735E+02 -0.22046358476E+03  0.22483508861E+03  0.00000000000E+00 0.  1.
<mgrwt>
<rscale>  1 0.13254722E+03</rscale>
<asrwt>0</asrwt>
<pdfrwt beam="1">  1       21 0.16598721E-01 0.13254722E+03</pdfrwt>
<pdfrwt beam="2">  1        2 0.40646212E-01 0.13254722E+03</pdfrwt>
<totfact> 0.50519334E+04</totfact>
</mgrwt>
</event>
<event>
 6    2  0.1181843E-002  0.1276103E+03  0.7546771E-02  0.1231045E+00
          1   -1    0    0  503    0 -0.00000000000E+00  0.00000000000E+00  0.10090118254E+04  0.10090118254E+04  0.00000000000E+00 0. -1.
         21   -1    0    0  502  503  0.00000000000E+00 -0.00000000000E+00 -0.13783408358E+02  0.13783408358E+02  0.00000000000E+00 0. -1.
         25    2    1    2    0    0 -0.22047280140E+02  0.13181292967E+02  0.28688582098E+03  0.31398703513E+03  0.12499821961E+03 0.  0.
          5    1    3    3  501    0  0.27605837264E+02  0.59174391327E+01  0.62717609955E+01  0.28921329895E+02  0.10000000000E+00 0. -1.
         -5    1    3    3    0  501 -0.49653117404E+02  0.72638538343E+01  0.28061405998E+03  0.28506570524E+03  0.10000000000E+00 0. -1.
          1    1    1    2  502    0  0.22047280140E+02 -0.13181292967E+02  0.70834259604E+03  0.70880819861E+03  0.00000000000E+00 0. -1.
<mgrwt>
<rscale>  1 0.12761028E+03</rscale>
<asrwt>0</asrwt>
<pdfrwt beam="1">  1       21 0.21205252E-02 0.12761028E+03</pdfrwt>
<pdfrwt beam="2">  1        1 0.15523253E+00 0.12761028E+03</pdfrwt>
<totfact> 0.19632258E+05</totfact>
</mgrwt>
</event>
<event>
 6    2  0.1181843E-002  0.1259813E+03  0.7546771E-02  0.1233544E+00
          2   -1    0    0  503    0 -0.00000000000E+00  0.00000000000E+00  0.67225203125E+03  0.67225203125E+03  0.00000000000E+00 0. -1.
         21   -1    0    0  502  503  0.00000000000E+00 -0.00000000000E+00 -0.23011780893E+03  0.23011780893E+03  0.00000000000E+00 0.  1.
         25    2    1    2    0    0 -0.14105246668E+02  0.69169045575E+01 -0.21277398642E+03  0.24727323401E+03  0.12499792561E+03 0.  0.
          5    1    3    3  501    0  0.45150120883E+02 -0.10977063821E+02 -0.32593762695E+02  0.56757314176E+02  0.10000000000E+00 0. -1.
         -5    1    3    3    0  501 -0.59255367551E+02  0.17893968379E+02 -0.18018022372E+03  0.19051591983E+03  0.10000000000E+00 0. -1.
          2    1    1    2  502    0  0.14105246668E+02 -0.69169045575E+01  0.65490820874E+03  0.65509660618E+03  0.00000000000E+00 0. -1.
<mgrwt>
<rscale>  1 0.12598128E+03</rscale>
<asrwt>0</asrwt>
<pdfrwt beam="1">  1       21 0.35402740E-01 0.12598128E+03</pdfrwt>
<pdfrwt beam="2">  1        2 0.10342339E+00 0.12598128E+03</pdfrwt>
<totfact> 0.43902228E+03</totfact>
</mgrwt>
</event>
<event>
 6    2  0.1181843E-002  0.1278802E+03  0.7546771E-02  0.1230636E+00
         21   -1    0    0  502  503  0.00000000000E+00  0.00000000000E+00  0.10562316478E+02  0.10562316478E+02  0.00000000000E+00 0.  1.
          1   -1    0    0  503    0 -0.00000000000E+00 -0.00000000000E+00 -0.21037934330E+04  0.21037934330E+04  0.00000000000E+00 0. -1.
         25    2    1    2    0    0 -0.22089705987E+02 -0.15463841351E+02 -0.38054029435E+03  0.40145267637E+03  0.12500500087E+03 0.  0.
          5    1    3    3  501    0  0.33291568684E+02 -0.37821120761E+02 -0.28011120697E+03  0.28460685866E+03  0.10000000000E+00 0.  1.
         -5    1    3    3    0  501 -0.55381274671E+02  0.22357279410E+02 -0.10042908737E+03  0.11684581771E+03  0.10000000000E+00 0.  1.
          1    1    1    2  502    0  0.22089705987E+02  0.15463841351E+02 -0.17126908222E+04  0.17129030731E+04  0.00000000000E+00 0. -1.
<mgrwt>
<rscale>  1 0.12788016E+03</rscale>
<asrwt>0</asrwt>
<pdfrwt beam="1">  1       21 0.16249724E-02 0.12788016E+03</pdfrwt>
<pdfrwt beam="2">  1        1 0.32366040E+00 0.12788016E+03</pdfrwt>
<totfact> 0.57758530E+04</totfact>
</mgrwt>
</event>
<event>
 6    2  0.1181843E-002  0.1277074E+03  0.7546771E-02  0.1230898E+00
          2   -1    0    0  503    0 -0.00000000000E+00  0.00000000000E+00  0.47985838602E+03  0.47985838602E+03  0.00000000000E+00 0. -1.
         21   -1    0    0  502  503  0.00000000000E+00 -0.00000000000E+00 -0.20091263920E+02  0.20091263920E+02  0.00000000000E+00 0.  1.
         25    2    1    2    0    0 -0.19159168810E+02 -0.18023431672E+02  0.19016582449E+03  0.22906816753E+03  0.12496906311E+03 0.  0.
          5    1    3    3  501    0 -0.37239239308E+02  0.54655917097E+01  0.19537911772E+03  0.19897146347E+03  0.10000000000E+00 0.  1.
         -5    1    3    3    0  501  0.18080070498E+02 -0.23489023382E+02 -0.52132932305E+01  0.30096704055E+02  0.10000000000E+00 0.  1.
          2    1    1    2  502    0  0.19159168810E+02  0.18023431672E+02  0.26960129762E+03  0.27088148241E+03  0.00000000000E+00 0. -1.
<mgrwt>
<rscale>  1 0.12770742E+03</rscale>
<asrwt>0</asrwt>
<pdfrwt beam="1">  1       21 0.30909640E-02 0.12770742E+03</pdfrwt>
<pdfrwt beam="2">  1        2 0.73824358E-01 0.12770742E+03</pdfrwt>
<totfact> 0.48016145E+05</totfact>
</mgrwt>
</event>
<event>
 6    2  0.1181843E-002  0.1303035E+03  0.7546771E-02  0.1227006E+00
         21   -1    0    0  502  503  0.00000000000E+00  0.00000000000E+00  0.60237997008E+02  0.60237997008E+02  0.00000000000E+00 0. -1.
          1   -1    0    0  503    0 -0.00000000000E+00 -0.00000000000E+00 -0.18673762008E+03  0.18673762008E+03  0.00000000000E+00 0. -1.
         25    2    1    2    0    0 -0.22015983010E+02  0.29530926354E+02 -0.15346785960E+03  0.20132405741E+03  0.12498885168E+03 0.  0.
          5    1    3    3  501    0 -0.64503370158E+02 -0.17578004718E+02 -0.77542673925E+02  0.10238431174E+03  0.10000000000E+00 0. -1.
         -5    1    3    3    0  501  0.42487387149E+02  0.47108931072E+02 -0.75925185678E+02  0.98939745672E+02  0.10000000000E+00 0. -1.
          1    1    1    2  502    0  0.22015983010E+02 -0.29530926354E+02  0.26968236529E+02  0.45651559674E+02  0.00000000000E+00 0. -1.
<mgrwt>
<rscale>  1 0.13030346E+03</rscale>
<asrwt>0</asrwt>
<pdfrwt beam="1">  1       21 0.92673843E-02 0.13030346E+03</pdfrwt>
<pdfrwt beam="2">  1        1 0.28728864E-01 0.13030346E+03</pdfrwt>
<totfact> 0.15835155E+05</totfact>
</mgrwt>
</event>
<event>
 6    2  0.1181843E-002  0.1388563E+03  0.7546771E-02  0.1214876E+00
          4   -1    0    0  503    0 -0.00000000000E+00  0.00000000000E+00  0.14780960866E+03  0.14780960866E+03  0.00000000000E+00 0. -1.
         21   -1    0    0  502  503  0.00000000000E+00 -0.00000000000E+00 -0.18942592365E+03  0.18942592365E+03  0.00000000000E+00 0. -1.
         25    2    1    2    0    0 -0.45086028835E+02  0.40290040793E+02 -0.15539056267E+03  0.20839215134E+03  0.12500009755E+03 0.  0.
          5    1    3    3  501    0 -0.79408957868E+02  0.46360750684E+02 -0.14556987604E+03  0.17217926880E+03  0.10000000000E+00 0. -1.
         -5    1    3    3    0  501  0.34322929033E+02 -0.60707098909E+01 -0.98206866373E+01  0.36212882542E+02  0.10000000000E+00 0. -1.
          4    1    1    2  502    0  0.45086028835E+02 -0.40290040793E+02  0.11377424769E+03  0.12884338097E+03  0.00000000000E+00 0. -1.
<mgrwt>
<rscale>  1 0.13885626E+03</rscale>
<asrwt>0</asrwt>
<pdfrwt beam="1">  1       21 0.29142450E-01 0.13885626E+03</pdfrwt>
<pdfrwt beam="2">  1        4 0.22739940E-01 0.13885626E+03</pdfrwt>
<totfact> 0.82888727E+03</totfact>
</mgrwt>
</event>
<event>
 6    2  0.1181843E-002  0.1454735E+03  0.7546771E-02  0.1206148E+00
         21   -1    0    0  502  503  0.00000000000E+00  0.00000000000E+00  0.25242727829E+02  0.25242727829E+02  0.00000000000E+00 0. -1.
          2   -1    0    0  503    0 -0.00000000000E+00 -0.00000000000E+00 -0.68302539768E+03  0.68302539768E+03  0.00000000000E+00 0. -1.
         25    2    1    2    0    0  0.32744561567E+02  0.66790019461E+02 -0.21698016408E+03  0.26123349362E+03  0.12501773304E+03 0.  0.
          5    1    3    3  501    0 -0.12932258503E+02 -0.11698844620E+02 -0.14311592820E+03  0.14417449560E+03  0.10000000000E+00 0. -1.
         -5    1    3    3    0  501  0.45676820070E+02  0.78488864082E+02 -0.73864235873E+02  0.11705899802E+03  0.10000000000E+00 0. -1.
          2    1    1    2  502    0 -0.32744561567E+02 -0.66790019461E+02 -0.44080250577E+03  0.44703463188E+03  0.00000000000E+00 0. -1.
<mgrwt>
<rscale>  1 0.14547353E+03</rscale>
<asrwt>0</asrwt>
<pdfrwt beam="1">  1       21 0.38834960E-02 0.14547353E+03</pdfrwt>
<pdfrwt beam="2">  1        2 0.10508085E+00 0.14547353E+03</pdfrwt>
<totfact> 0.22248742E+05</totfact>
</mgrwt>
</event>
<event>
 6    2  0.1181843E-002  0.1264214E+03  0.7546771E-02  0.1232864E+00
          2   -1    0    0  503    0 -0.00000000000E+00  0.00000000000E+00  0.69683079643E+02  0.69683079643E+02  0.00000000000E+00 0. -1.
         21   -1    0    0  502  503  0.00000000000E+00 -0.00000000000E+00 -0.26006143085E+03  0.26006143085E+03  0.00000000000E+00 0. -1.
         25    2    1    2    0    0  0.18732107453E+02 -0.29183170444E+01 -0.24294169599E+03  0.27386684376E+03  0.12499188789E+03 0.  0.
          5    1    3    3  501    0  0.41254952567E+02 -0.13197834634E+02 -0.24520901557E+03  0.24900527157E+03  0.10000000000E+00 0. -1.
         -5    1    3    3    0  501 -0.22522845114E+02  0.10279517589E+02  0.22673195845E+01  0.24861572195E+02  0.10000000000E+00 0. -1.
          2    1    1    2  502    0 -0.18732107453E+02  0.29183170444E+01  0.52563344784E+02  0.55877666727E+02  0.00000000000E+00 0. -1.
<mgrwt>
<rscale>  1 0.12642144E+03</rscale>
<asrwt>0</asrwt>
<pdfrwt beam="1">  1       21 0.40009452E-01 0.12642144E+03</pdfrwt>
<pdfrwt beam="2">  1        2 0.10720474E-01 0.12642144E+03</pdfrwt>
<totfact> 0.42670129E+04</totfact>
</mgrwt>
</event>
<event>
 6    2  0.1181843E-002  0.1261599E+03  0.7546771E-02  0.1233268E+00
          2   -1    0    0  503    0 -0.00000000000E+00  0.00000000000E+00  0.10280824233E+04  0.10280824233E+04  0.00000000000E+00 0. -1.
         21   -1    0    0  502  503  0.00000000000E+00 -0.00000000000E+00 -0.11932543652E+02  0.11932543652E+02  0.00000000000E+00 0. -1.
         25    2    1    2    0    0  0.40545324157E+01 -0.16621628105E+02  0.32462125250E+03  0.34827472675E+03  0.12499443972E+03 0.  0.
          5    1    3    3  501    0 -0.23935432145E+02  0.46361761351E+02  0.19002555456E+03  0.19705846648E+03  0.10000000000E+00 0.  1.
         -5    1    3    3    0  501  0.27989964561E+02 -0.62983389456E+02  0.13459569794E+03  0.15121626026E+03  0.10000000000E+00 0.  1.
          2    1    1    2  502    0 -0.40545324157E+01  0.16621628105E+02  0.69152862714E+03  0.69174024020E+03  0.00000000000E+00 0. -1.
<mgrwt>
<rscale>  1 0.12615993E+03</rscale>
<asrwt>0</asrwt>
<pdfrwt beam="1">  1       21 0.18357768E-02 0.12615993E+03</pdfrwt>
<pdfrwt beam="2">  1        2 0.15816646E+00 0.12615993E+03</pdfrwt>
<totfact> 0.44715382E+05</totfact>
</mgrwt>
</event>
<event>
 6    2  0.1181843E-002  0.1746125E+03  0.7546771E-02  0.1173121E+00
          3   -1    0    0  503    0 -0.00000000000E+00  0.00000000000E+00  0.85717981525E+03  0.85717981525E+03  0.00000000000E+00 0.  1.
         21   -1    0    0  502  503  0.00000000000E+00 -0.00000000000E+00 -0.74160862457E+02  0.74160862457E+02  0.00000000000E+00 0.  1.
         25    2    1    2    0    0  0.11960755869E+03 -0.23641055819E+02  0.40986199792E+02  0.17935831479E+03  0.12499867557E+03 0.  0.
          5    1    3    3  501    0  0.14391231933E+03 -0.30221715607E+02  0.24031481250E+02  0.14900211355E+03  0.10000000000E+00 0.  1.
         -5    1    3    3    0  501 -0.24304760640E+02  0.65806597878E+01  0.16954718542E+02  0.30356201242E+02  0.10000000000E+00 0.  1.
          3    1    1    2  502    0 -0.11960755869E+03  0.23641055819E+02  0.74203275300E+03  0.75198236292E+03  0.00000000000E+00 0.  1.
<mgrwt>
<rscale>  1 0.17461253E+03</rscale>
<asrwt>0</asrwt>
<pdfrwt beam="1">  1       21 0.11409364E-01 0.17461253E+03</pdfrwt>
<pdfrwt beam="2">  1        3 0.13187381E+00 0.17461253E+03</pdfrwt>
<totfact> 0.15006457E+03</totfact>
</mgrwt>
</event>
<event>
 6    2  0.1181843E-002  0.1285344E+03  0.7546771E-02  0.1229647E+00
         21   -1    0    0  502  503  0.00000000000E+00  0.00000000000E+00  0.18429866730E+02  0.18429866730E+02  0.00000000000E+00 0.  1.
          2   -1    0    0  503    0 -0.00000000000E+00 -0.00000000000E+00 -0.72008220818E+03  0.72008220818E+03  0.00000000000E+00 0. -1.
         25    2    1    2    0    0  0.29936614828E+02 -0.59860281732E+00 -0.21183555591E+03  0.24778094422E+03  0.12499813733E+03 0.  0.
          5    1    3    3  501    0 -0.20235233199E+02  0.52022791455E+02 -0.93385878950E+02  0.10879691117E+03  0.10000000000E+00 0.  1.
         -5    1    3    3    0  501  0.50171848026E+02 -0.52621394273E+02 -0.11844967696E+03  0.13898403304E+03  0.10000000000E+00 0.  1.
          2    1    1    2  502    0 -0.29936614828E+02  0.59860281732E+00 -0.48981678554E+03  0.49073113069E+03  0.00000000000E+00 0. -1.
<mgrwt>
<rscale>  1 0.12853441E+03</rscale>
<asrwt>0</asrwt>
<pdfrwt beam="1">  1       21 0.28353639E-02 0.12853441E+03</pdfrwt>
<pdfrwt beam="2">  1        2 0.11078189E+00 0.12853441E+03</pdfrwt>
<totfact> 0.34922763E+05</totfact>
</mgrwt>
</event>
<event>
 6    2  0.1181843E-002  0.1260015E+03  0.7546771E-02  0.1233512E+00
          1   -1    0    0  503    0 -0.00000000000E+00  0.00000000000E+00  0.49261183761E+03  0.49261183761E+03  0.00000000000E+00 0.  1.
         21   -1    0    0  502  503  0.00000000000E+00 -0.00000000000E+00 -0.19729786201E+02  0.19729786201E+02  0.00000000000E+00 0. -1.
         25    2    1    2    0    0 -0.56443837739E+01 -0.14813049406E+02  0.18389975403E+03  0.22292487637E+03  0.12500038189E+03 0.  0.
          5    1    3    3  501    0 -0.30174337076E+02  0.46437229438E+02  0.11436913285E+03  0.12707169411E+03  0.10000000000E+00 0.  1.
         -5    1    3    3    0  501  0.24529953302E+02 -0.61250278844E+02  0.69530621185E+02  0.95853182262E+02  0.10000000000E+00 0.  1.
          1    1    1    2  502    0  0.56443837739E+01  0.14813049406E+02  0.28898229738E+03  0.28941674744E+03  0.00000000000E+00 0.  1.
<mgrwt>
<rscale>  1 0.12600151E+03</rscale>
<asrwt>0</asrwt>
<pdfrwt beam="1">  1       21 0.30353521E-02 0.12600151E+03</pdfrwt>
<pdfrwt beam="2">  1        1 0.75786428E-01 0.12600151E+03</pdfrwt>
<totfact> 0.30956820E+05</totfact>
</mgrwt>
</event>
<event>
 6    2  0.1181843E-002  0.1287874E+03  0.7546771E-02  0.1229266E+00
         21   -1    0    0  502  503  0.00000000000E+00  0.00000000000E+00  0.10209187621E+03  0.10209187621E+03  0.00000000000E+00 0.  1.
          2   -1    0    0  503    0 -0.00000000000E+00 -0.00000000000E+00 -0.36397037438E+03  0.36397037438E+03  0.00000000000E+00 0. -1.
         25    2    1    2    0    0 -0.29630705841E+02  0.91659228334E+01  0.60433244340E+02  0.14226161404E+03  0.12499678771E+03 0.  0.
          5    1    3    3  501    0 -0.44819681312E+02  0.29343934438E+01  0.94396842147E+02  0.10453797542E+03  0.10000000000E+00 0. -1.
         -5    1    3    3    0  501  0.15188975471E+02  0.62315293896E+01 -0.33963597807E+02  0.37723638616E+02  0.10000000000E+00 0. -1.
          2    1    1    2  502    0  0.29630705841E+02 -0.91659228334E+01 -0.32231174251E+03  0.32380063655E+03  0.00000000000E+00 0. -1.
<mgrwt>
<rscale>  1 0.12878738E+03</rscale>
<asrwt>0</asrwt>
<pdfrwt beam="1">  1       21 0.15706442E-01 0.12878738E+03</pdfrwt>
<pdfrwt beam="2">  1        2 0.55995442E-01 0.12878738E+03</pdfrwt>
<totfact> 0.39762168E+04</totfact>
</mgrwt>
</event>
<event>
 6    2  0.1181843E-002  0.1264313E+03  0.7546771E-02  0.1232849E+00
          2   -1    0    0  503    0 -0.00000000000E+00  0.00000000000E+00  0.75362029392E+03  0.75362029392E+03  0.00000000000E+00 0.  1.
         21   -1    0    0  502  503  0.00000000000E+00 -0.00000000000E+00 -0.10001503617E+03  0.10001503617E+03  0.00000000000E+00 0. -1.
         25    2    1    2    0    0  0.18010463576E+02 -0.59748454164E+01 -0.59882251225E+02  0.13989553084E+03  0.12499919985E+03 0.  0.
          5    1    3    3  501    0 -0.32786929466E+02 -0.47654591006E+02 -0.42933916679E+02  0.72036615614E+02  0.10000000000E+00 0.  1.
         -5    1    3    3    0  501  0.50797393042E+02  0.41679745590E+02 -0.16948334547E+02  0.67858915230E+02  0.10000000000E+00 0.  1.
          2    1    1    2  502    0 -0.18010463576E+02  0.59748454164E+01  0.71348750897E+03  0.71373979925E+03  0.00000000000E+00 0.  1.
<mgrwt>
<rscale>  1 0.12643131E+03</rscale>
<asrwt>0</asrwt>
<pdfrwt beam="1">  1       21 0.15386929E-01 0.12643131E+03</pdfrwt>
<pdfrwt beam="2">  1        2 0.11594158E+00 0.12643131E+03</pdfrwt>
<totfact> 0.18337704E+04</totfact>
</mgrwt>
</event>
<event>
 6    2  0.1181843E-002  0.1367193E+03  0.7546771E-02  0.1217813E+00
         21   -1    0    0  502  503  0.00000000000E+00  0.00000000000E+00  0.64892346462E+02  0.64892346462E+02  0.00000000000E+00 0. -1.
          2   -1    0    0  503    0 -0.00000000000E+00 -0.00000000000E+00 -0.51316320506E+03  0.51316320506E+03  0.00000000000E+00 0. -1.
         25    2    1    2    0    0 -0.52923281034E+02 -0.16301899687E+02 -0.10856456226E+02  0.13714968287E+03  0.12500218902E+03 0.  0.
          5    1    3    3  501    0  0.96059729972E+00 -0.48758284189E+02 -0.44320453068E+02  0.65898449029E+02  0.10000000000E+00 0.  1.
         -5    1    3    3    0  501 -0.53883878334E+02  0.32456384502E+02  0.33463996842E+02  0.71251233841E+02  0.10000000000E+00 0.  1.
          2    1    1    2  502    0  0.52923281034E+02  0.16301899687E+02 -0.43741440237E+03  0.44090586865E+03  0.00000000000E+00 0. -1.
<mgrwt>
<rscale>  1 0.13671932E+03</rscale>
<asrwt>0</asrwt>
<pdfrwt beam="1">  1       21 0.99834387E-02 0.13671932E+03</pdfrwt>
<pdfrwt beam="2">  1        2 0.78948179E-01 0.13671932E+03</pdfrwt>
<totfact> 0.61525450E+04</totfact>
</mgrwt>
</event>
<event>
 6    2  0.1181843E-002  0.1812460E+03  0.7546771E-02  0.1166603E+00
         21   -1    0    0  502  503  0.00000000000E+00  0.00000000000E+00  0.40508977923E+03  0.40508977923E+03  0.00000000000E+00 0. -1.
          2   -1    0    0  503    0 -0.00000000000E+00 -0.00000000000E+00 -0.11502929345E+04  0.11502929345E+04  0.00000000000E+00 0. -1.
         25    2    1    2    0    0  0.96791898865E+02  0.88636633518E+02  0.38081240797E+03  0.42174424706E+03  0.12499998152E+03 0.  0.
          5    1    3    3  501    0 -0.10942810301E+02  0.41854219292E+02  0.32348325399E+02  0.54018005571E+02  0.10000000000E+00 0.  1.
         -5    1    3    3    0  501  0.10773470917E+03  0.46782414226E+02  0.34846408257E+03  0.36772624149E+03  0.10000000000E+00 0.  1.
          2    1    1    2  502    0 -0.96791898865E+02 -0.88636633518E+02 -0.11260155632E+04  0.11336384666E+04  0.00000000000E+00 0. -1.
<mgrwt>
<rscale>  1 0.18124602E+03</rscale>
<asrwt>0</asrwt>
<pdfrwt beam="1">  1       21 0.62321506E-01 0.18124602E+03</pdfrwt>
<pdfrwt beam="2">  1        2 0.17696814E+00 0.18124602E+03</pdfrwt>
<totfact> 0.65577554E+02</totfact>
</mgrwt>
</event>
<event>
 6    2  0.1181843E-002  0.1407965E+03  0.7546771E-02  0.1212261E+00
         21   -1    0    0  502  503  0.00000000000E+00  0.00000000000E+00  0.13741819261E+02  0.13741819261E+02  0.00000000000E+00 0.  1.
          2   -1    0    0  503    0 -0.00000000000E+00 -0.00000000000E+00 -0.12757044447E+04  0.12757044447E+04  0.00000000000E+00 0.  1.
         25    2    1    2    0    0  0.15353873138E+02  0.62948003174E+02 -0.38233510072E+03  0.40743562074E+03  0.12500185309E+03 0.  0.
          5    1    3    3  501    0 -0.46344486010E+02  0.23515218131E+01 -0.75264741861E+02  0.88420203606E+02  0.10000000000E+00 0. -1.
         -5    1    3    3    0  501  0.61698359149E+02  0.60596481361E+02 -0.30707035886E+03  0.31901541713E+03  0.10000000000E+00 0. -1.
          2    1    1    2  502    0 -0.15353873138E+02 -0.62948003174E+02 -0.87962752473E+03  0.88201064324E+03  0.00000000000E+00 0.  1.
<mgrwt>
<rscale>  1 0.14079650E+03</rscale>
<asrwt>0</asrwt>
<pdfrwt beam="1">  1       21 0.21141260E-02 0.14079650E+03</pdfrwt>
<pdfrwt beam="2">  1        2 0.19626222E+00 0.14079650E+03</pdfrwt>
<totfact> 0.25931236E+05</totfact>
</mgrwt>
</event>
<event>
 6    2  0.1181843E-002  0.1265985E+03  0.7546771E-02  0.1232592E+00
          1   -1    0    0  503    0 -0.00000000000E+00  0.00000000000E+00  0.14890316897E+04  0.14890316897E+04  0.00000000000E+00 0.  1.
         21   -1    0    0  502  503  0.00000000000E+00 -0.00000000000E+00 -0.52749901267E+01  0.52749901267E+01  0.00000000000E+00 0.  1.
         25    2    1    2    0    0  0.14996687928E+02 -0.13402488402E+02  0.77558247480E+03  0.78584689976E+03  0.12499058883E+03 0.  0.
          5    1    3    3  501    0 -0.91361074346E+01 -0.60970653075E+02  0.57491751070E+03  0.57821366562E+03  0.10000000000E+00 0.  1.
         -5    1    3    3    0  501  0.24132795363E+02  0.47568164673E+02  0.20066496410E+03  0.20763323414E+03  0.10000000000E+00 0.  1.
          1    1    1    2  502    0 -0.14996687928E+02  0.13402488402E+02  0.70817422474E+03  0.70845978004E+03  0.00000000000E+00 0.  1.
<mgrwt>
<rscale>  1 0.12659848E+03</rscale>
<asrwt>0</asrwt>
<pdfrwt beam="1">  1       21 0.81153813E-03 0.12659848E+03</pdfrwt>
<pdfrwt beam="2">  1        1 0.22908146E+00 0.12659848E+03</pdfrwt>
<totfact> 0.42692071E+05</totfact>
</mgrwt>
</event>
<event>
 6    2  0.1181843E-002  0.1281750E+03  0.7546771E-02  0.1230189E+00
         21   -1    0    0  502  503  0.00000000000E+00  0.00000000000E+00  0.11323698583E+03  0.11323698583E+03  0.00000000000E+00 0.  1.
          4   -1    0    0  503    0 -0.00000000000E+00 -0.00000000000E+00 -0.96719909394E+02  0.96719909394E+02  0.00000000000E+00 0.  1.
         25    2    1    2    0    0 -0.27502787719E+02 -0.69424086873E+01  0.72456179796E+02  0.14723701277E+03  0.12499695824E+03 0.  0.
          5    1    3    3  501    0 -0.15506779173E+02 -0.49844541781E+02 -0.10341854804E+02  0.53215622767E+02  0.10000000000E+00 0. -1.
         -5    1    3    3    0  501 -0.11996008546E+02  0.42902133094E+02  0.82798034599E+02  0.94021390005E+02  0.10000000000E+00 0. -1.
          4    1    1    2  502    0  0.27502787719E+02  0.69424086873E+01 -0.55939103358E+02  0.62719882455E+02  0.00000000000E+00 0.  1.
<mgrwt>
<rscale>  1 0.12817504E+03</rscale>
<asrwt>0</asrwt>
<pdfrwt beam="1">  1       21 0.17421075E-01 0.12817504E+03</pdfrwt>
<pdfrwt beam="2">  1        4 0.14879986E-01 0.12817504E+03</pdfrwt>
<totfact> 0.45922711E+04</totfact>
</mgrwt>
</event>
<event>
 6    2  0.1181843E-002  0.1334606E+03  0.7546771E-02  0.1222409E+00
          1   -1    0    0  503    0 -0.00000000000E+00  0.00000000000E+00  0.93071094437E+01  0.93071094437E+01  0.00000000000E+00 0.  1.
         21   -1    0    0  502  503  0.00000000000E+00 -0.00000000000E+00 -0.88428599692E+03  0.88428599692E+03  0.00000000000E+00 0.  1.
         25    2    1    2    0    0  0.13080391104E+02  0.44940865591E+02 -0.68966266987E+03  0.70245734692E+03  0.12498379092E+03 0.  0.
          5    1    3    3  501    0  0.32158215747E+02  0.83014057211E+02 -0.40852679209E+03  0.41811437955E+03  0.10000000000E+00 0. -1.
         -5    1    3    3    0  501 -0.19077824642E+02 -0.38073191619E+02 -0.28113587778E+03  0.28434296736E+03  0.10000000000E+00 0. -1.
          1    1    1    2  502    0 -0.13080391104E+02 -0.44940865591E+02 -0.18531621760E+03  0.19113575944E+03  0.00000000000E+00 0.  1.
<mgrwt>
<rscale>  1 0.13346058E+03</rscale>
<asrwt>0</asrwt>
<pdfrwt beam="1">  1       21 0.13604399E+00 0.13346058E+03</pdfrwt>
<pdfrwt beam="2">  1        1 0.14318631E-02 0.13346058E+03</pdfrwt>
<totfact> 0.38802654E+04</totfact>
</mgrwt>
</event>
<event>
 6    2  0.1181843E-002  0.1322658E+03  0.7546771E-02  0.1224132E+00
          2   -1    0    0  503    0 -0.00000000000E+00  0.00000000000E+00  0.11736517635E+04  0.11736517635E+04  0.00000000000E+00 0. -1.
         21   -1    0    0  502  503  0.00000000000E+00 -0.00000000000E+00 -0.33837816017E+02  0.33837816017E+02  0.00000000000E+00 0.  1.
         25    2    1    2    0    0  0.28769884430E+02 -0.32044751896E+02  0.97578624456E+02  0.16436492688E+03  0.12505866169E+03 0.  0.
          5    1    3    3  501    0 -0.39508103960E+02  0.39060426920E+01  0.73489821103E+02  0.83527907036E+02  0.10000000000E+00 0. -1.
         -5    1    3    3    0  501  0.68277988390E+02 -0.35950794588E+02  0.24088803352E+02  0.80837019842E+02  0.10000000000E+00 0. -1.
          2    1    1    2  502    0 -0.28769884430E+02  0.32044751896E+02  0.10422353230E+04  0.10431246526E+04  0.00000000000E+00 0. -1.
<mgrwt>
<rscale>  1 0.13226580E+03</rscale>
<asrwt>0</asrwt>
<pdfrwt beam="1">  1       21 0.52058187E-02 0.13226580E+03</pdfrwt>
<pdfrwt beam="2">  1        2 0.18056178E+00 0.13226580E+03</pdfrwt>
<totfact> 0.66655413E+04</totfact>
</mgrwt>
</event>
<event>
 6    2  0.1181843E-002  0.1331825E+03  0.7546771E-02  0.1222808E+00
          1   -1    0    0  503    0 -0.00000000000E+00  0.00000000000E+00  0.11973786142E+04  0.11973786142E+04  0.00000000000E+00 0.  1.
         21   -1    0    0  502  503  0.00000000000E+00 -0.00000000000E+00 -0.16450272910E+02  0.16450272910E+02  0.00000000000E+00 0.  1.
         25    2    1    2    0    0 -0.15258520302E+00 -0.45954765495E+02  0.26345384081E+03  0.29520419618E+03  0.12500290977E+03 0.  0.
          5    1    3    3  501    0 -0.44667265899E+02  0.23497478665E+02  0.10830369121E+03  0.11948638281E+03  0.10000000000E+00 0.  1.
         -5    1    3    3    0  501  0.44514680696E+02 -0.69452244159E+02  0.15515014960E+03  0.17571781338E+03  0.10000000000E+00 0.  1.
          1    1    1    2  502    0  0.15258520302E+00  0.45954765495E+02  0.91747450046E+03  0.91862469091E+03  0.00000000000E+00 0.  1.
<mgrwt>
<rscale>  1 0.13318255E+03</rscale>
<asrwt>0</asrwt>
<pdfrwt beam="1">  1       21 0.25308122E-02 0.13318255E+03</pdfrwt>
<pdfrwt beam="2">  1        1 0.18421203E+00 0.13318255E+03</pdfrwt>
<totfact> 0.10866746E+05</totfact>
</mgrwt>
</event>
<event>
 6    2  0.1181843E-002  0.1352480E+03  0.7546771E-02  0.1219870E+00
          2   -1    0    0  503    0 -0.00000000000E+00  0.00000000000E+00  0.44084779060E+03  0.44084779060E+03  0.00000000000E+00 0.  1.
         21   -1    0    0  502  503  0.00000000000E+00 -0.00000000000E+00 -0.31103103090E+02  0.31103103090E+02  0.00000000000E+00 0.  1.
         25    2    1    2    0    0 -0.40775103836E+02 -0.31686489450E+02  0.13039842006E+03  0.18787171486E+03  0.12500156232E+03 0.  0.
          5    1    3    3  501    0  0.11761475441E+02 -0.69499809118E+02  0.69956741023E+02  0.99310177659E+02  0.10000000000E+00 0.  1.
         -5    1    3    3    0  501 -0.52536579277E+02  0.37813319669E+02  0.60441679036E+02  0.88561537199E+02  0.10000000000E+00 0.  1.
          2    1    1    2  502    0  0.40775103836E+02  0.31686489450E+02  0.27934626745E+03  0.28407917883E+03  0.00000000000E+00 0.  1.
<mgrwt>
<rscale>  1 0.13524804E+03</rscale>
<asrwt>0</asrwt>
<pdfrwt beam="1">  1       21 0.47850931E-02 0.13524804E+03</pdfrwt>
<pdfrwt beam="2">  1        2 0.67822732E-01 0.13524804E+03</pdfrwt>
<totfact> 0.25574684E+05</totfact>
</mgrwt>
</event>
<event>
 6    2  0.1181843E-002  0.1325837E+03  0.7546771E-02  0.1223672E+00
          2   -1    0    0  503    0 -0.00000000000E+00  0.00000000000E+00  0.30286364484E+03  0.30286364484E+03  0.00000000000E+00 0. -1.
         21   -1    0    0  502  503  0.00000000000E+00 -0.00000000000E+00 -0.42037698478E+02  0.42037698478E+02  0.00000000000E+00 0. -1.
         25    2    1    2    0    0 -0.43130212903E+02  0.96319111013E+01  0.71797347390E+02  0.15077561034E+03  0.12500174640E+03 0.  0.
          5    1    3    3  501    0  0.18581405500E+02 -0.36568007939E+02 -0.57631537810E+01  0.41421151317E+02  0.10000000000E+00 0.  1.
         -5    1    3    3    0  501 -0.61711618403E+02  0.46199919040E+02  0.77560501171E+02  0.10935445902E+03  0.10000000000E+00 0.  1.
          2    1    1    2  502    0  0.43130212903E+02 -0.96319111013E+01  0.18902859897E+03  0.19412573298E+03  0.00000000000E+00 0. -1.
<mgrwt>
<rscale>  1 0.13258366E+03</rscale>
<asrwt>0</asrwt>
<pdfrwt beam="1">  1       21 0.64673384E-02 0.13258366E+03</pdfrwt>
<pdfrwt beam="2">  1        2 0.46594405E-01 0.13258366E+03</pdfrwt>
<totfact> 0.22900826E+05</totfact>
</mgrwt>
</event>
<event>
 6    2  0.1181843E-002  0.1290494E+03  0.7546771E-02  0.1228873E+00
         21   -1    0    0  502  503  0.00000000000E+00  0.00000000000E+00  0.17168185755E+02  0.17168185755E+02  0.00000000000E+00 0. -1.
          2   -1    0    0  503    0 -0.00000000000E+00 -0.00000000000E+00 -0.53934354191E+03  0.53934354191E+03  0.00000000000E+00 0. -1.
         25    2    1    2    0    0 -0.66626196733E+00  0.32060244555E+02 -0.23978115284E+03  0.27230266860E+03  0.12500175553E+03 0.  0.
          5    1    3    3  501    0 -0.22277301005E+02  0.14518428124E+02 -0.24284819505E+03  0.24429964948E+03  0.10000000000E+00 0. -1.
         -5    1    3    3    0  501  0.21611039037E+02  0.17541816431E+02  0.30670422162E+01  0.28003019122E+02  0.10000000000E+00 0. -1.
          2    1    1    2  502    0  0.66626196733E+00 -0.32060244555E+02 -0.28239420332E+03  0.28420905906E+03  0.00000000000E+00 0. -1.
<mgrwt>
<rscale>  1 0.12904938E+03</rscale>
<asrwt>0</asrwt>
<pdfrwt beam="1">  1       21 0.26412595E-02 0.12904938E+03</pdfrwt>
<pdfrwt beam="2">  1        2 0.82975924E-01 0.12904938E+03</pdfrwt>
<totfact> 0.54656709E+05</totfact>
</mgrwt>
</event>
<event>
 6    2  0.1181843E-002  0.1374056E+03  0.7546771E-02  0.1216863E+00
         21   -1    0    0  502  503  0.00000000000E+00  0.00000000000E+00  0.36594467071E+02  0.36594467071E+02  0.00000000000E+00 0. -1.
          2   -1    0    0  503    0 -0.00000000000E+00 -0.00000000000E+00 -0.22722027549E+04  0.22722027549E+04  0.00000000000E+00 0. -1.
         25    2    1    2    0    0 -0.15036283428E+02  0.55009400711E+02 -0.22465343975E+04  0.22507325695E+04  0.12501270531E+03 0.  0.
          5    1    3    3  501    0 -0.14235770912E+02  0.58339331792E+02 -0.42772281335E+03  0.43191775822E+03  0.10000000000E+00 0.  1.
         -5    1    3    3    0  501 -0.80051251542E+00 -0.33299310807E+01 -0.18188115842E+04  0.18188148113E+04  0.10000000000E+00 0.  1.
          2    1    1    2  502    0  0.15036283428E+02 -0.55009400711E+02  0.10926109689E+02  0.58064652405E+02  0.00000000000E+00 0. -1.
<mgrwt>
<rscale>  1 0.13740561E+03</rscale>
<asrwt>0</asrwt>
<pdfrwt beam="1">  1       21 0.56299163E-02 0.13740561E+03</pdfrwt>
<pdfrwt beam="2">  1        2 0.34956976E+00 0.13740561E+03</pdfrwt>
<totfact> 0.15634380E+04</totfact>
</mgrwt>
</event>
<event>
 6    2  0.1181843E-002  0.1367050E+03  0.7546771E-02  0.1217833E+00
         21   -1    0    0  502  503  0.00000000000E+00  0.00000000000E+00  0.63781082692E+01  0.63781082692E+01  0.00000000000E+00 0.  1.
          2   -1    0    0  503    0 -0.00000000000E+00 -0.00000000000E+00 -0.15712529313E+04  0.15712529313E+04  0.00000000000E+00 0.  1.
         25    2    1    2    0    0 -0.43885428787E+02 -0.33714660967E+02 -0.88363770126E+03  0.89414978503E+03  0.12500256702E+03 0.  0.
          5    1    3    3  501    0 -0.51648746778E+02 -0.76358306886E+02 -0.54368980628E+03  0.55144972530E+03  0.10000000000E+00 0. -1.
         -5    1    3    3    0  501  0.77633179911E+01  0.42643645920E+02 -0.33994789498E+03  0.34270005974E+03  0.10000000000E+00 0. -1.
          2    1    1    2  502    0  0.43885428787E+02  0.33714660967E+02 -0.68123712174E+03  0.68348125450E+03  0.00000000000E+00 0.  1.
<mgrwt>
<rscale>  1 0.13670498E+03</rscale>
<asrwt>0</asrwt>
<pdfrwt beam="1">  1       21 0.98124704E-03 0.13670498E+03</pdfrwt>
<pdfrwt beam="2">  1        2 0.24173132E+00 0.13670498E+03</pdfrwt>
<totfact> 0.61659915E+05</totfact>
</mgrwt>
</event>
<event>
 6    2  0.1181843E-002  0.1268114E+03  0.7546771E-02  0.1232265E+00
         21   -1    0    0  502  503  0.00000000000E+00  0.00000000000E+00  0.18961223345E+02  0.18961223345E+02  0.00000000000E+00 0. -1.
          1   -1    0    0  503    0 -0.00000000000E+00 -0.00000000000E+00 -0.13659277801E+04  0.13659277801E+04  0.00000000000E+00 0. -1.
         25    2    1    2    0    0 -0.19738226361E+02 -0.84154570855E+01 -0.19428748122E+03  0.23201022895E+03  0.12498281275E+03 0.  0.
          5    1    3    3  501    0  0.48327997710E+02  0.18105254422E+02 -0.10197436833E+03  0.11428988318E+03  0.10000000000E+00 0. -1.
         -5    1    3    3    0  501 -0.68066224071E+02 -0.26520711507E+02 -0.92313112885E+02  0.11772034577E+03  0.10000000000E+00 0. -1.
          1    1    1    2  502    0  0.19738226361E+02  0.84154570855E+01 -0.11526790755E+04  0.11528787745E+04  0.00000000000E+00 0. -1.
<mgrwt>
<rscale>  1 0.12681136E+03</rscale>
<asrwt>0</asrwt>
<pdfrwt beam="1">  1       21 0.29171120E-02 0.12681136E+03</pdfrwt>
<pdfrwt beam="2">  1        1 0.21014269E+00 0.12681136E+03</pdfrwt>
<totfact> 0.66421345E+04</totfact>
</mgrwt>
</event>
<event>
 6    2  0.1181843E-002  0.1307062E+03  0.7546771E-02  0.1226412E+00
          1   -1    0    0  503    0 -0.00000000000E+00  0.00000000000E+00  0.35077081308E+02  0.35077081308E+02  0.00000000000E+00 0.  1.
         21   -1    0    0  502  503  0.00000000000E+00 -0.00000000000E+00 -0.22665912281E+03  0.22665912281E+03  0.00000000000E+00 0.  1.
         25    2    1    2    0    0  0.24470436051E+02  0.29338262560E+02 -0.17873950194E+03  0.22143153053E+03  0.12499830907E+03 0.  0.
          5    1    3    3  501    0  0.42277053577E+02  0.13302684618E+02 -0.33876892908E+01  0.44449939437E+02  0.10000000000E+00 0.  1.
         -5    1    3    3    0  501 -0.17806617526E+02  0.16035577943E+02 -0.17535181265E+03  0.17698159109E+03  0.10000000000E+00 0.  1.
          1    1    1    2  502    0 -0.24470436051E+02 -0.29338262560E+02 -0.12842539565E+02  0.40304673588E+02  0.00000000000E+00 0.  1.
<mgrwt>
<rscale>  1 0.13070621E+03</rscale>
<asrwt>0</asrwt>
<pdfrwt beam="1">  1       21 0.34870635E-01 0.13070621E+03</pdfrwt>
<pdfrwt beam="2">  1        1 0.53964740E-02 0.13070621E+03</pdfrwt>
<totfact> 0.12303791E+05</totfact>
</mgrwt>
</event>
<event>
 6    2  0.1181843E-002  0.1274186E+03  0.7546771E-02  0.1231337E+00
         21   -1    0    0  502  503  0.00000000000E+00  0.00000000000E+00  0.35670877704E+02  0.35670877704E+02  0.00000000000E+00 0. -1.
          1   -1    0    0  503    0 -0.00000000000E+00 -0.00000000000E+00 -0.91656722407E+03  0.91656722407E+03  0.00000000000E+00 0.  1.
         25    2    1    2    0    0  0.30069979382E+01 -0.24423960576E+02 -0.78909905964E+02  0.14987420523E+03  0.12501972743E+03 0.  0.
          5    1    3    3  501    0  0.23168171038E+02 -0.44647051392E+02 -0.10162058200E+03  0.11338816531E+03  0.10000000000E+00 0.  1.
         -5    1    3    3    0  501 -0.20161173100E+02  0.20223090816E+02  0.22710676035E+02  0.36486039918E+02  0.10000000000E+00 0.  1.
          1    1    1    2  502    0 -0.30069979382E+01  0.24423960576E+02 -0.80198644040E+03  0.80236389654E+03  0.00000000000E+00 0.  1.
<mgrwt>
<rscale>  1 0.12741862E+03</rscale>
<asrwt>0</asrwt>
<pdfrwt beam="1">  1       21 0.54878273E-02 0.12741862E+03</pdfrwt>
<pdfrwt beam="2">  1        1 0.14101034E+00 0.12741862E+03</pdfrwt>
<totfact> 0.47899214E+04</totfact>
</mgrwt>
</event>
<event>
 6    2  0.1181843E-002  0.1452198E+03  0.7546771E-02  0.1206473E+00
         21   -1    0    0  502  503  0.00000000000E+00  0.00000000000E+00  0.23729137859E+02  0.23729137859E+02  0.00000000000E+00 0. -1.
          1   -1    0    0  503    0 -0.00000000000E+00 -0.00000000000E+00 -0.12886273592E+04  0.12886273592E+04  0.00000000000E+00 0. -1.
         25    2    1    2    0    0  0.71273630486E+02  0.19590112700E+02 -0.21259016310E+03  0.25745557643E+03  0.12500037387E+03 0.  0.
          5    1    3    3  501    0  0.24880104361E+01  0.59699302785E+02 -0.12814106180E+03  0.14138719414E+03  0.10000000000E+00 0. -1.
         -5    1    3    3    0  501  0.68785620050E+02 -0.40109190085E+02 -0.84449101307E+02  0.11606838229E+03  0.10000000000E+00 0. -1.
          1    1    1    2  502    0 -0.71273630486E+02 -0.19590112700E+02 -0.10523080582E+04  0.10549009206E+04  0.00000000000E+00 0. -1.
<mgrwt>
<rscale>  1 0.14521982E+03</rscale>
<asrwt>0</asrwt>
<pdfrwt beam="1">  1       21 0.36506369E-02 0.14521982E+03</pdfrwt>
<pdfrwt beam="2">  1        1 0.19825035E+00 0.14521982E+03</pdfrwt>
<totfact> 0.51600419E+04</totfact>
</mgrwt>
</event>
<event>
 6    2  0.1181843E-002  0.1278271E+03  0.7546771E-02  0.1230716E+00
         21   -1    0    0  502  503  0.00000000000E+00  0.00000000000E+00  0.17711128304E+03  0.17711128304E+03  0.00000000000E+00 0. -1.
          1   -1    0    0  503    0 -0.00000000000E+00 -0.00000000000E+00 -0.10677115022E+03  0.10677115022E+03  0.00000000000E+00 0. -1.
         25    2    1    2    0    0  0.17016887095E+02  0.20601071570E+02  0.15162539415E+03  0.19831799962E+03  0.12500316086E+03 0.  0.
          5    1    3    3  501    0 -0.50855813464E+02  0.24311773717E+02  0.46216906225E+02  0.72892993665E+02  0.10000000000E+00 0. -1.
         -5    1    3    3    0  501  0.67872700559E+02 -0.37107021467E+01  0.10540848792E+03  0.12542500595E+03  0.10000000000E+00 0. -1.
          1    1    1    2  502    0 -0.17016887095E+02 -0.20601071570E+02 -0.81285261326E+02  0.85564433645E+02  0.00000000000E+00 0. -1.
<mgrwt>
<rscale>  1 0.12782711E+03</rscale>
<asrwt>0</asrwt>
<pdfrwt beam="1">  1       21 0.27247890E-01 0.12782711E+03</pdfrwt>
<pdfrwt beam="2">  1        1 0.16426331E-01 0.12782711E+03</pdfrwt>
<totfact> 0.45266272E+04</totfact>
</mgrwt>
</event>
<event>
 6    2  0.1181843E-002  0.1320168E+03  0.7546771E-02  0.1224493E+00
         21   -1    0    0  502  503  0.00000000000E+00  0.00000000000E+00  0.50620130882E+02  0.50620130882E+02  0.00000000000E+00 0.  1.
          2   -1    0    0  503    0 -0.00000000000E+00 -0.00000000000E+00 -0.16503703015E+03  0.16503703015E+03  0.00000000000E+00 0.  1.
         25    2    1    2    0    0  0.19605882158E+02  0.37661680360E+02 -0.55911922503E+02  0.14336867585E+03  0.12500256540E+03 0.  0.
          5    1    3    3  501    0  0.71023572507E+02  0.29414234253E+02 -0.17994114371E+02  0.78951524244E+02  0.10000000000E+00 0. -1.
         -5    1    3    3    0  501 -0.51417690349E+02  0.82474461069E+01 -0.37917808133E+02  0.64417151611E+02  0.10000000000E+00 0. -1.
          2    1    1    2  502    0 -0.19605882158E+02 -0.37661680360E+02 -0.58504976762E+02  0.72288485173E+02  0.00000000000E+00 0.  1.
<mgrwt>
<rscale>  1 0.13201679E+03</rscale>
<asrwt>0</asrwt>
<pdfrwt beam="1">  1       21 0.77877124E-02 0.13201679E+03</pdfrwt>
<pdfrwt beam="2">  1        2 0.25390313E-01 0.13201679E+03</pdfrwt>
<totfact> 0.31961799E+05</totfact>
</mgrwt>
</event>
<event>
 6    2  0.1181843E-002  0.1264607E+03  0.7546771E-02  0.1232804E+00
          2   -1    0    0  503    0 -0.00000000000E+00  0.00000000000E+00  0.97397022725E+03  0.97397022725E+03  0.00000000000E+00 0.  1.
         21   -1    0    0  502  503  0.00000000000E+00 -0.00000000000E+00 -0.65162802595E+01  0.65162802595E+01  0.00000000000E+00 0.  1.
         25    2    1    2    0    0  0.18297975330E+02 -0.58234548063E+01  0.63451479828E+03  0.64699407091E+03  0.12499427997E+03 0.  0.
          5    1    3    3  501    0  0.59897982251E+01 -0.62432236028E+02  0.42557636358E+03  0.43017311982E+03  0.10000000000E+00 0.  1.
         -5    1    3    3    0  501  0.12308177105E+02  0.56608781222E+02  0.20893843470E+03  0.21682095108E+03  0.10000000000E+00 0.  1.
          2    1    1    2  502    0 -0.18297975330E+02  0.58234548063E+01  0.33293914871E+03  0.33349243660E+03  0.00000000000E+00 0.  1.
<mgrwt>
<rscale>  1 0.12646066E+03</rscale>
<asrwt>0</asrwt>
<pdfrwt beam="1">  1       21 0.10025054E-02 0.12646066E+03</pdfrwt>
<pdfrwt beam="2">  1        2 0.14984146E+00 0.12646066E+03</pdfrwt>
<totfact> 0.12610043E+06</totfact>
</mgrwt>
</event>
<event>
 6    2  0.1181843E-002  0.1788387E+03  0.7546771E-02  0.1168932E+00
         21   -1    0    0  502  503  0.00000000000E+00  0.00000000000E+00  0.11397262320E+02  0.11397262320E+02  0.00000000000E+00 0.  1.
          2   -1    0    0  503    0 -0.00000000000E+00 -0.00000000000E+00 -0.34613201299E+04  0.34613201299E+04  0.00000000000E+00 0.  1.
         25    2    1    2    0    0  0.12599583592E+03 -0.22031426445E+02 -0.29898903395E+04  0.29952341345E+04  0.12499177729E+03 0.  0.
          5    1    3    3  501    0  0.13623813335E+02 -0.50980655736E+02 -0.14581669173E+04  0.14591214494E+04  0.10000000000E+00 0. -1.
         -5    1    3    3    0  501  0.11237202258E+03  0.28949229292E+02 -0.15317234222E+04  0.15361126851E+04  0.10000000000E+00 0. -1.
          2    1    1    2  502    0 -0.12599583592E+03  0.22031426445E+02 -0.46003252809E+03  0.47748325763E+03  0.00000000000E+00 0.  1.
<mgrwt>
<rscale>  1 0.17883869E+03</rscale>
<asrwt>0</asrwt>
<pdfrwt beam="1">  1       21 0.17534251E-02 0.17883869E+03</pdfrwt>
<pdfrwt beam="2">  1        2 0.53251076E+00 0.17883869E+03</pdfrwt>
<totfact> 0.21925399E+04</totfact>
</mgrwt>
</event>
<event>
 6    2  0.1181843E-002  0.1343402E+03  0.7546771E-02  0.1221154E+00
         21   -1    0    0  502  503  0.00000000000E+00  0.00000000000E+00  0.26338670373E+02  0.26338670373E+02  0.00000000000E+00 0.  1.
          2   -1    0    0  503    0 -0.00000000000E+00 -0.00000000000E+00 -0.10335390370E+04  0.10335390370E+04  0.00000000000E+00 0. -1.
         25    2    1    2    0    0  0.45823104046E+02 -0.17901822147E+02 -0.15038253116E+03  0.20164869640E+03  0.12500823566E+03 0.  0.
          5    1    3    3  501    0  0.70406478885E+02 -0.46033000578E+02 -0.58500357661E+02  0.10246175510E+03  0.10000000000E+00 0.  1.
         -5    1    3    3    0  501 -0.24583374839E+02  0.28131178431E+02 -0.91882173500E+02  0.99186941305E+02  0.10000000000E+00 0.  1.
          2    1    1    2  502    0 -0.45823104046E+02  0.17901822147E+02 -0.85681783546E+03  0.85822901096E+03  0.00000000000E+00 0. -1.
<mgrwt>
<rscale>  1 0.13434021E+03</rscale>
<asrwt>0</asrwt>
<pdfrwt beam="1">  1       21 0.40521031E-02 0.13434021E+03</pdfrwt>
<pdfrwt beam="2">  1        2 0.15900601E+00 0.13434021E+03</pdfrwt>
<totfact> 0.12192147E+05</totfact>
</mgrwt>
</event>
<event>
 6    2  0.1181843E-002  0.1545712E+03  0.7546771E-02  0.1194966E+00
          1   -1    0    0  503    0 -0.00000000000E+00  0.00000000000E+00  0.65064857316E+03  0.65064857316E+03  0.00000000000E+00 0.  1.
         21   -1    0    0  502  503  0.00000000000E+00 -0.00000000000E+00 -0.74285401733E+02  0.74285401733E+02  0.00000000000E+00 0. -1.
         25    2    1    2    0    0 -0.53998499441E+02 -0.73143076179E+02  0.13927314645E+02  0.15519733351E+03  0.12500597867E+03 0.  0.
          5    1    3    3  501    0 -0.10561932192E+02 -0.82721975056E+02  0.50603829223E+02  0.97546076809E+02  0.10000000000E+00 0.  1.
         -5    1    3    3    0  501 -0.43436567249E+02  0.95788988768E+01 -0.36676514579E+02  0.57651256705E+02  0.10000000000E+00 0.  1.
          1    1    1    2  502    0  0.53998499441E+02  0.73143076179E+02  0.56243585678E+03  0.56973664138E+03  0.00000000000E+00 0.  1.
<mgrwt>
<rscale>  1 0.15457116E+03</rscale>
<asrwt>0</asrwt>
<pdfrwt beam="1">  1       21 0.11428524E-01 0.15457116E+03</pdfrwt>
<pdfrwt beam="2">  1        1 0.10009978E+00 0.15457116E+03</pdfrwt>
<totfact> 0.22438951E+04</totfact>
</mgrwt>
</event>
<event>
 6    2  0.1181843E-002  0.1336431E+03  0.7546771E-02  0.1222148E+00
         21   -1    0    0  502  503  0.00000000000E+00  0.00000000000E+00  0.79277449596E+01  0.79277449596E+01  0.00000000000E+00 0. -1.
          2   -1    0    0  503    0 -0.00000000000E+00 -0.00000000000E+00 -0.10499680259E+04  0.10499680259E+04  0.00000000000E+00 0. -1.
         25    2    1    2    0    0  0.41807856311E+02 -0.22081401933E+02 -0.82606285892E+03  0.83680363625E+03  0.12499997442E+03 0.  0.
          5    1    3    3  501    0 -0.30820213099E+02 -0.93757009451E+01 -0.55373027694E+03  0.55466658355E+03  0.10000000000E+00 0. -1.
         -5    1    3    3    0  501  0.72628069410E+02 -0.12705700988E+02 -0.27233258198E+03  0.28213705271E+03  0.10000000000E+00 0. -1.
          2    1    1    2  502    0 -0.41807856311E+02  0.22081401933E+02 -0.21597742203E+03  0.22109213461E+03  0.00000000000E+00 0. -1.
<mgrwt>
<rscale>  1 0.13364310E+03</rscale>
<asrwt>0</asrwt>
<pdfrwt beam="1">  1       21 0.12196535E-02 0.13364310E+03</pdfrwt>
<pdfrwt beam="2">  1        2 0.16153349E+00 0.13364310E+03</pdfrwt>
<totfact> 0.83673324E+05</totfact>
</mgrwt>
</event>
<event>
 6    2  0.1181843E-002  0.1262934E+03  0.7546771E-02  0.1233062E+00
          1   -1    0    0  503    0 -0.00000000000E+00  0.00000000000E+00  0.10253031124E+03  0.10253031124E+03  0.00000000000E+00 0.  1.
         21   -1    0    0  502  503  0.00000000000E+00 -0.00000000000E+00 -0.67434050065E+02  0.67434050065E+02  0.00000000000E+00 0.  1.
         25    2    1    2    0    0  0.13779020627E+02  0.11663109586E+02  0.59501401251E+02  0.13960813629E+03  0.12499650169E+03 0.  0.
          5    1    3    3  501    0  0.18941359456E+02  0.39602219111E+02  0.88637123707E+02  0.98912388282E+02  0.10000000000E+00 0.  1.
         -5    1    3    3    0  501 -0.51623388288E+01 -0.27939109526E+02 -0.29135722456E+02  0.40695748012E+02  0.10000000000E+00 0.  1.
          1    1    1    2  502    0 -0.13779020627E+02 -0.11663109586E+02 -0.24405140077E+02  0.30356225009E+02  0.00000000000E+00 0.  1.
<mgrwt>
<rscale>  1 0.12629337E+03</rscale>
<asrwt>0</asrwt>
<pdfrwt beam="1">  1       21 0.10374469E-01 0.12629337E+03</pdfrwt>
<pdfrwt beam="2">  1        1 0.15773894E-01 0.12629337E+03</pdfrwt>
<totfact> 0.27705251E+05</totfact>
</mgrwt>
</event>
<event>
 6    2  0.1181843E-002  0.1273422E+03  0.7546771E-02  0.1231454E+00
         21   -1    0    0  502  503  0.00000000000E+00  0.00000000000E+00  0.38400791207E+02  0.38400791207E+02  0.00000000000E+00 0.  1.
          1   -1    0    0  503    0 -0.00000000000E+00 -0.00000000000E+00 -0.34688795075E+03  0.34688795075E+03  0.00000000000E+00 0.  1.
         25    2    1    2    0    0  0.20303699361E+02 -0.13354474634E+02 -0.69508155198E+02  0.14507727945E+03  0.12500180468E+03 0.  0.
          5    1    3    3  501    0 -0.26544241462E+02  0.40880558620E+02 -0.56161185384E+01  0.49064932644E+02  0.10000000000E+00 0.  1.
         -5    1    3    3    0  501  0.46847940823E+02 -0.54235033254E+02 -0.63892036660E+02  0.96012346810E+02  0.10000000000E+00 0.  1.
          1    1    1    2  502    0 -0.20303699361E+02  0.13354474634E+02 -0.23897900434E+03  0.24021146250E+03  0.00000000000E+00 0.  1.
<mgrwt>
<rscale>  1 0.12734219E+03</rscale>
<asrwt>0</asrwt>
<pdfrwt beam="1">  1       21 0.59078140E-02 0.12734219E+03</pdfrwt>
<pdfrwt beam="2">  1        1 0.53367378E-01 0.12734219E+03</pdfrwt>
<totfact> 0.15921182E+05</totfact>
</mgrwt>
</event>
<event>
 6    2  0.1181843E-002  0.1261392E+03  0.7546771E-02  0.1233300E+00
          2   -1    0    0  503    0 -0.00000000000E+00  0.00000000000E+00  0.39893216255E+03  0.39893216255E+03  0.00000000000E+00 0.  1.
         21   -1    0    0  502  503  0.00000000000E+00 -0.00000000000E+00 -0.19291192554E+02  0.19291192554E+02  0.00000000000E+00 0. -1.
         25    2    1    2    0    0  0.46018795654E+01 -0.16231925150E+02  0.19139540125E+03  0.22922323118E+03  0.12500574948E+03 0.  0.
          5    1    3    3  501    0  0.10355373792E+02  0.34353818292E+02  0.17042566779E+03  0.17416181223E+03  0.10000000000E+00 0. -1.
         -5    1    3    3    0  501 -0.57534942262E+01 -0.50585743441E+02  0.20969733455E+02  0.55061418947E+02  0.10000000000E+00 0. -1.
          2    1    1    2  502    0 -0.46018795654E+01  0.16231925150E+02  0.18824556875E+03  0.18900012392E+03  0.00000000000E+00 0.  1.
<mgrwt>
<rscale>  1 0.12613917E+03</rscale>
<asrwt>0</asrwt>
<pdfrwt beam="1">  1       21 0.29678761E-02 0.12613917E+03</pdfrwt>
<pdfrwt beam="2">  1        2 0.61374173E-01 0.12613917E+03</pdfrwt>
<totfact> 0.62555673E+05</totfact>
</mgrwt>
</event>
<event>
 6    2  0.1181843E-002  0.1271525E+03  0.7546771E-02  0.1231743E+00
         21   -1    0    0  502  503  0.00000000000E+00  0.00000000000E+00  0.38081329009E+02  0.38081329009E+02  0.00000000000E+00 0.  1.
          3   -1    0    0  503    0 -0.00000000000E+00 -0.00000000000E+00 -0.67080471473E+03  0.67080471473E+03  0.00000000000E+00 0.  1.
         25    2    1    2    0    0  0.14451561738E+01  0.23360408887E+02 -0.68982368189E+02  0.14465937650E+03  0.12497988201E+03 0.  0.
          5    1    3    3  501    0 -0.35737438747E+02 -0.56927914282E+01 -0.86939787481E+02  0.94170637938E+02  0.10000000000E+00 0. -1.
         -5    1    3    3    0  501  0.37182594921E+02  0.29053200315E+02  0.17957419291E+02  0.50488738558E+02  0.10000000000E+00 0. -1.
          3    1    1    2  502    0 -0.14451561738E+01 -0.23360408887E+02 -0.56374101753E+03  0.56422666724E+03  0.00000000000E+00 0.  1.
<mgrwt>
<rscale>  1 0.12715254E+03</rscale>
<asrwt>0</asrwt>
<pdfrwt beam="1">  1       21 0.58586664E-02 0.12715254E+03</pdfrwt>
<pdfrwt beam="2">  1        3 0.10320072E+00 0.12715254E+03</pdfrwt>
<totfact> 0.83825562E+03</totfact>
</mgrwt>
</event>
<event>
 6    2  0.1181843E-002  0.1288174E+03  0.7546771E-02  0.1229221E+00
          1   -1    0    0  503    0 -0.00000000000E+00  0.00000000000E+00  0.12833003846E+04  0.12833003846E+04  0.00000000000E+00 0. -1.
         21   -1    0    0  502  503  0.00000000000E+00 -0.00000000000E+00 -0.71145806749E+01  0.71145806749E+01  0.00000000000E+00 0. -1.
         25    2    1    2    0    0  0.15535382512E+02 -0.26997281860E+02  0.60765914443E+03  0.62116307264E+03  0.12499490256E+03 0.  0.
          5    1    3    3  501    0  0.66318905207E+02 -0.34839774559E+02  0.29815245473E+03  0.30741975106E+03  0.10000000000E+00 0. -1.
         -5    1    3    3    0  501 -0.50783522695E+02  0.78424926989E+01  0.30950668970E+03  0.31374332159E+03  0.10000000000E+00 0. -1.
          1    1    1    2  502    0 -0.15535382512E+02  0.26997281860E+02  0.66852665945E+03  0.66925189258E+03  0.00000000000E+00 0. -1.
<mgrwt>
<rscale>  1 0.12881742E+03</rscale>
<asrwt>0</asrwt>
<pdfrwt beam="1">  1       21 0.10945519E-02 0.12881742E+03</pdfrwt>
<pdfrwt beam="2">  1        1 0.19743064E+00 0.12881742E+03</pdfrwt>
<totfact> 0.36432653E+05</totfact>
</mgrwt>
</event>
<event>
 6    2  0.1181843E-002  0.1282865E+03  0.7546771E-02  0.1230021E+00
          1   -1    0    0  503    0 -0.00000000000E+00  0.00000000000E+00  0.76861520217E+03  0.76861520217E+03  0.00000000000E+00 0.  1.
         21   -1    0    0  502  503  0.00000000000E+00 -0.00000000000E+00 -0.12699159233E+02  0.12699159233E+02  0.00000000000E+00 0. -1.
         25    2    1    2    0    0  0.19458956816E+02 -0.21306111340E+02  0.32455128083E+03  0.34898559834E+03  0.12499925033E+03 0.  0.
          5    1    3    3  501    0 -0.14223062023E+02  0.65995907224E+01  0.29673650791E+03  0.29715049254E+03  0.10000000000E+00 0.  1.
         -5    1    3    3    0  501  0.33682018839E+02 -0.27905702062E+02  0.27814772914E+02  0.51835105796E+02  0.10000000000E+00 0.  1.
          1    1    1    2  502    0 -0.19458956816E+02  0.21306111340E+02  0.43136476211E+03  0.43232876306E+03  0.00000000000E+00 0.  1.
<mgrwt>
<rscale>  1 0.12828645E+03</rscale>
<asrwt>0</asrwt>
<pdfrwt beam="1">  1       21 0.19537174E-02 0.12828645E+03</pdfrwt>
<pdfrwt beam="2">  1        1 0.11824846E+00 0.12828645E+03</pdfrwt>
<totfact> 0.34413734E+05</totfact>
</mgrwt>
</event>
<event>
 6    2  0.1181843E-002  0.1272113E+03  0.7546771E-02  0.1231653E+00
          1   -1    0    0  503    0 -0.00000000000E+00  0.00000000000E+00  0.12253592931E+02  0.12253592931E+02  0.00000000000E+00 0.  1.
         21   -1    0    0  502  503  0.00000000000E+00 -0.00000000000E+00 -0.46731790273E+03  0.46731790273E+03  0.00000000000E+00 0.  1.
         25    2    1    2    0    0  0.19972084610E+02  0.12583520333E+02 -0.39733650102E+03  0.41720380327E+03  0.12500195708E+03 0.  0.
          5    1    3    3  501    0  0.33036843857E+02  0.40230130321E+02 -0.64137515764E+02  0.82604644943E+02  0.10000000000E+00 0. -1.
         -5    1    3    3    0  501 -0.13064759247E+02 -0.27646609989E+02 -0.33319898526E+03  0.33459915833E+03  0.10000000000E+00 0. -1.
          1    1    1    2  502    0 -0.19972084610E+02 -0.12583520333E+02 -0.57727808773E+02  0.62367692385E+02  0.00000000000E+00 0.  1.
<mgrwt>
<rscale>  1 0.12721131E+03</rscale>
<asrwt>0</asrwt>
<pdfrwt beam="1">  1       21 0.71895070E-01 0.12721131E+03</pdfrwt>
<pdfrwt beam="2">  1        1 0.18851679E-02 0.12721131E+03</pdfrwt>
<totfact> 0.11747389E+05</totfact>
</mgrwt>
</event>
<event>
 6    2  0.1181843E-002  0.1559303E+03  0.7546771E-02  0.1193370E+00
          2   -1    0    0  503    0 -0.00000000000E+00  0.00000000000E+00  0.21944075025E+04  0.21944075025E+04  0.00000000000E+00 0.  1.
         21   -1    0    0  502  503  0.00000000000E+00 -0.00000000000E+00 -0.70862244361E+01  0.70862244361E+01  0.00000000000E+00 0.  1.
         25    2    1    2    0    0 -0.22288590626E+02  0.90515599435E+02  0.14160873314E+04  0.14246464732E+04  0.12499755473E+03 0.  0.
          5    1    3    3  501    0  0.18058892856E+02 -0.12231488847E+02  0.56165875517E+02  0.60252373424E+02  0.10000000000E+00 0. -1.
         -5    1    3    3    0  501 -0.40347483482E+02  0.10274708828E+03  0.13599214558E+04  0.13643940998E+04  0.10000000000E+00 0. -1.
          2    1    1    2  502    0  0.22288590626E+02 -0.90515599435E+02  0.77123394666E+03  0.77684725364E+03  0.00000000000E+00 0.  1.
<mgrwt>
<rscale>  1 0.15593025E+03</rscale>
<asrwt>0</asrwt>
<pdfrwt beam="1">  1       21 0.10901901E-02 0.15593025E+03</pdfrwt>
<pdfrwt beam="2">  1        2 0.33760061E+00 0.15593025E+03</pdfrwt>
<totfact> 0.25004954E+05</totfact>
</mgrwt>
</event>
<event>
 6    2  0.1181843E-002  0.1427308E+03  0.7546771E-02  0.1209701E+00
          3   -1    0    0  503    0 -0.00000000000E+00  0.00000000000E+00  0.37839287967E+03  0.37839287967E+03  0.00000000000E+00 0. -1.
         21   -1    0    0  502  503  0.00000000000E+00 -0.00000000000E+00 -0.14104558472E+04  0.14104558472E+04  0.00000000000E+00 0.  1.
         25    2    1    2    0    0  0.65512274880E+02  0.21457596464E+02 -0.14036667074E+04  0.14109047812E+04  0.12497915655E+03 0.  0.
          5    1    3    3  501    0 -0.12867432815E+02  0.52313996049E+02 -0.38336778877E+03  0.38713459737E+03  0.10000000000E+00 0. -1.
         -5    1    3    3    0  501  0.78379707695E+02 -0.30856399586E+02 -0.10202989187E+04  0.10237701839E+04  0.10000000000E+00 0. -1.
          3    1    1    2  502    0 -0.65512274880E+02 -0.21457596464E+02  0.37160373985E+03  0.37794394568E+03  0.00000000000E+00 0. -1.
<mgrwt>
<rscale>  1 0.14273078E+03</rscale>
<asrwt>0</asrwt>
<pdfrwt beam="1">  1       21 0.21699321E+00 0.14273078E+03</pdfrwt>
<pdfrwt beam="2">  1        3 0.58214289E-01 0.14273078E+03</pdfrwt>
<totfact> 0.15908722E+01</totfact>
</mgrwt>
</event>
<event>
 6    2  0.1181843E-002  0.1442022E+03  0.7546771E-02  0.1207784E+00
         21   -1    0    0  502  503  0.00000000000E+00  0.00000000000E+00  0.47507862236E+02  0.47507862236E+02  0.00000000000E+00 0. -1.
          2   -1    0    0  503    0 -0.00000000000E+00 -0.00000000000E+00 -0.61072662592E+03  0.61072662592E+03  0.00000000000E+00 0. -1.
         25    2    1    2    0    0 -0.20525101103E+02 -0.68834146649E+02 -0.70874504177E+02  0.16067817035E+03  0.12503943204E+03 0.  0.
          5    1    3    3  501    0 -0.21294981154E+02 -0.70152669602E+01  0.32941629772E+02  0.39847850192E+02  0.10000000000E+00 0.  1.
         -5    1    3    3    0  501  0.76988005155E+00 -0.61818879689E+02 -0.10381613395E+03  0.12083032016E+03  0.10000000000E+00 0.  1.
          2    1    1    2  502    0  0.20525101103E+02  0.68834146649E+02 -0.49234425950E+03  0.49755631780E+03  0.00000000000E+00 0. -1.
<mgrwt>
<rscale>  1 0.14420222E+03</rscale>
<asrwt>0</asrwt>
<pdfrwt beam="1">  1       21 0.73089022E-02 0.14420222E+03</pdfrwt>
<pdfrwt beam="2">  1        2 0.93957939E-01 0.14420222E+03</pdfrwt>
<totfact> 0.86992728E+04</totfact>
</mgrwt>
</event>
<event>
 6    2  0.1181843E-002  0.1311954E+03  0.7546771E-02  0.1225693E+00
         21   -1    0    0  502  503  0.00000000000E+00  0.00000000000E+00  0.50959530316E+03  0.50959530316E+03  0.00000000000E+00 0. -1.
          4   -1    0    0  503    0 -0.00000000000E+00 -0.00000000000E+00 -0.38605850221E+02  0.38605850221E+02  0.00000000000E+00 0. -1.
         25    2    1    2    0    0 -0.30660568703E+02  0.25461493032E+02  0.48766100176E+03  0.50500047468E+03  0.12499547470E+03 0.  0.
          5    1    3    3  501    0 -0.45982179118E+02  0.70094529828E+02  0.29932726674E+03  0.31084469840E+03  0.10000000000E+00 0. -1.
         -5    1    3    3    0  501  0.15321610415E+02 -0.44633036796E+02  0.18833373502E+03  0.19415577628E+03  0.10000000000E+00 0. -1.
          4    1    1    2  502    0  0.30660568703E+02 -0.25461493032E+02 -0.16671548813E+02  0.43200678703E+02  0.00000000000E+00 0. -1.
<mgrwt>
<rscale>  1 0.13119538E+03</rscale>
<asrwt>0</asrwt>
<pdfrwt beam="1">  1       21 0.78399273E-01 0.13119538E+03</pdfrwt>
<pdfrwt beam="2">  1        4 0.59393619E-02 0.13119538E+03</pdfrwt>
<totfact> 0.10701896E+04</totfact>
</mgrwt>
</event>
<event>
 6    2  0.1181843E-002  0.1262076E+03  0.7546771E-02  0.1233194E+00
         21   -1    0    0  502  503  0.00000000000E+00  0.00000000000E+00  0.11111744946E+02  0.11111744946E+02  0.00000000000E+00 0.  1.
          1   -1    0    0  503    0 -0.00000000000E+00 -0.00000000000E+00 -0.11537079140E+04  0.11537079140E+04  0.00000000000E+00 0.  1.
         25    2    1    2    0    0  0.17280863084E+02  0.22791319958E+01 -0.35047057408E+03  0.37250231035E+03  0.12499810098E+03 0.  0.
          5    1    3    3  501    0  0.54721707870E+01 -0.55496015516E+02 -0.24875478476E+03  0.25492882405E+03  0.10000000000E+00 0.  1.
         -5    1    3    3    0  501  0.11808692297E+02  0.57775147511E+02 -0.10171578932E+03  0.11757348630E+03  0.10000000000E+00 0.  1.
          1    1    1    2  502    0 -0.17280863084E+02 -0.22791319958E+01 -0.79212559501E+03  0.79231734863E+03  0.00000000000E+00 0.  1.
<mgrwt>
<rscale>  1 0.12620756E+03</rscale>
<asrwt>0</asrwt>
<pdfrwt beam="1">  1       21 0.17094988E-02 0.12620756E+03</pdfrwt>
<pdfrwt beam="2">  1        1 0.17749356E+00 0.12620756E+03</pdfrwt>
<totfact> 0.21931119E+05</totfact>
</mgrwt>
</event>
<event>
 6    2  0.1181843E-002  0.1325300E+03  0.7546771E-02  0.1223749E+00
          2   -1    0    0  503    0 -0.00000000000E+00  0.00000000000E+00  0.93105542128E+03  0.93105542128E+03  0.00000000000E+00 0. -1.
         21   -1    0    0  502  503  0.00000000000E+00 -0.00000000000E+00 -0.91649613927E+01  0.91649613927E+01  0.00000000000E+00 0. -1.
         25    2    1    2    0    0  0.31649930627E+02  0.30644549357E+02  0.55060169130E+03  0.56632714096E+03  0.12499360632E+03 0.  0.
          5    1    3    3  501    0  0.49269433424E+02  0.41051885853E+02  0.53900319110E+03  0.54280492299E+03  0.10000000000E+00 0.  1.
         -5    1    3    3    0  501 -0.17619502797E+02 -0.10407336496E+02  0.11598500196E+02  0.23522217977E+02  0.10000000000E+00 0.  1.
          2    1    1    2  502    0 -0.31649930627E+02 -0.30644549357E+02  0.37128876859E+03  0.37389324171E+03  0.00000000000E+00 0. -1.
<mgrwt>
<rscale>  1 0.13253003E+03</rscale>
<asrwt>0</asrwt>
<pdfrwt beam="1">  1       21 0.14099948E-02 0.13253003E+03</pdfrwt>
<pdfrwt beam="2">  1        2 0.14323922E+00 0.13253003E+03</pdfrwt>
<totfact> 0.78262293E+05</totfact>
</mgrwt>
</event>
<event>
 6    2  0.1181843E-002  0.2033967E+03  0.7546771E-02  0.1146904E+00
          1   -1    0    0  503    0 -0.00000000000E+00  0.00000000000E+00  0.69369889406E+03  0.69369889406E+03  0.00000000000E+00 0.  1.
         21   -1    0    0  502  503  0.00000000000E+00 -0.00000000000E+00 -0.51325186588E+02  0.51325186588E+02  0.00000000000E+00 0.  1.
         25    2    1    2    0    0  0.16043038921E+03 -0.26082144303E+01  0.25820431206E+03  0.32869387884E+03  0.12500194662E+03 0.  0.
          5    1    3    3  501    0 -0.62371232551E+01 -0.32169800552E+02  0.28980365351E+02  0.43745506626E+02  0.10000000000E+00 0.  1.
         -5    1    3    3    0  501  0.16666751246E+03  0.29561586122E+02  0.22922394671E+03  0.28494837222E+03  0.10000000000E+00 0.  1.
          1    1    1    2  502    0 -0.16043038921E+03  0.26082144303E+01  0.38416939541E+03  0.41633020180E+03  0.00000000000E+00 0.  1.
<mgrwt>
<rscale>  1 0.20339665E+03</rscale>
<asrwt>0</asrwt>
<pdfrwt beam="1">  1       21 0.78961831E-02 0.20339665E+03</pdfrwt>
<pdfrwt beam="2">  1        1 0.10672290E+00 0.20339665E+03</pdfrwt>
<totfact> 0.39012043E+04</totfact>
</mgrwt>
</event>
<event>
 6    2  0.1181843E-002  0.1265128E+03  0.7546771E-02  0.1232724E+00
         21   -1    0    0  502  503  0.00000000000E+00  0.00000000000E+00  0.18623285987E+03  0.18623285987E+03  0.00000000000E+00 0.  1.
          2   -1    0    0  503    0 -0.00000000000E+00 -0.00000000000E+00 -0.14620547003E+04  0.14620547003E+04  0.00000000000E+00 0. -1.
         25    2    1    2    0    0 -0.17246110081E+02 -0.89396473088E+01  0.16467396864E+03  0.20766077937E+03  0.12501255031E+03 0.  0.
          5    1    3    3  501    0  0.25478425089E+02 -0.33751247729E+02  0.75563949342E+01  0.42958188657E+02  0.10000000000E+00 0. -1.
         -5    1    3    3    0  501 -0.42724535170E+02  0.24811600420E+02  0.15711757370E+03  0.16470259071E+03  0.10000000000E+00 0. -1.
          2    1    1    2  502    0  0.17246110081E+02  0.89396473088E+01 -0.14404958091E+04  0.14406267808E+04  0.00000000000E+00 0. -1.
<mgrwt>
<rscale>  1 0.12651278E+03</rscale>
<asrwt>0</asrwt>
<pdfrwt beam="1">  1       21 0.28651208E-01 0.12651278E+03</pdfrwt>
<pdfrwt beam="2">  1        2 0.22493150E+00 0.12651278E+03</pdfrwt>
<totfact> 0.22356672E+03</totfact>
</mgrwt>
</event>
<event>
 6    2  0.1181843E-002  0.1282473E+03  0.7546771E-02  0.1230080E+00
         21   -1    0    0  502  503  0.00000000000E+00  0.00000000000E+00  0.87183784956E+01  0.87183784956E+01  0.00000000000E+00 0.  1.
          1   -1    0    0  503    0 -0.00000000000E+00 -0.00000000000E+00 -0.20978008611E+04  0.20978008611E+04  0.00000000000E+00 0. -1.
         25    2    1    2    0    0  0.16037467836E+02 -0.23774621374E+02 -0.47000856963E+03  0.48719136400E+03  0.12499974655E+03 0.  0.
          5    1    3    3  501    0  0.52956166265E+02  0.21608459270E+02 -0.33792879271E+03  0.34273482461E+03  0.10000000000E+00 0. -1.
         -5    1    3    3    0  501 -0.36918698430E+02 -0.45383080644E+02 -0.13207977692E+03  0.14445653939E+03  0.10000000000E+00 0. -1.
          1    1    1    2  502    0 -0.16037467836E+02  0.23774621374E+02 -0.16190739130E+04  0.16193278756E+04  0.00000000000E+00 0. -1.
<mgrwt>
<rscale>  1 0.12824730E+03</rscale>
<asrwt>0</asrwt>
<pdfrwt beam="1">  1       21 0.13412877E-02 0.12824730E+03</pdfrwt>
<pdfrwt beam="2">  1        1 0.32273891E+00 0.12824730E+03</pdfrwt>
<totfact> 0.79136252E+04</totfact>
</mgrwt>
</event>
<event>
 6    2  0.1181843E-002  0.1321348E+03  0.7546771E-02  0.1224322E+00
         21   -1    0    0  502  503  0.00000000000E+00  0.00000000000E+00  0.35767849376E+03  0.35767849376E+03  0.00000000000E+00 0. -1.
          2   -1    0    0  503    0 -0.00000000000E+00 -0.00000000000E+00 -0.96767313696E+02  0.96767313696E+02  0.00000000000E+00 0.  1.
         25    2    1    2    0    0  0.34005698866E+01 -0.42692941271E+02  0.33985201641E+03  0.36463541411E+03  0.12500136422E+03 0.  0.
          5    1    3    3  501    0  0.25347077972E+02  0.37343369485E+02  0.80009163578E+02  0.91861188010E+02  0.10000000000E+00 0.  1.
         -5    1    3    3    0  501 -0.21946508085E+02 -0.80036310757E+02  0.25984285284E+03  0.27277422610E+03  0.10000000000E+00 0.  1.
          2    1    1    2  502    0 -0.34005698866E+01  0.42692941271E+02 -0.78940836346E+02  0.89810393346E+02  0.00000000000E+00 0.  1.
<mgrwt>
<rscale>  1 0.13213475E+03</rscale>
<asrwt>0</asrwt>
<pdfrwt beam="1">  1       21 0.55027460E-01 0.13213475E+03</pdfrwt>
<pdfrwt beam="2">  1        2 0.14887279E-01 0.13213475E+03</pdfrwt>
<totfact> 0.15030252E+04</totfact>
</mgrwt>
</event>
<event>
 6    2  0.1181843E-002  0.1561631E+03  0.7546771E-02  0.1193098E+00
          1   -1    0    0  503    0 -0.00000000000E+00  0.00000000000E+00  0.11198836518E+04  0.11198836518E+04  0.00000000000E+00 0.  1.
         21   -1    0    0  502  503  0.00000000000E+00 -0.00000000000E+00 -0.21550403229E+03  0.21550403229E+03  0.00000000000E+00 0. -1.
         25    2    1    2    0    0  0.93014275590E+02 -0.10505136538E+02 -0.18494032290E+03  0.24205335723E+03  0.12499956542E+03 0.  0.
          5    1    3    3  501    0 -0.26515353201E+02  0.19418503732E+02 -0.35855811660E+02  0.48639402467E+02  0.10000000000E+00 0.  1.
         -5    1    3    3    0  501  0.11952962879E+03 -0.29923640269E+02 -0.14908451124E+03  0.19341395477E+03  0.10000000000E+00 0.  1.
          1    1    1    2  502    0 -0.93014275590E+02  0.10505136538E+02  0.10893199424E+04  0.10933343269E+04  0.00000000000E+00 0.  1.
<mgrwt>
<rscale>  1 0.15616307E+03</rscale>
<asrwt>0</asrwt>
<pdfrwt beam="1">  1       21 0.33154467E-01 0.15616307E+03</pdfrwt>
<pdfrwt beam="2">  1        1 0.17228979E+00 0.15616307E+03</pdfrwt>
<totfact> 0.13178507E+03</totfact>
</mgrwt>
</event>
<event>
 6    2  0.1181843E-002  0.2148457E+03  0.7546771E-02  0.1137785E+00
          2   -1    0    0  503    0 -0.00000000000E+00  0.00000000000E+00  0.37077215966E+04  0.37077215966E+04  0.00000000000E+00 0.  1.
         21   -1    0    0  502  503  0.00000000000E+00 -0.00000000000E+00 -0.22277511155E+02  0.22277511155E+02  0.00000000000E+00 0.  1.
         25    2    1    2    0    0  0.15793401652E+03  0.74778416218E+02  0.56193422371E+03  0.60160513936E+03  0.12499482720E+03 0.  0.
          5    1    3    3  501    0 -0.18283246754E+02  0.15874338959E+02  0.32597451614E+02  0.40606349269E+02  0.10000000000E+00 0.  1.
         -5    1    3    3    0  501  0.17621726328E+03  0.58904077259E+02  0.52933677209E+03  0.56099879009E+03  0.10000000000E+00 0.  1.
          2    1    1    2  502    0 -0.15793401652E+03 -0.74778416218E+02  0.31235098618E+04  0.31283939684E+04  0.00000000000E+00 0.  1.
<mgrwt>
<rscale>  1 0.21484569E+03</rscale>
<asrwt>0</asrwt>
<pdfrwt beam="1">  1       21 0.34273124E-02 0.21484569E+03</pdfrwt>
<pdfrwt beam="2">  1        2 0.57041822E+00 0.21484569E+03</pdfrwt>
<totfact> 0.48853185E+03</totfact>
</mgrwt>
</event>
<event>
 6    2  0.1181843E-002  0.1281953E+03  0.7546771E-02  0.1230158E+00
          1   -1    0    0  503    0 -0.00000000000E+00  0.00000000000E+00  0.62149824064E+03  0.62149824064E+03  0.00000000000E+00 0.  1.
         21   -1    0    0  502  503  0.00000000000E+00 -0.00000000000E+00 -0.24238626573E+02  0.24238626573E+02  0.00000000000E+00 0. -1.
         25    2    1    2    0    0  0.33961564255E+01 -0.28207863626E+02  0.14891748848E+03  0.19649541874E+03  0.12500725484E+03 0.  0.
          5    1    3    3  501    0  0.16732681069E+02 -0.27246177536E+02  0.16920397260E+03  0.17219852249E+03  0.10000000000E+00 0.  1.
         -5    1    3    3    0  501 -0.13336524644E+02 -0.96168609014E+00 -0.20286484114E+02  0.24296896251E+02  0.10000000000E+00 0.  1.
          1    1    1    2  502    0 -0.33961564255E+01  0.28207863626E+02  0.44834212559E+03  0.44924144847E+03  0.00000000000E+00 0.  1.
<mgrwt>
<rscale>  1 0.12819529E+03</rscale>
<asrwt>0</asrwt>
<pdfrwt beam="1">  1       21 0.37290199E-02 0.12819529E+03</pdfrwt>
<pdfrwt beam="2">  1        1 0.95615102E-01 0.12819529E+03</pdfrwt>
<totfact> 0.16197582E+05</totfact>
</mgrwt>
</event>
<event>
 6    2  0.1181843E-002  0.1484774E+03  0.7546771E-02  0.1202357E+00
          1   -1    0    0  503    0 -0.00000000000E+00  0.00000000000E+00  0.35854994893E+03  0.35854994893E+03  0.00000000000E+00 0. -1.
         21   -1    0    0  502  503  0.00000000000E+00 -0.00000000000E+00 -0.11095197343E+03  0.11095197343E+03  0.00000000000E+00 0.  1.
         25    2    1    2    0    0  0.70348375495E+02  0.38360390342E+02 -0.53578634502E+02  0.15784864724E+03  0.12500044751E+03 0.  0.
          5    1    3    3  501    0  0.14085423690E+02 -0.32002413003E+02 -0.57916759394E+02  0.67652898069E+02  0.10000000000E+00 0. -1.
         -5    1    3    3    0  501  0.56262951805E+02  0.70362803345E+02  0.43381248914E+01  0.90195749168E+02  0.10000000000E+00 0. -1.
          1    1    1    2  502    0 -0.70348375495E+02 -0.38360390342E+02  0.30117661000E+03  0.31165327512E+03  0.00000000000E+00 0. -1.
<mgrwt>
<rscale>  1 0.14847736E+03</rscale>
<asrwt>0</asrwt>
<pdfrwt beam="1">  1       21 0.17069535E-01 0.14847736E+03</pdfrwt>
<pdfrwt beam="2">  1        1 0.55161530E-01 0.14847736E+03</pdfrwt>
<totfact> 0.23789485E+04</totfact>
</mgrwt>
</event>
<event>
 6    2  0.1181843E-002  0.1262102E+03  0.7546771E-02  0.1233190E+00
          3   -1    0    0  503    0 -0.00000000000E+00  0.00000000000E+00  0.83064139616E+01  0.83064139616E+01  0.00000000000E+00 0. -1.
         21   -1    0    0  502  503  0.00000000000E+00 -0.00000000000E+00 -0.11116598378E+04  0.11116598378E+04  0.00000000000E+00 0. -1.
         25    2    1    2    0    0 -0.16191441993E+02  0.65607317526E+01 -0.10916880344E+04  0.10989594122E+04  0.12499527715E+03 0.  0.
          5    1    3    3  501    0 -0.11262954565E+02  0.51892613437E+02 -0.91307001122E+03  0.91461278849E+03  0.10000000000E+00 0.  1.
         -5    1    3    3    0  501 -0.49284874279E+01 -0.45331881684E+02 -0.17861802319E+03  0.18434662376E+03  0.10000000000E+00 0.  1.
          3    1    1    2  502    0  0.16191441993E+02 -0.65607317526E+01 -0.11665389390E+02  0.21006839471E+02  0.00000000000E+00 0. -1.
<mgrwt>
<rscale>  1 0.12621024E+03</rscale>
<asrwt>0</asrwt>
<pdfrwt beam="1">  1       21 0.17102440E+00 0.12621024E+03</pdfrwt>
<pdfrwt beam="2">  1        3 0.12779113E-02 0.12621024E+03</pdfrwt>
<totfact> 0.19305019E+04</totfact>
</mgrwt>
</event>
<event>
 6    2  0.1181843E-002  0.1293618E+03  0.7546771E-02  0.1228406E+00
         21   -1    0    0  502  503  0.00000000000E+00  0.00000000000E+00  0.18050785158E+02  0.18050785158E+02  0.00000000000E+00 0. -1.
          2   -1    0    0  503    0 -0.00000000000E+00 -0.00000000000E+00 -0.86954874057E+03  0.86954874057E+03  0.00000000000E+00 0. -1.
         25    2    1    2    0    0  0.28049611598E+02 -0.17926683841E+02 -0.21992534839E+03  0.25515023555E+03  0.12500534842E+03 0.  0.
          5    1    3    3  501    0 -0.87274102881E+01  0.39540000367E+02 -0.22620212069E+02  0.46381713136E+02  0.10000000000E+00 0.  1.
         -5    1    3    3    0  501  0.36777021886E+02 -0.57466684208E+02 -0.19730513632E+03  0.20876852241E+03  0.10000000000E+00 0.  1.
          2    1    1    2  502    0 -0.28049611598E+02  0.17926683841E+02 -0.63157260703E+03  0.63244929018E+03  0.00000000000E+00 0. -1.
<mgrwt>
<rscale>  1 0.12936183E+03</rscale>
<asrwt>0</asrwt>
<pdfrwt beam="1">  1       21 0.27770439E-02 0.12936183E+03</pdfrwt>
<pdfrwt beam="2">  1        2 0.13377673E+00 0.12936183E+03</pdfrwt>
<totfact> 0.28619836E+05</totfact>
</mgrwt>
</event>
<event>
 6    2  0.1181843E-002  0.1266940E+03  0.7546771E-02  0.1232445E+00
         21   -1    0    0  502  503  0.00000000000E+00  0.00000000000E+00  0.52790332251E+02  0.52790332251E+02  0.00000000000E+00 0. -1.
          2   -1    0    0  503    0 -0.00000000000E+00 -0.00000000000E+00 -0.87057500716E+03  0.87057500716E+03  0.00000000000E+00 0.  1.
         25    2    1    2    0    0  0.95633722052E+01  0.18344864148E+02 -0.23553580903E+02  0.12886485306E+03  0.12499354804E+03 0.  0.
          5    1    3    3  501    0  0.31865315346E+02  0.28969641016E+02 -0.66554718446E+02  0.79272813563E+02  0.10000000000E+00 0. -1.
         -5    1    3    3    0  501 -0.22301943141E+02 -0.10624776868E+02  0.43001137543E+02  0.49592039496E+02  0.10000000000E+00 0. -1.
          2    1    1    2  502    0 -0.95633722052E+01 -0.18344864148E+02 -0.79423109401E+03  0.79450048635E+03  0.00000000000E+00 0.  1.
<mgrwt>
<rscale>  1 0.12669404E+03</rscale>
<asrwt>0</asrwt>
<pdfrwt beam="1">  1       21 0.81215904E-02 0.12669404E+03</pdfrwt>
<pdfrwt beam="2">  1        2 0.13393460E+00 0.12669404E+03</pdfrwt>
<totfact> 0.47258367E+04</totfact>
</mgrwt>
</event>
<event>
 6    2  0.1181843E-002  0.1332227E+03  0.7546771E-02  0.1222751E+00
         21   -1    0    0  502  503  0.00000000000E+00  0.00000000000E+00  0.47093401397E+02  0.47093401397E+02  0.00000000000E+00 0. -1.
          2   -1    0    0  503    0 -0.00000000000E+00 -0.00000000000E+00 -0.46986800128E+03  0.46986800128E+03  0.00000000000E+00 0.  1.
         25    2    1    2    0    0 -0.95339420158E+01  0.45099201397E+02 -0.51490832801E+02  0.14282710899E+03  0.12499377257E+03 0.  0.
          5    1    3    3  501    0 -0.52277354404E+02  0.61576587693E+02 -0.53646682247E+02  0.96966872959E+02  0.10000000000E+00 0.  1.
         -5    1    3    3    0  501  0.42743412388E+02 -0.16477386296E+02  0.21558494455E+01  0.45860236028E+02  0.10000000000E+00 0.  1.
          2    1    1    2  502    0  0.95339420158E+01 -0.45099201397E+02 -0.37128376708E+03  0.37413429369E+03  0.00000000000E+00 0.  1.
<mgrwt>
<rscale>  1 0.13322266E+03</rscale>
<asrwt>0</asrwt>
<pdfrwt beam="1">  1       21 0.72451387E-02 0.13322266E+03</pdfrwt>
<pdfrwt beam="2">  1        2 0.72287384E-01 0.13322266E+03</pdfrwt>
<totfact> 0.11804301E+05</totfact>
</mgrwt>
</event>
<event>
 6    2  0.1181843E-002  0.1273642E+03  0.7546771E-02  0.1231420E+00
          2   -1    0    0  503    0 -0.00000000000E+00  0.00000000000E+00  0.29906565991E+03  0.29906565991E+03  0.00000000000E+00 0. -1.
         21   -1    0    0  502  503  0.00000000000E+00 -0.00000000000E+00 -0.23800999490E+03  0.23800999490E+03  0.00000000000E+00 0. -1.
         25    2    1    2    0    0 -0.94156357951E+01 -0.22509669506E+02 -0.22040550939E+03  0.25455887281E+03  0.12500516685E+03 0.  0.
          5    1    3    3  501    0  0.50825238053E+02 -0.29173310506E+02 -0.15337959510E+03  0.16419377900E+03  0.10000000000E+00 0. -1.
         -5    1    3    3    0  501 -0.60240873848E+02  0.66636410004E+01 -0.67025914286E+02  0.90365093809E+02  0.10000000000E+00 0. -1.
          2    1    1    2  502    0  0.94156357951E+01  0.22509669506E+02  0.28146117440E+03  0.28251678200E+03  0.00000000000E+00 0. -1.
<mgrwt>
<rscale>  1 0.12736417E+03</rscale>
<asrwt>0</asrwt>
<pdfrwt beam="1">  1       21 0.36616922E-01 0.12736417E+03</pdfrwt>
<pdfrwt beam="2">  1        2 0.46010101E-01 0.12736417E+03</pdfrwt>
<totfact> 0.99279870E+03</totfact>
</mgrwt>
</event>
<event>
 6    2  0.1181843E-002  0.1424824E+03  0.7546771E-02  0.1210027E+00
          1   -1    0    0  503    0 -0.00000000000E+00  0.00000000000E+00  0.39985293231E+03  0.39985293231E+03  0.00000000000E+00 0.  1.
         21   -1    0    0  502  503  0.00000000000E+00 -0.00000000000E+00 -0.44085924097E+02  0.44085924097E+02  0.00000000000E+00 0.  1.
         25    2    1    2    0    0  0.23267139736E+02 -0.64309656822E+02  0.87754075356E+02  0.16733801778E+03  0.12499657075E+03 0.  0.
          5    1    3    3  501    0  0.55710092114E+02  0.49854577216E+01  0.74637888228E+01  0.56428603524E+02  0.10000000000E+00 0. -1.
         -5    1    3    3    0  501 -0.32442952378E+02 -0.69295114544E+02  0.80290286533E+02  0.11090941425E+03  0.10000000000E+00 0. -1.
          1    1    1    2  502    0 -0.23267139736E+02  0.64309656822E+02  0.26801293286E+03  0.27660083863E+03  0.00000000000E+00 0.  1.
<mgrwt>
<rscale>  1 0.14248240E+03</rscale>
<asrwt>0</asrwt>
<pdfrwt beam="1">  1       21 0.67824501E-02 0.14248240E+03</pdfrwt>
<pdfrwt beam="2">  1        1 0.61515833E-01 0.14248240E+03</pdfrwt>
<totfact> 0.10577131E+05</totfact>
</mgrwt>
</event>
<event>
 6    2  0.1181843E-002  0.1795014E+03  0.7546771E-02  0.1168287E+00
         21   -1    0    0  502  503  0.00000000000E+00  0.00000000000E+00  0.83609581360E+01  0.83609581360E+01  0.00000000000E+00 0. -1.
          2   -1    0    0  503    0 -0.00000000000E+00 -0.00000000000E+00 -0.33487815930E+04  0.33487815930E+04  0.00000000000E+00 0. -1.
         25    2    1    2    0    0  0.80364618124E+02 -0.10067367627E+03 -0.12580380234E+04  0.12707794472E+04  0.12500829638E+03 0.  0.
          5    1    3    3  501    0 -0.10954189386E+02 -0.36323507090E+02 -0.73333294496E+03  0.73431369972E+03  0.10000000000E+00 0.  1.
         -5    1    3    3    0  501  0.91318807510E+02 -0.64350169184E+02 -0.52470507849E+03  0.53646574752E+03  0.10000000000E+00 0.  1.
          2    1    1    2  502    0 -0.80364618124E+02  0.10067367627E+03 -0.20823826114E+04  0.20863631039E+04  0.00000000000E+00 0. -1.
<mgrwt>
<rscale>  1 0.17950135E+03</rscale>
<asrwt>0</asrwt>
<pdfrwt beam="1">  1       21 0.12863009E-02 0.17950135E+03</pdfrwt>
<pdfrwt beam="2">  1        2 0.51519731E+00 0.17950135E+03</pdfrwt>
<totfact> 0.42565673E+04</totfact>
</mgrwt>
</event>
<event>
 6    2  0.1181843E-002  0.1517482E+03  0.7546771E-02  0.1198341E+00
         21   -1    0    0  502  503  0.00000000000E+00  0.00000000000E+00  0.22215869258E+02  0.22215869258E+02  0.00000000000E+00 0.  1.
          2   -1    0    0  503    0 -0.00000000000E+00 -0.00000000000E+00 -0.10565194569E+04  0.10565194569E+04  0.00000000000E+00 0.  1.
         25    2    1    2    0    0  0.73510349947E+02  0.44704779118E+02 -0.27096390033E+03  0.31056232022E+03  0.12500092253E+03 0.  0.
          5    1    3    3  501    0  0.36257765595E+02  0.74388866322E+02 -0.85143641128E+02  0.11873406682E+03  0.10000000000E+00 0.  1.
         -5    1    3    3    0  501  0.37252584351E+02 -0.29684087203E+02 -0.18582025920E+03  0.19182825340E+03  0.10000000000E+00 0.  1.
          2    1    1    2  502    0 -0.73510349947E+02 -0.44704779118E+02 -0.76333968735E+03  0.76817300598E+03  0.00000000000E+00 0.  1.
<mgrwt>
<rscale>  1 0.15174821E+03</rscale>
<asrwt>0</asrwt>
<pdfrwt beam="1">  1       21 0.34178261E-02 0.15174821E+03</pdfrwt>
<pdfrwt beam="2">  1        2 0.16254145E+00 0.15174821E+03</pdfrwt>
<totfact> 0.15706546E+05</totfact>
</mgrwt>
</event>
<event>
 6    2  0.1181843E-002  0.1266183E+03  0.7546771E-02  0.1232562E+00
         21   -1    0    0  502  503  0.00000000000E+00  0.00000000000E+00  0.71605986348E+02  0.71605986348E+02  0.00000000000E+00 0. -1.
          1   -1    0    0  503    0 -0.00000000000E+00 -0.00000000000E+00 -0.58413820454E+03  0.58413820454E+03  0.00000000000E+00 0. -1.
         25    2    1    2    0    0 -0.18377447010E+02 -0.87154355856E+01  0.15282945874E+02  0.12753728371E+03  0.12497400100E+03 0.  0.
          5    1    3    3  501    0 -0.66952417659E+02 -0.28227935804E+02 -0.11562924600E+01  0.72669041568E+02  0.10000000000E+00 0.  1.
         -5    1    3    3    0  501  0.48574970649E+02  0.19512500219E+02  0.16439238334E+02  0.54868242139E+02  0.10000000000E+00 0.  1.
          1    1    1    2  502    0  0.18377447010E+02  0.87154355856E+01 -0.52781516407E+03  0.52820690718E+03  0.00000000000E+00 0. -1.
<mgrwt>
<rscale>  1 0.12661829E+03</rscale>
<asrwt>0</asrwt>
<pdfrwt beam="1">  1       21 0.11016305E-01 0.12661829E+03</pdfrwt>
<pdfrwt beam="2">  1        1 0.89867417E-01 0.12661829E+03</pdfrwt>
<totfact> 0.27832410E+04</totfact>
</mgrwt>
</event>
<event>
 6    2  0.1181843E-002  0.1382620E+03  0.7546771E-02  0.1215687E+00
         21   -1    0    0  502  503  0.00000000000E+00  0.00000000000E+00  0.80373404260E+01  0.80373404260E+01  0.00000000000E+00 0.  1.
          2   -1    0    0  503    0 -0.00000000000E+00 -0.00000000000E+00 -0.12382573166E+04  0.12382573166E+04  0.00000000000E+00 0.  1.
         25    2    1    2    0    0  0.57190110253E+02  0.14763929475E+02 -0.94119273143E+03  0.95129392731E+03  0.12501078405E+03 0.  0.
          5    1    3    3  501    0  0.82558458489E+02 -0.15398437318E+02 -0.80909866033E+03  0.81344555017E+03  0.10000000000E+00 0.  1.
         -5    1    3    3    0  501 -0.25368348236E+02  0.30162366793E+02 -0.13209407109E+03  0.13784837714E+03  0.10000000000E+00 0.  1.
          2    1    1    2  502    0 -0.57190110253E+02 -0.14763929475E+02 -0.28902724471E+03  0.29500072968E+03  0.00000000000E+00 0.  1.
<mgrwt>
<rscale>  1 0.13826199E+03</rscale>
<asrwt>0</asrwt>
<pdfrwt beam="1">  1       21 0.12365135E-02 0.13826199E+03</pdfrwt>
<pdfrwt beam="2">  1        2 0.19050119E+00 0.13826199E+03</pdfrwt>
<totfact> 0.64215064E+05</totfact>
</mgrwt>
</event>
<event>
 6    2  0.1181843E-002  0.1260384E+03  0.7546771E-02  0.1233455E+00
         21   -1    0    0  502  503  0.00000000000E+00  0.00000000000E+00  0.11981763330E+03  0.11981763330E+03  0.00000000000E+00 0.  1.
          1   -1    0    0  503    0 -0.00000000000E+00 -0.00000000000E+00 -0.43315901656E+02  0.43315901656E+02  0.00000000000E+00 0.  1.
         25    2    1    2    0    0  0.14185413331E+02 -0.77963261821E+01  0.75487593430E+02  0.14691511550E+03  0.12499466287E+03 0.  0.
          5    1    3    3  501    0 -0.16653045963E+02 -0.20215868238E+02 -0.27927315592E+02  0.38287729427E+02  0.10000000000E+00 0. -1.
         -5    1    3    3    0  501  0.30838459295E+02  0.12419542056E+02  0.10341490902E+03  0.10862738607E+03  0.10000000000E+00 0. -1.
          1    1    1    2  502    0 -0.14185413331E+02  0.77963261821E+01  0.10141382099E+01  0.16218419455E+02  0.00000000000E+00 0.  1.
<mgrwt>
<rscale>  1 0.12603838E+03</rscale>
<asrwt>0</asrwt>
<pdfrwt beam="1">  1       21 0.18433482E-01 0.12603838E+03</pdfrwt>
<pdfrwt beam="2">  1        1 0.66639849E-02 0.12603838E+03</pdfrwt>
<totfact> 0.30862666E+05</totfact>
</mgrwt>
</event>
<event>
 6    2  0.1181843E-002  0.1327917E+03  0.7546771E-02  0.1223371E+00
          1   -1    0    0  503    0 -0.00000000000E+00  0.00000000000E+00  0.52631189189E+03  0.52631189189E+03  0.00000000000E+00 0.  1.
         21   -1    0    0  502  503  0.00000000000E+00 -0.00000000000E+00 -0.15561255503E+02  0.15561255503E+02  0.00000000000E+00 0.  1.
         25    2    1    2    0    0  0.44095627350E+02  0.79612507953E+01  0.33152039947E+03  0.35712660834E+03  0.12500333298E+03 0.  0.
          5    1    3    3  501    0  0.71406504232E+02  0.26607253183E+02  0.11410569497E+03  0.13721134936E+03  0.10000000000E+00 0. -1.
         -5    1    3    3    0  501 -0.27310876882E+02 -0.18646002388E+02  0.21741470449E+03  0.21991525898E+03  0.10000000000E+00 0. -1.
          1    1    1    2  502    0 -0.44095627350E+02 -0.79612507953E+01  0.17923023692E+03  0.18474653905E+03  0.00000000000E+00 0.  1.
<mgrwt>
<rscale>  1 0.13279171E+03</rscale>
<asrwt>0</asrwt>
<pdfrwt beam="1">  1       21 0.23940397E-02 0.13279171E+03</pdfrwt>
<pdfrwt beam="2">  1        1 0.80971047E-01 0.13279171E+03</pdfrwt>
<totfact> 0.41962612E+05</totfact>
</mgrwt>
</event>
<event>
 6    2  0.1181843E-002  0.1564848E+03  0.7546771E-02  0.1192724E+00
         21   -1    0    0  502  503  0.00000000000E+00  0.00000000000E+00  0.31694300692E+03  0.31694300692E+03  0.00000000000E+00 0.  1.
          2   -1    0    0  503    0 -0.00000000000E+00 -0.00000000000E+00 -0.67981512097E+02  0.67981512097E+02  0.00000000000E+00 0.  1.
         25    2    1    2    0    0 -0.93956800380E+01 -0.93670258963E+02  0.24498825043E+03  0.29070040910E+03  0.12500035515E+03 0.  0.
          5    1    3    3  501    0  0.13967298280E+02  0.24318076698E+02  0.91484421821E+02  0.95686277550E+02  0.10000000000E+00 0.  1.
         -5    1    3    3    0  501 -0.23362978318E+02 -0.11798833566E+03  0.15350382861E+03  0.19501413155E+03  0.10000000000E+00 0.  1.
          2    1    1    2  502    0  0.93956800380E+01  0.93670258963E+02  0.39732443910E+01  0.94224109911E+02  0.00000000000E+00 0.  1.
<mgrwt>
<rscale>  1 0.15648478E+03</rscale>
<asrwt>0</asrwt>
<pdfrwt beam="1">  1       21 0.48760462E-01 0.15648478E+03</pdfrwt>
<pdfrwt beam="2">  1        2 0.10458694E-01 0.15648478E+03</pdfrwt>
<totfact> 0.29479183E+04</totfact>
</mgrwt>
</event>
<event>
 6    2  0.1181843E-002  0.1293305E+03  0.7546771E-02  0.1228453E+00
          3   -1    0    0  503    0 -0.00000000000E+00  0.00000000000E+00  0.20478701576E+03  0.20478701576E+03  0.00000000000E+00 0. -1.
         21   -1    0    0  502  503  0.00000000000E+00 -0.00000000000E+00 -0.64332346461E+02  0.64332346461E+02  0.00000000000E+00 0. -1.
         25    2    1    2    0    0 -0.19591250803E+02  0.26835547029E+02  0.47621310671E+01  0.12941815026E+03  0.12498966370E+03 0.  0.
          5    1    3    3  501    0  0.48134910507E+02  0.28254409476E+02 -0.16867258982E+02  0.58307766977E+02  0.10000000000E+00 0. -1.
         -5    1    3    3    0  501 -0.67726161310E+02 -0.14188624466E+01  0.21629390049E+02  0.71110383280E+02  0.10000000000E+00 0. -1.
          3    1    1    2  502    0  0.19591250803E+02 -0.26835547029E+02  0.13569253823E+03  0.13970121196E+03  0.00000000000E+00 0. -1.
<mgrwt>
<rscale>  1 0.12933051E+03</rscale>
<asrwt>0</asrwt>
<pdfrwt beam="1">  1       21 0.98972841E-02 0.12933051E+03</pdfrwt>
<pdfrwt beam="2">  1        3 0.31505695E-01 0.12933051E+03</pdfrwt>
<totfact> 0.38656957E+04</totfact>
</mgrwt>
</event>
<event>
 6    2  0.1181843E-002  0.1311257E+03  0.7546771E-02  0.1225795E+00
          1   -1    0    0  503    0 -0.00000000000E+00  0.00000000000E+00  0.23414759554E+03  0.23414759554E+03  0.00000000000E+00 0.  1.
         21   -1    0    0  502  503  0.00000000000E+00 -0.00000000000E+00 -0.39213365992E+03  0.39213365992E+03  0.00000000000E+00 0. -1.
         25    2    1    2    0    0  0.81153389179E+01 -0.38766880170E+02 -0.37936492525E+03  0.40138721428E+03  0.12500087820E+03 0.  0.
          5    1    3    3  501    0  0.44969352275E+02  0.28477633605E+02 -0.12923996118E+03  0.13977194219E+03  0.10000000000E+00 0. -1.
         -5    1    3    3    0  501 -0.36854013357E+02 -0.67244513776E+02 -0.25012496407E+03  0.26161527208E+03  0.10000000000E+00 0. -1.
          1    1    1    2  502    0 -0.81153389179E+01  0.38766880170E+02  0.22137886087E+03  0.22489404119E+03  0.00000000000E+00 0.  1.
<mgrwt>
<rscale>  1 0.13112570E+03</rscale>
<asrwt>0</asrwt>
<pdfrwt beam="1">  1       21 0.60328255E-01 0.13112570E+03</pdfrwt>
<pdfrwt beam="2">  1        1 0.36022707E-01 0.13112570E+03</pdfrwt>
<totfact> 0.34203943E+03</totfact>
</mgrwt>
</event>
<event>
 6    2  0.1181843E-002  0.1276818E+03  0.7546771E-02  0.1230937E+00
          1   -1    0    0  503    0 -0.00000000000E+00  0.00000000000E+00  0.16605086445E+04  0.16605086445E+04  0.00000000000E+00 0.  1.
         21   -1    0    0  502  503  0.00000000000E+00 -0.00000000000E+00 -0.36275100930E+01  0.36275100930E+01  0.00000000000E+00 0.  1.
         25    2    1    2    0    0  0.25607581284E+02 -0.45708191666E+01  0.12777018359E+04  0.12840656598E+04  0.12500398622E+03 0.  0.
          5    1    3    3  501    0 -0.61391705413E+00  0.36896172822E+02  0.10704485483E+04  0.10710844080E+04  0.10000000000E+00 0. -1.
         -5    1    3    3    0  501  0.26221498338E+02 -0.41466991989E+02  0.20725328766E+03  0.21298125187E+03  0.10000000000E+00 0. -1.
          1    1    1    2  502    0 -0.25607581284E+02  0.45708191666E+01  0.37917929851E+03  0.38007049481E+03  0.00000000000E+00 0.  1.
<mgrwt>
<rscale>  1 0.12768178E+03</rscale>
<asrwt>0</asrwt>
<pdfrwt beam="1">  1       21 0.55807980E-03 0.12768178E+03</pdfrwt>
<pdfrwt beam="2">  1        1 0.25546226E+00 0.12768178E+03</pdfrwt>
<totfact> 0.59364303E+05</totfact>
</mgrwt>
</event>
<event>
 6    2  0.1181843E-002  0.1280897E+03  0.7546771E-02  0.1230318E+00
          1   -1    0    0  503    0 -0.00000000000E+00  0.00000000000E+00  0.55931683270E+03  0.55931683270E+03  0.00000000000E+00 0.  1.
         21   -1    0    0  502  503  0.00000000000E+00 -0.00000000000E+00 -0.18113624773E+02  0.18113624773E+02  0.00000000000E+00 0.  1.
         25    2    1    2    0    0 -0.26369044852E+02 -0.92911338647E+01  0.21670494595E+03  0.25173002192E+03  0.12500127456E+03 0.  0.
          5    1    3    3  501    0  0.27865619824E+02  0.23897479516E+02  0.14003230730E+02  0.39289728509E+02  0.10000000000E+00 0. -1.
         -5    1    3    3    0  501 -0.54234664677E+02 -0.33188613380E+02  0.20270171522E+03  0.21244029341E+03  0.10000000000E+00 0. -1.
          1    1    1    2  502    0  0.26369044852E+02  0.92911338647E+01  0.32449826198E+03  0.32570043556E+03  0.00000000000E+00 0.  1.
<mgrwt>
<rscale>  1 0.12808970E+03</rscale>
<asrwt>0</asrwt>
<pdfrwt beam="1">  1       21 0.27867119E-02 0.12808970E+03</pdfrwt>
<pdfrwt beam="2">  1        1 0.86048731E-01 0.12808970E+03</pdfrwt>
<totfact> 0.30159724E+05</totfact>
</mgrwt>
</event>
<event>
 6    2  0.1181843E-002  0.1470653E+03  0.7546771E-02  0.1204126E+00
          1   -1    0    0  503    0 -0.00000000000E+00  0.00000000000E+00  0.11962715498E+04  0.11962715498E+04  0.00000000000E+00 0.  1.
         21   -1    0    0  502  503  0.00000000000E+00 -0.00000000000E+00 -0.97624768076E+02  0.97624768076E+02  0.00000000000E+00 0. -1.
         25    2    1    2    0    0  0.55564917441E+02  0.54001493074E+02 -0.40165225539E+02  0.15245144002E+03  0.12499829965E+03 0.  0.
          5    1    3    3  501    0 -0.20269297353E+00  0.55683518806E+02 -0.69788943087E+02  0.89281587845E+02  0.10000000000E+00 0. -1.
         -5    1    3    3    0  501  0.55767610414E+02 -0.16820257322E+01  0.29623717547E+02  0.63169852170E+02  0.10000000000E+00 0. -1.
          1    1    1    2  502    0 -0.55564917441E+02 -0.54001493074E+02  0.11388120073E+04  0.11414448779E+04  0.00000000000E+00 0.  1.
<mgrwt>
<rscale>  1 0.14706528E+03</rscale>
<asrwt>0</asrwt>
<pdfrwt beam="1">  1       21 0.15019196E-01 0.14706528E+03</pdfrwt>
<pdfrwt beam="2">  1        1 0.18404177E+00 0.14706528E+03</pdfrwt>
<totfact> 0.51898887E+03</totfact>
</mgrwt>
</event>
<event>
 6    2  0.1181843E-002  0.1745669E+03  0.7546771E-02  0.1173167E+00
         21   -1    0    0  502  503  0.00000000000E+00  0.00000000000E+00  0.13669385145E+02  0.13669385145E+02  0.00000000000E+00 0. -1.
          1   -1    0    0  503    0 -0.00000000000E+00 -0.00000000000E+00 -0.21177186601E+04  0.21177186601E+04  0.00000000000E+00 0. -1.
         25    2    1    2    0    0  0.51274283603E+02  0.11053909677E+03 -0.67693956289E+03  0.69908567690E+03  0.12500267107E+03 0.  0.
          5    1    3    3  501    0  0.48028671560E+02  0.13137980389E+02 -0.44113161476E+03  0.44393295818E+03  0.10000000000E+00 0. -1.
         -5    1    3    3    0  501  0.32456120433E+01  0.97401116385E+02 -0.23580794813E+03  0.25515271872E+03  0.10000000000E+00 0. -1.
          1    1    1    2  502    0 -0.51274283603E+02 -0.11053909677E+03 -0.14271097121E+04  0.14323023684E+04  0.00000000000E+00 0. -1.
<mgrwt>
<rscale>  1 0.17456693E+03</rscale>
<asrwt>0</asrwt>
<pdfrwt beam="1">  1       21 0.21029837E-02 0.17456693E+03</pdfrwt>
<pdfrwt beam="2">  1        1 0.32580265E+00 0.17456693E+03</pdfrwt>
<totfact> 0.36953000E+04</totfact>
</mgrwt>
</event>
<event>
 6    2  0.1181843E-002  0.1275806E+03  0.7546771E-02  0.1231090E+00
         21   -1    0    0  502  503  0.00000000000E+00  0.00000000000E+00  0.32223667945E+03  0.32223667945E+03  0.00000000000E+00 0. -1.
          2   -1    0    0  503    0 -0.00000000000E+00 -0.00000000000E+00 -0.75000732497E+03  0.75000732497E+03  0.00000000000E+00 0.  1.
         25    2    1    2    0    0 -0.20016189883E+02 -0.15883954911E+02  0.30937862766E+03  0.33465197706E+03  0.12499545038E+03 0.  0.
          5    1    3    3  501    0 -0.71720481497E+02  0.22393314586E+01  0.19619018400E+03  0.20890055138E+03  0.10000000000E+00 0. -1.
         -5    1    3    3    0  501  0.51704291614E+02 -0.18123286369E+02  0.11318844367E+03  0.12575142568E+03  0.10000000000E+00 0. -1.
          2    1    1    2  502    0  0.20016189883E+02  0.15883954911E+02 -0.73714927318E+03  0.73759202736E+03  0.00000000000E+00 0.  1.
<mgrwt>
<rscale>  1 0.12758060E+03</rscale>
<asrwt>0</asrwt>
<pdfrwt beam="1">  1       21 0.49574875E-01 0.12758060E+03</pdfrwt>
<pdfrwt beam="2">  1        2 0.11538574E+00 0.12758060E+03</pdfrwt>
<totfact> 0.19562969E+03</totfact>
</mgrwt>
</event>
<event>
 6    2  0.1181843E-002  0.1339905E+03  0.7546771E-02  0.1221652E+00
         21   -1    0    0  502  503  0.00000000000E+00  0.00000000000E+00  0.15284876231E+03  0.15284876231E+03  0.00000000000E+00 0.  1.
          2   -1    0    0  503    0 -0.00000000000E+00 -0.00000000000E+00 -0.54499157534E+02  0.54499157534E+02  0.00000000000E+00 0.  1.
         25    2    1    2    0    0  0.45182004546E+02 -0.16934123534E+02  0.67012100951E+02  0.14981343261E+03  0.12500105937E+03 0.  0.
          5    1    3    3  501    0  0.51330758035E+02 -0.72053622489E+01 -0.24674437609E+02  0.57407332605E+02  0.10000000000E+00 0.  1.
         -5    1    3    3    0  501 -0.61487534886E+01 -0.97287612852E+01  0.91686538560E+02  0.92406100008E+02  0.10000000000E+00 0.  1.
          2    1    1    2  502    0 -0.45182004546E+02  0.16934123534E+02  0.31337503822E+02  0.57534487227E+02  0.00000000000E+00 0.  1.
<mgrwt>
<rscale>  1 0.13399046E+03</rscale>
<asrwt>0</asrwt>
<pdfrwt beam="1">  1       21 0.23515194E-01 0.13399046E+03</pdfrwt>
<pdfrwt beam="2">  1        2 0.83844858E-02 0.13399046E+03</pdfrwt>
<totfact> 0.16190376E+05</totfact>
</mgrwt>
</event>
<event>
 6    2  0.1181843E-002  0.1269072E+03  0.7546771E-02  0.1232118E+00
         21   -1    0    0  502  503  0.00000000000E+00  0.00000000000E+00  0.28760621509E+02  0.28760621509E+02  0.00000000000E+00 0. -1.
          2   -1    0    0  503    0 -0.00000000000E+00 -0.00000000000E+00 -0.14309014507E+04  0.14309014507E+04  0.00000000000E+00 0. -1.
         25    2    1    2    0    0  0.19780688920E+02 -0.94136303579E+01 -0.11178191384E+03  0.16911721730E+03  0.12500217933E+03 0.  0.
          5    1    3    3  501    0  0.46817823490E+02  0.32149071192E+02 -0.12514847688E+02  0.58155849125E+02  0.10000000000E+00 0.  1.
         -5    1    3    3    0  501 -0.27037134570E+02 -0.41562701550E+02 -0.99267066148E+02  0.11096136818E+03  0.10000000000E+00 0.  1.
          2    1    1    2  502    0 -0.19780688920E+02  0.94136303579E+01 -0.12903589153E+04  0.12905448549E+04  0.00000000000E+00 0. -1.
<mgrwt>
<rscale>  1 0.12690720E+03</rscale>
<asrwt>0</asrwt>
<pdfrwt beam="1">  1       21 0.44247111E-02 0.12690720E+03</pdfrwt>
<pdfrwt beam="2">  1        2 0.22013868E+00 0.12690720E+03</pdfrwt>
<totfact> 0.63641750E+04</totfact>
</mgrwt>
</event>
<event>
 6    2  0.1181843E-002  0.1261201E+03  0.7546771E-02  0.1233329E+00
          1   -1    0    0  503    0 -0.00000000000E+00  0.00000000000E+00  0.49964087967E+03  0.49964087967E+03  0.00000000000E+00 0.  1.
         21   -1    0    0  502  503  0.00000000000E+00 -0.00000000000E+00 -0.21898549641E+02  0.21898549641E+02  0.00000000000E+00 0. -1.
         25    2    1    2    0    0 -0.16201253685E+02 -0.43286333796E+01  0.16177719752E+03  0.20512959594E+03  0.12500028723E+03 0.  0.
          5    1    3    3  501    0 -0.56011957198E+02 -0.34618515255E+01  0.22823123109E+02  0.60582412576E+02  0.10000000000E+00 0. -1.
         -5    1    3    3    0  501  0.39810703512E+02 -0.86678185417E+00  0.13895407441E+03  0.14454718337E+03  0.10000000000E+00 0. -1.
          1    1    1    2  502    0  0.16201253685E+02  0.43286333796E+01  0.31596513252E+03  0.31640983337E+03  0.00000000000E+00 0.  1.
<mgrwt>
<rscale>  1 0.12612014E+03</rscale>
<asrwt>0</asrwt>
<pdfrwt beam="1">  1       21 0.33690080E-02 0.12612014E+03</pdfrwt>
<pdfrwt beam="2">  1        1 0.76867819E-01 0.12612014E+03</pdfrwt>
<totfact> 0.25605780E+05</totfact>
</mgrwt>
</event>
<event>
 6    2  0.1181843E-002  0.1283432E+03  0.7546771E-02  0.1229935E+00
         21   -1    0    0  502  503  0.00000000000E+00  0.00000000000E+00  0.43677617951E+01  0.43677617951E+01  0.00000000000E+00 0.  1.
          1   -1    0    0  503    0 -0.00000000000E+00 -0.00000000000E+00 -0.17548102046E+04  0.17548102046E+04  0.00000000000E+00 0.  1.
         25    2    1    2    0    0 -0.19364379005E+02  0.21749392145E+02 -0.10043062385E+04  0.10124737072E+04  0.12499588783E+03 0.  0.
          5    1    3    3  501    0  0.38861503176E+02 -0.85730622235E+01 -0.13636506762E+03  0.14205335439E+03  0.10000000000E+00 0.  1.
         -5    1    3    3    0  501 -0.58225882181E+02  0.30322454369E+02 -0.86794117085E+03  0.87042035285E+03  0.10000000000E+00 0.  1.
          1    1    1    2  502    0  0.19364379005E+02 -0.21749392145E+02 -0.74613620433E+03  0.74670425916E+03  0.00000000000E+00 0.  1.
<mgrwt>
<rscale>  1 0.12834324E+03</rscale>
<asrwt>0</asrwt>
<pdfrwt beam="1">  1       21 0.67196191E-03 0.12834324E+03</pdfrwt>
<pdfrwt beam="2">  1        1 0.26997138E+00 0.12834324E+03</pdfrwt>
<totfact> 0.38753432E+05</totfact>
</mgrwt>
</event>
<event>
 6    2  0.1181843E-002  0.1385144E+03  0.7546771E-02  0.1215342E+00
          1   -1    0    0  503    0 -0.00000000000E+00  0.00000000000E+00  0.32388751207E+03  0.32388751207E+03  0.00000000000E+00 0.  1.
         21   -1    0    0  502  503  0.00000000000E+00 -0.00000000000E+00 -0.61911753148E+02  0.61911753148E+02  0.00000000000E+00 0.  1.
         25    2    1    2    0    0 -0.56974649016E+02 -0.17801311679E+02  0.24158462816E+02  0.14060533451E+03  0.12499292556E+03 0.  0.
          5    1    3    3  501    0  0.28573449519E+02 -0.32691727859E+02 -0.14191632645E+02  0.45679355566E+02  0.10000000000E+00 0.  1.
         -5    1    3    3    0  501 -0.85548098535E+02  0.14890416179E+02  0.38350095461E+02  0.94925978946E+02  0.10000000000E+00 0.  1.
          1    1    1    2  502    0  0.56974649016E+02  0.17801311679E+02  0.23781729610E+03  0.24519393070E+03  0.00000000000E+00 0.  1.
<mgrwt>
<rscale>  1 0.13851436E+03</rscale>
<asrwt>0</asrwt>
<pdfrwt beam="1">  1       21 0.95248853E-02 0.13851436E+03</pdfrwt>
<pdfrwt beam="2">  1        1 0.49828847E-01 0.13851436E+03</pdfrwt>
<totfact> 0.76496315E+04</totfact>
</mgrwt>
</event>
<event>
 6    2  0.1181843E-002  0.2223393E+03  0.7546771E-02  0.1132151E+00
         21   -1    0    0  502  503  0.00000000000E+00  0.00000000000E+00  0.12838153699E+03  0.12838153699E+03  0.00000000000E+00 0.  1.
          2   -1    0    0  503    0 -0.00000000000E+00 -0.00000000000E+00 -0.58569596376E+03  0.58569596376E+03  0.00000000000E+00 0. -1.
         25    2    1    2    0    0 -0.28862217854E+02  0.18158536618E+03 -0.12478604539E+01  0.22234283069E+03  0.12501401670E+03 0.  0.
          5    1    3    3  501    0 -0.51502653341E+02  0.18667070056E+03  0.14674794920E+02  0.19420049782E+03  0.10000000000E+00 0. -1.
         -5    1    3    3    0  501  0.22640435487E+02 -0.50853343818E+01 -0.15922655374E+02  0.28142332863E+02  0.10000000000E+00 0. -1.
          2    1    1    2  502    0  0.28862217854E+02 -0.18158536618E+03 -0.45606656632E+03  0.49173467006E+03  0.00000000000E+00 0. -1.
<mgrwt>
<rscale>  1 0.22233933E+03</rscale>
<asrwt>0</asrwt>
<pdfrwt beam="1">  1       21 0.19751006E-01 0.22233933E+03</pdfrwt>
<pdfrwt beam="2">  1        2 0.90107069E-01 0.22233933E+03</pdfrwt>
<totfact> 0.15316341E+04</totfact>
</mgrwt>
</event>
<event>
 6    2  0.1181843E-002  0.1295906E+03  0.7546771E-02  0.1228064E+00
          2   -1    0    0  503    0 -0.00000000000E+00  0.00000000000E+00  0.60404735764E+03  0.60404735764E+03  0.00000000000E+00 0. -1.
         21   -1    0    0  502  503  0.00000000000E+00 -0.00000000000E+00 -0.72414662433E+02  0.72414662433E+02  0.00000000000E+00 0. -1.
         25    2    1    2    0    0 -0.17717309679E+02 -0.29217523803E+02 -0.13470582965E+02  0.13028883267E+03  0.12500462613E+03 0.  0.
          5    1    3    3  501    0  0.10832330230E+02 -0.11823034596E+02 -0.66056854840E+02  0.67975301372E+02  0.10000000000E+00 0. -1.
         -5    1    3    3    0  501 -0.28549639909E+02 -0.17394489207E+02  0.52586271875E+02  0.62313531303E+02  0.10000000000E+00 0. -1.
          2    1    1    2  502    0  0.17717309679E+02  0.29217523803E+02  0.54510327818E+03  0.54617318740E+03  0.00000000000E+00 0. -1.
<mgrwt>
<rscale>  1 0.12959060E+03</rscale>
<asrwt>0</asrwt>
<pdfrwt beam="1">  1       21 0.11140718E-01 0.12959060E+03</pdfrwt>
<pdfrwt beam="2">  1        2 0.92930359E-01 0.12959060E+03</pdfrwt>
<totfact> 0.42264731E+04</totfact>
</mgrwt>
</event>
<event>
 6    2  0.1181843E-002  0.1273316E+03  0.7546771E-02  0.1231470E+00
          2   -1    0    0  503    0 -0.00000000000E+00  0.00000000000E+00  0.28980784040E+04  0.28980784040E+04  0.00000000000E+00 0.  1.
         21   -1    0    0  502  503  0.00000000000E+00 -0.00000000000E+00 -0.19900802329E+01  0.19900802329E+01  0.00000000000E+00 0.  1.
         25    2    1    2    0    0  0.13123229096E+02 -0.20294950363E+02  0.25049995698E+04  0.25082336751E+04  0.12501687951E+03 0.  0.
          5    1    3    3  501    0  0.56296561774E+02 -0.30681020553E+02  0.20658742673E+04  0.20668689185E+04  0.10000000000E+00 0.  1.
         -5    1    3    3    0  501 -0.43173332677E+02  0.10386070190E+02  0.43912530250E+03  0.44136475664E+03  0.10000000000E+00 0.  1.
          2    1    1    2  502    0 -0.13123229096E+02  0.20294950363E+02  0.39108875398E+03  0.39183480913E+03  0.00000000000E+00 0.  1.
<mgrwt>
<rscale>  1 0.12733155E+03</rscale>
<asrwt>0</asrwt>
<pdfrwt beam="1">  1       21 0.30616851E-03 0.12733155E+03</pdfrwt>
<pdfrwt beam="2">  1        2 0.44585484E+00 0.12733155E+03</pdfrwt>
<totfact> 0.75041464E+05</totfact>
</mgrwt>
</event>
<event>
 6    2  0.1181843E-002  0.1401910E+03  0.7546771E-02  0.1213072E+00
          2   -1    0    0  503    0 -0.00000000000E+00  0.00000000000E+00  0.12737021752E+03  0.12737021752E+03  0.00000000000E+00 0. -1.
         21   -1    0    0  502  503  0.00000000000E+00 -0.00000000000E+00 -0.20886372686E+03  0.20886372686E+03  0.00000000000E+00 0. -1.
         25    2    1    2    0    0  0.62416018325E+02  0.11393276172E+02 -0.17438071955E+03  0.22374572319E+03  0.12501178829E+03 0.  0.
          5    1    3    3  501    0  0.46015780121E+01 -0.47801420644E+02 -0.10611754765E+03  0.11647787024E+03  0.10000000000E+00 0. -1.
         -5    1    3    3    0  501  0.57814440312E+02  0.59194696816E+02 -0.68263171893E+02  0.10726785295E+03  0.10000000000E+00 0. -1.
          2    1    1    2  502    0 -0.62416018325E+02 -0.11393276172E+02  0.92887210209E+02  0.11248822119E+03  0.00000000000E+00 0. -1.
<mgrwt>
<rscale>  1 0.14019099E+03</rscale>
<asrwt>0</asrwt>
<pdfrwt beam="1">  1       21 0.32132881E-01 0.14019099E+03</pdfrwt>
<pdfrwt beam="2">  1        2 0.19595418E-01 0.14019099E+03</pdfrwt>
<totfact> 0.32406019E+04</totfact>
</mgrwt>
</event>
<event>
 6    2  0.1181843E-002  0.1683611E+03  0.7546771E-02  0.1179568E+00
          2   -1    0    0  503    0 -0.00000000000E+00  0.00000000000E+00  0.97055559222E+03  0.97055559222E+03  0.00000000000E+00 0.  1.
         21   -1    0    0  502  503  0.00000000000E+00 -0.00000000000E+00 -0.21544228555E+02  0.21544228555E+02  0.00000000000E+00 0.  1.
         25    2    1    2    0    0  0.10004861701E+03  0.52075148643E+02  0.44905855647E+03  0.47958215640E+03  0.12499564284E+03 0.  0.
          5    1    3    3  501    0 -0.27898937878E+02 -0.11937728414E+01  0.10521927083E+03  0.10886175078E+03  0.10000000000E+00 0.  1.
         -5    1    3    3    0  501  0.12794755489E+03  0.53268921485E+02  0.34383928564E+03  0.37072040562E+03  0.10000000000E+00 0.  1.
          2    1    1    2  502    0 -0.10004861701E+03 -0.52075148643E+02  0.49995280720E+03  0.51251766437E+03  0.00000000000E+00 0.  1.
<mgrwt>
<rscale>  1 0.16836109E+03</rscale>
<asrwt>0</asrwt>
<pdfrwt beam="1">  1       21 0.33144975E-02 0.16836109E+03</pdfrwt>
<pdfrwt beam="2">  1        2 0.14931621E+00 0.16836109E+03</pdfrwt>
<totfact> 0.18632240E+05</totfact>
</mgrwt>
</event>
<event>
 6    2  0.1181843E-002  0.1300332E+03  0.7546771E-02  0.1227407E+00
          4   -1    0    0  503    0 -0.00000000000E+00  0.00000000000E+00  0.10551363280E+03  0.10551363280E+03  0.00000000000E+00 0.  1.
         21   -1    0    0  502  503  0.00000000000E+00 -0.00000000000E+00 -0.89219101584E+02  0.89219101584E+02  0.00000000000E+00 0.  1.
         25    2    1    2    0    0 -0.12121470167E+02  0.33714478658E+02  0.55712648600E+02  0.14146563302E+03  0.12500012000E+03 0.  0.
          5    1    3    3  501    0  0.30502647184E+01 -0.36339386555E+02 -0.16225012937E+02  0.39913859433E+02  0.10000000000E+00 0.  1.
         -5    1    3    3    0  501 -0.15171734886E+02  0.70053865213E+02  0.71937661537E+02  0.10155177358E+03  0.10000000000E+00 0.  1.
          4    1    1    2  502    0  0.12121470167E+02 -0.33714478658E+02 -0.39418117382E+02  0.53267101368E+02  0.00000000000E+00 0.  1.
<mgrwt>
<rscale>  1 0.13003317E+03</rscale>
<asrwt>0</asrwt>
<pdfrwt beam="1">  1       21 0.13726016E-01 0.13003317E+03</pdfrwt>
<pdfrwt beam="2">  1        4 0.16232867E-01 0.13003317E+03</pdfrwt>
<totfact> 0.60783825E+04</totfact>
</mgrwt>
</event>
<event>
 6    2  0.1181843E-002  0.1273697E+03  0.7546771E-02  0.1231412E+00
          2   -1    0    0  503    0 -0.00000000000E+00  0.00000000000E+00  0.49914041670E+03  0.49914041670E+03  0.00000000000E+00 0.  1.
         21   -1    0    0  502  503  0.00000000000E+00 -0.00000000000E+00 -0.32160237350E+02  0.32160237350E+02  0.00000000000E+00 0.  1.
         25    2    1    2    0    0  0.24108166962E+02 -0.42286205290E+01  0.95955310157E+02  0.15946932333E+03  0.12499583429E+03 0.  0.
          5    1    3    3  501    0  0.36775399161E+02 -0.59595081701E+02  0.45619330488E+02  0.83577132403E+02  0.10000000000E+00 0.  1.
         -5    1    3    3    0  501 -0.12667232200E+02  0.55366461172E+02  0.50335979669E+02  0.75892190927E+02  0.10000000000E+00 0.  1.
          2    1    1    2  502    0 -0.24108166962E+02  0.42286205290E+01  0.37102486920E+03  0.37183133072E+03  0.00000000000E+00 0.  1.
<mgrwt>
<rscale>  1 0.12736971E+03</rscale>
<asrwt>0</asrwt>
<pdfrwt beam="1">  1       21 0.49477292E-02 0.12736971E+03</pdfrwt>
<pdfrwt beam="2">  1        2 0.76790827E-01 0.12736971E+03</pdfrwt>
<totfact> 0.21067795E+05</totfact>
</mgrwt>
</event>
<event>
 6    2  0.1181843E-002  0.1261775E+03  0.7546771E-02  0.1233240E+00
          2   -1    0    0  503    0 -0.00000000000E+00  0.00000000000E+00  0.12705560709E+04  0.12705560709E+04  0.00000000000E+00 0. -1.
         21   -1    0    0  502  503  0.00000000000E+00 -0.00000000000E+00 -0.72376322547E+02  0.72376322547E+02  0.00000000000E+00 0. -1.
         25    2    1    2    0    0 -0.85640276116E+01  0.14881013003E+02 -0.17276581226E+02  0.12735480389E+03  0.12500391473E+03 0.  0.
          5    1    3    3  501    0  0.28762356747E+02  0.56950146015E+02  0.10448301573E+02  0.64651135354E+02  0.10000000000E+00 0. -1.
         -5    1    3    3    0  501 -0.37326384359E+02 -0.42069133012E+02 -0.27724882800E+02  0.62703668537E+02  0.10000000000E+00 0. -1.
          2    1    1    2  502    0  0.85640276116E+01 -0.14881013003E+02  0.12154563295E+04  0.12155775895E+04  0.00000000000E+00 0. -1.
<mgrwt>
<rscale>  1 0.12617752E+03</rscale>
<asrwt>0</asrwt>
<pdfrwt beam="1">  1       21 0.11134820E-01 0.12617752E+03</pdfrwt>
<pdfrwt beam="2">  1        2 0.19547015E+00 0.12617752E+03</pdfrwt>
<totfact> 0.15961601E+04</totfact>
</mgrwt>
</event>
<event>
 6    2  0.1181843E-002  0.1325195E+03  0.7546771E-02  0.1223764E+00
          1   -1    0    0  503    0 -0.00000000000E+00  0.00000000000E+00  0.57047037471E+02  0.57047037471E+02  0.00000000000E+00 0.  1.
         21   -1    0    0  502  503  0.00000000000E+00 -0.00000000000E+00 -0.11037929771E+04  0.11037929771E+04  0.00000000000E+00 0. -1.
         25    2    1    2    0    0 -0.41025403871E+02  0.15888908793E+02 -0.10906586586E+04  0.10986799947E+04  0.12500351991E+03 0.  0.
          5    1    3    3  501    0  0.17331623711E+02  0.57938720401E+02 -0.47541800433E+03  0.47924896384E+03  0.10000000000E+00 0. -1.
         -5    1    3    3    0  501 -0.58357027582E+02 -0.42049811608E+02 -0.61524065425E+03  0.61943103084E+03  0.10000000000E+00 0. -1.
          1    1    1    2  502    0  0.41025403871E+02 -0.15888908793E+02  0.43912718958E+02  0.62160019882E+02  0.00000000000E+00 0.  1.
<mgrwt>
<rscale>  1 0.13251951E+03</rscale>
<asrwt>0</asrwt>
<pdfrwt beam="1">  1       21 0.16981429E+00 0.13251951E+03</pdfrwt>
<pdfrwt beam="2">  1        1 0.87764681E-02 0.13251951E+03</pdfrwt>
<totfact> 0.17987819E+03</totfact>
</mgrwt>
</event>
<event>
 6    2  0.1181843E-002  0.1272805E+03  0.7546771E-02  0.1231548E+00
         21   -1    0    0  502  503  0.00000000000E+00  0.00000000000E+00  0.36362669228E+01  0.36362669228E+01  0.00000000000E+00 0.  1.
          1   -1    0    0  503    0 -0.00000000000E+00 -0.00000000000E+00 -0.15954816897E+04  0.15954816897E+04  0.00000000000E+00 0.  1.
         25    2    1    2    0    0  0.19207118834E+02  0.14368770079E+02 -0.12623214796E+04  0.12687221272E+04  0.12499977296E+03 0.  0.
          5    1    3    3  501    0  0.47746758329E+02  0.37451393470E+02 -0.32101009412E+03  0.32669534789E+03  0.10000000000E+00 0. -1.
         -5    1    3    3    0  501 -0.28539639496E+02 -0.23082623391E+02 -0.94131138546E+03  0.94202677930E+03  0.10000000000E+00 0. -1.
          1    1    1    2  502    0 -0.19207118834E+02 -0.14368770079E+02 -0.32952394322E+03  0.33039582946E+03  0.00000000000E+00 0.  1.
<mgrwt>
<rscale>  1 0.12728047E+03</rscale>
<asrwt>0</asrwt>
<pdfrwt beam="1">  1       21 0.55942672E-03 0.12728047E+03</pdfrwt>
<pdfrwt beam="2">  1        1 0.24545826E+00 0.12728047E+03</pdfrwt>
<totfact> 0.65077669E+05</totfact>
</mgrwt>
</event>
<event>
 6    2  0.1181843E-002  0.1668562E+03  0.7546771E-02  0.1181167E+00
          2   -1    0    0  503    0 -0.00000000000E+00  0.00000000000E+00  0.33170531210E+04  0.33170531210E+04  0.00000000000E+00 0.  1.
         21   -1    0    0  502  503  0.00000000000E+00 -0.00000000000E+00 -0.31733590749E+02  0.31733590749E+02  0.00000000000E+00 0.  1.
         25    2    1    2    0    0 -0.64954946899E+01 -0.11031742658E+03  0.19563494056E+03  0.25712647980E+03  0.12501548139E+03 0.  0.
          5    1    3    3  501    0  0.11910338073E+02  0.25077386275E+02  0.51573855022E+02  0.58571357993E+02  0.10000000000E+00 0.  1.
         -5    1    3    3    0  501 -0.18405832763E+02 -0.13539481286E+03  0.14406108554E+03  0.19855512180E+03  0.10000000000E+00 0.  1.
          2    1    1    2  502    0  0.64954946899E+01  0.11031742658E+03  0.30896845897E+04  0.30916602320E+04  0.00000000000E+00 0.  1.
<mgrwt>
<rscale>  1 0.16685622E+03</rscale>
<asrwt>0</asrwt>
<pdfrwt beam="1">  1       21 0.48820935E-02 0.16685622E+03</pdfrwt>
<pdfrwt beam="2">  1        2 0.51031559E+00 0.16685622E+03</pdfrwt>
<totfact> 0.50321858E+03</totfact>
</mgrwt>
</event>
<event>
 6    2  0.1181843E-002  0.1319460E+03  0.7546771E-02  0.1224596E+00
          1   -1    0    0  503    0 -0.00000000000E+00  0.00000000000E+00  0.85856363642E+03  0.85856363642E+03  0.00000000000E+00 0.  1.
         21   -1    0    0  502  503  0.00000000000E+00 -0.00000000000E+00 -0.19533919063E+03  0.19533919063E+03  0.00000000000E+00 0.  1.
         25    2    1    2    0    0  0.37364118021E+02 -0.19955394693E+02 -0.17245996460E+03  0.21714555707E+03  0.12496182807E+03 0.  0.
          5    1    3    3  501    0 -0.63980232689E+01 -0.37988482655E+02 -0.16474454434E+03  0.16918875378E+03  0.10000000000E+00 0. -1.
         -5    1    3    3    0  501  0.43762141290E+02  0.18033087962E+02 -0.77154202526E+01  0.47956803286E+02  0.10000000000E+00 0. -1.
          1    1    1    2  502    0 -0.37364118021E+02  0.19955394693E+02  0.83568441039E+03  0.83675726998E+03  0.00000000000E+00 0.  1.
<mgrwt>
<rscale>  1 0.13194603E+03</rscale>
<asrwt>0</asrwt>
<pdfrwt beam="1">  1       21 0.30052184E-01 0.13194603E+03</pdfrwt>
<pdfrwt beam="2">  1        1 0.13208671E+00 0.13194603E+03</pdfrwt>
<totfact> 0.25272060E+03</totfact>
</mgrwt>
</event>
<event>
 6    2  0.1181843E-002  0.1466820E+03  0.7546771E-02  0.1204610E+00
          2   -1    0    0  503    0 -0.00000000000E+00  0.00000000000E+00  0.70939414433E+03  0.70939414433E+03  0.00000000000E+00 0.  1.
         21   -1    0    0  502  503  0.00000000000E+00 -0.00000000000E+00 -0.18414231063E+02  0.18414231063E+02  0.00000000000E+00 0.  1.
         25    2    1    2    0    0  0.31294632621E+02 -0.70080942173E+02  0.52195567034E+03  0.54217463066E+03  0.12499966338E+03 0.  0.
          5    1    3    3  501    0 -0.31370052124E+02 -0.20520681981E+02  0.44972722752E+02  0.58546856029E+02  0.10000000000E+00 0. -1.
         -5    1    3    3    0  501  0.62664684745E+02 -0.49560260192E+02  0.47698294759E+03  0.48362777463E+03  0.10000000000E+00 0. -1.
          2    1    1    2  502    0 -0.31294632621E+02  0.70080942173E+02  0.16902424293E+03  0.18563374473E+03  0.00000000000E+00 0.  1.
<mgrwt>
<rscale>  1 0.14668200E+03</rscale>
<asrwt>0</asrwt>
<pdfrwt beam="1">  1       21 0.28329592E-02 0.14668200E+03</pdfrwt>
<pdfrwt beam="2">  1        2 0.10913754E+00 0.14668200E+03</pdfrwt>
<totfact> 0.35826813E+05</totfact>
</mgrwt>
</event>
<event>
 6    2  0.1181843E-002  0.1273161E+03  0.7546771E-02  0.1231493E+00
         21   -1    0    0  502  503  0.00000000000E+00  0.00000000000E+00  0.67231186955E+01  0.67231186955E+01  0.00000000000E+00 0. -1.
          2   -1    0    0  503    0 -0.00000000000E+00 -0.00000000000E+00 -0.16273428010E+04  0.16273428010E+04  0.00000000000E+00 0. -1.
         25    2    1    2    0    0  0.23273537326E+02  0.66600136629E+01 -0.60944307160E+03  0.62259958246E+03  0.12499347678E+03 0.  0.
          5    1    3    3  501    0  0.20595437456E+02 -0.48375087512E+02 -0.13354170590E+03  0.14351905222E+03  0.10000000000E+00 0.  1.
         -5    1    3    3    0  501  0.26780998699E+01  0.55035101175E+02 -0.47590136570E+03  0.47908053024E+03  0.10000000000E+00 0.  1.
          2    1    1    2  502    0 -0.23273537326E+02 -0.66600136629E+01 -0.10111766107E+04  0.10114663372E+04  0.00000000000E+00 0. -1.
<mgrwt>
<rscale>  1 0.12731607E+03</rscale>
<asrwt>0</asrwt>
<pdfrwt beam="1">  1       21 0.10343248E-02 0.12731607E+03</pdfrwt>
<pdfrwt beam="2">  1        2 0.25036071E+00 0.12731607E+03</pdfrwt>
<totfact> 0.52965256E+05</totfact>
</mgrwt>
</event>
<event>
 6    2  0.1181843E-002  0.1325045E+03  0.7546771E-02  0.1223786E+00
         21   -1    0    0  502  503  0.00000000000E+00  0.00000000000E+00  0.22150641572E+03  0.22150641572E+03  0.00000000000E+00 0.  1.
          3   -1    0    0  503    0 -0.00000000000E+00 -0.00000000000E+00 -0.37755120456E+03  0.37755120456E+03  0.00000000000E+00 0. -1.
         25    2    1    2    0    0  0.38725228858E+02  0.20891060365E+02  0.20021515077E+03  0.24009073557E+03  0.12498549899E+03 0.  0.
          5    1    3    3  501    0  0.67248056984E+02 -0.30100840531E+02  0.12085177760E+03  0.14153983156E+03  0.10000000000E+00 0.  1.
         -5    1    3    3    0  501 -0.28522828127E+02  0.50991900895E+02  0.79363373171E+02  0.98550904016E+02  0.10000000000E+00 0.  1.
          3    1    1    2  502    0 -0.38725228858E+02 -0.20891060365E+02 -0.35625993961E+03  0.35896688471E+03  0.00000000000E+00 0. -1.
<mgrwt>
<rscale>  1 0.13250455E+03</rscale>
<asrwt>0</asrwt>
<pdfrwt beam="1">  1       21 0.34077910E-01 0.13250455E+03</pdfrwt>
<pdfrwt beam="2">  1        3 0.58084800E-01 0.13250455E+03</pdfrwt>
<totfact> 0.12078381E+03</totfact>
</mgrwt>
</event>
<event>
 6    2  0.1181843E-002  0.1279761E+03  0.7546771E-02  0.1230490E+00
          2   -1    0    0  503    0 -0.00000000000E+00  0.00000000000E+00  0.82269668969E+03  0.82269668969E+03  0.00000000000E+00 0. -1.
         21   -1    0    0  502  503  0.00000000000E+00 -0.00000000000E+00 -0.15831603474E+02  0.15831603474E+02  0.00000000000E+00 0. -1.
         25    2    1    2    0    0 -0.77843189595E+01  0.26326128250E+02  0.24876387157E+03  0.27975228577E+03  0.12499686774E+03 0.  0.
          5    1    3    3  501    0  0.24241218022E+02 -0.43219637831E+02  0.75303639433E+02  0.90145559276E+02  0.10000000000E+00 0.  1.
         -5    1    3    3    0  501 -0.32025536981E+02  0.69545766080E+02  0.17346023213E+03  0.18960672649E+03  0.10000000000E+00 0.  1.
          2    1    1    2  502    0  0.77843189595E+01 -0.26326128250E+02  0.55810121465E+03  0.55877600739E+03  0.00000000000E+00 0. -1.
<mgrwt>
<rscale>  1 0.12797608E+03</rscale>
<asrwt>0</asrwt>
<pdfrwt beam="1">  1       21 0.24356320E-02 0.12797608E+03</pdfrwt>
<pdfrwt beam="2">  1        2 0.12656869E+00 0.12797608E+03</pdfrwt>
<totfact> 0.38005136E+05</totfact>
</mgrwt>
</event>
<event>
 6    2  0.1181843E-002  0.1404272E+03  0.7546771E-02  0.1212755E+00
         21   -1    0    0  502  503  0.00000000000E+00  0.00000000000E+00  0.19122522052E+02  0.19122522052E+02  0.00000000000E+00 0.  1.
          2   -1    0    0  503    0 -0.00000000000E+00 -0.00000000000E+00 -0.85900131669E+03  0.85900131669E+03  0.00000000000E+00 0.  1.
         25    2    1    2    0    0  0.63765017920E+02  0.53860008523E+01 -0.26694997791E+03  0.30163236825E+03  0.12499923341E+03 0.  0.
          5    1    3    3  501    0  0.97163760029E+01  0.17531464125E+02  0.76843589557E+01  0.21466708401E+02  0.10000000000E+00 0. -1.
         -5    1    3    3    0  501  0.54048641917E+02 -0.12145463273E+02 -0.27463433687E+03  0.28016565985E+03  0.10000000000E+00 0. -1.
          2    1    1    2  502    0 -0.63765017920E+02 -0.53860008523E+01 -0.57292881673E+03  0.57649147049E+03  0.00000000000E+00 0.  1.
<mgrwt>
<rscale>  1 0.14042719E+03</rscale>
<asrwt>0</asrwt>
<pdfrwt beam="1">  1       21 0.29419260E-02 0.14042719E+03</pdfrwt>
<pdfrwt beam="2">  1        2 0.13215407E+00 0.14042719E+03</pdfrwt>
<totfact> 0.26532380E+05</totfact>
</mgrwt>
</event>
<event>
 6    2  0.1181843E-002  0.1300807E+03  0.7546771E-02  0.1227336E+00
          2   -1    0    0  503    0 -0.00000000000E+00  0.00000000000E+00  0.12649793891E+03  0.12649793891E+03  0.00000000000E+00 0. -1.
         21   -1    0    0  502  503  0.00000000000E+00 -0.00000000000E+00 -0.42314278420E+03  0.42314278420E+03  0.00000000000E+00 0. -1.
         25    2    1    2    0    0  0.25745986464E+02  0.25166028568E+02  0.92003310913E+02  0.15932857351E+03  0.12499920122E+03 0.  0.
          5    1    3    3  501    0  0.19001352054E+02  0.51523815009E+02  0.11255115987E+03  0.12523389510E+03  0.10000000000E+00 0. -1.
         -5    1    3    3    0  501  0.67446344096E+01 -0.26357786442E+02 -0.20547848956E+02  0.34094678414E+02  0.10000000000E+00 0. -1.
          2    1    1    2  502    0 -0.25745986464E+02 -0.25166028568E+02 -0.38864815620E+03  0.39031214961E+03  0.00000000000E+00 0. -1.
<mgrwt>
<rscale>  1 0.13008069E+03</rscale>
<asrwt>0</asrwt>
<pdfrwt beam="1">  1       21 0.65098891E-01 0.13008069E+03</pdfrwt>
<pdfrwt beam="2">  1        2 0.19461221E-01 0.13008069E+03</pdfrwt>
<totfact> 0.77279274E+03</totfact>
</mgrwt>
</event>
<event>
 6    2  0.1181843E-002  0.1305017E+03  0.7546771E-02  0.1226713E+00
          2   -1    0    0  503    0 -0.00000000000E+00  0.00000000000E+00  0.64694537743E+03  0.64694537743E+03  0.00000000000E+00 0. -1.
         21   -1    0    0  502  503  0.00000000000E+00 -0.00000000000E+00 -0.17318719922E+02  0.17318719922E+02  0.00000000000E+00 0. -1.
         25    2    1    2    0    0 -0.12352449529E+02 -0.35399287535E+02  0.24301453821E+03  0.27583827000E+03  0.12499997139E+03 0.  0.
          5    1    3    3  501    0 -0.55603772906E+02  0.16023793912E+02  0.73876336591E+02  0.93841699904E+02  0.10000000000E+00 0.  1.
         -5    1    3    3    0  501  0.43251323378E+02 -0.51423081447E+02  0.16913820162E+03  0.18199657009E+03  0.10000000000E+00 0.  1.
          2    1    1    2  502    0  0.12352449529E+02  0.35399287535E+02  0.38661211930E+03  0.38842582736E+03  0.00000000000E+00 0. -1.
<mgrwt>
<rscale>  1 0.13050167E+03</rscale>
<asrwt>0</asrwt>
<pdfrwt beam="1">  1       21 0.26644189E-02 0.13050167E+03</pdfrwt>
<pdfrwt beam="2">  1        2 0.99530039E-01 0.13050167E+03</pdfrwt>
<totfact> 0.43883280E+05</totfact>
</mgrwt>
</event>
<event>
 6    2  0.1181843E-002  0.1483082E+03  0.7546771E-02  0.1202567E+00
          2   -1    0    0  503    0 -0.00000000000E+00  0.00000000000E+00  0.16313572326E+03  0.16313572326E+03  0.00000000000E+00 0.  1.
         21   -1    0    0  502  503  0.00000000000E+00 -0.00000000000E+00 -0.84081033653E+03  0.84081033653E+03  0.00000000000E+00 0. -1.
         25    2    1    2    0    0  0.59747543092E+02 -0.52919371703E+02 -0.82401524121E+03  0.83725530362E+03  0.12500038759E+03 0.  0.
          5    1    3    3  501    0  0.74320117102E+02  0.31909893385E+01 -0.64039563713E+03  0.64470167076E+03  0.10000000000E+00 0. -1.
         -5    1    3    3    0  501 -0.14572574010E+02 -0.56110361042E+02 -0.18361960407E+03  0.19255363286E+03  0.10000000000E+00 0. -1.
          2    1    1    2  502    0 -0.59747543092E+02  0.52919371703E+02  0.14634062794E+03  0.16669075617E+03  0.00000000000E+00 0.  1.
<mgrwt>
<rscale>  1 0.14830821E+03</rscale>
<asrwt>0</asrwt>
<pdfrwt beam="1">  1       21 0.12935544E+00 0.14830821E+03</pdfrwt>
<pdfrwt beam="2">  1        2 0.25097804E-01 0.14830821E+03</pdfrwt>
<totfact> 0.11806619E+03</totfact>
</mgrwt>
</event>
<event>
 6    2  0.1181843E-002  0.1268490E+03  0.7546771E-02  0.1232208E+00
         21   -1    0    0  502  503  0.00000000000E+00  0.00000000000E+00  0.82706309971E+01  0.82706309971E+01  0.00000000000E+00 0.  1.
          1   -1    0    0  503    0 -0.00000000000E+00 -0.00000000000E+00 -0.12689772364E+04  0.12689772364E+04  0.00000000000E+00 0. -1.
         25    2    1    2    0    0  0.18075500798E+02  0.11775888202E+02 -0.48726802646E+03  0.50350848578E+03  0.12500108147E+03 0.  0.
          5    1    3    3  501    0  0.61518407124E+02 -0.28312256293E+02 -0.25628876958E+03  0.26508497069E+03  0.10000000000E+00 0. -1.
         -5    1    3    3    0  501 -0.43442906326E+02  0.40088144495E+02 -0.23097925688E+03  0.23842351509E+03  0.10000000000E+00 0. -1.
          1    1    1    2  502    0 -0.18075500798E+02 -0.11775888202E+02 -0.77343857895E+03  0.77373938162E+03  0.00000000000E+00 0. -1.
<mgrwt>
<rscale>  1 0.12684899E+03</rscale>
<asrwt>0</asrwt>
<pdfrwt beam="1">  1       21 0.12724046E-02 0.12684899E+03</pdfrwt>
<pdfrwt beam="2">  1        1 0.19522729E+00 0.12684899E+03</pdfrwt>
<totfact> 0.29329085E+05</totfact>
</mgrwt>
</event>
<event>
 6    2  0.1181843E-002  0.1378507E+03  0.7546771E-02  0.1216251E+00
          2   -1    0    0  503    0 -0.00000000000E+00  0.00000000000E+00  0.66483089760E+02  0.66483089760E+02  0.00000000000E+00 0. -1.
         21   -1    0    0  502  503  0.00000000000E+00 -0.00000000000E+00 -0.14637552445E+03  0.14637552445E+03  0.00000000000E+00 0. -1.
         25    2    1    2    0    0 -0.53526130422E+02  0.22613806097E+02 -0.67304233665E+02  0.15340364243E+03  0.12500554699E+03 0.  0.
          5    1    3    3  501    0 -0.67403991243E+02  0.39686290120E+02  0.44558479134E+01  0.78346437313E+02  0.10000000000E+00 0.  1.
         -5    1    3    3    0  501  0.13877860821E+02 -0.17072484023E+02 -0.71760081579E+02  0.75057205116E+02  0.10000000000E+00 0.  1.
          2    1    1    2  502    0  0.53526130422E+02 -0.22613806097E+02 -0.12588201021E+02  0.59454971778E+02  0.00000000000E+00 0. -1.
<mgrwt>
<rscale>  1 0.13785071E+03</rscale>
<asrwt>0</asrwt>
<pdfrwt beam="1">  1       21 0.22519311E-01 0.13785071E+03</pdfrwt>
<pdfrwt beam="2">  1        2 0.10228168E-01 0.13785071E+03</pdfrwt>
<totfact> 0.13751062E+05</totfact>
</mgrwt>
</event>
<event>
 6    2  0.1181843E-002  0.1279965E+03  0.7546771E-02  0.1230459E+00
         21   -1    0    0  502  503  0.00000000000E+00  0.00000000000E+00  0.70893469057E+01  0.70893469057E+01  0.00000000000E+00 0. -1.
          2   -1    0    0  503    0 -0.00000000000E+00 -0.00000000000E+00 -0.85647343567E+03  0.85647343567E+03  0.00000000000E+00 0. -1.
         25    2    1    2    0    0 -0.61924876074E+01  0.26826258561E+02 -0.67691208206E+03  0.68890715528E+03  0.12500042680E+03 0.  0.
          5    1    3    3  501    0 -0.56706339201E+02  0.16172992760E+02 -0.18210523921E+03  0.19141447894E+03  0.10000000000E+00 0.  1.
         -5    1    3    3    0  501  0.50513851593E+02  0.10653265801E+02 -0.49480684286E+03  0.49749267634E+03  0.10000000000E+00 0.  1.
          2    1    1    2  502    0  0.61924876074E+01 -0.26826258561E+02 -0.17247200670E+03  0.17465562730E+03  0.00000000000E+00 0. -1.
<mgrwt>
<rscale>  1 0.12799649E+03</rscale>
<asrwt>0</asrwt>
<pdfrwt beam="1">  1       21 0.10906686E-02 0.12799649E+03</pdfrwt>
<pdfrwt beam="2">  1        2 0.13176516E+00 0.12799649E+03</pdfrwt>
<totfact> 0.13080710E+06</totfact>
</mgrwt>
</event>
<event>
 6    2  0.1181843E-002  0.1260584E+03  0.7546771E-02  0.1233424E+00
          2   -1    0    0  503    0 -0.00000000000E+00  0.00000000000E+00  0.17704140097E+02  0.17704140097E+02  0.00000000000E+00 0.  1.
         21   -1    0    0  502  503  0.00000000000E+00 -0.00000000000E+00 -0.28709336089E+03  0.28709336089E+03  0.00000000000E+00 0.  1.
         25    2    1    2    0    0 -0.13945777372E+01 -0.16222834401E+02 -0.24392187008E+03  0.27456984551E+03  0.12500238462E+03 0.  0.
          5    1    3    3  501    0  0.44523724746E+02 -0.35236378260E+02 -0.54379347680E+02  0.78619894888E+02  0.10000000000E+00 0. -1.
         -5    1    3    3    0  501 -0.45918302483E+02  0.19013543859E+02 -0.18954252240E+03  0.19594995062E+03  0.10000000000E+00 0. -1.
          2    1    1    2  502    0  0.13945777372E+01  0.16222834401E+02 -0.25467350721E+02  0.30227655480E+02  0.00000000000E+00 0.  1.
<mgrwt>
<rscale>  1 0.12605840E+03</rscale>
<asrwt>0</asrwt>
<pdfrwt beam="1">  1       21 0.44168208E-01 0.12605840E+03</pdfrwt>
<pdfrwt beam="2">  1        2 0.27237139E-02 0.12605840E+03</pdfrwt>
<totfact> 0.20489532E+05</totfact>
</mgrwt>
</event>
<event>
 6    2  0.1181843E-002  0.1310879E+03  0.7546771E-02  0.1225850E+00
          1   -1    0    0  503    0 -0.00000000000E+00  0.00000000000E+00  0.76766234700E+02  0.76766234700E+02  0.00000000000E+00 0. -1.
         21   -1    0    0  502  503  0.00000000000E+00 -0.00000000000E+00 -0.88214186591E+03  0.88214186591E+03  0.00000000000E+00 0. -1.
         25    2    1    2    0    0 -0.29940205284E+02 -0.25791688137E+02 -0.87180929442E+03  0.88160959689E+03  0.12498963328E+03 0.  0.
          5    1    3    3  501    0  0.11897461042E+00 -0.67340062959E+02 -0.29802611046E+03  0.30553931130E+03  0.10000000000E+00 0. -1.
         -5    1    3    3    0  501 -0.30059179895E+02  0.41548374822E+02 -0.57378318396E+03  0.57607028559E+03  0.10000000000E+00 0. -1.
          1    1    1    2  502    0  0.29940205284E+02  0.25791688137E+02  0.66433663210E+02  0.77298503717E+02  0.00000000000E+00 0. -1.
<mgrwt>
<rscale>  1 0.13108789E+03</rscale>
<asrwt>0</asrwt>
<pdfrwt beam="1">  1       21 0.13571413E+00 0.13108789E+03</pdfrwt>
<pdfrwt beam="2">  1        1 0.11810190E-01 0.13108789E+03</pdfrwt>
<totfact> 0.21809214E+03</totfact>
</mgrwt>
</event>
<event>
 6    2  0.1181843E-002  0.1268142E+03  0.7546771E-02  0.1232261E+00
          2   -1    0    0  503    0 -0.00000000000E+00  0.00000000000E+00  0.16347864512E+04  0.16347864512E+04  0.00000000000E+00 0. -1.
         21   -1    0    0  502  503  0.00000000000E+00 -0.00000000000E+00 -0.46836362767E+01  0.46836362767E+01  0.00000000000E+00 0. -1.
         25    2    1    2    0    0  0.21291358626E+02  0.22587254126E+01  0.88293326820E+03  0.89199383009E+03  0.12499365203E+03 0.  0.
          5    1    3    3  501    0  0.26959411396E+01 -0.14610551804E+02  0.85210771941E+03  0.85223723915E+03  0.10000000000E+00 0. -1.
         -5    1    3    3    0  501  0.18595417486E+02  0.16869277217E+02  0.30825548787E+02  0.39756590942E+02  0.10000000000E+00 0. -1.
          2    1    1    2  502    0 -0.21291358626E+02 -0.22587254126E+01  0.74716954670E+03  0.74747625735E+03  0.00000000000E+00 0. -1.
<mgrwt>
<rscale>  1 0.12681418E+03</rscale>
<asrwt>0</asrwt>
<pdfrwt beam="1">  1       21 0.72056073E-03 0.12681418E+03</pdfrwt>
<pdfrwt beam="2">  1        2 0.25150515E+00 0.12681418E+03</pdfrwt>
<totfact> 0.92534361E+05</totfact>
</mgrwt>
</event>
<event>
 6    2  0.1181843E-002  0.1270961E+03  0.7546771E-02  0.1231829E+00
         21   -1    0    0  502  503  0.00000000000E+00  0.00000000000E+00  0.21137916493E+02  0.21137916493E+02  0.00000000000E+00 0.  1.
          2   -1    0    0  503    0 -0.00000000000E+00 -0.00000000000E+00 -0.26742539828E+03  0.26742539828E+03  0.00000000000E+00 0.  1.
         25    2    1    2    0    0 -0.15921815899E+02  0.16580838259E+02 -0.21466585085E+03  0.24946912131E+03  0.12499994620E+03 0.  0.
          5    1    3    3  501    0  0.17450816989E+02 -0.49711041312E+02 -0.95940869558E+02  0.10945491809E+03  0.10000000000E+00 0. -1.
         -5    1    3    3    0  501 -0.33372632888E+02  0.66291879571E+02 -0.11872498129E+03  0.14001420322E+03  0.10000000000E+00 0. -1.
          2    1    1    2  502    0  0.15921815899E+02 -0.16580838259E+02 -0.31621630941E+02  0.39094193460E+02  0.00000000000E+00 0.  1.
<mgrwt>
<rscale>  1 0.12709609E+03</rscale>
<asrwt>0</asrwt>
<pdfrwt beam="1">  1       21 0.32519874E-02 0.12709609E+03</pdfrwt>
<pdfrwt beam="2">  1        2 0.41142366E-01 0.12709609E+03</pdfrwt>
<totfact> 0.82286094E+05</totfact>
</mgrwt>
</event>
<event>
 6    2  0.1181843E-002  0.1481203E+03  0.7546771E-02  0.1202802E+00
          1   -1    0    0  503    0 -0.00000000000E+00  0.00000000000E+00  0.49309304619E+02  0.49309304619E+02  0.00000000000E+00 0.  1.
         21   -1    0    0  502  503  0.00000000000E+00 -0.00000000000E+00 -0.85550394042E+03  0.85550394042E+03  0.00000000000E+00 0.  1.
         25    2    1    2    0    0 -0.10324107340E+02 -0.78810598690E+02 -0.81173315831E+03  0.82513656784E+03  0.12498774995E+03 0.  0.
          5    1    3    3  501    0  0.11689637072E+02 -0.43683875078E+02 -0.74635279660E+03  0.74772149598E+03  0.10000000000E+00 0. -1.
         -5    1    3    3    0  501 -0.22013744412E+02 -0.35126723612E+02 -0.65380361709E+02  0.77415071866E+02  0.10000000000E+00 0. -1.
          1    1    1    2  502    0  0.10324107340E+02  0.78810598690E+02  0.55385225012E+01  0.79676677201E+02  0.00000000000E+00 0.  1.
<mgrwt>
<rscale>  1 0.14812034E+03</rscale>
<asrwt>0</asrwt>
<pdfrwt beam="1">  1       21 0.13161599E+00 0.14812034E+03</pdfrwt>
<pdfrwt beam="2">  1        1 0.75860469E-02 0.14812034E+03</pdfrwt>
<totfact> 0.42120285E+03</totfact>
</mgrwt>
</event>
<event>
 6    2  0.1181843E-002  0.1274163E+03  0.7546771E-02  0.1231341E+00
         21   -1    0    0  502  503  0.00000000000E+00  0.00000000000E+00  0.50273698712E+01  0.50273698712E+01  0.00000000000E+00 0. -1.
          1   -1    0    0  503    0 -0.00000000000E+00 -0.00000000000E+00 -0.12374003413E+04  0.12374003413E+04  0.00000000000E+00 0. -1.
         25    2    1    2    0    0  0.21525714895E+02 -0.12116387266E+02 -0.87829544154E+03  0.88748960330E+03  0.12499900042E+03 0.  0.
          5    1    3    3  501    0 -0.43549265043E+01 -0.65590583455E+02 -0.54391003093E+03  0.54786788715E+03  0.10000000000E+00 0. -1.
         -5    1    3    3    0  501  0.25880641399E+02  0.53474196189E+02 -0.33438541061E+03  0.33962171615E+03  0.10000000000E+00 0. -1.
          1    1    1    2  502    0 -0.21525714895E+02  0.12116387266E+02 -0.35407752992E+03  0.35493810789E+03  0.00000000000E+00 0. -1.
<mgrwt>
<rscale>  1 0.12741630E+03</rscale>
<asrwt>0</asrwt>
<pdfrwt beam="1">  1       21 0.77344184E-03 0.12741630E+03</pdfrwt>
<pdfrwt beam="2">  1        1 0.19036920E+00 0.12741630E+03</pdfrwt>
<totfact> 0.67477179E+05</totfact>
</mgrwt>
</event>
<event>
 6    2  0.1181843E-002  0.1303053E+03  0.7546771E-02  0.1227003E+00
         21   -1    0    0  502  503  0.00000000000E+00  0.00000000000E+00  0.64781990498E+02  0.64781990498E+02  0.00000000000E+00 0.  1.
          1   -1    0    0  503    0 -0.00000000000E+00 -0.00000000000E+00 -0.99642408268E+03  0.99642408268E+03  0.00000000000E+00 0. -1.
         25    2    1    2    0    0 -0.28240438352E+02  0.23635910043E+02 -0.14784469444E+01  0.13031371338E+03  0.12499319777E+03 0.  0.
          5    1    3    3  501    0 -0.70436925470E+02 -0.15985036574E+02  0.27199075642E+01  0.72279248482E+02  0.10000000000E+00 0. -1.
         -5    1    3    3    0  501  0.42196487118E+02  0.39620946617E+02 -0.41983545086E+01  0.58034464902E+02  0.10000000000E+00 0. -1.
          1    1    1    2  502    0  0.28240438352E+02 -0.23635910043E+02 -0.93016364524E+03  0.93089235980E+03  0.00000000000E+00 0. -1.
<mgrwt>
<rscale>  1 0.13030533E+03</rscale>
<asrwt>0</asrwt>
<pdfrwt beam="1">  1       21 0.99664608E-02 0.13030533E+03</pdfrwt>
<pdfrwt beam="2">  1        1 0.15329600E+00 0.13030533E+03</pdfrwt>
<totfact> 0.14989093E+04</totfact>
</mgrwt>
</event>
<event>
 6    2  0.1181843E-002  0.1259651E+03  0.7546771E-02  0.1233569E+00
         21   -1    0    0  502  503  0.00000000000E+00  0.00000000000E+00  0.43456687753E+02  0.43456687753E+02  0.00000000000E+00 0. -1.
          1   -1    0    0  503    0 -0.00000000000E+00 -0.00000000000E+00 -0.53801246443E+03  0.53801246443E+03  0.00000000000E+00 0.  1.
         25    2    1    2    0    0  0.10655608927E+02 -0.11320325275E+02 -0.48245604934E+02  0.13488829594E+03  0.12500208886E+03 0.  0.
          5    1    3    3  501    0 -0.50758679750E+02  0.19142933700E+02 -0.36371289393E+02  0.65312909694E+02  0.10000000000E+00 0. -1.
         -5    1    3    3    0  501  0.61414288677E+02 -0.30463258975E+02 -0.11874315540E+02  0.69575386241E+02  0.10000000000E+00 0. -1.
          1    1    1    2  502    0 -0.10655608927E+02  0.11320325275E+02 -0.44631017174E+03  0.44658085624E+03  0.00000000000E+00 0.  1.
<mgrwt>
<rscale>  1 0.12596513E+03</rscale>
<asrwt>0</asrwt>
<pdfrwt beam="1">  1       21 0.66856439E-02 0.12596513E+03</pdfrwt>
<pdfrwt beam="2">  1        1 0.82771153E-01 0.12596513E+03</pdfrwt>
<totfact> 0.73743524E+04</totfact>
</mgrwt>
</event>
<event>
 6    2  0.1181843E-002  0.1471595E+03  0.7546771E-02  0.1204007E+00
          1   -1    0    0  503    0 -0.00000000000E+00  0.00000000000E+00  0.33558025752E+03  0.33558025752E+03  0.00000000000E+00 0.  1.
         21   -1    0    0  502  503  0.00000000000E+00 -0.00000000000E+00 -0.40012015546E+02  0.40012015546E+02  0.00000000000E+00 0.  1.
         25    2    1    2    0    0 -0.26663222403E+02  0.72939000847E+02  0.23426900965E+03  0.27665481223E+03  0.12499956389E+03 0.  0.
          5    1    3    3  501    0  0.14729973910E+02 -0.62289015319E+01 -0.83993393488E+01  0.18064613120E+02  0.10000000000E+00 0. -1.
         -5    1    3    3    0  501 -0.41393196313E+02  0.79167902379E+02  0.24266834900E+03  0.25859019911E+03  0.10000000000E+00 0. -1.
          1    1    1    2  502    0  0.26663222403E+02 -0.72939000847E+02  0.61299232321E+02  0.98937460836E+02  0.00000000000E+00 0.  1.
<mgrwt>
<rscale>  1 0.14715949E+03</rscale>
<asrwt>0</asrwt>
<pdfrwt beam="1">  1       21 0.61556949E-02 0.14715949E+03</pdfrwt>
<pdfrwt beam="2">  1        1 0.51627730E-01 0.14715949E+03</pdfrwt>
<totfact> 0.15567675E+05</totfact>
</mgrwt>
</event>
<event>
 6    2  0.1181843E-002  0.1260415E+03  0.7546771E-02  0.1233451E+00
         21   -1    0    0  502  503  0.00000000000E+00  0.00000000000E+00  0.40222230857E+03  0.40222230857E+03  0.00000000000E+00 0.  1.
          3   -1    0    0  503    0 -0.00000000000E+00 -0.00000000000E+00 -0.72583319116E+02  0.72583319116E+02  0.00000000000E+00 0. -1.
         25    2    1    2    0    0 -0.10758907512E+02  0.12118478353E+02  0.39127498231E+03  0.41107488767E+03  0.12499535946E+03 0.  0.
          5    1    3    3  501    0  0.30107064870E+02 -0.45742385840E+02  0.15369962636E+03  0.16316367966E+03  0.10000000000E+00 0.  1.
         -5    1    3    3    0  501 -0.40865972382E+02  0.57860864193E+02  0.23757535595E+03  0.24791120801E+03  0.10000000000E+00 0.  1.
          3    1    1    2  502    0  0.10758907512E+02 -0.12118478353E+02 -0.61635992850E+02  0.63730740017E+02  0.00000000000E+00 0. -1.
<mgrwt>
<rscale>  1 0.12604147E+03</rscale>
<asrwt>0</asrwt>
<pdfrwt beam="1">  1       21 0.61880354E-01 0.12604147E+03</pdfrwt>
<pdfrwt beam="2">  1        3 0.11166665E-01 0.12604147E+03</pdfrwt>
<totfact> 0.72260474E+03</totfact>
</mgrwt>
</event>
<event>
 6    2  0.1181843E-002  0.1390759E+03  0.7546771E-02  0.1214578E+00
         21   -1    0    0  502  503  0.00000000000E+00  0.00000000000E+00  0.21270757198E+02  0.21270757198E+02  0.00000000000E+00 0. -1.
          1   -1    0    0  503    0 -0.00000000000E+00 -0.00000000000E+00 -0.52048320451E+03  0.52048320451E+03  0.00000000000E+00 0. -1.
         25    2    1    2    0    0  0.55301078544E+02  0.25660898775E+02 -0.25959240164E+03  0.29450012999E+03  0.12500168222E+03 0.  0.
          5    1    3    3  501    0  0.24114224156E+02  0.75855718995E+02 -0.15970733960E+03  0.17844335301E+03  0.10000000000E+00 0.  1.
         -5    1    3    3    0  501  0.31186854388E+02 -0.50194820220E+02 -0.99885062039E+02  0.11605677698E+03  0.10000000000E+00 0.  1.
          1    1    1    2  502    0 -0.55301078544E+02 -0.25660898775E+02 -0.23962004567E+03  0.24725383172E+03  0.00000000000E+00 0. -1.
<mgrwt>
<rscale>  1 0.13907592E+03</rscale>
<asrwt>0</asrwt>
<pdfrwt beam="1">  1       21 0.32724244E-02 0.13907592E+03</pdfrwt>
<pdfrwt beam="2">  1        1 0.80074334E-01 0.13907592E+03</pdfrwt>
<totfact> 0.25588377E+05</totfact>
</mgrwt>
</event>
<event>
 6    2  0.1181843E-002  0.1376443E+03  0.7546771E-02  0.1216534E+00
          3   -1    0    0  503    0 -0.00000000000E+00  0.00000000000E+00  0.24069206883E+03  0.24069206883E+03  0.00000000000E+00 0.  1.
         21   -1    0    0  502  503  0.00000000000E+00 -0.00000000000E+00 -0.50282051105E+02  0.50282051105E+02  0.00000000000E+00 0. -1.
         25    2    1    2    0    0 -0.54439970911E+02  0.18891906088E+02  0.63482657686E+02  0.15157839089E+03  0.12500138483E+03 0.  0.
          5    1    3    3  501    0 -0.25694851621E+02  0.30971616898E+02  0.97472618140E+02  0.10545324907E+03  0.10000000000E+00 0. -1.
         -5    1    3    3    0  501 -0.28745119289E+02 -0.12079710810E+02 -0.33989960454E+02  0.46125141820E+02  0.10000000000E+00 0. -1.
          3    1    1    2  502    0  0.54439970911E+02 -0.18891906088E+02  0.12692736004E+03  0.13939572904E+03  0.00000000000E+00 0.  1.
<mgrwt>
<rscale>  1 0.13764433E+03</rscale>
<asrwt>0</asrwt>
<pdfrwt beam="1">  1       21 0.77357003E-02 0.13764433E+03</pdfrwt>
<pdfrwt beam="2">  1        3 0.37029548E-01 0.13764433E+03</pdfrwt>
<totfact> 0.44002179E+04</totfact>
</mgrwt>
</event>
<event>
 6    2  0.1181843E-002  0.1836419E+03  0.7546771E-02  0.1164324E+00
          2   -1    0    0  503    0 -0.00000000000E+00  0.00000000000E+00  0.71761693062E+02  0.71761693062E+02  0.00000000000E+00 0. -1.
         21   -1    0    0  502  503  0.00000000000E+00 -0.00000000000E+00 -0.60597272719E+03  0.60597272719E+03  0.00000000000E+00 0. -1.
         25    2    1    2    0    0  0.11036379006E+03  0.76943276284E+02 -0.73539513790E+02  0.19781913234E+03  0.12499566036E+03 0.  0.
          5    1    3    3  501    0  0.62241961485E+02  0.10046159069E+03 -0.81655609905E+02  0.14364623769E+03  0.10000000000E+00 0. -1.
         -5    1    3    3    0  501  0.48121828576E+02 -0.23518314410E+02  0.81160961150E+01  0.54172894646E+02  0.10000000000E+00 0. -1.
          2    1    1    2  502    0 -0.11036379006E+03 -0.76943276284E+02 -0.46067152034E+03  0.47991528791E+03  0.00000000000E+00 0. -1.
<mgrwt>
<rscale>  1 0.18364190E+03</rscale>
<asrwt>0</asrwt>
<pdfrwt beam="1">  1       21 0.93226573E-01 0.18364190E+03</pdfrwt>
<pdfrwt beam="2">  1        2 0.11040261E-01 0.18364190E+03</pdfrwt>
<totfact> 0.66584831E+03</totfact>
</mgrwt>
</event>
<event>
 6    2  0.1181843E-002  0.1259180E+03  0.7546771E-02  0.1233641E+00
          1   -1    0    0  503    0 -0.00000000000E+00  0.00000000000E+00  0.89955853554E+03  0.89955853554E+03  0.00000000000E+00 0. -1.
         21   -1    0    0  502  503  0.00000000000E+00 -0.00000000000E+00 -0.55306469790E+01  0.55306469790E+01  0.00000000000E+00 0. -1.
         25    2    1    2    0    0  0.85231876627E+01  0.12519825261E+02  0.79549858503E+03  0.80540260164E+03  0.12500384472E+03 0.  0.
          5    1    3    3  501    0  0.45259855595E+02 -0.40640394277E+02  0.42059030932E+03  0.42496625098E+03  0.10000000000E+00 0. -1.
         -5    1    3    3    0  501 -0.36736667932E+02  0.53160219538E+02  0.37490827571E+03  0.38043635066E+03  0.10000000000E+00 0. -1.
          1    1    1    2  502    0 -0.85231876627E+01 -0.12519825261E+02  0.98529303533E+02  0.99686580878E+02  0.00000000000E+00 0. -1.
<mgrwt>
<rscale>  1 0.12591804E+03</rscale>
<asrwt>0</asrwt>
<pdfrwt beam="1">  1       21 0.85086948E-03 0.12591804E+03</pdfrwt>
<pdfrwt beam="2">  1        1 0.13839351E+00 0.12591804E+03</pdfrwt>
<totfact> 0.10120292E+06</totfact>
</mgrwt>
</event>
<event>
 6    2  0.1181843E-002  0.1290132E+03  0.7546771E-02  0.1228927E+00
          2   -1    0    0  503    0 -0.00000000000E+00  0.00000000000E+00  0.11026603307E+04  0.11026603307E+04  0.00000000000E+00 0.  1.
         21   -1    0    0  502  503  0.00000000000E+00 -0.00000000000E+00 -0.11685895061E+02  0.11685895061E+02  0.00000000000E+00 0. -1.
         25    2    1    2    0    0  0.43312199459E+01  0.31631101433E+02  0.35561565683E+03  0.37829471967E+03  0.12500045402E+03 0.  0.
          5    1    3    3  501    0 -0.59947218285E+02  0.22332823692E+02  0.18366340295E+03  0.19448567962E+03  0.10000000000E+00 0. -1.
         -5    1    3    3    0  501  0.64278438231E+02  0.92982777410E+01  0.17195225388E+03  0.18380904006E+03  0.10000000000E+00 0. -1.
          2    1    1    2  502    0 -0.43312199459E+01 -0.31631101433E+02  0.73535877884E+03  0.73605150612E+03  0.00000000000E+00 0.  1.
<mgrwt>
<rscale>  1 0.12901318E+03</rscale>
<asrwt>0</asrwt>
<pdfrwt beam="1">  1       21 0.17978309E-02 0.12901318E+03</pdfrwt>
<pdfrwt beam="2">  1        2 0.16963997E+00 0.12901318E+03</pdfrwt>
<totfact> 0.41909436E+05</totfact>
</mgrwt>
</event>
<event>
 6    2  0.1181843E-002  0.1353476E+03  0.7546771E-02  0.1219730E+00
         21   -1    0    0  502  503  0.00000000000E+00  0.00000000000E+00  0.23046200835E+02  0.23046200835E+02  0.00000000000E+00 0.  1.
          1   -1    0    0  503    0 -0.00000000000E+00 -0.00000000000E+00 -0.78252701332E+03  0.78252701332E+03  0.00000000000E+00 0. -1.
         25    2    1    2    0    0  0.13504133273E+02 -0.50129055018E+02 -0.18753213044E+03  0.23127313696E+03  0.12499472053E+03 0.  0.
          5    1    3    3  501    0  0.60893201011E+02 -0.59758799929E+02 -0.10162250532E+03  0.13268850623E+03  0.10000000000E+00 0.  1.
         -5    1    3    3    0  501 -0.47389067738E+02  0.96297449105E+01 -0.85909625119E+02  0.98584630730E+02  0.10000000000E+00 0.  1.
          1    1    1    2  502    0 -0.13504133273E+02  0.50129055018E+02 -0.57194868204E+03  0.57430007719E+03  0.00000000000E+00 0. -1.
<mgrwt>
<rscale>  1 0.13534757E+03</rscale>
<asrwt>0</asrwt>
<pdfrwt beam="1">  1       21 0.35455702E-02 0.13534757E+03</pdfrwt>
<pdfrwt beam="2">  1        1 0.12038874E+00 0.13534757E+03</pdfrwt>
<totfact> 0.12692655E+05</totfact>
</mgrwt>
</event>
<event>
 6    2  0.1181843E-002  0.1401154E+03  0.7546771E-02  0.1213174E+00
          2   -1    0    0  503    0 -0.00000000000E+00  0.00000000000E+00  0.10151192526E+04  0.10151192526E+04  0.00000000000E+00 0. -1.
         21   -1    0    0  502  503  0.00000000000E+00 -0.00000000000E+00 -0.34649525745E+02  0.34649525745E+02  0.00000000000E+00 0. -1.
         25    2    1    2    0    0 -0.25126871742E+02  0.58105130257E+02  0.11303116600E+03  0.18002328528E+03  0.12499909164E+03 0.  0.
          5    1    3    3  501    0 -0.42517553861E+02 -0.28524489507E+02  0.33850643544E+02  0.61378049466E+02  0.10000000000E+00 0. -1.
         -5    1    3    3    0  501  0.17390682119E+02  0.86629619764E+02  0.79180522456E+02  0.11864523581E+03  0.10000000000E+00 0. -1.
          2    1    1    2  502    0  0.25126871742E+02 -0.58105130257E+02  0.86743856085E+03  0.86974549306E+03  0.00000000000E+00 0. -1.
<mgrwt>
<rscale>  1 0.14011545E+03</rscale>
<asrwt>0</asrwt>
<pdfrwt beam="1">  1       21 0.53306970E-02 0.14011545E+03</pdfrwt>
<pdfrwt beam="2">  1        2 0.15617217E+00 0.14011545E+03</pdfrwt>
<totfact> 0.78973934E+04</totfact>
</mgrwt>
</event>
<event>
 6    2  0.1181843E-002  0.1361158E+03  0.7546771E-02  0.1218653E+00
         21   -1    0    0  502  503  0.00000000000E+00  0.00000000000E+00  0.22019106849E+02  0.22019106849E+02  0.00000000000E+00 0. -1.
          2   -1    0    0  503    0 -0.00000000000E+00 -0.00000000000E+00 -0.46942309171E+03  0.46942309171E+03  0.00000000000E+00 0. -1.
         25    2    1    2    0    0 -0.36751491542E+02 -0.39368815745E+02 -0.22813583358E+03  0.26565668540E+03  0.12500776037E+03 0.  0.
          5    1    3    3  501    0  0.39971076460E+02  0.72527525860E+01 -0.39091480014E+02  0.56377683378E+02  0.10000000000E+00 0. -1.
         -5    1    3    3    0  501 -0.76722568002E+02 -0.46621568331E+02 -0.18904435357E+03  0.20927900203E+03  0.10000000000E+00 0. -1.
          2    1    1    2  502    0  0.36751491542E+02  0.39368815745E+02 -0.21926815129E+03  0.22578551316E+03  0.00000000000E+00 0. -1.
<mgrwt>
<rscale>  1 0.13611582E+03</rscale>
<asrwt>0</asrwt>
<pdfrwt beam="1">  1       21 0.33875550E-02 0.13611582E+03</pdfrwt>
<pdfrwt beam="2">  1        2 0.72218934E-01 0.13611582E+03</pdfrwt>
<totfact> 0.42462483E+05</totfact>
</mgrwt>
</event>
<event>
 6    2  0.1181843E-002  0.1424067E+03  0.7546771E-02  0.1210127E+00
          1   -1    0    0  503    0 -0.00000000000E+00  0.00000000000E+00  0.57039000404E+03  0.57039000404E+03  0.00000000000E+00 0. -1.
         21   -1    0    0  502  503  0.00000000000E+00 -0.00000000000E+00 -0.37556800096E+02  0.37556800096E+02  0.00000000000E+00 0. -1.
         25    2    1    2    0    0 -0.27579151004E+02  0.62395342075E+02  0.11079468627E+03  0.18043037324E+03  0.12500347515E+03 0.  0.
          5    1    3    3  501    0 -0.50451669663E+02  0.49776011230E+02  0.45477350944E+01  0.71019111233E+02  0.10000000000E+00 0. -1.
         -5    1    3    3    0  501  0.22872518659E+02  0.12619330845E+02  0.10624695118E+03  0.10941126201E+03  0.10000000000E+00 0. -1.
          1    1    1    2  502    0  0.27579151004E+02 -0.62395342075E+02  0.42203851768E+03  0.42751643090E+03  0.00000000000E+00 0. -1.
<mgrwt>
<rscale>  1 0.14240666E+03</rscale>
<asrwt>0</asrwt>
<pdfrwt beam="1">  1       21 0.57779697E-02 0.14240666E+03</pdfrwt>
<pdfrwt beam="2">  1        1 0.87752302E-01 0.14240666E+03</pdfrwt>
<totfact> 0.87641261E+04</totfact>
</mgrwt>
</event>
<event>
 6    2  0.1181843E-002  0.1980727E+03  0.7546771E-02  0.1151375E+00
         21   -1    0    0  502  503  0.00000000000E+00  0.00000000000E+00  0.14086772553E+03  0.14086772553E+03  0.00000000000E+00 0.  1.
          2   -1    0    0  503    0 -0.00000000000E+00 -0.00000000000E+00 -0.28154516958E+03  0.28154516958E+03  0.00000000000E+00 0.  1.
         25    2    1    2    0    0 -0.14867492841E+03  0.38775657241E+02 -0.17576031497E+03  0.26481024994E+03  0.12499997688E+03 0.  0.
          5    1    3    3  501    0 -0.72336414016E+02 -0.30114022947E+02 -0.24855313106E+02  0.82202236955E+02  0.10000000000E+00 0. -1.
         -5    1    3    3    0  501 -0.76338514394E+02  0.68889680187E+02 -0.15090500187E+03  0.18260801298E+03  0.10000000000E+00 0. -1.
          2    1    1    2  502    0  0.14867492841E+03 -0.38775657241E+02  0.35082870923E+02  0.15760264517E+03  0.00000000000E+00 0.  1.
<mgrwt>
<rscale>  1 0.19807266E+03</rscale>
<asrwt>0</asrwt>
<pdfrwt beam="1">  1       21 0.21671958E-01 0.19807266E+03</pdfrwt>
<pdfrwt beam="2">  1        2 0.43314642E-01 0.19807266E+03</pdfrwt>
<totfact> 0.28810223E+04</totfact>
</mgrwt>
</event>
<event>
 6    2  0.1181843E-002  0.1387458E+03  0.7546771E-02  0.1215027E+00
         21   -1    0    0  502  503  0.00000000000E+00  0.00000000000E+00  0.15863749057E+04  0.15863749057E+04  0.00000000000E+00 0. -1.
          3   -1    0    0  503    0 -0.00000000000E+00 -0.00000000000E+00 -0.50816188797E+02  0.50816188797E+02  0.00000000000E+00 0. -1.
         25    2    1    2    0    0 -0.45987761948E+02 -0.38875174042E+02  0.15643176558E+04  0.15704585689E+04  0.12499694035E+03 0.  0.
          5    1    3    3  501    0 -0.46240709373E+02 -0.45222899823E+02  0.33846437338E+03  0.34458882153E+03  0.10000000000E+00 0.  1.
         -5    1    3    3    0  501  0.25294742485E+00  0.63477257805E+01  0.12258532824E+04  0.12258697474E+04  0.10000000000E+00 0.  1.
          3    1    1    2  502    0  0.45987761948E+02  0.38875174042E+02 -0.28758938873E+02  0.66732525584E+02  0.00000000000E+00 0. -1.
<mgrwt>
<rscale>  1 0.13874577E+03</rscale>
<asrwt>0</asrwt>
<pdfrwt beam="1">  1       21 0.24405764E+00 0.13874577E+03</pdfrwt>
<pdfrwt beam="2">  1        3 0.78178764E-02 0.13874577E+03</pdfrwt>
<totfact> 0.40561070E+02</totfact>
</mgrwt>
</event>
<event>
 6    2  0.1181843E-002  0.1511238E+03  0.7546771E-02  0.1199099E+00
         21   -1    0    0  502  503  0.00000000000E+00  0.00000000000E+00  0.16464385574E+02  0.16464385574E+02  0.00000000000E+00 0. -1.
          1   -1    0    0  503    0 -0.00000000000E+00 -0.00000000000E+00 -0.10108347340E+04  0.10108347340E+04  0.00000000000E+00 0. -1.
         25    2    1    2    0    0  0.79875035419E+02  0.28867142659E+02 -0.41346272744E+03  0.44021565249E+03  0.12500024201E+03 0.  0.
          5    1    3    3  501    0  0.10645943587E+03  0.39702503600E+01 -0.36069207287E+03  0.37609593963E+03  0.10000000000E+00 0. -1.
         -5    1    3    3    0  501 -0.26584400449E+02  0.24896892299E+02 -0.52770654576E+02  0.64119712864E+02  0.10000000000E+00 0. -1.
          1    1    1    2  502    0 -0.79875035419E+02 -0.28867142659E+02 -0.58090762098E+03  0.58708346708E+03  0.00000000000E+00 0. -1.
<mgrwt>
<rscale>  1 0.15112377E+03</rscale>
<asrwt>0</asrwt>
<pdfrwt beam="1">  1       21 0.25329821E-02 0.15112377E+03</pdfrwt>
<pdfrwt beam="2">  1        1 0.15551305E+00 0.15112377E+03</pdfrwt>
<totfact> 0.14719475E+05</totfact>
</mgrwt>
</event>
<event>
 6    2  0.1181843E-002  0.1586351E+03  0.7546771E-02  0.1190246E+00
          2   -1    0    0  503    0 -0.00000000000E+00  0.00000000000E+00  0.95424645721E+03  0.95424645721E+03  0.00000000000E+00 0.  1.
         21   -1    0    0  502  503  0.00000000000E+00 -0.00000000000E+00 -0.34716998821E+02  0.34716998821E+02  0.00000000000E+00 0. -1.
         25    2    1    2    0    0  0.64953454007E+02 -0.72958410593E+02  0.16780562916E+03  0.23091952835E+03  0.12499287392E+03 0.  0.
          5    1    3    3  501    0  0.35211270070E+02 -0.31865830487E+02  0.17349270236E+03  0.17987493562E+03  0.10000000000E+00 0. -1.
         -5    1    3    3    0  501  0.29742183937E+02 -0.41092580106E+02 -0.56870732006E+01  0.51044592727E+02  0.10000000000E+00 0. -1.
          2    1    1    2  502    0 -0.64953454007E+02  0.72958410593E+02  0.75172382923E+03  0.75804392768E+03  0.00000000000E+00 0.  1.
<mgrwt>
<rscale>  1 0.15863511E+03</rscale>
<asrwt>0</asrwt>
<pdfrwt beam="1">  1       21 0.53410775E-02 0.15863511E+03</pdfrwt>
<pdfrwt beam="2">  1        2 0.14680713E+00 0.15863511E+03</pdfrwt>
<totfact> 0.85716372E+04</totfact>
</mgrwt>
</event>
<event>
 6    2  0.1181843E-002  0.1288840E+03  0.7546771E-02  0.1229121E+00
          1   -1    0    0  503    0 -0.00000000000E+00  0.00000000000E+00  0.28199006455E+03  0.28199006455E+03  0.00000000000E+00 0.  1.
         21   -1    0    0  502  503  0.00000000000E+00 -0.00000000000E+00 -0.14724733101E+03  0.14724733101E+03  0.00000000000E+00 0. -1.
         25    2    1    2    0    0  0.14833067110E+02 -0.27685524032E+02 -0.11788461401E+03  0.17466503875E+03  0.12499834166E+03 0.  0.
          5    1    3    3  501    0  0.53973116549E+02  0.23690721157E+02 -0.81353417333E+02  0.10046261041E+03  0.10000000000E+00 0.  1.
         -5    1    3    3    0  501 -0.39140049440E+02 -0.51376245188E+02 -0.36531196680E+02  0.74202428334E+02  0.10000000000E+00 0.  1.
          1    1    1    2  502    0 -0.14833067110E+02  0.27685524032E+02  0.25262734756E+03  0.25457235682E+03  0.00000000000E+00 0.  1.
<mgrwt>
<rscale>  1 0.12888403E+03</rscale>
<asrwt>0</asrwt>
<pdfrwt beam="1">  1       21 0.22653436E-01 0.12888403E+03</pdfrwt>
<pdfrwt beam="2">  1        1 0.43383087E-01 0.12888403E+03</pdfrwt>
<totfact> 0.19016831E+04</totfact>
</mgrwt>
</event>
<event>
 6    2  0.1181843E-002  0.1333543E+03  0.7546771E-02  0.1222562E+00
          2   -1    0    0  503    0 -0.00000000000E+00  0.00000000000E+00  0.23109842794E+03  0.23109842794E+03  0.00000000000E+00 0.  1.
         21   -1    0    0  502  503  0.00000000000E+00 -0.00000000000E+00 -0.58495290524E+02  0.58495290524E+02  0.00000000000E+00 0.  1.
         25    2    1    2    0    0 -0.24905530074E+02 -0.39180204847E+02  0.26065776921E+02  0.13587783802E+03  0.12501195246E+03 0.  0.
          5    1    3    3  501    0 -0.40501450273E+02 -0.79029522541E+01  0.69072647400E+02  0.80460330271E+02  0.10000000000E+00 0. -1.
         -5    1    3    3    0  501  0.15595920199E+02 -0.31277252593E+02 -0.43006870479E+02  0.55417507748E+02  0.10000000000E+00 0. -1.
          2    1    1    2  502    0  0.24905530074E+02  0.39180204847E+02  0.14653736049E+03  0.15371588044E+03  0.00000000000E+00 0.  1.
<mgrwt>
<rscale>  1 0.13335427E+03</rscale>
<asrwt>0</asrwt>
<pdfrwt beam="1">  1       21 0.89992756E-02 0.13335427E+03</pdfrwt>
<pdfrwt beam="2">  1        2 0.35553604E-01 0.13335427E+03</pdfrwt>
<totfact> 0.17292058E+05</totfact>
</mgrwt>
</event>
<event>
 6    2  0.1181843E-002  0.1260226E+03  0.7546771E-02  0.1233480E+00
         21   -1    0    0  502  503  0.00000000000E+00  0.00000000000E+00  0.10032646680E+02  0.10032646680E+02  0.00000000000E+00 0. -1.
          2   -1    0    0  503    0 -0.00000000000E+00 -0.00000000000E+00 -0.10546854631E+04  0.10546854631E+04  0.00000000000E+00 0. -1.
         25    2    1    2    0    0  0.14996267489E+02  0.56885393105E+01 -0.38972739566E+03  0.40959632395E+03  0.12499783256E+03 0.  0.
          5    1    3    3  501    0  0.35402808496E+02  0.58603034499E+02 -0.18937314406E+03  0.20136998831E+03  0.10000000000E+00 0.  1.
         -5    1    3    3    0  501 -0.20406541006E+02 -0.52914495189E+02 -0.20035425161E+03  0.20822633564E+03  0.10000000000E+00 0.  1.
          2    1    1    2  502    0 -0.14996267489E+02 -0.56885393105E+01 -0.65492542072E+03  0.65512178580E+03  0.00000000000E+00 0. -1.
<mgrwt>
<rscale>  1 0.12602264E+03</rscale>
<asrwt>0</asrwt>
<pdfrwt beam="1">  1       21 0.15434836E-02 0.12602264E+03</pdfrwt>
<pdfrwt beam="2">  1        2 0.16225936E+00 0.12602264E+03</pdfrwt>
<totfact> 0.56963163E+05</totfact>
</mgrwt>
</event>
<event>
 6    2  0.1181843E-002  0.1269281E+03  0.7546771E-02  0.1232086E+00
          1   -1    0    0  503    0 -0.00000000000E+00  0.00000000000E+00  0.19400813046E+03  0.19400813046E+03  0.00000000000E+00 0.  1.
         21   -1    0    0  502  503  0.00000000000E+00 -0.00000000000E+00 -0.45467278950E+02  0.45467278950E+02  0.00000000000E+00 0. -1.
         25    2    1    2    0    0 -0.67835742093E+01  0.20987777135E+02  0.46657626052E+02  0.13523196694E+03  0.12499698855E+03 0.  0.
          5    1    3    3  501    0 -0.63574936095E+02  0.21215225805E+02  0.10323750214E+02  0.67811858284E+02  0.10000000000E+00 0.  1.
         -5    1    3    3    0  501  0.56791361886E+02 -0.22744866908E+00  0.36333875838E+02  0.67420108656E+02  0.10000000000E+00 0.  1.
          1    1    1    2  502    0  0.67835742093E+01 -0.20987777135E+02  0.10188322546E+03  0.10424344247E+03  0.00000000000E+00 0.  1.
<mgrwt>
<rscale>  1 0.12692813E+03</rscale>
<asrwt>0</asrwt>
<pdfrwt beam="1">  1       21 0.69949661E-02 0.12692813E+03</pdfrwt>
<pdfrwt beam="2">  1        1 0.29847404E-01 0.12692813E+03</pdfrwt>
<totfact> 0.24495979E+05</totfact>
</mgrwt>
</event>
<event>
 6    2  0.1181843E-002  0.1362447E+03  0.7546771E-02  0.1218473E+00
         21   -1    0    0  502  503  0.00000000000E+00  0.00000000000E+00  0.66236501716E+02  0.66236501716E+02  0.00000000000E+00 0. -1.
          3   -1    0    0  503    0 -0.00000000000E+00 -0.00000000000E+00 -0.98410944448E+03  0.98410944448E+03  0.00000000000E+00 0.  1.
         25    2    1    2    0    0 -0.47776193028E+02 -0.25676442672E+02 -0.54931230045E+01  0.13635536647E+03  0.12498306780E+03 0.  0.
          5    1    3    3  501    0 -0.22303177804E+02 -0.73913846314E+02 -0.20302921170E+02  0.79830489320E+02  0.10000000000E+00 0. -1.
         -5    1    3    3    0  501 -0.25473015224E+02  0.48237403642E+02  0.14809798166E+02  0.56524877147E+02  0.10000000000E+00 0. -1.
          3    1    1    2  502    0  0.47776193028E+02  0.25676442672E+02 -0.91237981976E+03  0.91399057973E+03  0.00000000000E+00 0.  1.
<mgrwt>
<rscale>  1 0.13624468E+03</rscale>
<asrwt>0</asrwt>
<pdfrwt beam="1">  1       21 0.10190232E-01 0.13624468E+03</pdfrwt>
<pdfrwt beam="2">  1        3 0.15140143E+00 0.13624468E+03</pdfrwt>
<totfact> 0.13028612E+03</totfact>
</mgrwt>
</event>
<event>
 6    2  0.1181843E-002  0.1282300E+03  0.7546771E-02  0.1230106E+00
          2   -1    0    0  503    0 -0.00000000000E+00  0.00000000000E+00  0.13032783543E+04  0.13032783543E+04  0.00000000000E+00 0.  1.
         21   -1    0    0  502  503  0.00000000000E+00 -0.00000000000E+00 -0.49746741810E+01  0.49746741810E+01  0.00000000000E+00 0.  1.
         25    2    1    2    0    0  0.19996011720E+02  0.20400377879E+02  0.92314747592E+03  0.93201082796E+03  0.12500762072E+03 0.  0.
          5    1    3    3  501    0 -0.76725108451E+01  0.70530029955E+02  0.50164287183E+03  0.50663491136E+03  0.10000000000E+00 0.  1.
         -5    1    3    3    0  501  0.27668522565E+02 -0.50129652076E+02  0.42150460409E+03  0.42537591661E+03  0.10000000000E+00 0.  1.
          2    1    1    2  502    0 -0.19996011720E+02 -0.20400377879E+02  0.37515620416E+03  0.37624220048E+03  0.00000000000E+00 0.  1.
<mgrwt>
<rscale>  1 0.12822995E+03</rscale>
<asrwt>0</asrwt>
<pdfrwt beam="1">  1       21 0.76533552E-03 0.12822995E+03</pdfrwt>
<pdfrwt beam="2">  1        2 0.20050409E+00 0.12822995E+03</pdfrwt>
<totfact> 0.12558001E+06</totfact>
</mgrwt>
</event>
<event>
 6    2  0.1181843E-002  0.1779560E+03  0.7546771E-02  0.1169796E+00
          2   -1    0    0  503    0 -0.00000000000E+00  0.00000000000E+00  0.18734944868E+04  0.18734944868E+04  0.00000000000E+00 0.  1.
         21   -1    0    0  502  503  0.00000000000E+00 -0.00000000000E+00 -0.43452278589E+02  0.43452278589E+02  0.00000000000E+00 0. -1.
         25    2    1    2    0    0 -0.11264882734E+03  0.57930271858E+02  0.15172605717E+03  0.23385711313E+03  0.12499071261E+03 0.  0.
          5    1    3    3  501    0 -0.14848731650E+02  0.61706672297E+02  0.11096873688E+03  0.12783688357E+03  0.10000000000E+00 0.  1.
         -5    1    3    3    0  501 -0.97800095693E+02 -0.37764004391E+01  0.40757320293E+02  0.10602022956E+03  0.10000000000E+00 0.  1.
          2    1    1    2  502    0  0.11264882734E+03 -0.57930271858E+02  0.16783161510E+04  0.16830896522E+04  0.00000000000E+00 0.  1.
<mgrwt>
<rscale>  1 0.17795604E+03</rscale>
<asrwt>0</asrwt>
<pdfrwt beam="1">  1       21 0.66849674E-02 0.17795604E+03</pdfrwt>
<pdfrwt beam="2">  1        2 0.28822986E+00 0.17795604E+03</pdfrwt>
<totfact> 0.18446887E+04</totfact>
</mgrwt>
</event>
<event>
 6    2  0.1181843E-002  0.1298599E+03  0.7546771E-02  0.1227664E+00
         21   -1    0    0  502  503  0.00000000000E+00  0.00000000000E+00  0.51563635820E+01  0.51563635820E+01  0.00000000000E+00 0. -1.
          2   -1    0    0  503    0 -0.00000000000E+00 -0.00000000000E+00 -0.15754668633E+04  0.15754668633E+04  0.00000000000E+00 0. -1.
         25    2    1    2    0    0 -0.28795001854E+02  0.20242666170E+02 -0.89233259055E+03  0.90173224670E+03  0.12499869959E+03 0.  0.
          5    1    3    3  501    0 -0.23548083338E+02 -0.48342222690E+02 -0.54554365826E+03  0.54818735464E+03  0.10000000000E+00 0. -1.
         -5    1    3    3    0  501 -0.52469185154E+01  0.68584888859E+02 -0.34678893230E+03  0.35354489206E+03  0.10000000000E+00 0. -1.
          2    1    1    2  502    0  0.28795001854E+02 -0.20242666170E+02 -0.67797790921E+03  0.67889098023E+03  0.00000000000E+00 0. -1.
<mgrwt>
<rscale>  1 0.12985990E+03</rscale>
<asrwt>0</asrwt>
<pdfrwt beam="1">  1       21 0.79328717E-03 0.12985990E+03</pdfrwt>
<pdfrwt beam="2">  1        2 0.24237938E+00 0.12985990E+03</pdfrwt>
<totfact> 0.85508354E+05</totfact>
</mgrwt>
</event>
<event>
 6    2  0.1181843E-002  0.1958480E+03  0.7546771E-02  0.1153290E+00
         21   -1    0    0  502  503  0.00000000000E+00  0.00000000000E+00  0.62094696858E+02  0.62094696858E+02  0.00000000000E+00 0.  1.
          2   -1    0    0  503    0 -0.00000000000E+00 -0.00000000000E+00 -0.50224755280E+03  0.50224755280E+03  0.00000000000E+00 0.  1.
         25    2    1    2    0    0 -0.13771051795E+03 -0.61388853829E+02 -0.30138577536E+03  0.35942987623E+03  0.12499468873E+03 0.  0.
          5    1    3    3  501    0 -0.41594254137E+02 -0.77419158944E+02 -0.85697467125E+02  0.12275126892E+03  0.10000000000E+00 0. -1.
         -5    1    3    3    0  501 -0.96116263816E+02  0.16030305115E+02 -0.21568830824E+03  0.23667860732E+03  0.10000000000E+00 0. -1.
          2    1    1    2  502    0  0.13771051795E+03  0.61388853829E+02 -0.13876708058E+03  0.20491237342E+03  0.00000000000E+00 0.  1.
<mgrwt>
<rscale>  1 0.19584803E+03</rscale>
<asrwt>0</asrwt>
<pdfrwt beam="1">  1       21 0.95530301E-02 0.19584803E+03</pdfrwt>
<pdfrwt beam="2">  1        2 0.77268856E-01 0.19584803E+03</pdfrwt>
<totfact> 0.68225797E+04</totfact>
</mgrwt>
</event>
<event>
 6    2  0.1181843E-002  0.1277793E+03  0.7546771E-02  0.1230789E+00
          3   -1    0    0  503    0 -0.00000000000E+00  0.00000000000E+00  0.59666183951E+02  0.59666183951E+02  0.00000000000E+00 0.  1.
         21   -1    0    0  502  503  0.00000000000E+00 -0.00000000000E+00 -0.11809653266E+03  0.11809653266E+03  0.00000000000E+00 0.  1.
         25    2    1    2    0    0 -0.78900719027E+01  0.25405768600E+02 -0.73275214655E+02  0.14729837093E+03  0.12497938503E+03 0.  0.
          5    1    3    3  501    0 -0.55001036335E+02  0.44163916116E+02 -0.19065565704E+02  0.73068948811E+02  0.10000000000E+00 0. -1.
         -5    1    3    3    0  501  0.47110964433E+02 -0.18758147517E+02 -0.54209648951E+02  0.74229422115E+02  0.10000000000E+00 0. -1.
          3    1    1    2  502    0  0.78900719027E+01 -0.25405768600E+02  0.14844865950E+02  0.30464345682E+02  0.00000000000E+00 0.  1.
<mgrwt>
<rscale>  1 0.12777931E+03</rscale>
<asrwt>0</asrwt>
<pdfrwt beam="1">  1       21 0.18168697E-01 0.12777931E+03</pdfrwt>
<pdfrwt beam="2">  1        3 0.91794131E-02 0.12777931E+03</pdfrwt>
<totfact> 0.11084176E+05</totfact>
</mgrwt>
</event>
<event>
 6    2  0.1181843E-002  0.1260848E+03  0.7546771E-02  0.1233384E+00
         21   -1    0    0  502  503  0.00000000000E+00  0.00000000000E+00  0.32372269898E+02  0.32372269898E+02  0.00000000000E+00 0.  1.
          1   -1    0    0  503    0 -0.00000000000E+00 -0.00000000000E+00 -0.70603124220E+03  0.70603124220E+03  0.00000000000E+00 0.  1.
         25    2    1    2    0    0 -0.14081881973E+02 -0.86703465330E+01 -0.90961635939E+02  0.15547156057E+03  0.12499565042E+03 0.  0.
          5    1    3    3  501    0 -0.32785748841E+02  0.42109756455E+02 -0.46131098230E+01  0.53567039287E+02  0.10000000000E+00 0.  1.
         -5    1    3    3    0  501  0.18703866868E+02 -0.50780102988E+02 -0.86348526116E+02  0.10190452128E+03  0.10000000000E+00 0.  1.
          1    1    1    2  502    0  0.14081881973E+02  0.86703465330E+01 -0.58269733636E+03  0.58293195153E+03  0.00000000000E+00 0.  1.
<mgrwt>
<rscale>  1 0.12608484E+03</rscale>
<asrwt>0</asrwt>
<pdfrwt beam="1">  1       21 0.49803494E-02 0.12608484E+03</pdfrwt>
<pdfrwt beam="2">  1        1 0.10862019E+00 0.12608484E+03</pdfrwt>
<totfact> 0.83614797E+04</totfact>
</mgrwt>
</event>
<event>
 6    2  0.1181843E-002  0.2189755E+03  0.7546771E-02  0.1134649E+00
         21   -1    0    0  502  503  0.00000000000E+00  0.00000000000E+00  0.14701508713E+04  0.14701508713E+04  0.00000000000E+00 0. -1.
          1   -1    0    0  503    0 -0.00000000000E+00 -0.00000000000E+00 -0.41743289666E+02  0.41743289666E+02  0.00000000000E+00 0.  1.
         25    2    1    2    0    0 -0.63178220861E+02  0.16828784666E+03  0.12070052394E+04  0.12267077586E+04  0.12505195030E+03 0.  0.
          5    1    3    3  501    0 -0.63847561961E+02  0.30838089877E+02  0.60875624039E+03  0.61287165799E+03  0.10000000000E+00 0.  1.
         -5    1    3    3    0  501  0.66934110001E+00  0.13744975678E+03  0.59824899897E+03  0.61383610062E+03  0.10000000000E+00 0.  1.
          1    1    1    2  502    0  0.63178220861E+02 -0.16828784666E+03  0.22140234227E+03  0.28518640235E+03  0.00000000000E+00 0.  1.
<mgrwt>
<rscale>  1 0.21897552E+03</rscale>
<asrwt>0</asrwt>
<pdfrwt beam="1">  1       21 0.22617702E+00 0.21897552E+03</pdfrwt>
<pdfrwt beam="2">  1        1 0.64220457E-02 0.21897552E+03</pdfrwt>
<totfact> 0.11271049E+03</totfact>
</mgrwt>
</event>
<event>
 6    2  0.1181843E-002  0.1265034E+03  0.7546771E-02  0.1232738E+00
          2   -1    0    0  503    0 -0.00000000000E+00  0.00000000000E+00  0.15457113528E+03  0.15457113528E+03  0.00000000000E+00 0.  1.
         21   -1    0    0  502  503  0.00000000000E+00 -0.00000000000E+00 -0.78687566444E+03  0.78687566444E+03  0.00000000000E+00 0.  1.
         25    2    1    2    0    0  0.16820777372E+02 -0.97097393458E+01 -0.78115632807E+03  0.79133325727E+03  0.12500359029E+03 0.  0.
          5    1    3    3  501    0 -0.63791346372E+01 -0.13876604374E+02 -0.69700751667E+01  0.16788253498E+02  0.10000000000E+00 0. -1.
         -5    1    3    3    0  501  0.23199912009E+02  0.41668650283E+01 -0.77418625290E+03  0.77454500377E+03  0.10000000000E+00 0. -1.
          2    1    1    2  502    0 -0.16820777372E+02  0.97097393458E+01  0.14885179891E+03  0.15011354245E+03  0.00000000000E+00 0.  1.
<mgrwt>
<rscale>  1 0.12650342E+03</rscale>
<asrwt>0</asrwt>
<pdfrwt beam="1">  1       21 0.12105779E+00 0.12650342E+03</pdfrwt>
<pdfrwt beam="2">  1        2 0.23780175E-01 0.12650342E+03</pdfrwt>
<totfact> 0.14974784E+03</totfact>
</mgrwt>
</event>
<event>
 6    2  0.1181843E-002  0.1288511E+03  0.7546771E-02  0.1229171E+00
          2   -1    0    0  503    0 -0.00000000000E+00  0.00000000000E+00  0.15370004229E+04  0.15370004229E+04  0.00000000000E+00 0. -1.
         21   -1    0    0  502  503  0.00000000000E+00 -0.00000000000E+00 -0.43342221559E+01  0.43342221559E+01  0.00000000000E+00 0. -1.
         25    2    1    2    0    0  0.18431284366E+02 -0.25232372805E+02  0.10951420470E+04  0.11026961037E+04  0.12500483614E+03 0.  0.
          5    1    3    3  501    0 -0.44122811997E+02  0.21768312706E+02  0.34633734206E+03  0.34981458872E+03  0.10000000000E+00 0. -1.
         -5    1    3    3    0  501  0.62554096364E+02 -0.47000685511E+02  0.74880470497E+03  0.75288151497E+03  0.10000000000E+00 0. -1.
          2    1    1    2  502    0 -0.18431284366E+02  0.25232372805E+02  0.43752415370E+03  0.43863854134E+03  0.00000000000E+00 0. -1.
<mgrwt>
<rscale>  1 0.12885105E+03</rscale>
<asrwt>0</asrwt>
<pdfrwt beam="1">  1       21 0.66680463E-03 0.12885105E+03</pdfrwt>
<pdfrwt beam="2">  1        2 0.23646117E+00 0.12885105E+03</pdfrwt>
<totfact> 0.11734344E+06</totfact>
</mgrwt>
</event>
<event>
 6    2  0.1181843E-002  0.1488124E+03  0.7546771E-02  0.1201940E+00
          2   -1    0    0  503    0 -0.00000000000E+00  0.00000000000E+00  0.79234117577E+03  0.79234117577E+03  0.00000000000E+00 0.  1.
         21   -1    0    0  502  503  0.00000000000E+00 -0.00000000000E+00 -0.17222212785E+03  0.17222212785E+03  0.00000000000E+00 0.  1.
         25    2    1    2    0    0  0.66901429158E+02  0.45216059185E+02 -0.13752501795E+03  0.20262838266E+03  0.12499935066E+03 0.  0.
          5    1    3    3  501    0  0.86520068725E+02  0.38241817057E+02 -0.15074322398E+03  0.17796541361E+03  0.10000000000E+00 0.  1.
         -5    1    3    3    0  501 -0.19618639567E+02  0.69742421284E+01  0.13218206030E+02  0.24662969051E+02  0.10000000000E+00 0.  1.
          2    1    1    2  502    0 -0.66901429158E+02 -0.45216059185E+02  0.75764406587E+03  0.76193492096E+03  0.00000000000E+00 0.  1.
<mgrwt>
<rscale>  1 0.14881240E+03</rscale>
<asrwt>0</asrwt>
<pdfrwt beam="1">  1       21 0.26495713E-01 0.14881240E+03</pdfrwt>
<pdfrwt beam="2">  1        2 0.12189864E+00 0.14881240E+03</pdfrwt>
<totfact> 0.62528710E+03</totfact>
</mgrwt>
</event>
<event>
 6    2  0.1181843E-002  0.1698687E+03  0.7546771E-02  0.1177985E+00
         21   -1    0    0  502  503  0.00000000000E+00  0.00000000000E+00  0.19821120210E+04  0.19821120210E+04  0.00000000000E+00 0. -1.
          2   -1    0    0  503    0 -0.00000000000E+00 -0.00000000000E+00 -0.14735384592E+02  0.14735384592E+02  0.00000000000E+00 0. -1.
         25    2    1    2    0    0  0.35023554653E+01  0.11497158980E+03  0.16597408246E+04  0.16684109191E+04  0.12499862858E+03 0.  0.
          5    1    3    3  501    0 -0.12295311229E+02  0.12273790252E+03  0.89422451988E+03  0.90269223402E+03  0.10000000000E+00 0. -1.
         -5    1    3    3    0  501  0.15797666694E+02 -0.77663127185E+01  0.76551630471E+03  0.76571868507E+03  0.10000000000E+00 0. -1.
          2    1    1    2  502    0 -0.35023554653E+01 -0.11497158980E+03  0.30763581176E+03  0.32843648645E+03  0.00000000000E+00 0. -1.
<mgrwt>
<rscale>  1 0.16986874E+03</rscale>
<asrwt>0</asrwt>
<pdfrwt beam="1">  1       21 0.30494010E+00 0.16986874E+03</pdfrwt>
<pdfrwt beam="2">  1        2 0.22669838E-02 0.16986874E+03</pdfrwt>
<totfact> 0.17830762E+03</totfact>
</mgrwt>
</event>
<event>
 6    2  0.1181843E-002  0.1425319E+03  0.7546771E-02  0.1209962E+00
         21   -1    0    0  502  503  0.00000000000E+00  0.00000000000E+00  0.57620676841E+02  0.57620676841E+02  0.00000000000E+00 0. -1.
          1   -1    0    0  503    0 -0.00000000000E+00 -0.00000000000E+00 -0.32130825809E+03  0.32130825809E+03  0.00000000000E+00 0.  1.
         25    2    1    2    0    0 -0.45033651502E+02  0.51606957858E+02 -0.44542841689E+02  0.14932988279E+03  0.12499616507E+03 0.  0.
          5    1    3    3  501    0 -0.11250857630E+02  0.72817521579E+02 -0.70307073767E+02  0.10184334965E+03  0.10000000000E+00 0.  1.
         -5    1    3    3    0  501 -0.33782793872E+02 -0.21210563721E+02  0.25764232077E+02  0.47486533141E+02  0.10000000000E+00 0.  1.
          1    1    1    2  502    0  0.45033651502E+02 -0.51606957858E+02 -0.21914473956E+03  0.22959905214E+03  0.00000000000E+00 0.  1.
<mgrwt>
<rscale>  1 0.14253192E+03</rscale>
<asrwt>0</asrwt>
<pdfrwt beam="1">  1       21 0.88647196E-02 0.14253192E+03</pdfrwt>
<pdfrwt beam="2">  1        1 0.49432039E-01 0.14253192E+03</pdfrwt>
<totfact> 0.87630372E+04</totfact>
</mgrwt>
</event>
<event>
 6    2  0.1181843E-002  0.1313622E+03  0.7546771E-02  0.1225448E+00
          2   -1    0    0  503    0 -0.00000000000E+00  0.00000000000E+00  0.88626206744E+03  0.88626206744E+03  0.00000000000E+00 0.  1.
         21   -1    0    0  502  503  0.00000000000E+00 -0.00000000000E+00 -0.21093431699E+02  0.21093431699E+02  0.00000000000E+00 0. -1.
         25    2    1    2    0    0 -0.39644774059E+02  0.74197569261E+01  0.19003426011E+03  0.23101742830E+03  0.12501708388E+03 0.  0.
          5    1    3    3  501    0 -0.47629035832E+02  0.83084969786E+01  0.20682639599E+03  0.21240226989E+03  0.10000000000E+00 0.  1.
         -5    1    3    3    0  501  0.79842617731E+01 -0.88874005249E+00 -0.16792135886E+02  0.18615158408E+02  0.10000000000E+00 0.  1.
          2    1    1    2  502    0  0.39644774059E+02 -0.74197569261E+01  0.67513437563E+03  0.67633807083E+03  0.00000000000E+00 0.  1.
<mgrwt>
<rscale>  1 0.13136222E+03</rscale>
<asrwt>0</asrwt>
<pdfrwt beam="1">  1       21 0.32451440E-02 0.13136222E+03</pdfrwt>
<pdfrwt beam="2">  1        2 0.13634798E+00 0.13136222E+03</pdfrwt>
<totfact> 0.21640656E+05</totfact>
</mgrwt>
</event>
<event>
 6    2  0.1181843E-002  0.1274057E+03  0.7546771E-02  0.1231357E+00
          3   -1    0    0  503    0 -0.00000000000E+00  0.00000000000E+00  0.18412705499E+04  0.18412705499E+04  0.00000000000E+00 0.  1.
         21   -1    0    0  502  503  0.00000000000E+00 -0.00000000000E+00 -0.15314916565E+02  0.15314916565E+02  0.00000000000E+00 0.  1.
         25    2    1    2    0    0 -0.14560594936E+02 -0.20009197509E+02  0.25144907231E+03  0.28188445052E+03  0.12497931257E+03 0.  0.
          5    1    3    3  501    0 -0.25227449273E+02 -0.36601861458E+02  0.25745495263E+03  0.26126458446E+03  0.10000000000E+00 0.  1.
         -5    1    3    3    0  501  0.10666854336E+02  0.16592663949E+02 -0.60058803120E+01  0.20619866068E+02  0.10000000000E+00 0.  1.
          3    1    1    2  502    0  0.14560594936E+02  0.20009197509E+02  0.15745065611E+04  0.15747010160E+04  0.00000000000E+00 0.  1.
<mgrwt>
<rscale>  1 0.12740568E+03</rscale>
<asrwt>0</asrwt>
<pdfrwt beam="1">  1       21 0.23561425E-02 0.12740568E+03</pdfrwt>
<pdfrwt beam="2">  1        3 0.28327222E+00 0.12740568E+03</pdfrwt>
<totfact> 0.25813815E+03</totfact>
</mgrwt>
</event>
<event>
 6    2  0.1181843E-002  0.1620707E+03  0.7546771E-02  0.1186379E+00
          3   -1    0    0  503    0 -0.00000000000E+00  0.00000000000E+00  0.50437608457E+02  0.50437608457E+02  0.00000000000E+00 0.  1.
         21   -1    0    0  502  503  0.00000000000E+00 -0.00000000000E+00 -0.34869162696E+03  0.34869162696E+03  0.00000000000E+00 0.  1.
         25    2    1    2    0    0 -0.64374013183E+02  0.80611583088E+02 -0.18286527260E+03  0.24434938019E+03  0.12499868310E+03 0.  0.
          5    1    3    3  501    0 -0.97079386281E+01  0.50086643911E+02  0.45944225906E-01  0.51018899258E+02  0.10000000000E+00 0. -1.
         -5    1    3    3    0  501 -0.54666074555E+02  0.30524939177E+02 -0.18291121682E+03  0.19333048093E+03  0.10000000000E+00 0. -1.
          3    1    1    2  502    0  0.64374013183E+02 -0.80611583088E+02 -0.11538874591E+03  0.15477985522E+03  0.00000000000E+00 0.  1.
<mgrwt>
<rscale>  1 0.16207070E+03</rscale>
<asrwt>0</asrwt>
<pdfrwt beam="1">  1       21 0.53644868E-01 0.16207070E+03</pdfrwt>
<pdfrwt beam="2">  1        3 0.77596318E-02 0.16207070E+03</pdfrwt>
<totfact> 0.18009431E+04</totfact>
</mgrwt>
</event>
<event>
 6    2  0.1181843E-002  0.1421377E+03  0.7546771E-02  0.1210481E+00
         21   -1    0    0  502  503  0.00000000000E+00  0.00000000000E+00  0.11140333599E+02  0.11140333599E+02  0.00000000000E+00 0. -1.
          3   -1    0    0  503    0 -0.00000000000E+00 -0.00000000000E+00 -0.24118886426E+04  0.24118886426E+04  0.00000000000E+00 0.  1.
         25    2    1    2    0    0  0.42987507286E+02 -0.52243296563E+02 -0.46827317887E+03  0.48936990170E+03  0.12500337124E+03 0.  0.
          5    1    3    3  501    0  0.32892646913E+02  0.33702488726E+02 -0.25316000269E+03  0.25750297267E+03  0.10000000000E+00 0.  1.
         -5    1    3    3    0  501  0.10094860373E+02 -0.85945785290E+02 -0.21511317617E+03  0.23186692903E+03  0.10000000000E+00 0.  1.
          3    1    1    2  502    0 -0.42987507286E+02  0.52243296563E+02 -0.19324751301E+04  0.19336590745E+04  0.00000000000E+00 0.  1.
<mgrwt>
<rscale>  1 0.14213772E+03</rscale>
<asrwt>0</asrwt>
<pdfrwt beam="1">  1       21 0.17138970E-02 0.14213772E+03</pdfrwt>
<pdfrwt beam="2">  1        3 0.37105990E+00 0.14213772E+03</pdfrwt>
<totfact> 0.15305773E+03</totfact>
</mgrwt>
</event>
<event>
 6    2  0.1181843E-002  0.1311058E+03  0.7546771E-02  0.1225824E+00
         21   -1    0    0  502  503  0.00000000000E+00  0.00000000000E+00  0.16235695035E+02  0.16235695035E+02  0.00000000000E+00 0.  1.
          2   -1    0    0  503    0 -0.00000000000E+00 -0.00000000000E+00 -0.21892625662E+04  0.21892625662E+04  0.00000000000E+00 0.  1.
         25    2    1    2    0    0  0.26669819725E+02  0.29206542046E+02 -0.25200324272E+03  0.28406752285E+03  0.12499768723E+03 0.  0.
          5    1    3    3  501    0 -0.14655580932E+02  0.66694409028E+02 -0.91703237796E+02  0.11433470195E+03  0.10000000000E+00 0. -1.
         -5    1    3    3    0  501  0.41325400657E+02 -0.37487866982E+02 -0.16030000492E+03  0.16973282089E+03  0.10000000000E+00 0. -1.
          2    1    1    2  502    0 -0.26669819725E+02 -0.29206542046E+02 -0.19210236284E+04  0.19214307384E+04  0.00000000000E+00 0.  1.
<mgrwt>
<rscale>  1 0.13110577E+03</rscale>
<asrwt>0</asrwt>
<pdfrwt beam="1">  1       21 0.24977988E-02 0.13110577E+03</pdfrwt>
<pdfrwt beam="2">  1        2 0.33680969E+00 0.13110577E+03</pdfrwt>
<totfact> 0.66604659E+04</totfact>
</mgrwt>
</event>
<event>
 6    2  0.1181843E-002  0.1260742E+03  0.7546771E-02  0.1233400E+00
         21   -1    0    0  502  503  0.00000000000E+00  0.00000000000E+00  0.17182696335E+04  0.17182696335E+04  0.00000000000E+00 0. -1.
          2   -1    0    0  503    0 -0.00000000000E+00 -0.00000000000E+00 -0.19260494486E+02  0.19260494486E+02  0.00000000000E+00 0. -1.
         25    2    1    2    0    0  0.13841050634E+02 -0.87349239211E+01  0.17119990241E+04  0.17166348966E+04  0.12500734394E+03 0.  0.
          5    1    3    3  501    0 -0.46080531920E+02 -0.36033468024E+02  0.66528194967E+03  0.66784871699E+03  0.10000000000E+00 0.  1.
         -5    1    3    3    0  501  0.59921582554E+02  0.27298544103E+02  0.10467170745E+04  0.10487861796E+04  0.10000000000E+00 0.  1.
          2    1    1    2  502    0 -0.13841050634E+02  0.87349239211E+01 -0.12989885125E+02  0.20895231373E+02  0.00000000000E+00 0. -1.
<mgrwt>
<rscale>  1 0.12607422E+03</rscale>
<asrwt>0</asrwt>
<pdfrwt beam="1">  1       21 0.26434905E+00 0.12607422E+03</pdfrwt>
<pdfrwt beam="2">  1        2 0.29631544E-02 0.12607422E+03</pdfrwt>
<totfact> 0.21931249E+03</totfact>
</mgrwt>
</event>
<event>
 6    2  0.1181843E-002  0.1353722E+03  0.7546771E-02  0.1219695E+00
         21   -1    0    0  502  503  0.00000000000E+00  0.00000000000E+00  0.54099164778E+03  0.54099164778E+03  0.00000000000E+00 0.  1.
          2   -1    0    0  503    0 -0.00000000000E+00 -0.00000000000E+00 -0.18166074870E+03  0.18166074870E+03  0.00000000000E+00 0. -1.
         25    2    1    2    0    0  0.50894195483E+02 -0.10212585298E+02  0.52857089342E+03  0.54563066981E+03  0.12502448733E+03 0.  0.
          5    1    3    3  501    0  0.83235200091E+02  0.23056301825E+02  0.28993489156E+03  0.30252593762E+03  0.10000000000E+00 0.  1.
         -5    1    3    3    0  501 -0.32341004609E+02 -0.33268887123E+02  0.23863600186E+03  0.24310473219E+03  0.10000000000E+00 0.  1.
          2    1    1    2  502    0 -0.50894195483E+02  0.10212585298E+02 -0.16923999434E+03  0.17702172668E+03  0.00000000000E+00 0. -1.
<mgrwt>
<rscale>  1 0.13537222E+03</rscale>
<asrwt>0</asrwt>
<pdfrwt beam="1">  1       21 0.83229484E-01 0.13537222E+03</pdfrwt>
<pdfrwt beam="2">  1        2 0.27947808E-01 0.13537222E+03</pdfrwt>
<totfact> 0.30034678E+03</totfact>
</mgrwt>
</event>
<event>
 6    2  0.1181843E-002  0.1290363E+03  0.7546771E-02  0.1228893E+00
          2   -1    0    0  503    0 -0.00000000000E+00  0.00000000000E+00  0.21704341190E+04  0.21704341190E+04  0.00000000000E+00 0. -1.
         21   -1    0    0  502  503  0.00000000000E+00 -0.00000000000E+00 -0.15773966056E+03  0.15773966056E+03  0.00000000000E+00 0.  1.
         25    2    1    2    0    0 -0.13797567103E+01 -0.31982116878E+02 -0.13121115127E+03  0.18402918955E+03  0.12500246741E+03 0.  0.
          5    1    3    3  501    0  0.54252705549E+00  0.48135796077E+02 -0.39792947092E+02  0.62456687695E+02  0.10000000000E+00 0.  1.
         -5    1    3    3    0  501 -0.19222837658E+01 -0.80117912955E+02 -0.91418204182E+02  0.12157250185E+03  0.10000000000E+00 0.  1.
          2    1    1    2  502    0  0.13797567103E+01  0.31982116878E+02  0.21439056097E+04  0.21441445900E+04  0.00000000000E+00 0. -1.
<mgrwt>
<rscale>  1 0.12903634E+03</rscale>
<asrwt>0</asrwt>
<pdfrwt beam="1">  1       21 0.24267642E-01 0.12903634E+03</pdfrwt>
<pdfrwt beam="2">  1        2 0.33391292E+00 0.12903634E+03</pdfrwt>
<totfact> 0.13260307E+03</totfact>
</mgrwt>
</event>
<event>
 6    2  0.1181843E-002  0.1298808E+03  0.7546771E-02  0.1227633E+00
          2   -1    0    0  503    0 -0.00000000000E+00  0.00000000000E+00  0.12837644991E+04  0.12837644991E+04  0.00000000000E+00 0.  1.
         21   -1    0    0  502  503  0.00000000000E+00 -0.00000000000E+00 -0.44043329351E+03  0.44043329351E+03  0.00000000000E+00 0. -1.
         25    2    1    2    0    0  0.32527522320E+01  0.35123762347E+02 -0.43060861836E+03  0.44976971142E+03  0.12499900810E+03 0.  0.
          5    1    3    3  501    0  0.22842580324E+02 -0.45496516768E+01 -0.76684349285E+01  0.24521372321E+02  0.10000000000E+00 0.  1.
         -5    1    3    3    0  501 -0.19589828092E+02  0.39673414024E+02 -0.42294018343E+03  0.42524833910E+03  0.10000000000E+00 0.  1.
          2    1    1    2  502    0 -0.32527522320E+01 -0.35123762347E+02  0.12739398240E+04  0.12744280812E+04  0.00000000000E+00 0.  1.
<mgrwt>
<rscale>  1 0.12988076E+03</rscale>
<asrwt>0</asrwt>
<pdfrwt beam="1">  1       21 0.67758969E-01 0.12988076E+03</pdfrwt>
<pdfrwt beam="2">  1        2 0.19750223E+00 0.12988076E+03</pdfrwt>
<totfact> 0.48226488E+02</totfact>
</mgrwt>
</event>
<event>
 6    2  0.1181843E-002  0.1415778E+03  0.7546771E-02  0.1211222E+00
          1   -1    0    0  503    0 -0.00000000000E+00  0.00000000000E+00  0.32529132133E+04  0.32529132133E+04  0.00000000000E+00 0. -1.
         21   -1    0    0  502  503  0.00000000000E+00 -0.00000000000E+00 -0.13249586641E+02  0.13249586641E+02  0.00000000000E+00 0. -1.
         25    2    1    2    0    0 -0.62711427275E+02 -0.22084021220E+02  0.37668951283E+03  0.40241679103E+03  0.12499543001E+03 0.  0.
          5    1    3    3  501    0  0.32236038859E+02 -0.13265798036E+02  0.18572822806E+03  0.18897123670E+03  0.10000000000E+00 0.  1.
         -5    1    3    3    0  501 -0.94947466133E+02 -0.88182231835E+01  0.19096128477E+03  0.21344555434E+03  0.10000000000E+00 0.  1.
          1    1    1    2  502    0  0.62711427275E+02  0.22084021220E+02  0.28629741138E+04  0.28637460089E+04  0.00000000000E+00 0. -1.
<mgrwt>
<rscale>  1 0.14157784E+03</rscale>
<asrwt>0</asrwt>
<pdfrwt beam="1">  1       21 0.20384005E-02 0.14157784E+03</pdfrwt>
<pdfrwt beam="2">  1        1 0.50044755E+00 0.14157784E+03</pdfrwt>
<totfact> 0.68381678E+03</totfact>
</mgrwt>
</event>
<event>
 6    2  0.1181843E-002  0.2037256E+03  0.7546771E-02  0.1146633E+00
         21   -1    0    0  502  503  0.00000000000E+00  0.00000000000E+00  0.23415855530E+03  0.23415855530E+03  0.00000000000E+00 0. -1.
          4   -1    0    0  503    0 -0.00000000000E+00 -0.00000000000E+00 -0.14279869634E+03  0.14279869634E+03  0.00000000000E+00 0. -1.
         25    2    1    2    0    0  0.68719871107E+02  0.14545423499E+03  0.36362330639E+02  0.20694524241E+03  0.12499903642E+03 0.  0.
          5    1    3    3  501    0  0.32264070966E+02  0.14024611568E+03 -0.13962640518E+02  0.14458529859E+03  0.10000000000E+00 0. -1.
         -5    1    3    3    0  501  0.36455800141E+02  0.52081193037E+01  0.50324971157E+02  0.62359943815E+02  0.10000000000E+00 0. -1.
          4    1    1    2  502    0 -0.68719871107E+02 -0.14545423499E+03  0.54997528324E+02  0.17001200923E+03  0.00000000000E+00 0. -1.
<mgrwt>
<rscale>  1 0.20372559E+03</rscale>
<asrwt>0</asrwt>
<pdfrwt beam="1">  1       21 0.36024393E-01 0.20372559E+03</pdfrwt>
<pdfrwt beam="2">  1        4 0.21969030E-01 0.20372559E+03</pdfrwt>
<totfact> 0.59541924E+03</totfact>
</mgrwt>
</event>
<event>
 6    2  0.1181843E-002  0.1261978E+03  0.7546771E-02  0.1233209E+00
          4   -1    0    0  503    0 -0.00000000000E+00  0.00000000000E+00  0.19093335966E+03  0.19093335966E+03  0.00000000000E+00 0.  1.
         21   -1    0    0  502  503  0.00000000000E+00 -0.00000000000E+00 -0.39435410883E+02  0.39435410883E+02  0.00000000000E+00 0. -1.
         25    2    1    2    0    0 -0.51193923504E+01  0.16567048037E+02  0.64625593771E+02  0.14178275967E+03  0.12500083324E+03 0.  0.
          5    1    3    3  501    0 -0.26246391692E+02  0.75946568497E+01 -0.32224961178E+02  0.42249378841E+02  0.10000000000E+00 0.  1.
         -5    1    3    3    0  501  0.21126999341E+02  0.89723911872E+01  0.96850554948E+02  0.99533380826E+02  0.10000000000E+00 0.  1.
          4    1    1    2  502    0  0.51193923504E+01 -0.16567048037E+02  0.86872355005E+02  0.88586010875E+02  0.00000000000E+00 0.  1.
<mgrwt>
<rscale>  1 0.12619780E+03</rscale>
<asrwt>0</asrwt>
<pdfrwt beam="1">  1       21 0.60669864E-02 0.12619780E+03</pdfrwt>
<pdfrwt beam="2">  1        4 0.29374363E-01 0.12619780E+03</pdfrwt>
<totfact> 0.85328209E+04</totfact>
</mgrwt>
</event>
<event>
 6    2  0.1181843E-002  0.1282505E+03  0.7546771E-02  0.1230075E+00
         21   -1    0    0  502  503  0.00000000000E+00  0.00000000000E+00  0.80954458200E+02  0.80954458200E+02  0.00000000000E+00 0.  1.
          1   -1    0    0  503    0 -0.00000000000E+00 -0.00000000000E+00 -0.13883182302E+03  0.13883182302E+03  0.00000000000E+00 0. -1.
         25    2    1    2    0    0  0.88937072508E+00  0.28673451961E+02  0.26243795211E+02  0.13090812084E+03  0.12500096594E+03 0.  0.
          5    1    3    3  501    0 -0.39709466078E+02  0.63073807406E+02  0.95766953873E+01  0.75145658367E+02  0.10000000000E+00 0.  1.
         -5    1    3    3    0  501  0.40598836803E+02 -0.34400355445E+02  0.16667099824E+02  0.55762462473E+02  0.10000000000E+00 0.  1.
          1    1    1    2  502    0 -0.88937072508E+00 -0.28673451961E+02 -0.84121160033E+02  0.88878160383E+02  0.00000000000E+00 0. -1.
<mgrwt>
<rscale>  1 0.12825053E+03</rscale>
<asrwt>0</asrwt>
<pdfrwt beam="1">  1       21 0.12454532E-01 0.12825053E+03</pdfrwt>
<pdfrwt beam="2">  1        1 0.21358742E-01 0.12825053E+03</pdfrwt>
<totfact> 0.13646645E+05</totfact>
</mgrwt>
</event>
<event>
 6    2  0.1181843E-002  0.1361246E+03  0.7546771E-02  0.1218641E+00
         21   -1    0    0  502  503  0.00000000000E+00  0.00000000000E+00  0.15581675852E+03  0.15581675852E+03  0.00000000000E+00 0.  1.
          1   -1    0    0  503    0 -0.00000000000E+00 -0.00000000000E+00 -0.96062530116E+02  0.96062530116E+02  0.00000000000E+00 0.  1.
         25    2    1    2    0    0 -0.18648600868E+02  0.50571215169E+02  0.11240185020E+03  0.17653348451E+03  0.12499870842E+03 0.  0.
          5    1    3    3  501    0 -0.40772541497E+02  0.79664781981E+02  0.45727837429E+02  0.10049837185E+03  0.10000000000E+00 0. -1.
         -5    1    3    3    0  501  0.22123940628E+02 -0.29093566813E+02  0.66674012770E+02  0.76035112663E+02  0.10000000000E+00 0. -1.
          1    1    1    2  502    0  0.18648600868E+02 -0.50571215169E+02 -0.52647621797E+02  0.75345804123E+02  0.00000000000E+00 0.  1.
<mgrwt>
<rscale>  1 0.13612456E+03</rscale>
<asrwt>0</asrwt>
<pdfrwt beam="1">  1       21 0.23971809E-01 0.13612456E+03</pdfrwt>
<pdfrwt beam="2">  1        1 0.14778851E-01 0.13612456E+03</pdfrwt>
<totfact> 0.66235119E+04</totfact>
</mgrwt>
</event>
<event>
 6    2  0.1181843E-002  0.2089069E+03  0.7546771E-02  0.1142435E+00
          2   -1    0    0  503    0 -0.00000000000E+00  0.00000000000E+00  0.24516121636E+04  0.24516121636E+04  0.00000000000E+00 0. -1.
         21   -1    0    0  502  503  0.00000000000E+00 -0.00000000000E+00 -0.38529820236E+03  0.38529820236E+03  0.00000000000E+00 0.  1.
         25    2    1    2    0    0 -0.12458787904E+03  0.11178269136E+03 -0.35387635894E+03  0.41093866464E+03  0.12499839595E+03 0.  0.
          5    1    3    3  501    0 -0.11772210281E+02 -0.24290628913E+02 -0.84851652341E+02  0.89041745788E+02  0.10000000000E+00 0. -1.
         -5    1    3    3    0  501 -0.11281566876E+03  0.13607332028E+03 -0.26902470660E+03  0.32189691886E+03  0.10000000000E+00 0. -1.
          2    1    1    2  502    0  0.12458787904E+03 -0.11178269136E+03  0.24201903202E+04  0.24259717013E+04  0.00000000000E+00 0. -1.
<mgrwt>
<rscale>  1 0.20890694E+03</rscale>
<asrwt>0</asrwt>
<pdfrwt beam="1">  1       21 0.59276648E-01 0.20890694E+03</pdfrwt>
<pdfrwt beam="2">  1        2 0.37717109E+00 0.20890694E+03</pdfrwt>
<totfact> 0.14581612E+02</totfact>
</mgrwt>
</event>
<event>
 6    2  0.1181843E-002  0.1692793E+03  0.7546771E-02  0.1178601E+00
         21   -1    0    0  502  503  0.00000000000E+00  0.00000000000E+00  0.13732310539E+03  0.13732310539E+03  0.00000000000E+00 0.  1.
          2   -1    0    0  503    0 -0.00000000000E+00 -0.00000000000E+00 -0.22905625982E+03  0.22905625982E+03  0.00000000000E+00 0.  1.
         25    2    1    2    0    0  0.87683658290E+02 -0.73093488917E+02  0.57243189287E+02  0.17869603340E+03  0.12499763030E+03 0.  0.
          5    1    3    3  501    0  0.43969748958E+02  0.25801395761E+01 -0.31496494658E+02  0.54148269773E+02  0.10000000000E+00 0. -1.
         -5    1    3    3    0  501  0.43713909332E+02 -0.75673628493E+02  0.88739683945E+02  0.12454776363E+03  0.10000000000E+00 0. -1.
          2    1    1    2  502    0 -0.87683658290E+02  0.73093488917E+02 -0.14897634371E+03  0.18768333181E+03  0.00000000000E+00 0.  1.
<mgrwt>
<rscale>  1 0.16927932E+03</rscale>
<asrwt>0</asrwt>
<pdfrwt beam="1">  1       21 0.21126632E-01 0.16927932E+03</pdfrwt>
<pdfrwt beam="2">  1        2 0.35239425E-01 0.16927932E+03</pdfrwt>
<totfact> 0.37778183E+04</totfact>
</mgrwt>
</event>
<event>
 6    2  0.1181843E-002  0.1262301E+03  0.7546771E-02  0.1233159E+00
          1   -1    0    0  503    0 -0.00000000000E+00  0.00000000000E+00  0.52930979708E+01  0.52930979708E+01  0.00000000000E+00 0. -1.
         21   -1    0    0  502  503  0.00000000000E+00 -0.00000000000E+00 -0.10309946709E+04  0.10309946709E+04  0.00000000000E+00 0. -1.
         25    2    1    2    0    0 -0.10056914145E+02  0.14476539339E+02 -0.95997276890E+03  0.96823641038E+03  0.12499327038E+03 0.  0.
          5    1    3    3  501    0 -0.71515551035E+01 -0.53602806714E+02 -0.54852208090E+03  0.55118135751E+03  0.10000000000E+00 0. -1.
         -5    1    3    3    0  501 -0.29053590418E+01  0.68079346053E+02 -0.41145068800E+03  0.41705505287E+03  0.10000000000E+00 0. -1.
          1    1    1    2  502    0  0.10056914145E+02 -0.14476539339E+02 -0.65728803983E+02  0.68051358446E+02  0.00000000000E+00 0. -1.
<mgrwt>
<rscale>  1 0.12623007E+03</rscale>
<asrwt>0</asrwt>
<pdfrwt beam="1">  1       21 0.15861468E+00 0.12623007E+03</pdfrwt>
<pdfrwt beam="2">  1        1 0.81432217E-03 0.12623007E+03</pdfrwt>
<totfact> 0.57486910E+04</totfact>
</mgrwt>
</event>
<event>
 6    2  0.1181843E-002  0.1281342E+03  0.7546771E-02  0.1230251E+00
          2   -1    0    0  503    0 -0.00000000000E+00  0.00000000000E+00  0.10046758751E+03  0.10046758751E+03  0.00000000000E+00 0.  1.
         21   -1    0    0  502  503  0.00000000000E+00 -0.00000000000E+00 -0.87094876045E+02  0.87094876045E+02  0.00000000000E+00 0.  1.
         25    2    1    2    0    0  0.14734006526E+02  0.24003207483E+02 -0.33893606017E+02  0.13254110692E+03  0.12500049431E+03 0.  0.
          5    1    3    3  501    0  0.13477140390E+02  0.73748920313E+02 -0.35065664505E+02  0.82765617182E+02  0.10000000000E+00 0.  1.
         -5    1    3    3    0  501  0.12568661358E+01 -0.49745712830E+02  0.11720584878E+01  0.49775489737E+02  0.10000000000E+00 0.  1.
          2    1    1    2  502    0 -0.14734006526E+02 -0.24003207483E+02  0.47266317478E+02  0.55021356633E+02  0.00000000000E+00 0.  1.
<mgrwt>
<rscale>  1 0.12813418E+03</rscale>
<asrwt>0</asrwt>
<pdfrwt beam="1">  1       21 0.13399212E-01 0.12813418E+03</pdfrwt>
<pdfrwt beam="2">  1        2 0.15456552E-01 0.12813418E+03</pdfrwt>
<totfact> 0.21606425E+05</totfact>
</mgrwt>
</event>
<event>
 6    2  0.1181843E-002  0.1309537E+03  0.7546771E-02  0.1226047E+00
          1   -1    0    0  503    0 -0.00000000000E+00  0.00000000000E+00  0.10264167867E+04  0.10264167867E+04  0.00000000000E+00 0.  1.
         21   -1    0    0  502  503  0.00000000000E+00 -0.00000000000E+00 -0.50654120337E+03  0.50654120337E+03  0.00000000000E+00 0.  1.
         25    2    1    2    0    0 -0.22545342229E+02 -0.31882762292E+02 -0.49769674810E+03  0.51463669859E+03  0.12499630185E+03 0.  0.
          5    1    3    3  501    0 -0.53547176318E+01 -0.52114312398E+01 -0.47631490893E+03  0.47637352412E+03  0.10000000000E+00 0.  1.
         -5    1    3    3    0  501 -0.17190624597E+02 -0.26671331052E+02 -0.21381839178E+02  0.38263174473E+02  0.10000000000E+00 0.  1.
          1    1    1    2  502    0  0.22545342229E+02  0.31882762292E+02  0.10175723315E+04  0.10183212915E+04  0.00000000000E+00 0.  1.
<mgrwt>
<rscale>  1 0.13095373E+03</rscale>
<asrwt>0</asrwt>
<pdfrwt beam="1">  1       21 0.77929416E-01 0.13095373E+03</pdfrwt>
<pdfrwt beam="2">  1        1 0.15791027E+00 0.13095373E+03</pdfrwt>
<totfact> 0.26515616E+02</totfact>
</mgrwt>
</event>
<event>
 6    2  0.1181843E-002  0.1298485E+03  0.7546771E-02  0.1227681E+00
          2   -1    0    0  503    0 -0.00000000000E+00  0.00000000000E+00  0.12216263888E+04  0.12216263888E+04  0.00000000000E+00 0.  1.
         21   -1    0    0  502  503  0.00000000000E+00 -0.00000000000E+00 -0.74859935985E+01  0.74859935985E+01  0.00000000000E+00 0. -1.
         25    2    1    2    0    0  0.31034261150E+02 -0.16500357333E+02  0.59634416917E+03  0.61031713027E+03  0.12500097696E+03 0.  0.
          5    1    3    3  501    0  0.14507847566E+02  0.54420702119E+02  0.22897123774E+03  0.23579637014E+03  0.10000000000E+00 0. -1.
         -5    1    3    3    0  501  0.16526413584E+02 -0.70921059451E+02  0.36737293143E+03  0.37452076013E+03  0.10000000000E+00 0. -1.
          2    1    1    2  502    0 -0.31034261150E+02  0.16500357333E+02  0.61779622599E+03  0.61879525209E+03  0.00000000000E+00 0.  1.
<mgrwt>
<rscale>  1 0.12984849E+03</rscale>
<asrwt>0</asrwt>
<pdfrwt beam="1">  1       21 0.11516923E-02 0.12984849E+03</pdfrwt>
<pdfrwt beam="2">  1        2 0.18794236E+00 0.12984849E+03</pdfrwt>
<totfact> 0.73181922E+05</totfact>
</mgrwt>
</event>
<event>
 6    2  0.1181843E-002  0.1263812E+03  0.7546771E-02  0.1232926E+00
         21   -1    0    0  502  503  0.00000000000E+00  0.00000000000E+00  0.13403687689E+02  0.13403687689E+02  0.00000000000E+00 0.  1.
          2   -1    0    0  503    0 -0.00000000000E+00 -0.00000000000E+00 -0.39597985068E+03  0.39597985068E+03  0.00000000000E+00 0. -1.
         25    2    1    2    0    0  0.16155175785E+02 -0.10454069641E+02 -0.32719143351E+03  0.35075124747E+03  0.12490767055E+03 0.  0.
          5    1    3    3  501    0  0.72421247717E+01 -0.11963015411E+01  0.10502016257E+02  0.12813346716E+02  0.10000000000E+00 0.  1.
         -5    1    3    3    0  501  0.89130510132E+01 -0.92577680997E+01 -0.33769344977E+03  0.33793790075E+03  0.10000000000E+00 0.  1.
          2    1    1    2  502    0 -0.16155175785E+02  0.10454069641E+02 -0.55384729478E+02  0.58632290899E+02  0.00000000000E+00 0. -1.
<mgrwt>
<rscale>  1 0.12638118E+03</rscale>
<asrwt>0</asrwt>
<pdfrwt beam="1">  1       21 0.20621060E-02 0.12638118E+03</pdfrwt>
<pdfrwt beam="2">  1        2 0.60919971E-01 0.12638118E+03</pdfrwt>
<totfact> 0.11400811E+06</totfact>
</mgrwt>
</event>
<event>
 6    2  0.1181843E-002  0.1373899E+03  0.7546771E-02  0.1216885E+00
          2   -1    0    0  503    0 -0.00000000000E+00  0.00000000000E+00  0.15190445825E+04  0.15190445825E+04  0.00000000000E+00 0.  1.
         21   -1    0    0  502  503  0.00000000000E+00 -0.00000000000E+00 -0.82667000327E+01  0.82667000327E+01  0.00000000000E+00 0. -1.
         25    2    1    2    0    0  0.42502354907E+02  0.38028657513E+02  0.63571410689E+03  0.65039096672E+03  0.12499341951E+03 0.  0.
          5    1    3    3  501    0  0.13868550497E+02 -0.45140874225E+02  0.16969335982E+03  0.17614165205E+03  0.10000000000E+00 0. -1.
         -5    1    3    3    0  501  0.28633804410E+02  0.83169531738E+02  0.46602074707E+03  0.47424931467E+03  0.10000000000E+00 0. -1.
          2    1    1    2  502    0 -0.42502354907E+02 -0.38028657513E+02  0.87506377557E+03  0.87692031581E+03  0.00000000000E+00 0.  1.
<mgrwt>
<rscale>  1 0.13738990E+03</rscale>
<asrwt>0</asrwt>
<pdfrwt beam="1">  1       21 0.12718012E-02 0.13738990E+03</pdfrwt>
<pdfrwt beam="2">  1        2 0.23369894E+00 0.13738990E+03</pdfrwt>
<totfact> 0.43528215E+05</totfact>
</mgrwt>
</event>
<event>
 6    2  0.1181843E-002  0.1262201E+03  0.7546771E-02  0.1233175E+00
          3   -1    0    0  503    0 -0.00000000000E+00  0.00000000000E+00  0.65612199239E+02  0.65612199239E+02  0.00000000000E+00 0.  1.
         21   -1    0    0  502  503  0.00000000000E+00 -0.00000000000E+00 -0.81983670757E+03  0.81983670757E+03  0.00000000000E+00 0. -1.
         25    2    1    2    0    0  0.13744159734E+02 -0.10808020546E+02 -0.81371294401E+03  0.82344415526E+03  0.12500322536E+03 0.  0.
          5    1    3    3  501    0  0.59444046628E+02  0.33079407909E+01 -0.22341575004E+03  0.23121233643E+03  0.10000000000E+00 0.  1.
         -5    1    3    3    0  501 -0.45699886893E+02 -0.14115961337E+02 -0.59029719397E+03  0.59223181883E+03  0.10000000000E+00 0.  1.
          3    1    1    2  502    0 -0.13744159734E+02  0.10808020546E+02  0.59488435679E+02  0.62004751548E+02  0.00000000000E+00 0.  1.
<mgrwt>
<rscale>  1 0.12622013E+03</rscale>
<asrwt>0</asrwt>
<pdfrwt beam="1">  1       21 0.12612872E+00 0.12622013E+03</pdfrwt>
<pdfrwt beam="2">  1        3 0.10094184E-01 0.12622013E+03</pdfrwt>
<totfact> 0.16785882E+03</totfact>
</mgrwt>
</event>
<event>
 6    2  0.1181843E-002  0.2255133E+03  0.7546771E-02  0.1129838E+00
          2   -1    0    0  503    0 -0.00000000000E+00  0.00000000000E+00  0.19011335011E+04  0.19011335011E+04  0.00000000000E+00 0.  1.
         21   -1    0    0  502  503  0.00000000000E+00 -0.00000000000E+00 -0.24249336975E+02  0.24249336975E+02  0.00000000000E+00 0.  1.
         25    2    1    2    0    0 -0.17253336705E+03 -0.73915385473E+02  0.75696344620E+03  0.78984170655E+03  0.12500006225E+03 0.  0.
          5    1    3    3  501    0 -0.87483618785E+02 -0.88065011310E+02  0.29749853932E+03  0.32235728730E+03  0.10000000000E+00 0.  1.
         -5    1    3    3    0  501 -0.85049748266E+02  0.14149625837E+02  0.45946490688E+03  0.46748441925E+03  0.10000000000E+00 0.  1.
          2    1    1    2  502    0  0.17253336705E+03  0.73915385473E+02  0.11199207179E+04  0.11355411315E+04  0.00000000000E+00 0.  1.
<mgrwt>
<rscale>  1 0.22551333E+03</rscale>
<asrwt>0</asrwt>
<pdfrwt beam="1">  1       21 0.37306687E-02 0.22551333E+03</pdfrwt>
<pdfrwt beam="2">  1        2 0.29248196E+00 0.22551333E+03</pdfrwt>
<totfact> 0.47386060E+04</totfact>
</mgrwt>
</event>
<event>
 6    2  0.1181843E-002  0.1260652E+03  0.7546771E-02  0.1233414E+00
         21   -1    0    0  502  503  0.00000000000E+00  0.00000000000E+00  0.99416576397E+01  0.99416576397E+01  0.00000000000E+00 0. -1.
          1   -1    0    0  503    0 -0.00000000000E+00 -0.00000000000E+00 -0.14689900428E+04  0.14689900428E+04  0.00000000000E+00 0. -1.
         25    2    1    2    0    0  0.13784377555E+02 -0.87794322160E+01 -0.39229531773E+03  0.41205345323E+03  0.12500137804E+03 0.  0.
          5    1    3    3  501    0  0.69421880981E+02 -0.94126592390E+01 -0.20290978723E+03  0.21466342834E+03  0.10000000000E+00 0.  1.
         -5    1    3    3    0  501 -0.55637503425E+02  0.63322702302E+00 -0.18938553050E+03  0.19739002489E+03  0.10000000000E+00 0.  1.
          1    1    1    2  502    0 -0.13784377555E+02  0.87794322160E+01 -0.10667530674E+04  0.10668782472E+04  0.00000000000E+00 0. -1.
<mgrwt>
<rscale>  1 0.12606519E+03</rscale>
<asrwt>0</asrwt>
<pdfrwt beam="1">  1       21 0.15294854E-02 0.12606519E+03</pdfrwt>
<pdfrwt beam="2">  1        1 0.22599853E+00 0.12606519E+03</pdfrwt>
<totfact> 0.16152171E+05</totfact>
</mgrwt>
</event>
<event>
 6    2  0.1181843E-002  0.1395503E+03  0.7546771E-02  0.1213935E+00
         21   -1    0    0  502  503  0.00000000000E+00  0.00000000000E+00  0.13881586986E+02  0.13881586986E+02  0.00000000000E+00 0. -1.
          2   -1    0    0  503    0 -0.00000000000E+00 -0.00000000000E+00 -0.79203662041E+03  0.79203662041E+03  0.00000000000E+00 0. -1.
         25    2    1    2    0    0  0.61844842554E+02 -0.23472978602E+01 -0.63156866753E+03  0.64680234702E+03  0.12507597669E+03 0.  0.
          5    1    3    3  501    0 -0.22809400071E+02 -0.39434863554E+02 -0.16533641150E+03  0.17149786052E+03  0.10000000000E+00 0.  1.
         -5    1    3    3    0  501  0.84654242624E+02  0.37087565694E+02 -0.46623225603E+03  0.47530448650E+03  0.10000000000E+00 0.  1.
          2    1    1    2  502    0 -0.61844842554E+02  0.23472978602E+01 -0.14658636590E+03  0.15911586038E+03  0.00000000000E+00 0. -1.
<mgrwt>
<rscale>  1 0.13955033E+03</rscale>
<asrwt>0</asrwt>
<pdfrwt beam="1">  1       21 0.21356285E-02 0.13955033E+03</pdfrwt>
<pdfrwt beam="2">  1        2 0.12185180E+00 0.13955033E+03</pdfrwt>
<totfact> 0.49541454E+05</totfact>
</mgrwt>
</event>
<event>
 6    2  0.1181843E-002  0.1879340E+03  0.7546771E-02  0.1160338E+00
          1   -1    0    0  503    0 -0.00000000000E+00  0.00000000000E+00  0.35802493760E+03  0.35802493760E+03  0.00000000000E+00 0.  1.
         21   -1    0    0  502  503  0.00000000000E+00 -0.00000000000E+00 -0.76546534640E+02  0.76546534640E+02  0.00000000000E+00 0.  1.
         25    2    1    2    0    0  0.14014136335E+03 -0.73436224635E+01  0.13277088170E+03  0.23010275240E+03  0.12500255646E+03 0.  0.
          5    1    3    3  501    0  0.97654097364E+02 -0.59060681960E+02  0.11229729393E+03  0.16010989697E+03  0.10000000000E+00 0. -1.
         -5    1    3    3    0  501  0.42487265990E+02  0.51717059497E+02  0.20473587773E+02  0.69992855425E+02  0.10000000000E+00 0. -1.
          1    1    1    2  502    0 -0.14014136335E+03  0.73436224635E+01  0.14870752126E+03  0.20446871984E+03  0.00000000000E+00 0.  1.
<mgrwt>
<rscale>  1 0.18793395E+03</rscale>
<asrwt>0</asrwt>
<pdfrwt beam="1">  1       21 0.11776390E-01 0.18793395E+03</pdfrwt>
<pdfrwt beam="2">  1        1 0.55080759E-01 0.18793395E+03</pdfrwt>
<totfact> 0.46550201E+04</totfact>
</mgrwt>
</event>
<event>
 6    2  0.1181843E-002  0.1259999E+03  0.7546771E-02  0.1233515E+00
          1   -1    0    0  503    0 -0.00000000000E+00  0.00000000000E+00  0.76411168608E+02  0.76411168608E+02  0.00000000000E+00 0. -1.
         21   -1    0    0  502  503  0.00000000000E+00 -0.00000000000E+00 -0.14996790733E+03  0.14996790733E+03  0.00000000000E+00 0. -1.
         25    2    1    2    0    0 -0.13802306218E+02  0.77664035872E+01 -0.12201671875E+03  0.17539682072E+03  0.12500057753E+03 0.  0.
          5    1    3    3  501    0 -0.12900797745E+02 -0.27310195804E+01 -0.14736084837E+03  0.14794971674E+03  0.10000000000E+00 0. -1.
         -5    1    3    3    0  501 -0.90150847335E+00  0.10497423168E+02  0.25344129622E+02  0.27447103982E+02  0.10000000000E+00 0. -1.
          1    1    1    2  502    0  0.13802306218E+02 -0.77664035872E+01  0.48459980033E+02  0.50982255211E+02  0.00000000000E+00 0. -1.
<mgrwt>
<rscale>  1 0.12599986E+03</rscale>
<asrwt>0</asrwt>
<pdfrwt beam="1">  1       21 0.23071985E-01 0.12599986E+03</pdfrwt>
<pdfrwt beam="2">  1        1 0.11755565E-01 0.12599986E+03</pdfrwt>
<totfact> 0.95648984E+04</totfact>
</mgrwt>
</event>
<event>
 6    2  0.1181843E-002  0.1282568E+03  0.7546771E-02  0.1230065E+00
         21   -1    0    0  502  503  0.00000000000E+00  0.00000000000E+00  0.97289566971E+02  0.97289566971E+02  0.00000000000E+00 0. -1.
          4   -1    0    0  503    0 -0.00000000000E+00 -0.00000000000E+00 -0.61622163899E+03  0.61622163899E+03  0.00000000000E+00 0.  1.
         25    2    1    2    0    0  0.16640983595E+02  0.23372851580E+02  0.54504238581E+02  0.13935755506E+03  0.12500641425E+03 0.  0.
          5    1    3    3  501    0  0.47673993683E+01  0.50902348617E+02  0.83332229944E+02  0.97765268572E+02  0.10000000000E+00 0. -1.
         -5    1    3    3    0  501  0.11873584227E+02 -0.27529497037E+02 -0.28827991363E+02  0.41592286491E+02  0.10000000000E+00 0. -1.
          4    1    1    2  502    0 -0.16640983595E+02 -0.23372851580E+02 -0.57343631060E+03  0.57415365090E+03  0.00000000000E+00 0.  1.
<mgrwt>
<rscale>  1 0.12825684E+03</rscale>
<asrwt>0</asrwt>
<pdfrwt beam="1">  1       21 0.14967626E-01 0.12825684E+03</pdfrwt>
<pdfrwt beam="2">  1        4 0.94803328E-01 0.12825684E+03</pdfrwt>
<totfact> 0.15787326E+03</totfact>
</mgrwt>
</event>
<event>
 6    2  0.1181843E-002  0.1339013E+03  0.7546771E-02  0.1221779E+00
         21   -1    0    0  502  503  0.00000000000E+00  0.00000000000E+00  0.16234927087E+02  0.16234927087E+02  0.00000000000E+00 0.  1.
          2   -1    0    0  503    0 -0.00000000000E+00 -0.00000000000E+00 -0.12874844482E+04  0.12874844482E+04  0.00000000000E+00 0.  1.
         25    2    1    2    0    0  0.14882485520E+02  0.45628675998E+02 -0.27057608116E+03  0.30189563936E+03  0.12500438759E+03 0.  0.
          5    1    3    3  501    0 -0.41240162608E+02  0.57951491279E+02 -0.19043223159E+03  0.20328199916E+03  0.10000000000E+00 0. -1.
         -5    1    3    3    0  501  0.56122648128E+02 -0.12322815281E+02 -0.80143849577E+02  0.98613640204E+02  0.10000000000E+00 0. -1.
          2    1    1    2  502    0 -0.14882485520E+02 -0.45628675998E+02 -0.10006734400E+04  0.10018237359E+04  0.00000000000E+00 0.  1.
<mgrwt>
<rscale>  1 0.13390131E+03</rscale>
<asrwt>0</asrwt>
<pdfrwt beam="1">  1       21 0.24976812E-02 0.13390131E+03</pdfrwt>
<pdfrwt beam="2">  1        2 0.19807452E+00 0.13390131E+03</pdfrwt>
<totfact> 0.19470378E+05</totfact>
</mgrwt>
</event>
<event>
 6    2  0.1181843E-002  0.1332703E+03  0.7546771E-02  0.1222682E+00
          2   -1    0    0  503    0 -0.00000000000E+00  0.00000000000E+00  0.13001118166E+04  0.13001118166E+04  0.00000000000E+00 0.  1.
         21   -1    0    0  502  503  0.00000000000E+00 -0.00000000000E+00 -0.11547346569E+02  0.11547346569E+02  0.00000000000E+00 0. -1.
         25    2    1    2    0    0  0.34687757665E+02  0.30604457349E+02  0.39457677122E+03  0.41647545076E+03  0.12498439645E+03 0.  0.
          5    1    3    3  501    0  0.18290311263E+02  0.25109860568E+02  0.39769183173E+03  0.39890330108E+03  0.10000000000E+00 0. -1.
         -5    1    3    3    0  501  0.16397446402E+02  0.54945967819E+01 -0.31150605146E+01  0.17572149678E+02  0.10000000000E+00 0. -1.
          2    1    1    2  502    0 -0.34687757665E+02 -0.30604457349E+02  0.89398769881E+03  0.89518371241E+03  0.00000000000E+00 0.  1.
<mgrwt>
<rscale>  1 0.13327030E+03</rscale>
<asrwt>0</asrwt>
<pdfrwt beam="1">  1       21 0.17765159E-02 0.13327030E+03</pdfrwt>
<pdfrwt beam="2">  1        2 0.20001709E+00 0.13327030E+03</pdfrwt>
<totfact> 0.33262078E+05</totfact>
</mgrwt>
</event>
<event>
 6    2  0.1181843E-002  0.1349929E+03  0.7546771E-02  0.1220230E+00
         21   -1    0    0  502  503  0.00000000000E+00  0.00000000000E+00  0.75746819355E+02  0.75746819355E+02  0.00000000000E+00 0. -1.
          2   -1    0    0  503    0 -0.00000000000E+00 -0.00000000000E+00 -0.32822578290E+03  0.32822578290E+03  0.00000000000E+00 0. -1.
         25    2    1    2    0    0 -0.35343328770E+02  0.36737277261E+02  0.11156974697E+02  0.13545316839E+03  0.12499721723E+03 0.  0.
          5    1    3    3  501    0  0.21224629453E+02  0.92375141762E+01  0.54402629432E+02  0.59122522380E+02  0.10000000000E+00 0.  1.
         -5    1    3    3    0  501 -0.56567958223E+02  0.27499763085E+02 -0.43245654735E+02  0.76330646013E+02  0.10000000000E+00 0.  1.
          2    1    1    2  502    0  0.35343328770E+02 -0.36737277261E+02 -0.26363593824E+03  0.26851943386E+03  0.00000000000E+00 0. -1.
<mgrwt>
<rscale>  1 0.13499290E+03</rscale>
<asrwt>0</asrwt>
<pdfrwt beam="1">  1       21 0.11653357E-01 0.13499290E+03</pdfrwt>
<pdfrwt beam="2">  1        2 0.50496275E-01 0.13499290E+03</pdfrwt>
<totfact> 0.75740581E+04</totfact>
</mgrwt>
</event>
<event>
 6    2  0.1181843E-002  0.1313499E+03  0.7546771E-02  0.1225466E+00
         21   -1    0    0  502  503  0.00000000000E+00  0.00000000000E+00  0.11630204980E+02  0.11630204980E+02  0.00000000000E+00 0. -1.
          2   -1    0    0  503    0 -0.00000000000E+00 -0.00000000000E+00 -0.23321975386E+04  0.23321975386E+04  0.00000000000E+00 0. -1.
         25    2    1    2    0    0 -0.30623726746E+02 -0.26289531279E+02 -0.36620504101E+03  0.38904874766E+03  0.12499537553E+03 0.  0.
          5    1    3    3  501    0 -0.63272316587E+02 -0.57593727249E+02 -0.22202203936E+03  0.23793742755E+03  0.10000000000E+00 0. -1.
         -5    1    3    3    0  501  0.32648589841E+02  0.31304195970E+02 -0.14418300164E+03  0.15111132012E+03  0.10000000000E+00 0. -1.
          2    1    1    2  502    0  0.30623726746E+02  0.26289531279E+02 -0.19543622926E+04  0.19547789959E+04  0.00000000000E+00 0. -1.
<mgrwt>
<rscale>  1 0.13134990E+03</rscale>
<asrwt>0</asrwt>
<pdfrwt beam="1">  1       21 0.17892610E-02 0.13134990E+03</pdfrwt>
<pdfrwt beam="2">  1        2 0.35879987E+00 0.13134990E+03</pdfrwt>
<totfact> 0.96288221E+04</totfact>
</mgrwt>
</event>
<event>
 6    2  0.1181843E-002  0.1286236E+03  0.7546771E-02  0.1229513E+00
         21   -1    0    0  502  503  0.00000000000E+00  0.00000000000E+00  0.63853611659E+03  0.63853611659E+03  0.00000000000E+00 0. -1.
          3   -1    0    0  503    0 -0.00000000000E+00 -0.00000000000E+00 -0.18358771969E+02  0.18358771969E+02  0.00000000000E+00 0.  1.
         25    2    1    2    0    0  0.20538339582E+02 -0.22285101491E+02  0.61218699418E+03  0.62555330529E+03  0.12500229109E+03 0.  0.
          5    1    3    3  501    0  0.22404352232E+02  0.45606119268E+02  0.38775150759E+03  0.39106663723E+03  0.10000000000E+00 0.  1.
         -5    1    3    3    0  501 -0.18660126506E+01 -0.67891220759E+02  0.22443548659E+03  0.23448666807E+03  0.10000000000E+00 0.  1.
          3    1    1    2  502    0 -0.20538339582E+02  0.22285101491E+02  0.79903504353E+01  0.31341583261E+02  0.00000000000E+00 0.  1.
<mgrwt>
<rscale>  1 0.12862357E+03</rscale>
<asrwt>0</asrwt>
<pdfrwt beam="1">  1       21 0.98236309E-01 0.12862357E+03</pdfrwt>
<pdfrwt beam="2">  1        3 0.28244269E-02 0.12862357E+03</pdfrwt>
<totfact> 0.23126224E+04</totfact>
</mgrwt>
</event>
<event>
 6    2  0.1181843E-002  0.1265923E+03  0.7546771E-02  0.1232602E+00
          2   -1    0    0  503    0 -0.00000000000E+00  0.00000000000E+00  0.54042827265E+03  0.54042827265E+03  0.00000000000E+00 0. -1.
         21   -1    0    0  502  503  0.00000000000E+00 -0.00000000000E+00 -0.10037021248E+02  0.10037021248E+02  0.00000000000E+00 0. -1.
         25    2    1    2    0    0  0.73433264274E+01  0.18621468267E+02  0.43780298683E+03  0.45573794695E+03  0.12499974996E+03 0.  0.
          5    1    3    3  501    0 -0.55691985655E+02  0.25533370514E+02  0.17578810203E+03  0.18615858049E+03  0.10000000000E+00 0. -1.
         -5    1    3    3    0  501  0.63035312083E+02 -0.69119022467E+01  0.26201488480E+03  0.26957936646E+03  0.10000000000E+00 0. -1.
          2    1    1    2  502    0 -0.73433264274E+01 -0.18621468267E+02  0.92588264565E+02  0.94727346941E+02  0.00000000000E+00 0. -1.
<mgrwt>
<rscale>  1 0.12659234E+03</rscale>
<asrwt>0</asrwt>
<pdfrwt beam="1">  1       21 0.15441575E-02 0.12659234E+03</pdfrwt>
<pdfrwt beam="2">  1        2 0.83142789E-01 0.12659234E+03</pdfrwt>
<totfact> 0.12950773E+06</totfact>
</mgrwt>
</event>
<event>
 6    2  0.1181843E-002  0.1269626E+03  0.7546771E-02  0.1232034E+00
          1   -1    0    0  503    0 -0.00000000000E+00  0.00000000000E+00  0.32458215175E+03  0.32458215175E+03  0.00000000000E+00 0. -1.
         21   -1    0    0  502  503  0.00000000000E+00 -0.00000000000E+00 -0.39843148392E+03  0.39843148392E+03  0.00000000000E+00 0.  1.
         25    2    1    2    0    0  0.18706903951E+02 -0.12021228454E+02 -0.38791404147E+03  0.40816271886E+03  0.12500017322E+03 0.  0.
          5    1    3    3  501    0  0.71228888619E+02 -0.45379260308E+01 -0.26155286936E+03  0.27111632341E+03  0.10000000000E+00 0.  1.
         -5    1    3    3    0  501 -0.52521984668E+02 -0.74833024229E+01 -0.12636117211E+03  0.13704639545E+03  0.10000000000E+00 0.  1.
          1    1    1    2  502    0 -0.18706903951E+02  0.12021228454E+02  0.31406470931E+03  0.31485091682E+03  0.00000000000E+00 0. -1.
<mgrwt>
<rscale>  1 0.12696260E+03</rscale>
<asrwt>0</asrwt>
<pdfrwt beam="1">  1       21 0.61297151E-01 0.12696260E+03</pdfrwt>
<pdfrwt beam="2">  1        1 0.49935716E-01 0.12696260E+03</pdfrwt>
<totfact> 0.22131973E+03</totfact>
</mgrwt>
</event>
<event>
 6    2  0.1181843E-002  0.1313414E+03  0.7546771E-02  0.1225479E+00
          2   -1    0    0  503    0 -0.00000000000E+00  0.00000000000E+00  0.24890559139E+04  0.24890559139E+04  0.00000000000E+00 0. -1.
         21   -1    0    0  502  503  0.00000000000E+00 -0.00000000000E+00 -0.54713685062E+01  0.54713685062E+01  0.00000000000E+00 0.  1.
         25    2    1    2    0    0 -0.39176842053E+02 -0.95067532268E+01  0.81981074424E+03  0.83026514419E+03  0.12500139986E+03 0.  0.
          5    1    3    3  501    0  0.15002999094E+02  0.41256292761E+02  0.14826363685E+03  0.15462628394E+03  0.10000000000E+00 0.  1.
         -5    1    3    3    0  501 -0.54179841147E+02 -0.50763045988E+02  0.67154710739E+03  0.67563886024E+03  0.10000000000E+00 0.  1.
          2    1    1    2  502    0  0.39176842053E+02  0.95067532268E+01  0.16637738012E+04  0.16642621383E+04  0.00000000000E+00 0. -1.
<mgrwt>
<rscale>  1 0.13134136E+03</rscale>
<asrwt>0</asrwt>
<pdfrwt beam="1">  1       21 0.84175099E-03 0.13134136E+03</pdfrwt>
<pdfrwt beam="2">  1        2 0.38293077E+00 0.13134136E+03</pdfrwt>
<totfact> 0.26338060E+05</totfact>
</mgrwt>
</event>
<event>
 6    2  0.1181843E-002  0.1351802E+03  0.7546771E-02  0.1219966E+00
         21   -1    0    0  502  503  0.00000000000E+00  0.00000000000E+00  0.74068582244E+02  0.74068582244E+02  0.00000000000E+00 0.  1.
          1   -1    0    0  503    0 -0.00000000000E+00 -0.00000000000E+00 -0.41585999013E+03  0.41585999013E+03  0.00000000000E+00 0. -1.
         25    2    1    2    0    0 -0.51411373441E+02  0.20203496613E+01  0.89095877302E+01  0.13547349841E+03  0.12500590741E+03 0.  0.
          5    1    3    3  501    0 -0.11538480681E+02 -0.21889996886E+02 -0.52740845908E+02  0.58257319945E+02  0.10000000000E+00 0. -1.
         -5    1    3    3    0  501 -0.39872892760E+02  0.23910346547E+02  0.61650433638E+02  0.77216178466E+02  0.10000000000E+00 0. -1.
          1    1    1    2  502    0  0.51411373441E+02 -0.20203496613E+01 -0.35070099562E+03  0.35445507396E+03  0.00000000000E+00 0. -1.
<mgrwt>
<rscale>  1 0.13518021E+03</rscale>
<asrwt>0</asrwt>
<pdfrwt beam="1">  1       21 0.11395167E-01 0.13518021E+03</pdfrwt>
<pdfrwt beam="2">  1        1 0.63978459E-01 0.13518021E+03</pdfrwt>
<totfact> 0.40806731E+04</totfact>
</mgrwt>
</event>
<event>
 6    2  0.1181843E-002  0.1679406E+03  0.7546771E-02  0.1180013E+00
         21   -1    0    0  502  503  0.00000000000E+00  0.00000000000E+00  0.48193957008E+02  0.48193957008E+02  0.00000000000E+00 0.  1.
          2   -1    0    0  503    0 -0.00000000000E+00 -0.00000000000E+00 -0.15680217494E+04  0.15680217494E+04  0.00000000000E+00 0.  1.
         25    2    1    2    0    0 -0.25719949911E+02 -0.10917563588E+03 -0.10741009491E+03  0.19935135600E+03  0.12499279722E+03 0.  0.
          5    1    3    3  501    0 -0.37547061009E+02 -0.96098886834E+02 -0.13296816869E+03  0.16830128260E+03  0.10000000000E+00 0.  1.
         -5    1    3    3    0  501  0.11827111098E+02 -0.13076749046E+02  0.25558073781E+02  0.31050073397E+02  0.10000000000E+00 0.  1.
          2    1    1    2  502    0  0.25719949911E+02  0.10917563588E+03 -0.14124176975E+04  0.14168643504E+04  0.00000000000E+00 0.  1.
<mgrwt>
<rscale>  1 0.16794057E+03</rscale>
<asrwt>0</asrwt>
<pdfrwt beam="1">  1       21 0.74144552E-02 0.16794057E+03</pdfrwt>
<pdfrwt beam="2">  1        2 0.24123411E+00 0.16794057E+03</pdfrwt>
<totfact> 0.22286163E+04</totfact>
</mgrwt>
</event>
<event>
 6    2  0.1181843E-002  0.1260667E+03  0.7546771E-02  0.1233412E+00
         21   -1    0    0  502  503  0.00000000000E+00  0.00000000000E+00  0.50588627455E+02  0.50588627455E+02  0.00000000000E+00 0. -1.
          3   -1    0    0  503    0 -0.00000000000E+00 -0.00000000000E+00 -0.10410095010E+03  0.10410095010E+03  0.00000000000E+00 0. -1.
         25    2    1    2    0    0 -0.10617077782E+02  0.12585080470E+02 -0.56164931786E+02  0.13801196003E+03  0.12498677913E+03 0.  0.
          5    1    3    3  501    0 -0.37430831794E+02  0.33818935686E+00 -0.87390558974E+02  0.95069981270E+02  0.10000000000E+00 0. -1.
         -5    1    3    3    0  501  0.26813754012E+02  0.12246891113E+02  0.31225627189E+02  0.42941978756E+02  0.10000000000E+00 0. -1.
          3    1    1    2  502    0  0.10617077782E+02 -0.12585080470E+02  0.26526091438E+01  0.16677617526E+02  0.00000000000E+00 0. -1.
<mgrwt>
<rscale>  1 0.12606666E+03</rscale>
<asrwt>0</asrwt>
<pdfrwt beam="1">  1       21 0.77828658E-02 0.12606666E+03</pdfrwt>
<pdfrwt beam="2">  1        3 0.16015531E-01 0.12606666E+03</pdfrwt>
<totfact> 0.19545640E+05</totfact>
</mgrwt>
</event>
<event>
 6    2  0.1181843E-002  0.1393237E+03  0.7546771E-02  0.1214242E+00
         21   -1    0    0  502  503  0.00000000000E+00  0.00000000000E+00  0.64403691330E+02  0.64403691330E+02  0.00000000000E+00 0. -1.
          1   -1    0    0  503    0 -0.00000000000E+00 -0.00000000000E+00 -0.51056961654E+03  0.51056961654E+03  0.00000000000E+00 0. -1.
         25    2    1    2    0    0 -0.48764018978E+02 -0.37546839570E+02 -0.15785857887E+02  0.14021510259E+03  0.12499354774E+03 0.  0.
          5    1    3    3  501    0  0.86915153966E+01 -0.10836616002E+02 -0.60880605041E+02  0.62445438235E+02  0.10000000000E+00 0. -1.
         -5    1    3    3    0  501 -0.57455534374E+02 -0.26710223568E+02  0.45094747153E+02  0.77769664356E+02  0.10000000000E+00 0. -1.
          1    1    1    2  502    0  0.48764018978E+02  0.37546839570E+02 -0.43038006732E+03  0.43475820528E+03  0.00000000000E+00 0. -1.
<mgrwt>
<rscale>  1 0.13932366E+03</rscale>
<asrwt>0</asrwt>
<pdfrwt beam="1">  1       21 0.99082602E-02 0.13932366E+03</pdfrwt>
<pdfrwt beam="2">  1        1 0.78549172E-01 0.13932366E+03</pdfrwt>
<totfact> 0.40083538E+04</totfact>
</mgrwt>
</event>
<event>
 6    2  0.1181843E-002  0.1408350E+03  0.7546771E-02  0.1212210E+00
          4   -1    0    0  503    0 -0.00000000000E+00  0.00000000000E+00  0.24469684921E+04  0.24469684921E+04  0.00000000000E+00 0. -1.
         21   -1    0    0  502  503  0.00000000000E+00 -0.00000000000E+00 -0.85866910629E+01  0.85866910629E+01  0.00000000000E+00 0.  1.
         25    2    1    2    0    0 -0.57019778234E+02  0.30981154020E+02  0.61098417411E+03  0.62700571052E+03  0.12499365181E+03 0.  0.
          5    1    3    3  501    0 -0.26857179777E+02 -0.37943851510E+01  0.54964551134E+03  0.55031436798E+03  0.10000000000E+00 0.  1.
         -5    1    3    3    0  501 -0.30162598457E+02  0.34775539171E+02  0.61338662766E+02  0.76691342538E+02  0.10000000000E+00 0.  1.
          4    1    1    2  502    0  0.57019778234E+02 -0.30981154020E+02  0.18273976270E+04  0.18285494727E+04  0.00000000000E+00 0. -1.
<mgrwt>
<rscale>  1 0.14083501E+03</rscale>
<asrwt>0</asrwt>
<pdfrwt beam="1">  1       21 0.13210313E-02 0.14083501E+03</pdfrwt>
<pdfrwt beam="2">  1        4 0.37645614E+00 0.14083501E+03</pdfrwt>
<totfact> 0.12912922E+03</totfact>
</mgrwt>
</event>
<event>
 6    2  0.1181843E-002  0.1451938E+03  0.7546771E-02  0.1206506E+00
         21   -1    0    0  502  503  0.00000000000E+00  0.00000000000E+00  0.67796195879E+01  0.67796195879E+01  0.00000000000E+00 0.  1.
          2   -1    0    0  503    0 -0.00000000000E+00 -0.00000000000E+00 -0.32833015124E+04  0.32833015124E+04  0.00000000000E+00 0.  1.
         25    2    1    2    0    0  0.57324690364E+02 -0.46533139182E+02 -0.84107610056E+03  0.85351640677E+03  0.12501918464E+03 0.  0.
          5    1    3    3  501    0  0.13413109345E+02 -0.82143633209E+02 -0.38136303592E+03  0.39033993281E+03  0.10000000000E+00 0. -1.
         -5    1    3    3    0  501  0.43911581019E+02  0.35610494027E+02 -0.45971306464E+03  0.46317647396E+03  0.10000000000E+00 0. -1.
          2    1    1    2  502    0 -0.57324690364E+02  0.46533139182E+02 -0.24354457922E+04  0.24365647252E+04  0.00000000000E+00 0.  1.
<mgrwt>
<rscale>  1 0.14519383E+03</rscale>
<asrwt>0</asrwt>
<pdfrwt beam="1">  1       21 0.10430165E-02 0.14519383E+03</pdfrwt>
<pdfrwt beam="2">  1        2 0.50512421E+00 0.14519383E+03</pdfrwt>
<totfact> 0.66165643E+04</totfact>
</mgrwt>
</event>
<event>
 6    2  0.1181843E-002  0.1335554E+03  0.7546771E-02  0.1222274E+00
          4   -1    0    0  503    0 -0.00000000000E+00  0.00000000000E+00  0.67340573544E+02  0.67340573544E+02  0.00000000000E+00 0. -1.
         21   -1    0    0  502  503  0.00000000000E+00 -0.00000000000E+00 -0.22206471540E+03  0.22206471540E+03  0.00000000000E+00 0.  1.
         25    2    1    2    0    0  0.22640848204E+02  0.41212951068E+02 -0.18885071697E+03  0.23130418334E+03  0.12500366628E+03 0.  0.
          5    1    3    3  501    0  0.37071317536E+02 -0.83840903576E+01 -0.26817248131E+01  0.38102194201E+02  0.10000000000E+00 0. -1.
         -5    1    3    3    0  501 -0.14430469331E+02  0.49597041425E+02 -0.18616899216E+03  0.19320198913E+03  0.10000000000E+00 0. -1.
          4    1    1    2  502    0 -0.22640848204E+02 -0.41212951068E+02  0.34126575121E+02  0.58101105605E+02  0.00000000000E+00 0. -1.
<mgrwt>
<rscale>  1 0.13355535E+03</rscale>
<asrwt>0</asrwt>
<pdfrwt beam="1">  1       21 0.34163803E-01 0.13355535E+03</pdfrwt>
<pdfrwt beam="2">  1        4 0.10360088E-01 0.13355535E+03</pdfrwt>
<totfact> 0.24060650E+04</totfact>
</mgrwt>
</event>
<event>
 6    2  0.1181843E-002  0.1305579E+03  0.7546771E-02  0.1226630E+00
          1   -1    0    0  503    0 -0.00000000000E+00  0.00000000000E+00  0.24945249454E+03  0.24945249454E+03  0.00000000000E+00 0. -1.
         21   -1    0    0  502  503  0.00000000000E+00 -0.00000000000E+00 -0.73544764841E+02  0.73544764841E+02  0.00000000000E+00 0. -1.
         25    2    1    2    0    0 -0.38634159952E+01  0.37492178261E+02 -0.12222363640E+02  0.13112875901E+03  0.12499910341E+03 0.  0.
          5    1    3    3  501    0  0.46993390867E+02 -0.21699012887E+02  0.20219682897E+01  0.51800813712E+02  0.10000000000E+00 0. -1.
         -5    1    3    3    0  501 -0.50856806862E+02  0.59191191147E+02 -0.14244331929E+02  0.79327945302E+02  0.10000000000E+00 0. -1.
          1    1    1    2  502    0  0.38634159952E+01 -0.37492178261E+02  0.18813009334E+03  0.19186850037E+03  0.00000000000E+00 0. -1.
<mgrwt>
<rscale>  1 0.13055790E+03</rscale>
<asrwt>0</asrwt>
<pdfrwt beam="1">  1       21 0.11314579E-01 0.13055790E+03</pdfrwt>
<pdfrwt beam="2">  1        1 0.38377306E-01 0.13055790E+03</pdfrwt>
<totfact> 0.77972231E+04</totfact>
</mgrwt>
</event>
<event>
 6    2  0.1181843E-002  0.1302829E+03  0.7546771E-02  0.1227037E+00
          2   -1    0    0  503    0 -0.00000000000E+00  0.00000000000E+00  0.30101571152E+03  0.30101571152E+03  0.00000000000E+00 0.  1.
         21   -1    0    0  502  503  0.00000000000E+00 -0.00000000000E+00 -0.20251656523E+03  0.20251656523E+03  0.00000000000E+00 0. -1.
         25    2    1    2    0    0 -0.30747255784E+02  0.20058364497E+02 -0.18023431258E+03  0.22239161300E+03  0.12500356145E+03 0.  0.
          5    1    3    3  501    0  0.25238513177E+01  0.20681785518E+02  0.14145734150E+02  0.25183682660E+02  0.10000000000E+00 0.  1.
         -5    1    3    3    0  501 -0.33271107102E+02 -0.62342102044E+00 -0.19438004673E+03  0.19720793034E+03  0.10000000000E+00 0.  1.
          2    1    1    2  502    0  0.30747255784E+02 -0.20058364497E+02  0.27873345887E+03  0.28114066376E+03  0.00000000000E+00 0.  1.
<mgrwt>
<rscale>  1 0.13028285E+03</rscale>
<asrwt>0</asrwt>
<pdfrwt beam="1">  1       21 0.31156395E-01 0.13028285E+03</pdfrwt>
<pdfrwt beam="2">  1        2 0.46310110E-01 0.13028285E+03</pdfrwt>
<totfact> 0.13514922E+04</totfact>
</mgrwt>
</event>
<event>
 6    2  0.1181843E-002  0.1264461E+03  0.7546771E-02  0.1232826E+00
         21   -1    0    0  502  503  0.00000000000E+00  0.00000000000E+00  0.11011189563E+03  0.11011189563E+03  0.00000000000E+00 0. -1.
          2   -1    0    0  503    0 -0.00000000000E+00 -0.00000000000E+00 -0.42654055695E+03  0.42654055695E+03  0.00000000000E+00 0. -1.
         25    2    1    2    0    0  0.86133152161E+01 -0.17165151787E+02  0.73496635422E+02  0.14625449065E+03  0.12497915419E+03 0.  0.
          5    1    3    3  501    0 -0.29925569144E+02 -0.28575314635E+02 -0.18903602392E+02  0.45491147254E+02  0.10000000000E+00 0. -1.
         -5    1    3    3    0  501  0.38538884360E+02  0.11410162848E+02  0.92400237814E+02  0.10076334339E+03  0.10000000000E+00 0. -1.
          2    1    1    2  502    0 -0.86133152161E+01  0.17165151787E+02 -0.38992529674E+03  0.39039796192E+03  0.00000000000E+00 0. -1.
<mgrwt>
<rscale>  1 0.12644612E+03</rscale>
<asrwt>0</asrwt>
<pdfrwt beam="1">  1       21 0.16940291E-01 0.12644612E+03</pdfrwt>
<pdfrwt beam="2">  1        2 0.65621625E-01 0.12644612E+03</pdfrwt>
<totfact> 0.29270392E+04</totfact>
</mgrwt>
</event>
<event>
 6    2  0.1181843E-002  0.1369357E+03  0.7546771E-02  0.1217513E+00
          2   -1    0    0  503    0 -0.00000000000E+00  0.00000000000E+00  0.56637825033E+03  0.56637825033E+03  0.00000000000E+00 0. -1.
         21   -1    0    0  502  503  0.00000000000E+00 -0.00000000000E+00 -0.17365641337E+02  0.17365641337E+02  0.00000000000E+00 0. -1.
         25    2    1    2    0    0  0.37568445840E+02  0.41417989834E+02  0.32125329439E+03  0.34922066597E+03  0.12499822549E+03 0.  0.
          5    1    3    3  501    0  0.77221396476E+02 -0.11254848052E+01  0.15681637993E+03  0.17480216762E+03  0.10000000000E+00 0. -1.
         -5    1    3    3    0  501 -0.39652950636E+02  0.42543474639E+02  0.16443691446E+03  0.17441849835E+03  0.10000000000E+00 0. -1.
          2    1    1    2  502    0 -0.37568445840E+02 -0.41417989834E+02  0.22775931461E+03  0.23452322571E+03  0.00000000000E+00 0. -1.
<mgrwt>
<rscale>  1 0.13693573E+03</rscale>
<asrwt>0</asrwt>
<pdfrwt beam="1">  1       21 0.26716376E-02 0.13693573E+03</pdfrwt>
<pdfrwt beam="2">  1        2 0.87135101E-01 0.13693573E+03</pdfrwt>
<totfact> 0.50985973E+05</totfact>
</mgrwt>
</event>
<event>
 6    2  0.1181843E-002  0.1286809E+03  0.7546771E-02  0.1229426E+00
          4   -1    0    0  503    0 -0.00000000000E+00  0.00000000000E+00  0.11214651771E+04  0.11214651771E+04  0.00000000000E+00 0.  1.
         21   -1    0    0  502  503  0.00000000000E+00 -0.00000000000E+00 -0.28728036765E+03  0.28728036765E+03  0.00000000000E+00 0.  1.
         25    2    1    2    0    0  0.26537699149E+02  0.15211664535E+02 -0.27264852304E+03  0.30148962578E+03  0.12499253227E+03 0.  0.
          5    1    3    3  501    0 -0.35969650744E+02  0.40912902687E+02 -0.75674224714E+02  0.93243121285E+02  0.10000000000E+00 0. -1.
         -5    1    3    3    0  501  0.62507349893E+02 -0.25701238151E+02 -0.19697429832E+03  0.20824650449E+03  0.10000000000E+00 0. -1.
          4    1    1    2  502    0 -0.26537699149E+02 -0.15211664535E+02  0.11068333325E+04  0.11072559190E+04  0.00000000000E+00 0.  1.
<mgrwt>
<rscale>  1 0.12868091E+03</rscale>
<asrwt>0</asrwt>
<pdfrwt beam="1">  1       21 0.44196980E-01 0.12868091E+03</pdfrwt>
<pdfrwt beam="2">  1        4 0.17253310E+00 0.12868091E+03</pdfrwt>
<totfact> 0.46467179E+01</totfact>
</mgrwt>
</event>
<event>
 6    2  0.1181843E-002  0.1349896E+03  0.7546771E-02  0.1220234E+00
          2   -1    0    0  503    0 -0.00000000000E+00  0.00000000000E+00  0.29840365385E+03  0.29840365385E+03  0.00000000000E+00 0. -1.
         21   -1    0    0  502  503  0.00000000000E+00 -0.00000000000E+00 -0.43435272276E+02  0.43435272276E+02  0.00000000000E+00 0.  1.
         25    2    1    2    0    0  0.50307844419E+02 -0.80469303202E+01  0.74221009955E+02  0.15404849867E+03  0.12500619715E+03 0.  0.
          5    1    3    3  501    0 -0.13352366629E+02 -0.54243161211E+02  0.37204971536E+02  0.67118001607E+02  0.10000000000E+00 0.  1.
         -5    1    3    3    0  501  0.63660211048E+02  0.46196230890E+02  0.37016038419E+02  0.86930497062E+02  0.10000000000E+00 0.  1.
          2    1    1    2  502    0 -0.50307844419E+02  0.80469303202E+01  0.18074737162E+03  0.18779042746E+03  0.00000000000E+00 0. -1.
<mgrwt>
<rscale>  1 0.13498956E+03</rscale>
<asrwt>0</asrwt>
<pdfrwt beam="1">  1       21 0.66823498E-02 0.13498956E+03</pdfrwt>
<pdfrwt beam="2">  1        2 0.45908253E-01 0.13498956E+03</pdfrwt>
<totfact> 0.22020049E+05</totfact>
</mgrwt>
</event>
<event>
 6    2  0.1181843E-002  0.1389741E+03  0.7546771E-02  0.1214716E+00
         21   -1    0    0  502  503  0.00000000000E+00  0.00000000000E+00  0.30657075064E+03  0.30657075064E+03  0.00000000000E+00 0.  1.
          3   -1    0    0  503    0 -0.00000000000E+00 -0.00000000000E+00 -0.32935617886E+03  0.32935617886E+03  0.00000000000E+00 0. -1.
         25    2    1    2    0    0  0.28708933734E+01 -0.60667278925E+02  0.28772623292E+03  0.31953120819E+03  0.12500018853E+03 0.  0.
          5    1    3    3  501    0  0.13463638837E+01 -0.91164333001E+02  0.26823132498E+03  0.28330337451E+03  0.10000000000E+00 0. -1.
         -5    1    3    3    0  501  0.15245294897E+01  0.30497054075E+02  0.19494907944E+02  0.36227833681E+02  0.10000000000E+00 0. -1.
          3    1    1    2  502    0 -0.28708933734E+01  0.60667278925E+02 -0.31051166114E+03  0.31639572131E+03  0.00000000000E+00 0. -1.
<mgrwt>
<rscale>  1 0.13897413E+03</rscale>
<asrwt>0</asrwt>
<pdfrwt beam="1">  1       21 0.47164731E-01 0.13897413E+03</pdfrwt>
<pdfrwt beam="2">  1        3 0.50670181E-01 0.13897413E+03</pdfrwt>
<totfact> 0.83017282E+02</totfact>
</mgrwt>
</event>
<event>
 6    2  0.1181843E-002  0.1298585E+03  0.7546771E-02  0.1227666E+00
         21   -1    0    0  502  503  0.00000000000E+00  0.00000000000E+00  0.19670346055E+03  0.19670346055E+03  0.00000000000E+00 0.  1.
          2   -1    0    0  503    0 -0.00000000000E+00 -0.00000000000E+00 -0.11121734928E+03  0.11121734928E+03  0.00000000000E+00 0. -1.
         25    2    1    2    0    0  0.18062277405E+02  0.30227755301E+02  0.17141913261E+03  0.21505290787E+03  0.12499308422E+03 0.  0.
          5    1    3    3  501    0 -0.30938030576E+02  0.62124263533E+02  0.11149916672E+03  0.13133415411E+03  0.10000000000E+00 0. -1.
         -5    1    3    3    0  501  0.49000307981E+02 -0.31896508232E+02  0.59919965891E+02  0.83718753765E+02  0.10000000000E+00 0. -1.
          2    1    1    2  502    0 -0.18062277405E+02 -0.30227755301E+02 -0.85933021350E+02  0.92867901957E+02  0.00000000000E+00 0. -1.
<mgrwt>
<rscale>  1 0.12985852E+03</rscale>
<asrwt>0</asrwt>
<pdfrwt beam="1">  1       21 0.30262071E-01 0.12985852E+03</pdfrwt>
<pdfrwt beam="2">  1        2 0.17110361E-01 0.12985852E+03</pdfrwt>
<totfact> 0.42478034E+04</totfact>
</mgrwt>
</event>
<event>
 6    2  0.1181843E-002  0.1342770E+03  0.7546771E-02  0.1221244E+00
         21   -1    0    0  502  503  0.00000000000E+00  0.00000000000E+00  0.19544821079E+02  0.19544821079E+02  0.00000000000E+00 0. -1.
          2   -1    0    0  503    0 -0.00000000000E+00 -0.00000000000E+00 -0.57944541401E+03  0.57944541401E+03  0.00000000000E+00 0. -1.
         25    2    1    2    0    0 -0.40296162861E+01  0.48855434955E+02 -0.23704863106E+03  0.27243781875E+03  0.12500888075E+03 0.  0.
          5    1    3    3  501    0 -0.60857537724E+02  0.15048873512E+02 -0.15406426992E+03  0.16633074808E+03  0.10000000000E+00 0. -1.
         -5    1    3    3    0  501  0.56827921438E+02  0.33806561443E+02 -0.82984361136E+02  0.10610707066E+03  0.10000000000E+00 0. -1.
          2    1    1    2  502    0  0.40296162861E+01 -0.48855434955E+02 -0.32285196187E+03  0.32655241634E+03  0.00000000000E+00 0. -1.
<mgrwt>
<rscale>  1 0.13427700E+03</rscale>
<asrwt>0</asrwt>
<pdfrwt beam="1">  1       21 0.30068958E-02 0.13427700E+03</pdfrwt>
<pdfrwt beam="2">  1        2 0.89145441E-01 0.13427700E+03</pdfrwt>
<totfact> 0.40900022E+05</totfact>
</mgrwt>
</event>
<event>
 6    2  0.1181843E-002  0.1629553E+03  0.7546771E-02  0.1185400E+00
          2   -1    0    0  503    0 -0.00000000000E+00  0.00000000000E+00  0.59640094281E+03  0.59640094281E+03  0.00000000000E+00 0. -1.
         21   -1    0    0  502  503  0.00000000000E+00 -0.00000000000E+00 -0.35571275874E+02  0.35571275874E+02  0.00000000000E+00 0. -1.
         25    2    1    2    0    0 -0.53924519545E+02 -0.89585404822E+02  0.20950926755E+03  0.26542151061E+03  0.12498418515E+03 0.  0.
          5    1    3    3  501    0 -0.44024821637E+02 -0.10963807504E+03  0.21222341326E+03  0.24289396772E+03  0.10000000000E+00 0. -1.
         -5    1    3    3    0  501 -0.98996979077E+01  0.20052670215E+02 -0.27141457166E+01  0.22527542884E+02  0.10000000000E+00 0. -1.
          2    1    1    2  502    0  0.53924519545E+02  0.89585404822E+02  0.35132039939E+03  0.36655070807E+03  0.00000000000E+00 0. -1.
<mgrwt>
<rscale>  1 0.16295535E+03</rscale>
<asrwt>0</asrwt>
<pdfrwt beam="1">  1       21 0.54725044E-02 0.16295535E+03</pdfrwt>
<pdfrwt beam="2">  1        2 0.91753984E-01 0.16295535E+03</pdfrwt>
<totfact> 0.14690503E+05</totfact>
</mgrwt>
</event>
<event>
 6    2  0.1181843E-002  0.1270515E+03  0.7546771E-02  0.1231897E+00
         21   -1    0    0  502  503  0.00000000000E+00  0.00000000000E+00  0.60772495080E+02  0.60772495080E+02  0.00000000000E+00 0.  1.
          1   -1    0    0  503    0 -0.00000000000E+00 -0.00000000000E+00 -0.13226910866E+03  0.13226910866E+03  0.00000000000E+00 0.  1.
         25    2    1    2    0    0 -0.67255785273E+00  0.22731494862E+02 -0.99647396622E+01  0.12744172035E+03  0.12499969143E+03 0.  0.
          5    1    3    3  501    0  0.34081802706E+02  0.55622025495E+02 -0.34362436486E+02  0.73730360349E+02  0.10000000000E+00 0.  1.
         -5    1    3    3    0  501 -0.34754360559E+02 -0.32890530634E+02  0.24397696824E+02  0.53711360004E+02  0.10000000000E+00 0.  1.
          1    1    1    2  502    0  0.67255785273E+00 -0.22731494862E+02 -0.61531873920E+02  0.65599883390E+02  0.00000000000E+00 0.  1.
<mgrwt>
<rscale>  1 0.12705155E+03</rscale>
<asrwt>0</asrwt>
<pdfrwt beam="1">  1       21 0.93496146E-02 0.12705155E+03</pdfrwt>
<pdfrwt beam="2">  1        1 0.20349094E-01 0.12705155E+03</pdfrwt>
<totfact> 0.24007853E+05</totfact>
</mgrwt>
</event>
<event>
 6    2  0.1181843E-002  0.2321559E+03  0.7546771E-02  0.1125131E+00
         21   -1    0    0  502  503  0.00000000000E+00  0.00000000000E+00  0.13668676576E+03  0.13668676576E+03  0.00000000000E+00 0. -1.
          1   -1    0    0  503    0 -0.00000000000E+00 -0.00000000000E+00 -0.39047257604E+03  0.39047257604E+03  0.00000000000E+00 0. -1.
         25    2    1    2    0    0 -0.84580337848E+02 -0.17640086817E+03 -0.36883764868E+02  0.23506758027E+03  0.12500102137E+03 0.  0.
          5    1    3    3  501    0 -0.41933136977E+02  0.38755281033E+01 -0.26009340641E+02  0.49496499829E+02  0.10000000000E+00 0. -1.
         -5    1    3    3    0  501 -0.42647200871E+02 -0.18027639627E+03 -0.10874424227E+02  0.18557108045E+03  0.10000000000E+00 0. -1.
          1    1    1    2  502    0  0.84580337848E+02  0.17640086817E+03 -0.21690204541E+03  0.29209176152E+03  0.00000000000E+00 0. -1.
<mgrwt>
<rscale>  1 0.23215589E+03</rscale>
<asrwt>0</asrwt>
<pdfrwt beam="1">  1       21 0.21028733E-01 0.23215589E+03</pdfrwt>
<pdfrwt beam="2">  1        1 0.60072703E-01 0.23215589E+03</pdfrwt>
<totfact> 0.14341712E+04</totfact>
</mgrwt>
</event>
<event>
 6    2  0.1181843E-002  0.1321040E+03  0.7546771E-02  0.1224367E+00
         21   -1    0    0  502  503  0.00000000000E+00  0.00000000000E+00  0.17199979010E+04  0.17199979010E+04  0.00000000000E+00 0. -1.
          3   -1    0    0  503    0 -0.00000000000E+00 -0.00000000000E+00 -0.90311988107E+01  0.90311988107E+01  0.00000000000E+00 0. -1.
         25    2    1    2    0    0 -0.34413927147E+02  0.25394447008E+02  0.16457238323E+04  0.16510173802E+04  0.12498904488E+03 0.  0.
          5    1    3    3  501    0  0.20965700779E+02 -0.36133434028E+02  0.84349896470E+03  0.84453282892E+03  0.10000000000E+00 0. -1.
         -5    1    3    3    0  501 -0.55379627925E+02  0.61527881036E+02  0.80222486755E+03  0.80648455128E+03  0.10000000000E+00 0. -1.
          3    1    1    2  502    0  0.34413927147E+02 -0.25394447008E+02  0.65242869960E+02  0.78011719639E+02  0.00000000000E+00 0. -1.
<mgrwt>
<rscale>  1 0.13210397E+03</rscale>
<asrwt>0</asrwt>
<pdfrwt beam="1">  1       21 0.26461480E+00 0.13210397E+03</pdfrwt>
<pdfrwt beam="2">  1        3 0.13894166E-02 0.13210397E+03</pdfrwt>
<totfact> 0.45592616E+03</totfact>
</mgrwt>
</event>
<event>
 6    2  0.1181843E-002  0.1279090E+03  0.7546771E-02  0.1230592E+00
          1   -1    0    0  503    0 -0.00000000000E+00  0.00000000000E+00  0.96353490000E+03  0.96353490000E+03  0.00000000000E+00 0.  1.
         21   -1    0    0  502  503  0.00000000000E+00 -0.00000000000E+00 -0.25531438851E+04  0.25531438851E+04  0.00000000000E+00 0. -1.
         25    2    1    2    0    0  0.12870011541E+02 -0.23874394338E+02 -0.25513505657E+04  0.25545548370E+04  0.12500032804E+03 0.  0.
          5    1    3    3  501    0  0.49207899051E+02  0.21002685198E+02 -0.60887087134E+03  0.61121704663E+03  0.10000000000E+00 0. -1.
         -5    1    3    3    0  501 -0.36337887510E+02 -0.44877079537E+02 -0.19424796944E+04  0.19433377903E+04  0.10000000000E+00 0. -1.
          1    1    1    2  502    0 -0.12870011541E+02  0.23874394338E+02  0.96174158055E+03  0.96212394818E+03  0.00000000000E+00 0.  1.
<mgrwt>
<rscale>  1 0.12790898E+03</rscale>
<asrwt>0</asrwt>
<pdfrwt beam="1">  1       21 0.39279136E+00 0.12790898E+03</pdfrwt>
<pdfrwt beam="2">  1        1 0.14823614E+00 0.12790898E+03</pdfrwt>
<totfact> 0.21587097E+00</totfact>
</mgrwt>
</event>
<event>
 6    2  0.1181843E-002  0.1306181E+03  0.7546771E-02  0.1226541E+00
         21   -1    0    0  502  503  0.00000000000E+00  0.00000000000E+00  0.38997392643E+02  0.38997392643E+02  0.00000000000E+00 0. -1.
          2   -1    0    0  503    0 -0.00000000000E+00 -0.00000000000E+00 -0.40873991538E+03  0.40873991538E+03  0.00000000000E+00 0. -1.
         25    2    1    2    0    0  0.18445733827E+02 -0.33054243029E+02 -0.75090980794E+02  0.15066432162E+03  0.12501301666E+03 0.  0.
          5    1    3    3  501    0 -0.35419738996E+02 -0.56032617882E+02 -0.17569807406E+02  0.68577841243E+02  0.10000000000E+00 0. -1.
         -5    1    3    3    0  501  0.53865472824E+02  0.22978374853E+02 -0.57521173388E+02  0.82086480381E+02  0.10000000000E+00 0. -1.
          2    1    1    2  502    0 -0.18445733827E+02  0.33054243029E+02 -0.29465154195E+03  0.29707298640E+03  0.00000000000E+00 0. -1.
<mgrwt>
<rscale>  1 0.13061808E+03</rscale>
<asrwt>0</asrwt>
<pdfrwt beam="1">  1       21 0.59995988E-02 0.13061808E+03</pdfrwt>
<pdfrwt beam="2">  1        2 0.62883064E-01 0.13061808E+03</pdfrwt>
<totfact> 0.18909842E+05</totfact>
</mgrwt>
</event>
<event>
 6    2  0.1181843E-002  0.1268784E+03  0.7546771E-02  0.1232162E+00
         21   -1    0    0  502  503  0.00000000000E+00  0.00000000000E+00  0.17688979376E+02  0.17688979376E+02  0.00000000000E+00 0.  1.
          2   -1    0    0  503    0 -0.00000000000E+00 -0.00000000000E+00 -0.80298561320E+03  0.80298561320E+03  0.00000000000E+00 0. -1.
         25    2    1    2    0    0  0.95250554768E+01  0.19536740667E+02 -0.21271704427E+03  0.24768262292E+03  0.12500291939E+03 0.  0.
          5    1    3    3  501    0  0.39091480039E+02 -0.28493027921E+02 -0.17050659511E+03  0.17723573406E+03  0.10000000000E+00 0.  1.
         -5    1    3    3    0  501 -0.29566424562E+02  0.48029768588E+02 -0.42210449167E+02  0.70446888866E+02  0.10000000000E+00 0.  1.
          2    1    1    2  502    0 -0.95250554768E+01 -0.19536740667E+02 -0.57257958955E+03  0.57299196965E+03  0.00000000000E+00 0. -1.
<mgrwt>
<rscale>  1 0.12687845E+03</rscale>
<asrwt>0</asrwt>
<pdfrwt beam="1">  1       21 0.27213823E-02 0.12687845E+03</pdfrwt>
<pdfrwt beam="2">  1        2 0.12353621E+00 0.12687845E+03</pdfrwt>
<totfact> 0.32683202E+05</totfact>
</mgrwt>
</event>
<event>
 6    2  0.1181843E-002  0.1553563E+03  0.7546771E-02  0.1194042E+00
         21   -1    0    0  502  503  0.00000000000E+00  0.00000000000E+00  0.41665818269E+02  0.41665818269E+02  0.00000000000E+00 0. -1.
          2   -1    0    0  503    0 -0.00000000000E+00 -0.00000000000E+00 -0.37548758893E+03  0.37548758893E+03  0.00000000000E+00 0. -1.
         25    2    1    2    0    0 -0.89557871232E+02 -0.22300740938E+02 -0.23709180850E+03  0.28345740529E+03  0.12497055498E+03 0.  0.
          5    1    3    3  501    0 -0.81610698134E+02  0.40014597727E+02 -0.15996239385E+03  0.18398220438E+03  0.10000000000E+00 0.  1.
         -5    1    3    3    0  501 -0.79471730983E+01 -0.62315338664E+02 -0.77129414650E+02  0.99475200917E+02  0.10000000000E+00 0.  1.
          2    1    1    2  502    0  0.89557871232E+02  0.22300740938E+02 -0.96729962161E+02  0.13369600191E+03  0.00000000000E+00 0. -1.
<mgrwt>
<rscale>  1 0.15535628E+03</rscale>
<asrwt>0</asrwt>
<pdfrwt beam="1">  1       21 0.64101262E-02 0.15535628E+03</pdfrwt>
<pdfrwt beam="2">  1        2 0.57767318E-01 0.15535628E+03</pdfrwt>
<totfact> 0.18632224E+05</totfact>
</mgrwt>
</event>
<event>
 6    2  0.1181843E-002  0.1356577E+03  0.7546771E-02  0.1219294E+00
          2   -1    0    0  503    0 -0.00000000000E+00  0.00000000000E+00  0.47503483160E+03  0.47503483160E+03  0.00000000000E+00 0. -1.
         21   -1    0    0  502  503  0.00000000000E+00 -0.00000000000E+00 -0.24459607093E+02  0.24459607093E+02  0.00000000000E+00 0.  1.
         25    2    1    2    0    0 -0.52643929442E+02  0.98979077075E+00  0.18884050227E+03  0.23251611032E+03  0.12502257105E+03 0.  0.
          5    1    3    3  501    0 -0.18540843008E+02  0.66323880026E+01  0.19619066260E+03  0.19717641218E+03  0.10000000000E+00 0. -1.
         -5    1    3    3    0  501 -0.34103086434E+02 -0.56425972318E+01 -0.73501603317E+01  0.35339698142E+02  0.10000000000E+00 0. -1.
          2    1    1    2  502    0  0.52643929442E+02 -0.98979077075E+00  0.26173472224E+03  0.26697832837E+03  0.00000000000E+00 0. -1.
<mgrwt>
<rscale>  1 0.13565768E+03</rscale>
<asrwt>0</asrwt>
<pdfrwt beam="1">  1       21 0.37630168E-02 0.13565768E+03</pdfrwt>
<pdfrwt beam="2">  1        2 0.73082275E-01 0.13565768E+03</pdfrwt>
<totfact> 0.35218612E+05</totfact>
</mgrwt>
</event>
<event>
 6    2  0.1181843E-002  0.1339374E+03  0.7546771E-02  0.1221728E+00
         21   -1    0    0  502  503  0.00000000000E+00  0.00000000000E+00  0.25425071625E+04  0.25425071625E+04  0.00000000000E+00 0. -1.
          2   -1    0    0  503    0 -0.00000000000E+00 -0.00000000000E+00 -0.23256059525E+02  0.23256059525E+02  0.00000000000E+00 0.  1.
         25    2    1    2    0    0  0.38965099433E+02  0.28239327866E+02  0.25137635541E+04  0.25173292277E+04  0.12499398434E+03 0.  0.
          5    1    3    3  501    0  0.68143081758E+02 -0.24719813361E+02  0.12172090009E+04  0.12193655362E+04  0.10000000000E+00 0.  1.
         -5    1    3    3    0  501 -0.29177982325E+02  0.52959141227E+02  0.12965545532E+04  0.12979636916E+04  0.10000000000E+00 0.  1.
          2    1    1    2  502    0 -0.38965099433E+02 -0.28239327866E+02  0.54875488639E+01  0.48433994309E+02  0.00000000000E+00 0.  1.
<mgrwt>
<rscale>  1 0.13393743E+03</rscale>
<asrwt>0</asrwt>
<pdfrwt beam="1">  1       21 0.39115473E+00 0.13393743E+03</pdfrwt>
<pdfrwt beam="2">  1        2 0.35778573E-02 0.13393743E+03</pdfrwt>
<totfact> 0.31575562E+02</totfact>
</mgrwt>
</event>
<event>
 6    2  0.1181843E-002  0.1327683E+03  0.7546771E-02  0.1223405E+00
         21   -1    0    0  502  503  0.00000000000E+00  0.00000000000E+00  0.33403093924E+02  0.33403093924E+02  0.00000000000E+00 0. -1.
          1   -1    0    0  503    0 -0.00000000000E+00 -0.00000000000E+00 -0.14724265490E+04  0.14724265490E+04  0.00000000000E+00 0. -1.
         25    2    1    2    0    0  0.15822771686E+02  0.41797169856E+02 -0.10038896227E+03  0.16644931276E+03  0.12502026420E+03 0.  0.
          5    1    3    3  501    0 -0.16530962784E+02 -0.19292701547E+02 -0.93601624756E+02  0.96988428281E+02  0.10000000000E+00 0. -1.
         -5    1    3    3    0  501  0.32353734470E+02  0.61089871402E+02 -0.67873375183E+01  0.69460884480E+02  0.10000000000E+00 0. -1.
          1    1    1    2  502    0 -0.15822771686E+02 -0.41797169856E+02 -0.13386344928E+04  0.13393803301E+04  0.00000000000E+00 0. -1.
<mgrwt>
<rscale>  1 0.13276833E+03</rscale>
<asrwt>0</asrwt>
<pdfrwt beam="1">  1       21 0.51389368E-02 0.13276833E+03</pdfrwt>
<pdfrwt beam="2">  1        1 0.22652720E+00 0.13276833E+03</pdfrwt>
<totfact> 0.22090142E+04</totfact>
</mgrwt>
</event>
<event>
 6    2  0.1181843E-002  0.1367322E+03  0.7546771E-02  0.1217795E+00
         21   -1    0    0  502  503  0.00000000000E+00  0.00000000000E+00  0.12750638725E+04  0.12750638725E+04  0.00000000000E+00 0.  1.
          1   -1    0    0  503    0 -0.00000000000E+00 -0.00000000000E+00 -0.72883687020E+01  0.72883687020E+01  0.00000000000E+00 0.  1.
         25    2    1    2    0    0 -0.96616603449E+01  0.54561197149E+02  0.85229354088E+03  0.86319173087E+03  0.12500164997E+03 0.  0.
          5    1    3    3  501    0 -0.14031190585E+02 -0.39619668151E+02  0.23259815360E+03  0.23636519090E+03  0.10000000000E+00 0.  1.
         -5    1    3    3    0  501  0.43695302397E+01  0.94180865300E+02  0.61969538729E+03  0.62682653997E+03  0.10000000000E+00 0.  1.
          1    1    1    2  502    0  0.96616603449E+01 -0.54561197149E+02  0.41548196295E+03  0.41916051037E+03  0.00000000000E+00 0.  1.
<mgrwt>
<rscale>  1 0.13673216E+03</rscale>
<asrwt>0</asrwt>
<pdfrwt beam="1">  1       21 0.19616350E+00 0.13673216E+03</pdfrwt>
<pdfrwt beam="2">  1        1 0.11212885E-02 0.13673216E+03</pdfrwt>
<totfact> 0.20471124E+04</totfact>
</mgrwt>
</event>
<event>
 6    2  0.1181843E-002  0.1332589E+03  0.7546771E-02  0.1222699E+00
          2   -1    0    0  503    0 -0.00000000000E+00  0.00000000000E+00  0.19365878611E+04  0.19365878611E+04  0.00000000000E+00 0. -1.
         21   -1    0    0  502  503  0.00000000000E+00 -0.00000000000E+00 -0.44020046798E+01  0.44020046798E+01  0.00000000000E+00 0. -1.
         25    2    1    2    0    0  0.23895511758E+02  0.39512713089E+02  0.12066496941E+04  0.12139857580E+04  0.12500274492E+03 0.  0.
          5    1    3    3  501    0  0.73622663552E+01  0.20965837154E+02  0.31366949779E+02  0.38440406240E+02  0.10000000000E+00 0. -1.
         -5    1    3    3    0  501  0.16533245403E+02  0.18546875935E+02  0.11752827444E+04  0.11755453517E+04  0.10000000000E+00 0. -1.
          2    1    1    2  502    0 -0.23895511758E+02 -0.39512713089E+02  0.72553616226E+03  0.72700410777E+03  0.00000000000E+00 0. -1.
<mgrwt>
<rscale>  1 0.13325891E+03</rscale>
<asrwt>0</asrwt>
<pdfrwt beam="1">  1       21 0.67723304E-03 0.13325891E+03</pdfrwt>
<pdfrwt beam="2">  1        2 0.29793591E+00 0.13325891E+03</pdfrwt>
<totfact> 0.71621685E+05</totfact>
</mgrwt>
</event>
<event>
 6    2  0.1181843E-002  0.1587399E+03  0.7546771E-02  0.1190127E+00
         21   -1    0    0  502  503  0.00000000000E+00  0.00000000000E+00  0.13597094232E+02  0.13597094232E+02  0.00000000000E+00 0. -1.
          2   -1    0    0  503    0 -0.00000000000E+00 -0.00000000000E+00 -0.17710562076E+04  0.17710562076E+04  0.00000000000E+00 0. -1.
         25    2    1    2    0    0  0.71827949973E+02  0.66441109595E+02 -0.15135346355E+04  0.15218362050E+04  0.12499866723E+03 0.  0.
          5    1    3    3  501    0  0.10999028832E+02  0.64997998217E+02 -0.31835008211E+03  0.32510383447E+03  0.10000000000E+00 0. -1.
         -5    1    3    3    0  501  0.60828921142E+02  0.14431113771E+01 -0.11951845533E+04  0.11967323706E+04  0.10000000000E+00 0. -1.
          2    1    1    2  502    0 -0.71827949973E+02 -0.66441109595E+02 -0.24392447795E+03  0.26281709682E+03  0.00000000000E+00 0. -1.
<mgrwt>
<rscale>  1 0.15873986E+03</rscale>
<asrwt>0</asrwt>
<pdfrwt beam="1">  1       21 0.20918604E-02 0.15873986E+03</pdfrwt>
<pdfrwt beam="2">  1        2 0.27247022E+00 0.15873986E+03</pdfrwt>
<totfact> 0.14527099E+05</totfact>
</mgrwt>
</event>
<event>
 6    2  0.1181843E-002  0.1473284E+03  0.7546771E-02  0.1203795E+00
          2   -1    0    0  503    0 -0.00000000000E+00  0.00000000000E+00  0.30370717285E+04  0.30370717285E+04  0.00000000000E+00 0.  1.
         21   -1    0    0  502  503  0.00000000000E+00 -0.00000000000E+00 -0.60489188253E+01  0.60489188253E+01  0.00000000000E+00 0.  1.
         25    2    1    2    0    0  0.70127830810E+02 -0.34114131918E+02  0.10198724346E+04  0.10304588482E+04  0.12499587292E+03 0.  0.
          5    1    3    3  501    0 -0.25734184221E+02  0.17856997421E+02  0.38659792247E+03  0.38786477573E+03  0.10000000000E+00 0.  1.
         -5    1    3    3    0  501  0.95862015031E+02 -0.51971129339E+02  0.63327451217E+03  0.64259407247E+03  0.10000000000E+00 0.  1.
          2    1    1    2  502    0 -0.70127830810E+02  0.34114131918E+02  0.20111503751E+04  0.20126617991E+04  0.00000000000E+00 0.  1.
<mgrwt>
<rscale>  1 0.14732839E+03</rscale>
<asrwt>0</asrwt>
<pdfrwt beam="1">  1       21 0.93060532E-03 0.14732839E+03</pdfrwt>
<pdfrwt beam="2">  1        2 0.46724059E+00 0.14732839E+03</pdfrwt>
<totfact> 0.11121394E+05</totfact>
</mgrwt>
</event>
<event>
 6    2  0.1181843E-002  0.1463198E+03  0.7546771E-02  0.1205069E+00
          2   -1    0    0  503    0 -0.00000000000E+00  0.00000000000E+00  0.10332405978E+04  0.10332405978E+04  0.00000000000E+00 0.  1.
         21   -1    0    0  502  503  0.00000000000E+00 -0.00000000000E+00 -0.91806233411E+03  0.91806233411E+03  0.00000000000E+00 0. -1.
         25    2    1    2    0    0  0.61547177031E+02 -0.44698657481E+02 -0.91081537630E+03  0.92249343822E+03  0.12499387534E+03 0.  0.
          5    1    3    3  501    0  0.27497806940E+02 -0.86340554703E+02 -0.49651682053E+03  0.50471752876E+03  0.10000000000E+00 0. -1.
         -5    1    3    3    0  501  0.34049370091E+02  0.41641897222E+02 -0.41429855577E+03  0.41777590946E+03  0.10000000000E+00 0. -1.
          2    1    1    2  502    0 -0.61547177031E+02  0.44698657481E+02  0.10259936400E+04  0.10288094937E+04  0.00000000000E+00 0.  1.
<mgrwt>
<rscale>  1 0.14631983E+03</rscale>
<asrwt>0</asrwt>
<pdfrwt beam="1">  1       21 0.14124036E+00 0.14631983E+03</pdfrwt>
<pdfrwt beam="2">  1        2 0.15896009E+00 0.14631983E+03</pdfrwt>
<totfact> 0.11719898E+02</totfact>
</mgrwt>
</event>
<event>
 6    2  0.1181843E-002  0.1580858E+03  0.7546771E-02  0.1190875E+00
          2   -1    0    0  503    0 -0.00000000000E+00  0.00000000000E+00  0.19108004265E+04  0.19108004265E+04  0.00000000000E+00 0.  1.
         21   -1    0    0  502  503  0.00000000000E+00 -0.00000000000E+00 -0.86452784290E+01  0.86452784290E+01  0.00000000000E+00 0.  1.
         25    2    1    2    0    0 -0.51471075275E+01 -0.96642702662E+02  0.10545646473E+04  0.10663478432E+04  0.12499929065E+03 0.  0.
          5    1    3    3  501    0 -0.55697376420E+02 -0.50150321533E+02  0.76885815771E+03  0.77250251078E+03  0.10000000000E+00 0. -1.
         -5    1    3    3    0  501  0.50550268892E+02 -0.46492381129E+02  0.28570648963E+03  0.29384533245E+03  0.10000000000E+00 0. -1.
          2    1    1    2  502    0  0.51471075275E+01  0.96642702662E+02  0.84759050078E+03  0.85309786174E+03  0.00000000000E+00 0.  1.
<mgrwt>
<rscale>  1 0.15808582E+03</rscale>
<asrwt>0</asrwt>
<pdfrwt beam="1">  1       21 0.13300444E-02 0.15808582E+03</pdfrwt>
<pdfrwt beam="2">  1        2 0.29396896E+00 0.15808582E+03</pdfrwt>
<totfact> 0.25529830E+05</totfact>
</mgrwt>
</event>
<event>
 6    2  0.1181843E-002  0.1260171E+03  0.7546771E-02  0.1233488E+00
          2   -1    0    0  503    0 -0.00000000000E+00  0.00000000000E+00  0.94394251124E+03  0.94394251124E+03  0.00000000000E+00 0.  1.
         21   -1    0    0  502  503  0.00000000000E+00 -0.00000000000E+00 -0.92344844466E+01  0.92344844466E+01  0.00000000000E+00 0. -1.
         25    2    1    2    0    0  0.15240410810E+02  0.46794485406E+01  0.42671109419E+03  0.44492995842E+03  0.12500457044E+03 0.  0.
          5    1    3    3  501    0  0.24875949496E+02  0.13825557872E+02  0.13489780630E+02  0.31495128119E+02  0.10000000000E+00 0.  1.
         -5    1    3    3    0  501 -0.96355386855E+01 -0.91461093315E+01  0.41322131356E+03  0.41343483030E+03  0.10000000000E+00 0.  1.
          2    1    1    2  502    0 -0.15240410810E+02 -0.46794485406E+01  0.50799693260E+03  0.50824703726E+03  0.00000000000E+00 0.  1.
<mgrwt>
<rscale>  1 0.12601710E+03</rscale>
<asrwt>0</asrwt>
<pdfrwt beam="1">  1       21 0.14206907E-02 0.12601710E+03</pdfrwt>
<pdfrwt beam="2">  1        2 0.14522185E+00 0.12601710E+03</pdfrwt>
<totfact> 0.75688815E+05</totfact>
</mgrwt>
</event>
<event>
 6    2  0.1181843E-002  0.1754747E+03  0.7546771E-02  0.1172256E+00
          2   -1    0    0  503    0 -0.00000000000E+00  0.00000000000E+00  0.99637930782E+03  0.99637930782E+03  0.00000000000E+00 0. -1.
         21   -1    0    0  502  503  0.00000000000E+00 -0.00000000000E+00 -0.15349169281E+03  0.15349169281E+03  0.00000000000E+00 0. -1.
         25    2    1    2    0    0  0.37107252515E+02  0.11742976097E+03 -0.97980941886E+02  0.20097672922E+03  0.12499873505E+03 0.  0.
          5    1    3    3  501    0 -0.12137488273E+02  0.90739981281E+02 -0.11058643530E+03  0.14356333967E+03  0.10000000000E+00 0. -1.
         -5    1    3    3    0  501  0.49244740788E+02  0.26689779693E+02  0.12605493416E+02  0.57413389550E+02  0.10000000000E+00 0. -1.
          2    1    1    2  502    0 -0.37107252515E+02 -0.11742976097E+03  0.94086855689E+03  0.94889427140E+03  0.00000000000E+00 0. -1.
<mgrwt>
<rscale>  1 0.17547473E+03</rscale>
<asrwt>0</asrwt>
<pdfrwt beam="1">  1       21 0.23614107E-01 0.17547473E+03</pdfrwt>
<pdfrwt beam="2">  1        2 0.15328912E+00 0.17547473E+03</pdfrwt>
<totfact> 0.57034751E+03</totfact>
</mgrwt>
</event>
<event>
 6    2  0.1181843E-002  0.1272038E+03  0.7546771E-02  0.1231665E+00
         21   -1    0    0  502  503  0.00000000000E+00  0.00000000000E+00  0.12897856278E+02  0.12897856278E+02  0.00000000000E+00 0.  1.
          2   -1    0    0  503    0 -0.00000000000E+00 -0.00000000000E+00 -0.57739585106E+03  0.57739585106E+03  0.00000000000E+00 0.  1.
         25    2    1    2    0    0  0.82172695804E+01 -0.22074154645E+02 -0.31540952786E+03  0.34009407469E+03  0.12500407015E+03 0.  0.
          5    1    3    3  501    0 -0.34642575677E+02  0.34690405988E+02 -0.18679680214E+03  0.19312324460E+03  0.10000000000E+00 0. -1.
         -5    1    3    3    0  501  0.42859845257E+02 -0.56764560632E+02 -0.12861272572E+03  0.14697083009E+03  0.10000000000E+00 0. -1.
          2    1    1    2  502    0 -0.82172695804E+01  0.22074154645E+02 -0.24908846693E+03  0.25019963265E+03  0.00000000000E+00 0.  1.
<mgrwt>
<rscale>  1 0.12720381E+03</rscale>
<asrwt>0</asrwt>
<pdfrwt beam="1">  1       21 0.19842859E-02 0.12720381E+03</pdfrwt>
<pdfrwt beam="2">  1        2 0.88830116E-01 0.12720381E+03</pdfrwt>
<totfact> 0.80457026E+05</totfact>
</mgrwt>
</event>
<event>
 6    2  0.1181843E-002  0.1287893E+03  0.7546771E-02  0.1229263E+00
         21   -1    0    0  502  503  0.00000000000E+00  0.00000000000E+00  0.95142804485E+01  0.95142804485E+01  0.00000000000E+00 0. -1.
          1   -1    0    0  503    0 -0.00000000000E+00 -0.00000000000E+00 -0.68519634432E+03  0.68519634432E+03  0.00000000000E+00 0. -1.
         25    2    1    2    0    0  0.25391319258E+02 -0.17829366625E+02 -0.50063603156E+03  0.51693627669E+03  0.12499629055E+03 0.  0.
          5    1    3    3  501    0 -0.13683417236E+01  0.70930888515E+00 -0.47627205378E+03  0.47627455809E+03  0.10000000000E+00 0. -1.
         -5    1    3    3    0  501  0.26759660981E+02 -0.18538675510E+02 -0.24363977782E+02  0.40661718592E+02  0.10000000000E+00 0. -1.
          1    1    1    2  502    0 -0.25391319258E+02  0.17829366625E+02 -0.17504603231E+03  0.17777434808E+03  0.00000000000E+00 0. -1.
<mgrwt>
<rscale>  1 0.12878928E+03</rscale>
<asrwt>0</asrwt>
<pdfrwt beam="1">  1       21 0.14637357E-02 0.12878928E+03</pdfrwt>
<pdfrwt beam="2">  1        1 0.10541480E+00 0.12878928E+03</pdfrwt>
<totfact> 0.64570915E+05</totfact>
</mgrwt>
</event>
<event>
 6    2  0.1181843E-002  0.1262495E+03  0.7546771E-02  0.1233129E+00
          2   -1    0    0  503    0 -0.00000000000E+00  0.00000000000E+00  0.15059774468E+04  0.15059774468E+04  0.00000000000E+00 0.  1.
         21   -1    0    0  502  503  0.00000000000E+00 -0.00000000000E+00 -0.13024729016E+02  0.13024729016E+02  0.00000000000E+00 0.  1.
         25    2    1    2    0    0 -0.10494482461E+02  0.14348876680E+02  0.29453356298E+03  0.32045117773E+03  0.12499165236E+03 0.  0.
          5    1    3    3  501    0 -0.38875064074E+02 -0.41550518135E+02  0.19215658325E+03  0.20040428800E+03  0.10000000000E+00 0. -1.
         -5    1    3    3    0  501  0.28380581613E+02  0.55899394815E+02  0.10237697973E+03  0.12004688973E+03  0.10000000000E+00 0. -1.
          2    1    1    2  502    0  0.10494482461E+02 -0.14348876680E+02  0.11984191548E+04  0.11985509981E+04  0.00000000000E+00 0.  1.
<mgrwt>
<rscale>  1 0.12624951E+03</rscale>
<asrwt>0</asrwt>
<pdfrwt beam="1">  1       21 0.20038057E-02 0.12624951E+03</pdfrwt>
<pdfrwt beam="2">  1        2 0.23168870E+00 0.12624951E+03</pdfrwt>
<totfact> 0.21310567E+05</totfact>
</mgrwt>
</event>
<event>
 6    2  0.1181843E-002  0.1259490E+03  0.7546771E-02  0.1233594E+00
         21   -1    0    0  502  503  0.00000000000E+00  0.00000000000E+00  0.32463213913E+02  0.32463213913E+02  0.00000000000E+00 0. -1.
          1   -1    0    0  503    0 -0.00000000000E+00 -0.00000000000E+00 -0.49815595923E+03  0.49815595923E+03  0.00000000000E+00 0. -1.
         25    2    1    2    0    0 -0.98022862403E+01  0.11929674536E+02 -0.90458547624E+02  0.15506743893E+03  0.12499903931E+03 0.  0.
          5    1    3    3  501    0  0.49288257849E+02 -0.25671698272E+02 -0.34424909204E+02  0.65371651560E+02  0.10000000000E+00 0. -1.
         -5    1    3    3    0  501 -0.59090544089E+02  0.37601372808E+02 -0.56033638420E+02  0.89695787373E+02  0.10000000000E+00 0. -1.
          1    1    1    2  502    0  0.98022862403E+01 -0.11929674536E+02 -0.37523419769E+03  0.37555173421E+03  0.00000000000E+00 0. -1.
<mgrwt>
<rscale>  1 0.12594904E+03</rscale>
<asrwt>0</asrwt>
<pdfrwt beam="1">  1       21 0.49943406E-02 0.12594904E+03</pdfrwt>
<pdfrwt beam="2">  1        1 0.76639378E-01 0.12594904E+03</pdfrwt>
<totfact> 0.13358148E+05</totfact>
</mgrwt>
</event>
<event>
 6    2  0.1181843E-002  0.1489361E+03  0.7546771E-02  0.1201786E+00
         21   -1    0    0  502  503  0.00000000000E+00  0.00000000000E+00  0.16853753841E+02  0.16853753841E+02  0.00000000000E+00 0. -1.
          1   -1    0    0  503    0 -0.00000000000E+00 -0.00000000000E+00 -0.20951616881E+04  0.20951616881E+04  0.00000000000E+00 0. -1.
         25    2    1    2    0    0 -0.55422724898E+02  0.59035568180E+02 -0.33252253226E+03  0.36435313286E+03  0.12500037688E+03 0.  0.
          5    1    3    3  501    0 -0.76033644860E+02  0.85024662831E+02 -0.27859870706E+03  0.30104411307E+03  0.10000000000E+00 0.  1.
         -5    1    3    3    0  501  0.20610919962E+02 -0.25989094651E+02 -0.53923825197E+02  0.63309019786E+02  0.10000000000E+00 0.  1.
          1    1    1    2  502    0  0.55422724898E+02 -0.59035568180E+02 -0.17457854020E+04  0.17476623091E+04  0.00000000000E+00 0. -1.
<mgrwt>
<rscale>  1 0.14893613E+03</rscale>
<asrwt>0</asrwt>
<pdfrwt beam="1">  1       21 0.25928839E-02 0.14893613E+03</pdfrwt>
<pdfrwt beam="2">  1        1 0.32233273E+00 0.14893613E+03</pdfrwt>
<totfact> 0.27332582E+04</totfact>
</mgrwt>
</event>
<event>
 6    2  0.1181843E-002  0.1260780E+03  0.7546771E-02  0.1233394E+00
         21   -1    0    0  502  503  0.00000000000E+00  0.00000000000E+00  0.25717201884E+01  0.25717201884E+01  0.00000000000E+00 0. -1.
          2   -1    0    0  503    0 -0.00000000000E+00 -0.00000000000E+00 -0.24177294518E+04  0.24177294518E+04  0.00000000000E+00 0. -1.
         25    2    1    2    0    0  0.16219890236E+02  0.22215237001E+01 -0.15933330014E+04  0.15983133940E+04  0.12501052764E+03 0.  0.
          5    1    3    3  501    0 -0.61589397105E+01  0.45637169404E+02 -0.25734827041E+03  0.26143608407E+03  0.10000000000E+00 0.  1.
         -5    1    3    3    0  501  0.22378829947E+02 -0.43415645704E+02 -0.13359847310E+04  0.13368773099E+04  0.10000000000E+00 0.  1.
          2    1    1    2  502    0 -0.16219890236E+02 -0.22215237001E+01 -0.82182473025E+03  0.82198777805E+03  0.00000000000E+00 0. -1.
<mgrwt>
<rscale>  1 0.12607796E+03</rscale>
<asrwt>0</asrwt>
<pdfrwt beam="1">  1       21 0.39564801E-03 0.12607796E+03</pdfrwt>
<pdfrwt beam="2">  1        2 0.37195955E+00 0.12607796E+03</pdfrwt>
<totfact> 0.92610532E+05</totfact>
</mgrwt>
</event>
<event>
 6    2  0.1181843E-002  0.1275381E+03  0.7546771E-02  0.1231155E+00
          1   -1    0    0  503    0 -0.00000000000E+00  0.00000000000E+00  0.25003744736E+02  0.25003744736E+02  0.00000000000E+00 0.  1.
         21   -1    0    0  502  503  0.00000000000E+00 -0.00000000000E+00 -0.25904886427E+03  0.25904886427E+03  0.00000000000E+00 0.  1.
         25    2    1    2    0    0  0.61382108109E+00 -0.25293894178E+02 -0.22200714065E+03  0.25603349420E+03  0.12500328712E+03 0.  0.
          5    1    3    3  501    0 -0.23253145277E+02  0.17579199796E+02 -0.49810281820E+00  0.29154676077E+02  0.10000000000E+00 0.  1.
         -5    1    3    3    0  501  0.23866966358E+02 -0.42873093974E+02 -0.22150903784E+03  0.22687881812E+03  0.10000000000E+00 0.  1.
          1    1    1    2  502    0 -0.61382108109E+00  0.25293894178E+02 -0.12037978882E+02  0.28019114807E+02  0.00000000000E+00 0.  1.
<mgrwt>
<rscale>  1 0.12753815E+03</rscale>
<asrwt>0</asrwt>
<pdfrwt beam="1">  1       21 0.39853672E-01 0.12753815E+03</pdfrwt>
<pdfrwt beam="2">  1        1 0.38467299E-02 0.12753815E+03</pdfrwt>
<totfact> 0.14991012E+05</totfact>
</mgrwt>
</event>
<event>
 6    2  0.1181843E-002  0.1269625E+03  0.7546771E-02  0.1232034E+00
         21   -1    0    0  502  503  0.00000000000E+00  0.00000000000E+00  0.55505796347E+02  0.55505796347E+02  0.00000000000E+00 0. -1.
          1   -1    0    0  503    0 -0.00000000000E+00 -0.00000000000E+00 -0.11496649517E+04  0.11496649517E+04  0.00000000000E+00 0. -1.
         25    2    1    2    0    0 -0.15364648730E+02  0.16102701581E+02 -0.17362614600E+02  0.12814421188E+03  0.12499643685E+03 0.  0.
          5    1    3    3  501    0  0.34539703597E+02 -0.38620367061E+02  0.10703953418E+01  0.51823543132E+02  0.10000000000E+00 0. -1.
         -5    1    3    3    0  501 -0.49904352327E+02  0.54723068642E+02 -0.18433009942E+02  0.76320668749E+02  0.10000000000E+00 0. -1.
          1    1    1    2  502    0  0.15364648730E+02 -0.16102701581E+02 -0.10767965408E+04  0.10770265362E+04  0.00000000000E+00 0. -1.
<mgrwt>
<rscale>  1 0.12696251E+03</rscale>
<asrwt>0</asrwt>
<pdfrwt beam="1">  1       21 0.85393537E-02 0.12696251E+03</pdfrwt>
<pdfrwt beam="2">  1        1 0.17687152E+00 0.12696251E+03</pdfrwt>
<totfact> 0.15278409E+04</totfact>
</mgrwt>
</event>
<event>
 6    2  0.1181843E-002  0.2214635E+03  0.7546771E-02  0.1132797E+00
         21   -1    0    0  502  503  0.00000000000E+00  0.00000000000E+00  0.39977061291E+02  0.39977061291E+02  0.00000000000E+00 0. -1.
          2   -1    0    0  503    0 -0.00000000000E+00 -0.00000000000E+00 -0.26574109243E+04  0.26574109243E+04  0.00000000000E+00 0.  1.
         25    2    1    2    0    0  0.52227247229E+02  0.17519591820E+03 -0.30069962356E+03  0.37345192121E+03  0.12499911494E+03 0.  0.
          5    1    3    3  501    0 -0.29484015806E+02  0.64554601399E+02 -0.47788414296E+02  0.85559022264E+02  0.10000000000E+00 0.  1.
         -5    1    3    3    0  501  0.81711263035E+02  0.11064131680E+03 -0.25291120927E+03  0.28789289895E+03  0.10000000000E+00 0.  1.
          2    1    1    2  502    0 -0.52227247229E+02 -0.17519591820E+03 -0.23167342394E+04  0.23239360644E+04  0.00000000000E+00 0.  1.
<mgrwt>
<rscale>  1 0.22146348E+03</rscale>
<asrwt>0</asrwt>
<pdfrwt beam="1">  1       21 0.61503172E-02 0.22146348E+03</pdfrwt>
<pdfrwt beam="2">  1        2 0.40883244E+00 0.22146348E+03</pdfrwt>
<totfact> 0.80139277E+03</totfact>
</mgrwt>
</event>
<event>
 6    2  0.1181843E-002  0.1428440E+03  0.7546771E-02  0.1209553E+00
         21   -1    0    0  502  503  0.00000000000E+00  0.00000000000E+00  0.34934646071E+02  0.34934646071E+02  0.00000000000E+00 0. -1.
          2   -1    0    0  503    0 -0.00000000000E+00 -0.00000000000E+00 -0.10008710253E+04  0.10008710253E+04  0.00000000000E+00 0.  1.
         25    2    1    2    0    0  0.96177502920E+01  0.68472479010E+02 -0.11862557159E+03  0.18567827724E+03  0.12499365945E+03 0.  0.
          5    1    3    3  501    0  0.60671867306E+02  0.68742099670E+02 -0.79530880150E+02  0.12137430802E+03  0.10000000000E+00 0. -1.
         -5    1    3    3    0  501 -0.51054117014E+02 -0.26962065972E+00 -0.39094691441E+02  0.64303969227E+02  0.10000000000E+00 0. -1.
          2    1    1    2  502    0 -0.96177502920E+01 -0.68472479010E+02 -0.84731080768E+03  0.85012739417E+03  0.00000000000E+00 0.  1.
<mgrwt>
<rscale>  1 0.14284396E+03</rscale>
<asrwt>0</asrwt>
<pdfrwt beam="1">  1       21 0.53745614E-02 0.14284396E+03</pdfrwt>
<pdfrwt beam="2">  1        2 0.15398014E+00 0.14284396E+03</pdfrwt>
<totfact> 0.79430797E+04</totfact>
</mgrwt>
</event>
<event>
 6    2  0.1181843E-002  0.1403692E+03  0.7546771E-02  0.1212833E+00
         21   -1    0    0  502  503  0.00000000000E+00  0.00000000000E+00  0.10404171500E+03  0.10404171500E+03  0.00000000000E+00 0.  1.
          2   -1    0    0  503    0 -0.00000000000E+00 -0.00000000000E+00 -0.82833325011E+03  0.82833325011E+03  0.00000000000E+00 0.  1.
         25    2    1    2    0    0 -0.60569754471E+02  0.20274503574E+02  0.54787181362E+02  0.15068231636E+03  0.12499509818E+03 0.  0.
          5    1    3    3  501    0 -0.21980530884E+02  0.19632437437E+02 -0.39221080397E+02  0.49059958064E+02  0.10000000000E+00 0. -1.
         -5    1    3    3    0  501 -0.38589223587E+02  0.64206613765E+00  0.94008261759E+02  0.10162235829E+03  0.10000000000E+00 0. -1.
          2    1    1    2  502    0  0.60569754471E+02 -0.20274503574E+02 -0.77907871648E+03  0.78169264875E+03  0.00000000000E+00 0.  1.
<mgrwt>
<rscale>  1 0.14036925E+03</rscale>
<asrwt>0</asrwt>
<pdfrwt beam="1">  1       21 0.16006417E-01 0.14036925E+03</pdfrwt>
<pdfrwt beam="2">  1        2 0.12743589E+00 0.14036925E+03</pdfrwt>
<totfact> 0.15142607E+04</totfact>
</mgrwt>
</event>
<event>
 6    2  0.1181843E-002  0.1267547E+03  0.7546771E-02  0.1232352E+00
         21   -1    0    0  502  503  0.00000000000E+00  0.00000000000E+00  0.85759331490E+02  0.85759331490E+02  0.00000000000E+00 0. -1.
          2   -1    0    0  503    0 -0.00000000000E+00 -0.00000000000E+00 -0.32516039754E+03  0.32516039754E+03  0.00000000000E+00 0. -1.
         25    2    1    2    0    0  0.18375254089E+02  0.10136141225E+02  0.38309487807E+02  0.13241740759E+03  0.12500544651E+03 0.  0.
          5    1    3    3  501    0 -0.53765091854E+02 -0.10638755891E+00  0.13359596478E+02  0.55400227784E+02  0.10000000000E+00 0. -1.
         -5    1    3    3    0  501  0.72140345943E+02  0.10242528784E+02  0.24949891329E+02  0.77017179811E+02  0.10000000000E+00 0. -1.
          2    1    1    2  502    0 -0.18375254089E+02 -0.10136141225E+02 -0.27771055385E+03  0.27850232143E+03  0.00000000000E+00 0. -1.
<mgrwt>
<rscale>  1 0.12675470E+03</rscale>
<asrwt>0</asrwt>
<pdfrwt beam="1">  1       21 0.13193743E-01 0.12675470E+03</pdfrwt>
<pdfrwt beam="2">  1        2 0.50024677E-01 0.12675470E+03</pdfrwt>
<totfact> 0.61275335E+04</totfact>
</mgrwt>
</event>
<event>
 6    2  0.1181843E-002  0.1344192E+03  0.7546771E-02  0.1221042E+00
          2   -1    0    0  503    0 -0.00000000000E+00  0.00000000000E+00  0.62556972688E+03  0.62556972688E+03  0.00000000000E+00 0. -1.
         21   -1    0    0  502  503  0.00000000000E+00 -0.00000000000E+00 -0.13775027149E+02  0.13775027149E+02  0.00000000000E+00 0. -1.
         25    2    1    2    0    0  0.28983308268E+02  0.40050198258E+02  0.40505823925E+03  0.42677943553E+03  0.12499783544E+03 0.  0.
          5    1    3    3  501    0  0.69981265148E+02  0.12615067442E+02  0.32543318968E+03  0.33311152538E+03  0.10000000000E+00 0. -1.
         -5    1    3    3    0  501 -0.40997956881E+02  0.27435130816E+02  0.79625049572E+02  0.93667910143E+02  0.10000000000E+00 0. -1.
          2    1    1    2  502    0 -0.28983308268E+02 -0.40050198258E+02  0.20673646048E+03  0.21256531850E+03  0.00000000000E+00 0. -1.
<mgrwt>
<rscale>  1 0.13441916E+03</rscale>
<asrwt>0</asrwt>
<pdfrwt beam="1">  1       21 0.21192354E-02 0.13441916E+03</pdfrwt>
<pdfrwt beam="2">  1        2 0.96241474E-01 0.13441916E+03</pdfrwt>
<totfact> 0.66302017E+05</totfact>
</mgrwt>
</event>
<event>
 6    2  0.1181843E-002  0.1322740E+03  0.7546771E-02  0.1224120E+00
         21   -1    0    0  502  503  0.00000000000E+00  0.00000000000E+00  0.22087735661E+02  0.22087735661E+02  0.00000000000E+00 0.  1.
          2   -1    0    0  503    0 -0.00000000000E+00 -0.00000000000E+00 -0.20856045483E+04  0.20856045483E+04  0.00000000000E+00 0.  1.
         25    2    1    2    0    0  0.38304989705E+02  0.20001587172E+02 -0.17843817660E+03  0.22211841912E+03  0.12501629301E+03 0.  0.
          5    1    3    3  501    0 -0.35043522532E+02  0.13740595944E+02 -0.12661430234E+03  0.13209104438E+03  0.10000000000E+00 0. -1.
         -5    1    3    3    0  501  0.73348512237E+02  0.62609912278E+01 -0.51823874256E+02  0.90027374734E+02  0.10000000000E+00 0. -1.
          2    1    1    2  502    0 -0.38304989705E+02 -0.20001587172E+02 -0.18850786360E+04  0.18855738649E+04  0.00000000000E+00 0.  1.
<mgrwt>
<rscale>  1 0.13227399E+03</rscale>
<asrwt>0</asrwt>
<pdfrwt beam="1">  1       21 0.33981129E-02 0.13227399E+03</pdfrwt>
<pdfrwt beam="2">  1        2 0.32086226E+00 0.13227399E+03</pdfrwt>
<totfact> 0.45464043E+04</totfact>
</mgrwt>
</event>
<event>
 6    2  0.1181843E-002  0.1275504E+03  0.7546771E-02  0.1231136E+00
          2   -1    0    0  503    0 -0.00000000000E+00  0.00000000000E+00  0.42743011635E+03  0.42743011635E+03  0.00000000000E+00 0.  1.
         21   -1    0    0  502  503  0.00000000000E+00 -0.00000000000E+00 -0.17423587158E+02  0.17423587158E+02  0.00000000000E+00 0.  1.
         25    2    1    2    0    0  0.17755995659E+01  0.25034708359E+02  0.22909115993E+03  0.26220579027E+03  0.12505689711E+03 0.  0.
          5    1    3    3  501    0 -0.54976467566E+02 -0.14516634707E+02  0.12367163132E+03  0.13611696096E+03  0.10000000000E+00 0.  1.
         -5    1    3    3    0  501  0.56752067132E+02  0.39551343066E+02  0.10541952862E+03  0.12608882931E+03  0.10000000000E+00 0.  1.
          2    1    1    2  502    0 -0.17755995659E+01 -0.25034708359E+02  0.18091536926E+03  0.18264791324E+03  0.00000000000E+00 0.  1.
<mgrwt>
<rscale>  1 0.12755045E+03</rscale>
<asrwt>0</asrwt>
<pdfrwt beam="1">  1       21 0.26805522E-02 0.12755045E+03</pdfrwt>
<pdfrwt beam="2">  1        2 0.65758471E-01 0.12755045E+03</pdfrwt>
<totfact> 0.68689971E+05</totfact>
</mgrwt>
</event>
<event>
 6    2  0.1181843E-002  0.1415708E+03  0.7546771E-02  0.1211231E+00
          1   -1    0    0  503    0 -0.00000000000E+00  0.00000000000E+00  0.20205296224E+03  0.20205296224E+03  0.00000000000E+00 0. -1.
         21   -1    0    0  502  503  0.00000000000E+00 -0.00000000000E+00 -0.57922779026E+02  0.57922779026E+02  0.00000000000E+00 0.  1.
         25    2    1    2    0    0  0.60535789676E+02 -0.27437762375E+02  0.62616725355E+02  0.15480038080E+03  0.12499956387E+03 0.  0.
          5    1    3    3  501    0 -0.38995068906E+02 -0.10026467176E+02  0.13617750887E+02  0.42504100769E+02  0.10000000000E+00 0.  1.
         -5    1    3    3    0  501  0.99530858582E+02 -0.17411295200E+02  0.48998974468E+02  0.11229628003E+03  0.10000000000E+00 0.  1.
          1    1    1    2  502    0 -0.60535789676E+02  0.27437762375E+02  0.81513457856E+02  0.10517536046E+03  0.00000000000E+00 0. -1.
<mgrwt>
<rscale>  1 0.14157084E+03</rscale>
<asrwt>0</asrwt>
<pdfrwt beam="1">  1       21 0.89111969E-02 0.14157084E+03</pdfrwt>
<pdfrwt beam="2">  1        1 0.31085071E-01 0.14157084E+03</pdfrwt>
<totfact> 0.15428749E+05</totfact>
</mgrwt>
</event>
<event>
 6    2  0.1181843E-002  0.1515498E+03  0.7546771E-02  0.1198581E+00
          2   -1    0    0  503    0 -0.00000000000E+00  0.00000000000E+00  0.21394173478E+03  0.21394173478E+03  0.00000000000E+00 0.  1.
         21   -1    0    0  502  503  0.00000000000E+00 -0.00000000000E+00 -0.20300585967E+03  0.20300585967E+03  0.00000000000E+00 0.  1.
         25    2    1    2    0    0  0.71090203094E+02 -0.47833740896E+02 -0.16329709085E+03  0.22278526502E+03  0.12500180274E+03 0.  0.
          5    1    3    3  501    0  0.10016556238E+03 -0.49500332715E+02 -0.15747625820E+03  0.19308600343E+03  0.10000000000E+00 0. -1.
         -5    1    3    3    0  501 -0.29075359290E+02  0.16665918189E+01 -0.58208326511E+01  0.29699261588E+02  0.10000000000E+00 0. -1.
          2    1    1    2  502    0 -0.71090203094E+02  0.47833740896E+02  0.17423296595E+03  0.19416232943E+03  0.00000000000E+00 0.  1.
<mgrwt>
<rscale>  1 0.15154978E+03</rscale>
<asrwt>0</asrwt>
<pdfrwt beam="1">  1       21 0.31231671E-01 0.15154978E+03</pdfrwt>
<pdfrwt beam="2">  1        2 0.32914113E-01 0.15154978E+03</pdfrwt>
<totfact> 0.19311862E+04</totfact>
</mgrwt>
</event>
<event>
 6    2  0.1181843E-002  0.1303680E+03  0.7546771E-02  0.1226911E+00
          1   -1    0    0  503    0 -0.00000000000E+00  0.00000000000E+00  0.64303435767E+03  0.64303435767E+03  0.00000000000E+00 0. -1.
         21   -1    0    0  502  503  0.00000000000E+00 -0.00000000000E+00 -0.19050244286E+03  0.19050244286E+03  0.00000000000E+00 0. -1.
         25    2    1    2    0    0  0.28738760483E+02  0.23349335936E+02 -0.16758139766E+03  0.21231894169E+03  0.12499880126E+03 0.  0.
          5    1    3    3  501    0  0.57152273359E+02 -0.13425821798E+01 -0.20875193384E+02  0.60860238053E+02  0.10000000000E+00 0.  1.
         -5    1    3    3    0  501 -0.28413512876E+02  0.24691918116E+02 -0.14670620427E+03  0.15145870363E+03  0.10000000000E+00 0.  1.
          1    1    1    2  502    0 -0.28738760483E+02 -0.23349335936E+02  0.62011331247E+03  0.62121785884E+03  0.00000000000E+00 0. -1.
<mgrwt>
<rscale>  1 0.13036797E+03</rscale>
<asrwt>0</asrwt>
<pdfrwt beam="1">  1       21 0.29308068E-01 0.13036797E+03</pdfrwt>
<pdfrwt beam="2">  1        1 0.98928362E-01 0.13036797E+03</pdfrwt>
<totfact> 0.40520429E+03</totfact>
</mgrwt>
</event>
<event>
 6    2  0.1181843E-002  0.1297631E+03  0.7546771E-02  0.1227808E+00
         21   -1    0    0  502  503  0.00000000000E+00  0.00000000000E+00  0.42739571815E+01  0.42739571815E+01  0.00000000000E+00 0. -1.
          2   -1    0    0  503    0 -0.00000000000E+00 -0.00000000000E+00 -0.15880136388E+04  0.15880136388E+04  0.00000000000E+00 0. -1.
         25    2    1    2    0    0 -0.32362767387E+02  0.12884680846E+02 -0.12179663874E+04  0.12248594173E+04  0.12500043056E+03 0.  0.
          5    1    3    3  501    0 -0.91396363457E+00  0.39873040692E+02 -0.10815984421E+04  0.10823335413E+04  0.10000000000E+00 0.  1.
         -5    1    3    3    0  501 -0.31448803752E+02 -0.26988359846E+02 -0.13636794531E+03  0.14252587601E+03  0.10000000000E+00 0.  1.
          2    1    1    2  502    0  0.32362767387E+02 -0.12884680846E+02 -0.36577329422E+03  0.36742817867E+03  0.00000000000E+00 0. -1.
<mgrwt>
<rscale>  1 0.12976314E+03</rscale>
<asrwt>0</asrwt>
<pdfrwt beam="1">  1       21 0.65753256E-03 0.12976314E+03</pdfrwt>
<pdfrwt beam="2">  1        2 0.24430954E+00 0.12976314E+03</pdfrwt>
<totfact> 0.11291512E+06</totfact>
</mgrwt>
</event>
<event>
 6    2  0.1181843E-002  0.1554452E+03  0.7546771E-02  0.1193937E+00
          1   -1    0    0  503    0 -0.00000000000E+00  0.00000000000E+00  0.14867533278E+04  0.14867533278E+04  0.00000000000E+00 0.  1.
         21   -1    0    0  502  503  0.00000000000E+00 -0.00000000000E+00 -0.74376622694E+02  0.74376622694E+02  0.00000000000E+00 0. -1.
         25    2    1    2    0    0  0.13272719878E+02  0.91447309073E+02  0.10058270927E+02  0.15577029323E+03  0.12499776002E+03 0.  0.
          5    1    3    3  501    0  0.49681479545E+02  0.70022397472E+02 -0.36154193414E+02  0.93158581241E+02  0.10000000000E+00 0. -1.
         -5    1    3    3    0  501 -0.36408759667E+02  0.21424911602E+02  0.46212464341E+02  0.62611711988E+02  0.10000000000E+00 0. -1.
          1    1    1    2  502    0 -0.13272719878E+02 -0.91447309073E+02  0.14023184342E+04  0.14053596573E+04  0.00000000000E+00 0.  1.
<mgrwt>
<rscale>  1 0.15544522E+03</rscale>
<asrwt>0</asrwt>
<pdfrwt beam="1">  1       21 0.11442558E-01 0.15544522E+03</pdfrwt>
<pdfrwt beam="2">  1        1 0.22873126E+00 0.15544522E+03</pdfrwt>
<totfact> 0.53864899E+03</totfact>
</mgrwt>
</event>
<event>
 6    2  0.1181843E-002  0.1271729E+03  0.7546771E-02  0.1231712E+00
          1   -1    0    0  503    0 -0.00000000000E+00  0.00000000000E+00  0.57832696876E+03  0.57832696876E+03  0.00000000000E+00 0. -1.
         21   -1    0    0  502  503  0.00000000000E+00 -0.00000000000E+00 -0.13201192265E+02  0.13201192265E+02  0.00000000000E+00 0. -1.
         25    2    1    2    0    0  0.18319981744E+02  0.14586365853E+02  0.30638573059E+03  0.33173055681E+03  0.12499825044E+03 0.  0.
          5    1    3    3  501    0  0.18699792196E+02  0.28043633285E+02  0.10167803576E+02  0.35206843448E+02  0.10000000000E+00 0.  1.
         -5    1    3    3    0  501 -0.37981045149E+00 -0.13457267432E+02  0.29621792701E+03  0.29652371336E+03  0.10000000000E+00 0.  1.
          1    1    1    2  502    0 -0.18319981744E+02 -0.14586365853E+02  0.25874004590E+03  0.25979760421E+03  0.00000000000E+00 0. -1.
<mgrwt>
<rscale>  1 0.12717290E+03</rscale>
<asrwt>0</asrwt>
<pdfrwt beam="1">  1       21 0.20309531E-02 0.12717290E+03</pdfrwt>
<pdfrwt beam="2">  1        1 0.88973360E-01 0.12717290E+03</pdfrwt>
<totfact> 0.48188669E+05</totfact>
</mgrwt>
</event>
<event>
 6    2  0.1181843E-002  0.1264359E+03  0.7546771E-02  0.1232842E+00
         21   -1    0    0  502  503  0.00000000000E+00  0.00000000000E+00  0.32790725568E+02  0.32790725568E+02  0.00000000000E+00 0. -1.
          2   -1    0    0  503    0 -0.00000000000E+00 -0.00000000000E+00 -0.17974868056E+03  0.17974868056E+03  0.00000000000E+00 0. -1.
         25    2    1    2    0    0  0.17023981632E+02 -0.84206934219E+01 -0.97820010936E+02  0.15985865467E+03  0.12500124361E+03 0.  0.
          5    1    3    3  501    0  0.99374361313E+01  0.44750396654E+02 -0.95772977430E+02  0.10617826446E+03  0.10000000000E+00 0.  1.
         -5    1    3    3    0  501  0.70865455003E+01 -0.53171090076E+02 -0.20470335059E+01  0.53680390211E+02  0.10000000000E+00 0.  1.
          2    1    1    2  502    0 -0.17023981632E+02  0.84206934219E+01 -0.49137944060E+02  0.52680751463E+02  0.00000000000E+00 0. -1.
<mgrwt>
<rscale>  1 0.12643589E+03</rscale>
<asrwt>0</asrwt>
<pdfrwt beam="1">  1       21 0.50447270E-02 0.12643589E+03</pdfrwt>
<pdfrwt beam="2">  1        2 0.27653643E-01 0.12643589E+03</pdfrwt>
<totfact> 0.60708435E+05</totfact>
</mgrwt>
</event>
<event>
 6    2  0.1181843E-002  0.1299458E+03  0.7546771E-02  0.1227536E+00
          2   -1    0    0  503    0 -0.00000000000E+00  0.00000000000E+00  0.91267845477E+03  0.91267845477E+03  0.00000000000E+00 0.  1.
         21   -1    0    0  502  503  0.00000000000E+00 -0.00000000000E+00 -0.80664792795E+01  0.80664792795E+01  0.00000000000E+00 0.  1.
         25    2    1    2    0    0 -0.32321902127E+02 -0.14461204372E+02  0.58965482449E+03  0.60380355342E+03  0.12502834594E+03 0.  0.
          5    1    3    3  501    0  0.21537967704E+02 -0.52149275657E+02  0.17228450133E+03  0.18128814192E+03  0.10000000000E+00 0. -1.
         -5    1    3    3    0  501 -0.53859869831E+02  0.37688071285E+02  0.41737032317E+03  0.42251541150E+03  0.10000000000E+00 0. -1.
          2    1    1    2  502    0  0.32321902127E+02  0.14461204372E+02  0.31495715099E+03  0.31694138062E+03  0.00000000000E+00 0.  1.
<mgrwt>
<rscale>  1 0.12994583E+03</rscale>
<asrwt>0</asrwt>
<pdfrwt beam="1">  1       21 0.12409975E-02 0.12994583E+03</pdfrwt>
<pdfrwt beam="2">  1        2 0.14041199E+00 0.12994583E+03</pdfrwt>
<totfact> 0.98312717E+05</totfact>
</mgrwt>
</event>
<event>
 6    2  0.1181843E-002  0.1264613E+03  0.7546771E-02  0.1232803E+00
          2   -1    0    0  503    0 -0.00000000000E+00  0.00000000000E+00  0.13441410318E+04  0.13441410318E+04  0.00000000000E+00 0. -1.
         21   -1    0    0  502  503  0.00000000000E+00 -0.00000000000E+00 -0.27165647365E+02  0.27165647365E+02  0.00000000000E+00 0.  1.
         25    2    1    2    0    0 -0.71203985470E+00 -0.19163726359E+02  0.12050406178E+03  0.17468168304E+03  0.12499882430E+03 0.  0.
          5    1    3    3  501    0 -0.28894607525E+02 -0.63043636886E+02  0.44127714875E+02  0.82198927705E+02  0.10000000000E+00 0.  1.
         -5    1    3    3    0  501  0.28182567670E+02  0.43879910526E+02  0.76376346901E+02  0.92482755334E+02  0.10000000000E+00 0.  1.
          2    1    1    2  502    0  0.71203985470E+00  0.19163726359E+02  0.11964713227E+04  0.11966249961E+04  0.00000000000E+00 0. -1.
<mgrwt>
<rscale>  1 0.12646130E+03</rscale>
<asrwt>0</asrwt>
<pdfrwt beam="1">  1       21 0.41793314E-02 0.12646130E+03</pdfrwt>
<pdfrwt beam="2">  1        2 0.20679088E+00 0.12646130E+03</pdfrwt>
<totfact> 0.77778140E+04</totfact>
</mgrwt>
</event>
<event>
 6    2  0.1181843E-002  0.1267906E+03  0.7546771E-02  0.1232297E+00
         21   -1    0    0  502  503  0.00000000000E+00  0.00000000000E+00  0.20846017254E+04  0.20846017254E+04  0.00000000000E+00 0.  1.
          3   -1    0    0  503    0 -0.00000000000E+00 -0.00000000000E+00 -0.43293475560E+02  0.43293475560E+02  0.00000000000E+00 0.  1.
         25    2    1    2    0    0 -0.21021630207E+02  0.31274901730E+01  0.20799412323E+04  0.20838021463E+04  0.12499665898E+03 0.  0.
          5    1    3    3  501    0  0.18941580895E+02  0.50191082506E+02  0.54860023286E+03  0.55121697519E+03  0.10000000000E+00 0. -1.
         -5    1    3    3    0  501 -0.39963211102E+02 -0.47063592333E+02  0.15313409995E+04  0.15325851711E+04  0.10000000000E+00 0. -1.
          3    1    1    2  502    0  0.21021630207E+02 -0.31274901730E+01 -0.38632982513E+02  0.44093054659E+02  0.00000000000E+00 0.  1.
<mgrwt>
<rscale>  1 0.12679059E+03</rscale>
<asrwt>0</asrwt>
<pdfrwt beam="1">  1       21 0.32070788E+00 0.12679059E+03</pdfrwt>
<pdfrwt beam="2">  1        3 0.66605363E-02 0.12679059E+03</pdfrwt>
<totfact> 0.19544980E+02</totfact>
</mgrwt>
</event>
<event>
 6    2  0.1181843E-002  0.2032990E+03  0.7546771E-02  0.1146985E+00
         21   -1    0    0  502  503  0.00000000000E+00  0.00000000000E+00  0.18407990501E+04  0.18407990501E+04  0.00000000000E+00 0.  1.
          2   -1    0    0  503    0 -0.00000000000E+00 -0.00000000000E+00 -0.34408625651E+02  0.34408625651E+02  0.00000000000E+00 0.  1.
         25    2    1    2    0    0  0.73040478113E+02 -0.14272411624E+03  0.16048425703E+04  0.16176681209E+04  0.12500155664E+03 0.  0.
          5    1    3    3  501    0  0.57921537436E+02 -0.13997562249E+03  0.90013532570E+03  0.91279334680E+03  0.10000000000E+00 0.  1.
         -5    1    3    3    0  501  0.15118940678E+02 -0.27484937533E+01  0.70470724460E+03  0.70487477411E+03  0.10000000000E+00 0.  1.
          2    1    1    2  502    0 -0.73040478113E+02  0.14272411624E+03  0.20154785419E+03  0.25753955488E+03  0.00000000000E+00 0.  1.
<mgrwt>
<rscale>  1 0.20329898E+03</rscale>
<asrwt>0</asrwt>
<pdfrwt beam="1">  1       21 0.28319978E+00 0.20329898E+03</pdfrwt>
<pdfrwt beam="2">  1        2 0.52936362E-02 0.20329898E+03</pdfrwt>
<totfact> 0.73891642E+02</totfact>
</mgrwt>
</event>
<event>
 6    2  0.1181843E-002  0.1376022E+03  0.7546771E-02  0.1216592E+00
          1   -1    0    0  503    0 -0.00000000000E+00  0.00000000000E+00  0.15823136300E+03  0.15823136300E+03  0.00000000000E+00 0. -1.
         21   -1    0    0  502  503  0.00000000000E+00 -0.00000000000E+00 -0.60775078715E+02  0.60775078715E+02  0.00000000000E+00 0. -1.
         25    2    1    2    0    0 -0.57541480684E+02  0.76427042987E+00  0.78494404927E+02  0.15841635195E+03  0.12499105109E+03 0.  0.
          5    1    3    3  501    0 -0.60141921342E+02 -0.54399632124E+02  0.35962050083E+02  0.88711046235E+02  0.10000000000E+00 0. -1.
         -5    1    3    3    0  501  0.26004406580E+01  0.55163902554E+02  0.42532354844E+02  0.69705305718E+02  0.10000000000E+00 0. -1.
          1    1    1    2  502    0  0.57541480684E+02 -0.76427042987E+00  0.18961879357E+02  0.60590089762E+02  0.00000000000E+00 0. -1.
<mgrwt>
<rscale>  1 0.13760221E+03</rscale>
<asrwt>0</asrwt>
<pdfrwt beam="1">  1       21 0.93500122E-02 0.13760221E+03</pdfrwt>
<pdfrwt beam="2">  1        1 0.24343286E-01 0.13760221E+03</pdfrwt>
<totfact> 0.19234538E+05</totfact>
</mgrwt>
</event>
<event>
 6    2  0.1181843E-002  0.1263508E+03  0.7546771E-02  0.1232973E+00
          2   -1    0    0  503    0 -0.00000000000E+00  0.00000000000E+00  0.64528245109E+03  0.64528245109E+03  0.00000000000E+00 0. -1.
         21   -1    0    0  502  503  0.00000000000E+00 -0.00000000000E+00 -0.99103680107E+02  0.99103680107E+02  0.00000000000E+00 0. -1.
         25    2    1    2    0    0 -0.92689827469E+01 -0.15900372448E+02 -0.58634463922E+02  0.13929292763E+03  0.12500313374E+03 0.  0.
          5    1    3    3  501    0 -0.65025107572E+02 -0.18380488611E+02 -0.17044498617E+02  0.69689539455E+02  0.10000000000E+00 0. -1.
         -5    1    3    3    0  501  0.55756124825E+02  0.24801161629E+01 -0.41589965304E+02  0.69603388177E+02  0.10000000000E+00 0. -1.
          2    1    1    2  502    0  0.92689827469E+01  0.15900372448E+02  0.60481323491E+03  0.60509320357E+03  0.00000000000E+00 0. -1.
<mgrwt>
<rscale>  1 0.12635078E+03</rscale>
<asrwt>0</asrwt>
<pdfrwt beam="1">  1       21 0.15246720E-01 0.12635078E+03</pdfrwt>
<pdfrwt beam="2">  1        2 0.99274221E-01 0.12635078E+03</pdfrwt>
<totfact> 0.22400534E+04</totfact>
</mgrwt>
</event>
<event>
 6    2  0.1181843E-002  0.1722222E+03  0.7546771E-02  0.1175550E+00
         21   -1    0    0  502  503  0.00000000000E+00  0.00000000000E+00  0.18603690189E+03  0.18603690189E+03  0.00000000000E+00 0. -1.
          2   -1    0    0  503    0 -0.00000000000E+00 -0.00000000000E+00 -0.10407399859E+04  0.10407399859E+04  0.00000000000E+00 0.  1.
         25    2    1    2    0    0  0.11783562607E+03  0.12284489317E+02  0.14190373897E+03  0.22315280326E+03  0.12499743604E+03 0.  0.
          5    1    3    3  501    0  0.10511300405E+03 -0.19683689105E+02  0.15329377984E+03  0.18690956149E+03  0.10000000000E+00 0. -1.
         -5    1    3    3    0  501  0.12722622021E+02  0.31968178422E+02 -0.11390040870E+02  0.36243241766E+02  0.10000000000E+00 0. -1.
          2    1    1    2  502    0 -0.11783562607E+03 -0.12284489317E+02 -0.99660682301E+03  0.10036240846E+04  0.00000000000E+00 0.  1.
<mgrwt>
<rscale>  1 0.17222225E+03</rscale>
<asrwt>0</asrwt>
<pdfrwt beam="1">  1       21 0.28621062E-01 0.17222225E+03</pdfrwt>
<pdfrwt beam="2">  1        2 0.16011384E+00 0.17222225E+03</pdfrwt>
<totfact> 0.37193401E+03</totfact>
</mgrwt>
</event>
<event>
 6    2  0.1181843E-002  0.1338640E+03  0.7546771E-02  0.1221832E+00
          3   -1    0    0  503    0 -0.00000000000E+00  0.00000000000E+00  0.27713748380E+03  0.27713748380E+03  0.00000000000E+00 0. -1.
         21   -1    0    0  502  503  0.00000000000E+00 -0.00000000000E+00 -0.48842250220E+02  0.48842250220E+02  0.00000000000E+00 0. -1.
         25    2    1    2    0    0  0.25940169356E+02  0.40261055053E+02  0.52523098179E+02  0.14379936042E+03  0.12500294107E+03 0.  0.
          5    1    3    3  501    0 -0.97207737387E+01  0.54309798856E+02  0.79614167769E+02  0.96863168457E+02  0.10000000000E+00 0. -1.
         -5    1    3    3    0  501  0.35660943094E+02 -0.14048743803E+02 -0.27091069590E+02  0.46936191967E+02  0.10000000000E+00 0. -1.
          3    1    1    2  502    0 -0.25940169356E+02 -0.40261055053E+02  0.17577213540E+03  0.18218037360E+03  0.00000000000E+00 0. -1.
<mgrwt>
<rscale>  1 0.13386404E+03</rscale>
<asrwt>0</asrwt>
<pdfrwt beam="1">  1       21 0.75141925E-02 0.13386404E+03</pdfrwt>
<pdfrwt beam="2">  1        3 0.42636535E-01 0.13386404E+03</pdfrwt>
<totfact> 0.35181449E+04</totfact>
</mgrwt>
</event>
<event>
 6    2  0.1181843E-002  0.1339151E+03  0.7546771E-02  0.1221759E+00
         21   -1    0    0  502  503  0.00000000000E+00  0.00000000000E+00  0.34819757315E+02  0.34819757315E+02  0.00000000000E+00 0.  1.
          2   -1    0    0  503    0 -0.00000000000E+00 -0.00000000000E+00 -0.25817512477E+03  0.25817512477E+03  0.00000000000E+00 0.  1.
         25    2    1    2    0    0 -0.46253771470E+02  0.13009182847E+02 -0.12344649189E+03  0.18213265393E+03  0.12499846822E+03 0.  0.
          5    1    3    3  501    0 -0.25099492538E+02  0.59821295155E+02 -0.22142385870E+02  0.68548283215E+02  0.10000000000E+00 0. -1.
         -5    1    3    3    0  501 -0.21154278931E+02 -0.46812112308E+02 -0.10130410602E+03  0.11358437072E+03  0.10000000000E+00 0. -1.
          2    1    1    2  502    0  0.46253771470E+02 -0.13009182847E+02 -0.99908875570E+02  0.11086222815E+03  0.00000000000E+00 0.  1.
<mgrwt>
<rscale>  1 0.13391515E+03</rscale>
<asrwt>0</asrwt>
<pdfrwt beam="1">  1       21 0.53568860E-02 0.13391515E+03</pdfrwt>
<pdfrwt beam="2">  1        2 0.39719248E-01 0.13391515E+03</pdfrwt>
<totfact> 0.37347777E+05</totfact>
</mgrwt>
</event>
<event>
 6    2  0.1181843E-002  0.1863327E+03  0.7546771E-02  0.1161811E+00
          2   -1    0    0  503    0 -0.00000000000E+00  0.00000000000E+00  0.57577462059E+03  0.57577462059E+03  0.00000000000E+00 0. -1.
         21   -1    0    0  502  503  0.00000000000E+00 -0.00000000000E+00 -0.74645061181E+02  0.74645061181E+02  0.00000000000E+00 0.  1.
         25    2    1    2    0    0  0.13349869442E+03  0.35679493166E+02  0.72286451725E+02  0.19986298317E+03  0.12499981318E+03 0.  0.
          5    1    3    3  501    0  0.15347970708E+03  0.41553876010E+02  0.79564304480E+02  0.17780110698E+03  0.10000000000E+00 0.  1.
         -5    1    3    3    0  501 -0.19981012653E+02 -0.58743828439E+01 -0.72778527547E+01  0.22061876193E+02  0.10000000000E+00 0.  1.
          2    1    1    2  502    0 -0.13349869442E+03 -0.35679493166E+02  0.42884310768E+03  0.45055669860E+03  0.00000000000E+00 0. -1.
<mgrwt>
<rscale>  1 0.18633272E+03</rscale>
<asrwt>0</asrwt>
<pdfrwt beam="1">  1       21 0.11483856E-01 0.18633272E+03</pdfrwt>
<pdfrwt beam="2">  1        2 0.88580708E-01 0.18633272E+03</pdfrwt>
<totfact> 0.42225851E+04</totfact>
</mgrwt>
</event>
<event>
 6    2  0.1181843E-002  0.1790263E+03  0.7546771E-02  0.1168749E+00
         21   -1    0    0  502  503  0.00000000000E+00  0.00000000000E+00  0.69608557886E+01  0.69608557886E+01  0.00000000000E+00 0.  1.
          2   -1    0    0  503    0 -0.00000000000E+00 -0.00000000000E+00 -0.38605106898E+04  0.38605106898E+04  0.00000000000E+00 0.  1.
         25    2    1    2    0    0 -0.81181589711E+02 -0.99182732475E+02 -0.15394077964E+04  0.15497828186E+04  0.12499102491E+03 0.  0.
          5    1    3    3  501    0 -0.19905652310E+02  0.15772992295E+02 -0.68785806529E+03  0.68832677579E+03  0.10000000000E+00 0.  1.
         -5    1    3    3    0  501 -0.61275937401E+02 -0.11495572477E+03 -0.85154973111E+03  0.86145604282E+03  0.10000000000E+00 0.  1.
          2    1    1    2  502    0  0.81181589711E+02  0.99182732475E+02 -0.23141420376E+04  0.23176887269E+04  0.00000000000E+00 0.  1.
<mgrwt>
<rscale>  1 0.17902631E+03</rscale>
<asrwt>0</asrwt>
<pdfrwt beam="1">  1       21 0.10709008E-02 0.17902631E+03</pdfrwt>
<pdfrwt beam="2">  1        2 0.59392474E+00 0.17902631E+03</pdfrwt>
<totfact> 0.25795427E+04</totfact>
</mgrwt>
</event>
<event>
 6    2  0.1181843E-002  0.1703429E+03  0.7546771E-02  0.1177491E+00
         21   -1    0    0  502  503  0.00000000000E+00  0.00000000000E+00  0.46150237998E+02  0.46150237998E+02  0.00000000000E+00 0. -1.
          2   -1    0    0  503    0 -0.00000000000E+00 -0.00000000000E+00 -0.20359058344E+04  0.20359058344E+04  0.00000000000E+00 0. -1.
         25    2    1    2    0    0 -0.91124232536E+02  0.71367785436E+02 -0.11916271602E+03  0.20788566641E+03  0.12497884163E+03 0.  0.
          5    1    3    3  501    0  0.99531145573E+01  0.47910900479E+02 -0.86007961741E+02  0.98954021429E+02  0.10000000000E+00 0. -1.
         -5    1    3    3    0  501 -0.10107734709E+03  0.23456884957E+02 -0.33154754282E+02  0.10893164498E+03  0.10000000000E+00 0. -1.
          2    1    1    2  502    0  0.91124232536E+02 -0.71367785436E+02 -0.18705928804E+04  0.18741704060E+04  0.00000000000E+00 0. -1.
<mgrwt>
<rscale>  1 0.17034288E+03</rscale>
<asrwt>0</asrwt>
<pdfrwt beam="1">  1       21 0.71000358E-02 0.17034288E+03</pdfrwt>
<pdfrwt beam="2">  1        2 0.31321632E+00 0.17034288E+03</pdfrwt>
<totfact> 0.13747961E+04</totfact>
</mgrwt>
</event>
<event>
 6    2  0.1181843E-002  0.1285702E+03  0.7546771E-02  0.1229593E+00
         21   -1    0    0  502  503  0.00000000000E+00  0.00000000000E+00  0.17554486150E+03  0.17554486150E+03  0.00000000000E+00 0. -1.
          2   -1    0    0  503    0 -0.00000000000E+00 -0.00000000000E+00 -0.58092427265E+03  0.58092427265E+03  0.00000000000E+00 0. -1.
         25    2    1    2    0    0 -0.10505875255E+02 -0.28194585236E+02  0.15154275264E+03  0.19873478468E+03  0.12500000286E+03 0.  0.
          5    1    3    3  501    0 -0.36732699362E+02  0.29264698773E+02  0.16724104147E+02  0.49853981348E+02  0.10000000000E+00 0.  1.
         -5    1    3    3    0  501  0.26226824107E+02 -0.57459284009E+02  0.13481864849E+03  0.14888080333E+03  0.10000000000E+00 0.  1.
          2    1    1    2  502    0  0.10505875255E+02  0.28194585236E+02 -0.55692216379E+03  0.55773434947E+03  0.00000000000E+00 0. -1.
<mgrwt>
<rscale>  1 0.12857025E+03</rscale>
<asrwt>0</asrwt>
<pdfrwt beam="1">  1       21 0.27006901E-01 0.12857025E+03</pdfrwt>
<pdfrwt beam="2">  1        2 0.89372966E-01 0.12857025E+03</pdfrwt>
<totfact> 0.87557238E+03</totfact>
</mgrwt>
</event>
<event>
 6    2  0.1181843E-002  0.1357677E+03  0.7546771E-02  0.1219140E+00
          1   -1    0    0  503    0 -0.00000000000E+00  0.00000000000E+00  0.39954283952E+03  0.39954283952E+03  0.00000000000E+00 0.  1.
         21   -1    0    0  502  503  0.00000000000E+00 -0.00000000000E+00 -0.48742119274E+02  0.48742119274E+02  0.00000000000E+00 0.  1.
         25    2    1    2    0    0  0.50672328297E+02 -0.15526681404E+02  0.52904638177E+02  0.14571126793E+03  0.12499644063E+03 0.  0.
          5    1    3    3  501    0  0.60378326283E+01 -0.45846412508E+02  0.74423722814E+02  0.87619914861E+02  0.10000000000E+00 0. -1.
         -5    1    3    3    0  501  0.44634495668E+02  0.30319731104E+02 -0.21519084638E+02  0.58091353069E+02  0.10000000000E+00 0. -1.
          1    1    1    2  502    0 -0.50672328297E+02  0.15526681404E+02  0.29789608207E+03  0.30257369087E+03  0.00000000000E+00 0.  1.
<mgrwt>
<rscale>  1 0.13576772E+03</rscale>
<asrwt>0</asrwt>
<pdfrwt beam="1">  1       21 0.74987878E-02 0.13576772E+03</pdfrwt>
<pdfrwt beam="2">  1        1 0.61468127E-01 0.13576772E+03</pdfrwt>
<totfact> 0.89004609E+04</totfact>
</mgrwt>
</event>
<event>
 6    2  0.1181843E-002  0.1483803E+03  0.7546771E-02  0.1202477E+00
         21   -1    0    0  502  503  0.00000000000E+00  0.00000000000E+00  0.59785165656E+02  0.59785165656E+02  0.00000000000E+00 0.  1.
          1   -1    0    0  503    0 -0.00000000000E+00 -0.00000000000E+00 -0.63786367885E+03  0.63786367885E+03  0.00000000000E+00 0. -1.
         25    2    1    2    0    0  0.68644059598E+02  0.40967904891E+02 -0.40017490144E+02  0.15368189636E+03  0.12500539829E+03 0.  0.
          5    1    3    3  501    0  0.82932120893E+02 -0.20114504004E+02 -0.27975963286E+02  0.89805314258E+02  0.10000000000E+00 0.  1.
         -5    1    3    3    0  501 -0.14288061295E+02  0.61082408895E+02 -0.12041526858E+02  0.63876582102E+02  0.10000000000E+00 0.  1.
          1    1    1    2  502    0 -0.68644059598E+02 -0.40967904891E+02 -0.53806102305E+03  0.54396694815E+03  0.00000000000E+00 0. -1.
<mgrwt>
<rscale>  1 0.14838034E+03</rscale>
<asrwt>0</asrwt>
<pdfrwt beam="1">  1       21 0.91977171E-02 0.14838034E+03</pdfrwt>
<pdfrwt beam="2">  1        1 0.98132881E-01 0.14838034E+03</pdfrwt>
<totfact> 0.33819051E+04</totfact>
</mgrwt>
</event>
<event>
 6    2  0.1181843E-002  0.1364531E+03  0.7546771E-02  0.1218183E+00
          2   -1    0    0  503    0 -0.00000000000E+00  0.00000000000E+00  0.19763234357E+03  0.19763234357E+03  0.00000000000E+00 0. -1.
         21   -1    0    0  502  503  0.00000000000E+00 -0.00000000000E+00 -0.88797083141E+02  0.88797083141E+02  0.00000000000E+00 0. -1.
         25    2    1    2    0    0  0.54097216368E+02 -0.81803794804E+01  0.16085434846E+03  0.21093497031E+03  0.12500405136E+03 0.  0.
          5    1    3    3  501    0  0.59731504874E+02  0.34277061178E+02  0.15245677234E+03  0.16728970988E+03  0.10000000000E+00 0.  1.
         -5    1    3    3    0  501 -0.56342885064E+01 -0.42457440659E+02  0.83975761156E+01  0.43645260440E+02  0.10000000000E+00 0.  1.
          2    1    1    2  502    0 -0.54097216368E+02  0.81803794804E+01 -0.52019088028E+02  0.75494456396E+02  0.00000000000E+00 0. -1.
<mgrwt>
<rscale>  1 0.13645307E+03</rscale>
<asrwt>0</asrwt>
<pdfrwt beam="1">  1       21 0.13661090E-01 0.13645307E+03</pdfrwt>
<pdfrwt beam="2">  1        2 0.30404976E-01 0.13645307E+03</pdfrwt>
<totfact> 0.98054271E+04</totfact>
</mgrwt>
</event>
<event>
 6    2  0.1181843E-002  0.2061307E+03  0.7546771E-02  0.1144667E+00
         21   -1    0    0  502  503  0.00000000000E+00  0.00000000000E+00  0.28660862223E+03  0.28660862223E+03  0.00000000000E+00 0. -1.
          4   -1    0    0  503    0 -0.00000000000E+00 -0.00000000000E+00 -0.70412463906E+03  0.70412463906E+03  0.00000000000E+00 0. -1.
         25    2    1    2    0    0  0.13490191940E+02  0.16334861347E+03  0.23810502884E+03  0.31493468898E+03  0.12500039504E+03 0.  0.
          5    1    3    3  501    0 -0.33318537795E+02  0.15249745096E+03  0.19942246399E+03  0.25324874462E+03  0.10000000000E+00 0. -1.
         -5    1    3    3    0  501  0.46808729735E+02  0.10851162509E+02  0.38682564853E+02  0.61685944354E+02  0.10000000000E+00 0. -1.
          4    1    1    2  502    0 -0.13490191940E+02 -0.16334861347E+03 -0.65562104568E+03  0.67579857231E+03  0.00000000000E+00 0. -1.
<mgrwt>
<rscale>  1 0.20613067E+03</rscale>
<asrwt>0</asrwt>
<pdfrwt beam="1">  1       21 0.44093634E-01 0.20613067E+03</pdfrwt>
<pdfrwt beam="2">  1        4 0.10832687E+00 0.20613067E+03</pdfrwt>
<totfact> 0.14674381E+02</totfact>
</mgrwt>
</event>
<event>
 6    2  0.1181843E-002  0.1319433E+03  0.7546771E-02  0.1224600E+00
          1   -1    0    0  503    0 -0.00000000000E+00  0.00000000000E+00  0.65236092856E+03  0.65236092856E+03  0.00000000000E+00 0.  1.
         21   -1    0    0  502  503  0.00000000000E+00 -0.00000000000E+00 -0.13748111022E+03  0.13748111022E+03  0.00000000000E+00 0. -1.
         25    2    1    2    0    0  0.30533848828E+02  0.29176459107E+02 -0.10493908698E+03  0.16858600696E+03  0.12500179228E+03 0.  0.
          5    1    3    3  501    0  0.13525297056E+02  0.74765350353E+02 -0.35671919027E+02  0.83936208402E+02  0.10000000000E+00 0. -1.
         -5    1    3    3    0  501  0.17008551772E+02 -0.45588891246E+02 -0.69267167957E+02  0.84649798553E+02  0.10000000000E+00 0. -1.
          1    1    1    2  502    0 -0.30533848828E+02 -0.29176459107E+02  0.61981890532E+03  0.62125603182E+03  0.00000000000E+00 0.  1.
<mgrwt>
<rscale>  1 0.13194328E+03</rscale>
<asrwt>0</asrwt>
<pdfrwt beam="1">  1       21 0.21150940E-01 0.13194328E+03</pdfrwt>
<pdfrwt beam="2">  1        1 0.10036322E+00 0.13194328E+03</pdfrwt>
<totfact> 0.73541827E+03</totfact>
</mgrwt>
</event>
<event>
 6    2  0.1181843E-002  0.1259753E+03  0.7546771E-02  0.1233553E+00
          2   -1    0    0  503    0 -0.00000000000E+00  0.00000000000E+00  0.91727117946E+03  0.91727117946E+03  0.00000000000E+00 0. -1.
         21   -1    0    0  502  503  0.00000000000E+00 -0.00000000000E+00 -0.59221668183E+02  0.59221668183E+02  0.00000000000E+00 0.  1.
         25    2    1    2    0    0 -0.11910757311E+02  0.10180199131E+02  0.79254467712E+01  0.12622440318E+03  0.12499713860E+03 0.  0.
          5    1    3    3  501    0 -0.10341524079E+02 -0.14702046678E+02  0.63136282699E+02  0.65645239659E+02  0.10000000000E+00 0. -1.
         -5    1    3    3    0  501 -0.15692332314E+01  0.24882245809E+02 -0.55210835928E+02  0.60579163524E+02  0.10000000000E+00 0. -1.
          2    1    1    2  502    0  0.11910757311E+02 -0.10180199131E+02  0.85012406451E+03  0.85026844446E+03  0.00000000000E+00 0. -1.
<mgrwt>
<rscale>  1 0.12597534E+03</rscale>
<asrwt>0</asrwt>
<pdfrwt beam="1">  1       21 0.91110265E-02 0.12597534E+03</pdfrwt>
<pdfrwt beam="2">  1        2 0.14111863E+00 0.12597534E+03</pdfrwt>
<totfact> 0.36191987E+04</totfact>
</mgrwt>
</event>
<event>
 6    2  0.1181843E-002  0.1266045E+03  0.7546771E-02  0.1232583E+00
          4   -1    0    0  503    0 -0.00000000000E+00  0.00000000000E+00  0.44030204180E+02  0.44030204180E+02  0.00000000000E+00 0.  1.
         21   -1    0    0  502  503  0.00000000000E+00 -0.00000000000E+00 -0.37992779102E+03  0.37992779102E+03  0.00000000000E+00 0.  1.
         25    2    1    2    0    0  0.18896706749E+02  0.68409285488E+01 -0.36627276487E+03  0.38753636330E+03  0.12499924305E+03 0.  0.
          5    1    3    3  501    0 -0.53017947589E+02 -0.65438928172E+01 -0.15014357295E+03  0.15936382211E+03  0.10000000000E+00 0. -1.
         -5    1    3    3    0  501  0.71914654338E+02  0.13384821366E+02 -0.21612919192E+03  0.22817254119E+03  0.10000000000E+00 0. -1.
          4    1    1    2  502    0 -0.18896706749E+02 -0.68409285488E+01  0.30375178036E+02  0.36421631897E+02  0.00000000000E+00 0.  1.
<mgrwt>
<rscale>  1 0.12660448E+03</rscale>
<asrwt>0</asrwt>
<pdfrwt beam="1">  1       21 0.58450429E-01 0.12660448E+03</pdfrwt>
<pdfrwt beam="2">  1        4 0.67738776E-02 0.12660448E+03</pdfrwt>
<totfact> 0.16283739E+04</totfact>
</mgrwt>
</event>
<event>
 6    2  0.1181843E-002  0.1964229E+03  0.7546771E-02  0.1152793E+00
         21   -1    0    0  502  503  0.00000000000E+00  0.00000000000E+00  0.13494432181E+03  0.13494432181E+03  0.00000000000E+00 0.  1.
          2   -1    0    0  503    0 -0.00000000000E+00 -0.00000000000E+00 -0.25447422709E+04  0.25447422709E+04  0.00000000000E+00 0.  1.
         25    2    1    2    0    0  0.27656503997E+02 -0.14897070850E+03  0.59893798864E+02  0.20535143269E+03  0.12499915824E+03 0.  0.
          5    1    3    3  501    0  0.46927349570E+02 -0.15875230557E+03  0.72064561832E+02  0.18054855782E+03  0.10000000000E+00 0. -1.
         -5    1    3    3    0  501 -0.19270845573E+02  0.97815970654E+01 -0.12170762969E+02  0.24802874864E+02  0.10000000000E+00 0. -1.
          2    1    1    2  502    0 -0.27656503997E+02  0.14897070850E+03 -0.24696917479E+04  0.24743351600E+04  0.00000000000E+00 0.  1.
<mgrwt>
<rscale>  1 0.19642287E+03</rscale>
<asrwt>0</asrwt>
<pdfrwt beam="1">  1       21 0.20760667E-01 0.19642287E+03</pdfrwt>
<pdfrwt beam="2">  1        2 0.39149877E+00 0.19642287E+03</pdfrwt>
<totfact> 0.10645155E+03</totfact>
</mgrwt>
</event>
<event>
 6    2  0.1181843E-002  0.1411367E+03  0.7546771E-02  0.1211808E+00
         21   -1    0    0  502  503  0.00000000000E+00  0.00000000000E+00  0.38235365549E+03  0.38235365549E+03  0.00000000000E+00 0.  1.
          1   -1    0    0  503    0 -0.00000000000E+00 -0.00000000000E+00 -0.82095333243E+02  0.82095333243E+02  0.00000000000E+00 0. -1.
         25    2    1    2    0    0  0.44165637301E+02  0.48423980738E+02  0.35309893834E+03  0.38026100778E+03  0.12499635338E+03 0.  0.
          5    1    3    3  501    0 -0.24523939765E+02 -0.22597668102E+02  0.40742676140E+02  0.52650298046E+02  0.10000000000E+00 0.  1.
         -5    1    3    3    0  501  0.68689577067E+02  0.71021648840E+02  0.31235626220E+03  0.32761070974E+03  0.10000000000E+00 0.  1.
          1    1    1    2  502    0 -0.44165637301E+02 -0.48423980738E+02 -0.52840616085E+02  0.84187980953E+02  0.00000000000E+00 0. -1.
<mgrwt>
<rscale>  1 0.14113672E+03</rscale>
<asrwt>0</asrwt>
<pdfrwt beam="1">  1       21 0.58823638E-01 0.14113672E+03</pdfrwt>
<pdfrwt beam="2">  1        1 0.12630051E-01 0.14113672E+03</pdfrwt>
<totfact> 0.13601952E+04</totfact>
</mgrwt>
</event>
<event>
 6    2  0.1181843E-002  0.1261572E+03  0.7546771E-02  0.1233272E+00
          1   -1    0    0  503    0 -0.00000000000E+00  0.00000000000E+00  0.52922970117E+03  0.52922970117E+03  0.00000000000E+00 0. -1.
         21   -1    0    0  502  503  0.00000000000E+00 -0.00000000000E+00 -0.12959356395E+02  0.12959356395E+02  0.00000000000E+00 0. -1.
         25    2    1    2    0    0 -0.16332361703E+02 -0.48229387741E+01  0.30265307605E+03  0.32789406399E+03  0.12500250388E+03 0.  0.
          5    1    3    3  501    0 -0.37818264067E+02  0.14165955702E+01  0.30316147578E+03  0.30551451396E+03  0.10000000000E+00 0. -1.
         -5    1    3    3    0  501  0.21485902363E+02 -0.62395343442E+01 -0.50839972860E+00  0.22379550029E+02  0.10000000000E+00 0. -1.
          1    1    1    2  502    0  0.16332361703E+02  0.48229387741E+01  0.21361726872E+03  0.21429499358E+03  0.00000000000E+00 0. -1.
<mgrwt>
<rscale>  1 0.12615717E+03</rscale>
<asrwt>0</asrwt>
<pdfrwt beam="1">  1       21 0.19937475E-02 0.12615717E+03</pdfrwt>
<pdfrwt beam="2">  1        1 0.81419937E-01 0.12615717E+03</pdfrwt>
<totfact> 0.55834598E+05</totfact>
</mgrwt>
</event>
<event>
 6    2  0.1181843E-002  0.1388324E+03  0.7546771E-02  0.1214909E+00
          2   -1    0    0  503    0 -0.00000000000E+00  0.00000000000E+00  0.54926066031E+03  0.54926066031E+03  0.00000000000E+00 0.  1.
         21   -1    0    0  502  503  0.00000000000E+00 -0.00000000000E+00 -0.18699363115E+02  0.18699363115E+02  0.00000000000E+00 0.  1.
         25    2    1    2    0    0 -0.81100103149E+01  0.59928866524E+02  0.31847506869E+03  0.34742020926E+03  0.12496876056E+03 0.  0.
          5    1    3    3  501    0 -0.56064397312E+01 -0.39219263508E+02  0.87439775225E+02  0.95996391016E+02  0.10000000000E+00 0.  1.
         -5    1    3    3    0  501 -0.25035705837E+01  0.99148130031E+02  0.23103529346E+03  0.25142381824E+03  0.10000000000E+00 0.  1.
          2    1    1    2  502    0  0.81100103149E+01 -0.59928866524E+02  0.21208622851E+03  0.22053981417E+03  0.00000000000E+00 0.  1.
<mgrwt>
<rscale>  1 0.13883239E+03</rscale>
<asrwt>0</asrwt>
<pdfrwt beam="1">  1       21 0.28768255E-02 0.13883239E+03</pdfrwt>
<pdfrwt beam="2">  1        2 0.84501628E-01 0.13883239E+03</pdfrwt>
<totfact> 0.46787518E+05</totfact>
</mgrwt>
</event>
<event>
 6    2  0.1181843E-002  0.1353876E+03  0.7546771E-02  0.1219674E+00
          2   -1    0    0  503    0 -0.00000000000E+00  0.00000000000E+00  0.13064322528E+04  0.13064322528E+04  0.00000000000E+00 0.  1.
         21   -1    0    0  502  503  0.00000000000E+00 -0.00000000000E+00 -0.14433486983E+03  0.14433486983E+03  0.00000000000E+00 0. -1.
         25    2    1    2    0    0 -0.45437393005E+02 -0.25208412478E+02 -0.11193958921E+03  0.17567095872E+03  0.12501917198E+03 0.  0.
          5    1    3    3  501    0 -0.54722201482E+02  0.26491846331E+02 -0.10680008603E+03  0.12289265899E+03  0.10000000000E+00 0. -1.
         -5    1    3    3    0  501  0.92848084773E+01 -0.51700258809E+02 -0.51395031802E+01  0.52778299729E+02  0.10000000000E+00 0. -1.
          2    1    1    2  502    0  0.45437393005E+02  0.25208412478E+02  0.12740369722E+04  0.12750961639E+04  0.00000000000E+00 0.  1.
<mgrwt>
<rscale>  1 0.13538764E+03</rscale>
<asrwt>0</asrwt>
<pdfrwt beam="1">  1       21 0.22205365E-01 0.13538764E+03</pdfrwt>
<pdfrwt beam="2">  1        2 0.20098957E+00 0.13538764E+03</pdfrwt>
<totfact> 0.43521541E+03</totfact>
</mgrwt>
</event>
<event>
 6    2  0.1181843E-002  0.1292862E+03  0.7546771E-02  0.1228519E+00
          2   -1    0    0  503    0 -0.00000000000E+00  0.00000000000E+00  0.19804432417E+04  0.19804432417E+04  0.00000000000E+00 0. -1.
         21   -1    0    0  502  503  0.00000000000E+00 -0.00000000000E+00 -0.12575742661E+02  0.12575742661E+02  0.00000000000E+00 0.  1.
         25    2    1    2    0    0  0.32940570850E+02  0.22505797003E+01  0.32431470879E+03  0.34913458433E+03  0.12499912529E+03 0.  0.
          5    1    3    3  501    0 -0.92263494532E+01 -0.55694081450E+02  0.11998719827E+03  0.13260427588E+03  0.10000000000E+00 0. -1.
         -5    1    3    3    0  501  0.42166920304E+02  0.57944661151E+02  0.20432751052E+03  0.21653030845E+03  0.10000000000E+00 0. -1.
          2    1    1    2  502    0 -0.32940570850E+02 -0.22505797003E+01  0.16435527903E+04  0.16438844001E+04  0.00000000000E+00 0. -1.
<mgrwt>
<rscale>  1 0.12928622E+03</rscale>
<asrwt>0</asrwt>
<pdfrwt beam="1">  1       21 0.19347312E-02 0.12928622E+03</pdfrwt>
<pdfrwt beam="2">  1        2 0.30468333E+00 0.12928622E+03</pdfrwt>
<totfact> 0.12896772E+05</totfact>
</mgrwt>
</event>
<event>
 6    2  0.1181843E-002  0.2302376E+03  0.7546771E-02  0.1126473E+00
          4   -1    0    0  503    0 -0.00000000000E+00  0.00000000000E+00  0.22473573134E+03  0.22473573134E+03  0.00000000000E+00 0. -1.
         21   -1    0    0  502  503  0.00000000000E+00 -0.00000000000E+00 -0.93713644734E+03  0.93713644734E+03  0.00000000000E+00 0.  1.
         25    2    1    2    0    0  0.17334429000E+03 -0.85650637595E+02 -0.87776105726E+03  0.90745457501E+03  0.12500022986E+03 0.  0.
          5    1    3    3  501    0  0.13344768536E+03 -0.34005538837E+01 -0.61266454152E+03  0.62703883367E+03  0.10000000000E+00 0.  1.
         -5    1    3    3    0  501  0.39896604632E+02 -0.82250083711E+02 -0.26509651574E+03  0.28041574134E+03  0.10000000000E+00 0.  1.
          4    1    1    2  502    0 -0.17334429000E+03  0.85650637595E+02  0.16536034126E+03  0.25441760367E+03  0.00000000000E+00 0. -1.
<mgrwt>
<rscale>  1 0.23023756E+03</rscale>
<asrwt>0</asrwt>
<pdfrwt beam="1">  1       21 0.14417484E+00 0.23023756E+03</pdfrwt>
<pdfrwt beam="2">  1        4 0.34574727E-01 0.23023756E+03</pdfrwt>
<totfact> 0.11148181E+02</totfact>
</mgrwt>
</event>
<event>
 6    2  0.1181843E-002  0.1265561E+03  0.7546771E-02  0.1232657E+00
         21   -1    0    0  502  503  0.00000000000E+00  0.00000000000E+00  0.89747886769E+03  0.89747886769E+03  0.00000000000E+00 0.  1.
          1   -1    0    0  503    0 -0.00000000000E+00 -0.00000000000E+00 -0.86840072434E+01  0.86840072434E+01  0.00000000000E+00 0.  1.
         25    2    1    2    0    0 -0.19422160813E+02  0.27710695630E+01  0.86944403369E+03  0.87860650265E+03  0.12502623575E+03 0.  0.
          5    1    3    3  501    0  0.22001967793E+02  0.44003783119E+01  0.77663855242E+03  0.77696261237E+03  0.10000000000E+00 0. -1.
         -5    1    3    3    0  501 -0.41424128606E+02 -0.16293087489E+01  0.92805481265E+02  0.10164389028E+03  0.10000000000E+00 0. -1.
          1    1    1    2  502    0  0.19422160813E+02 -0.27710695630E+01  0.19350826757E+02  0.27556372282E+02  0.00000000000E+00 0.  1.
<mgrwt>
<rscale>  1 0.12655615E+03</rscale>
<asrwt>0</asrwt>
<pdfrwt beam="1">  1       21 0.13807360E+00 0.12655615E+03</pdfrwt>
<pdfrwt beam="2">  1        1 0.13360018E-02 0.12655615E+03</pdfrwt>
<totfact> 0.41156660E+04</totfact>
</mgrwt>
</event>
<event>
 6    2  0.1181843E-002  0.1369764E+03  0.7546771E-02  0.1217456E+00
         21   -1    0    0  502  503  0.00000000000E+00  0.00000000000E+00  0.25395971868E+02  0.25395971868E+02  0.00000000000E+00 0.  1.
          2   -1    0    0  503    0 -0.00000000000E+00 -0.00000000000E+00 -0.13976993264E+04  0.13976993264E+04  0.00000000000E+00 0.  1.
         25    2    1    2    0    0  0.53021498975E+02  0.18071392777E+02 -0.16479952797E+03  0.21429285545E+03  0.12499875555E+03 0.  0.
          5    1    3    3  501    0 -0.90581661281E+01 -0.24925122813E+02 -0.12719878300E+03  0.12993403141E+03  0.10000000000E+00 0. -1.
         -5    1    3    3    0  501  0.62079665103E+02  0.42996515590E+02 -0.37600744967E+02  0.84358824045E+02  0.10000000000E+00 0. -1.
          2    1    1    2  502    0 -0.53021498975E+02 -0.18071392777E+02 -0.12075038265E+04  0.12088024428E+04  0.00000000000E+00 0.  1.
<mgrwt>
<rscale>  1 0.13697643E+03</rscale>
<asrwt>0</asrwt>
<pdfrwt beam="1">  1       21 0.39070724E-02 0.13697643E+03</pdfrwt>
<pdfrwt beam="2">  1        2 0.21503067E+00 0.13697643E+03</pdfrwt>
<totfact> 0.81452394E+04</totfact>
</mgrwt>
</event>
<event>
 6    2  0.1181843E-002  0.1335758E+03  0.7546771E-02  0.1222244E+00
          1   -1    0    0  503    0 -0.00000000000E+00  0.00000000000E+00  0.27252310617E+04  0.27252310617E+04  0.00000000000E+00 0.  1.
         21   -1    0    0  502  503  0.00000000000E+00 -0.00000000000E+00 -0.69524690286E+01  0.69524690286E+01  0.00000000000E+00 0.  1.
         25    2    1    2    0    0 -0.22762494871E+02  0.41232326590E+02  0.66077769813E+03  0.67414364604E+03  0.12499701285E+03 0.  0.
          5    1    3    3  501    0 -0.40584250975E+02 -0.34741780137E+02  0.32920701372E+03  0.33351362880E+03  0.10000000000E+00 0. -1.
         -5    1    3    3    0  501  0.17821756105E+02  0.75974106727E+02  0.33157068442E+03  0.34063001724E+03  0.10000000000E+00 0. -1.
          1    1    1    2  502    0  0.22762494871E+02 -0.41232326590E+02  0.20575008946E+04  0.20580398847E+04  0.00000000000E+00 0.  1.
<mgrwt>
<rscale>  1 0.13357578E+03</rscale>
<asrwt>0</asrwt>
<pdfrwt beam="1">  1       21 0.10696128E-02 0.13357578E+03</pdfrwt>
<pdfrwt beam="2">  1        1 0.41926546E+00 0.13357578E+03</pdfrwt>
<totfact> 0.44358710E+04</totfact>
</mgrwt>
</event>
<event>
 6    2  0.1181843E-002  0.1619802E+03  0.7546771E-02  0.1186479E+00
         21   -1    0    0  502  503  0.00000000000E+00  0.00000000000E+00  0.12861501982E+03  0.12861501982E+03  0.00000000000E+00 0.  1.
          4   -1    0    0  503    0 -0.00000000000E+00 -0.00000000000E+00 -0.14911106113E+03  0.14911106113E+03  0.00000000000E+00 0.  1.
         25    2    1    2    0    0  0.10033343932E+03 -0.23393313432E+02  0.27111867228E+02  0.16423353003E+03  0.12499421140E+03 0.  0.
          5    1    3    3  501    0  0.44930355530E+02 -0.51706653127E+02  0.62437120023E+02  0.92686130475E+02  0.10000000000E+00 0. -1.
         -5    1    3    3    0  501  0.55403083791E+02  0.28313339695E+02 -0.35325252795E+02  0.71547399556E+02  0.10000000000E+00 0. -1.
          4    1    1    2  502    0 -0.10033343932E+03  0.23393313432E+02 -0.47607908533E+02  0.11349255092E+03  0.00000000000E+00 0.  1.
<mgrwt>
<rscale>  1 0.16198024E+03</rscale>
<asrwt>0</asrwt>
<pdfrwt beam="1">  1       21 0.19786926E-01 0.16198024E+03</pdfrwt>
<pdfrwt beam="2">  1        4 0.22940163E-01 0.16198024E+03</pdfrwt>
<totfact> 0.17167979E+04</totfact>
</mgrwt>
</event>
<event>
 6    2  0.1181843E-002  0.1389832E+03  0.7546771E-02  0.1214704E+00
          1   -1    0    0  503    0 -0.00000000000E+00  0.00000000000E+00  0.23054538457E+02  0.23054538457E+02  0.00000000000E+00 0.  1.
         21   -1    0    0  502  503  0.00000000000E+00 -0.00000000000E+00 -0.63329611117E+03  0.63329611117E+03  0.00000000000E+00 0.  1.
         25    2    1    2    0    0  0.44602222455E+02 -0.41244534259E+02 -0.56155735906E+03  0.57850064954E+03  0.12500345655E+03 0.  0.
          5    1    3    3  501    0  0.60948600329E+02 -0.16450067693E+02 -0.53484114911E+03  0.53855399116E+03  0.10000000000E+00 0. -1.
         -5    1    3    3    0  501 -0.16346377873E+02 -0.24794466566E+02 -0.26716209948E+02  0.39946658381E+02  0.10000000000E+00 0. -1.
          1    1    1    2  502    0 -0.44602222455E+02  0.41244534259E+02 -0.48684213647E+02  0.77850000080E+02  0.00000000000E+00 0.  1.
<mgrwt>
<rscale>  1 0.13898321E+03</rscale>
<asrwt>0</asrwt>
<pdfrwt beam="1">  1       21 0.97430163E-01 0.13898321E+03</pdfrwt>
<pdfrwt beam="2">  1        1 0.35468524E-02 0.13898321E+03</pdfrwt>
<totfact> 0.24662202E+04</totfact>
</mgrwt>
</event>
<event>
 6    2  0.1181843E-002  0.1336905E+03  0.7546771E-02  0.1222080E+00
         21   -1    0    0  502  503  0.00000000000E+00  0.00000000000E+00  0.10214032362E+03  0.10214032362E+03  0.00000000000E+00 0. -1.
          2   -1    0    0  503    0 -0.00000000000E+00 -0.00000000000E+00 -0.89077878830E+02  0.89077878830E+02  0.00000000000E+00 0. -1.
         25    2    1    2    0    0 -0.35619084952E+02  0.31296286096E+02  0.36134542326E+02  0.13848777081E+03  0.12499992311E+03 0.  0.
          5    1    3    3  501    0 -0.17688927039E+02  0.37807787568E+02 -0.41310873750E+02  0.58727550864E+02  0.10000000000E+00 0.  1.
         -5    1    3    3    0  501 -0.17930157913E+02 -0.65115014715E+01  0.77445416075E+02  0.79760219943E+02  0.10000000000E+00 0.  1.
          2    1    1    2  502    0  0.35619084952E+02 -0.31296286096E+02 -0.23072097538E+02  0.52730431641E+02  0.00000000000E+00 0. -1.
<mgrwt>
<rscale>  1 0.13369053E+03</rscale>
<asrwt>0</asrwt>
<pdfrwt beam="1">  1       21 0.15713896E-01 0.13369053E+03</pdfrwt>
<pdfrwt beam="2">  1        2 0.13704289E-01 0.13369053E+03</pdfrwt>
<totfact> 0.18726949E+05</totfact>
</mgrwt>
</event>
<event>
 6    2  0.1181843E-002  0.1284224E+03  0.7546771E-02  0.1229816E+00
          4   -1    0    0  503    0 -0.00000000000E+00  0.00000000000E+00  0.16025221323E+03  0.16025221323E+03  0.00000000000E+00 0. -1.
         21   -1    0    0  502  503  0.00000000000E+00 -0.00000000000E+00 -0.84459951484E+02  0.84459951484E+02  0.00000000000E+00 0. -1.
         25    2    1    2    0    0  0.26328261132E+02  0.13271393344E+02 -0.32505762305E+02  0.13247238020E+03  0.12499199861E+03 0.  0.
          5    1    3    3  501    0  0.43540145355E+02 -0.35326407272E+02  0.19383967498E+02  0.59324931557E+02  0.10000000000E+00 0. -1.
         -5    1    3    3    0  501 -0.17211884222E+02  0.48597800617E+02 -0.51889729803E+02  0.73147448638E+02  0.10000000000E+00 0. -1.
          4    1    1    2  502    0 -0.26328261132E+02 -0.13271393344E+02  0.10829802405E+03  0.11223978452E+03  0.00000000000E+00 0. -1.
<mgrwt>
<rscale>  1 0.12842238E+03</rscale>
<asrwt>0</asrwt>
<pdfrwt beam="1">  1       21 0.12993839E-01 0.12842238E+03</pdfrwt>
<pdfrwt beam="2">  1        4 0.24654187E-01 0.12842238E+03</pdfrwt>
<totfact> 0.31575739E+04</totfact>
</mgrwt>
</event>
<event>
 6    2  0.1181843E-002  0.1317780E+03  0.7546771E-02  0.1224841E+00
         21   -1    0    0  502  503  0.00000000000E+00  0.00000000000E+00  0.73861015478E+01  0.73861015478E+01  0.00000000000E+00 0. -1.
          2   -1    0    0  503    0 -0.00000000000E+00 -0.00000000000E+00 -0.19776844066E+04  0.19776844066E+04  0.00000000000E+00 0. -1.
         25    2    1    2    0    0 -0.41690391965E+02  0.12875265844E+01 -0.60723997344E+03  0.62137414830E+03  0.12500280123E+03 0.  0.
          5    1    3    3  501    0  0.66939010119E+01 -0.55623317638E+02 -0.29977045258E+03  0.30496081062E+03  0.10000000000E+00 0. -1.
         -5    1    3    3    0  501 -0.48384292977E+02  0.56910844222E+02 -0.30746952087E+03  0.31641333768E+03  0.10000000000E+00 0. -1.
          2    1    1    2  502    0  0.41690391965E+02 -0.12875265844E+01 -0.13630583316E+04  0.13636963598E+04  0.00000000000E+00 0. -1.
<mgrwt>
<rscale>  1 0.13177802E+03</rscale>
<asrwt>0</asrwt>
<pdfrwt beam="1">  1       21 0.11363234E-02 0.13177802E+03</pdfrwt>
<pdfrwt beam="2">  1        2 0.30425911E+00 0.13177802E+03</pdfrwt>
<totfact> 0.30266138E+05</totfact>
</mgrwt>
</event>
<event>
 6    2  0.1181843E-002  0.1261396E+03  0.7546771E-02  0.1233299E+00
          2   -1    0    0  503    0 -0.00000000000E+00  0.00000000000E+00  0.35836335842E+03  0.35836335842E+03  0.00000000000E+00 0.  1.
         21   -1    0    0  502  503  0.00000000000E+00 -0.00000000000E+00 -0.17785095990E+02  0.17785095990E+02  0.00000000000E+00 0.  1.
         25    2    1    2    0    0 -0.11252043638E+02 -0.12578099233E+02  0.21368649346E+03  0.24813932154E+03  0.12500555324E+03 0.  0.
          5    1    3    3  501    0 -0.59110568944E+02 -0.84699991633E+01  0.17952524798E+03  0.18919599602E+03  0.10000000000E+00 0. -1.
         -5    1    3    3    0  501  0.47858525306E+02 -0.41081000698E+01  0.34161245479E+02  0.58943325519E+02  0.10000000000E+00 0. -1.
          2    1    1    2  502    0  0.11252043638E+02  0.12578099233E+02  0.12689176897E+03  0.12800913287E+03  0.00000000000E+00 0.  1.
<mgrwt>
<rscale>  1 0.12613963E+03</rscale>
<asrwt>0</asrwt>
<pdfrwt beam="1">  1       21 0.27361689E-02 0.12613963E+03</pdfrwt>
<pdfrwt beam="2">  1        2 0.55132819E-01 0.12613963E+03</pdfrwt>
<totfact> 0.80074118E+05</totfact>
</mgrwt>
</event>
<event>
 6    2  0.1181843E-002  0.1261019E+03  0.7546771E-02  0.1233357E+00
         21   -1    0    0  502  503  0.00000000000E+00  0.00000000000E+00  0.47334139330E+01  0.47334139330E+01  0.00000000000E+00 0.  1.
          2   -1    0    0  503    0 -0.00000000000E+00 -0.00000000000E+00 -0.20501730700E+04  0.20501730700E+04  0.00000000000E+00 0.  1.
         25    2    1    2    0    0 -0.12559056327E+02 -0.10877845759E+02 -0.84551854678E+03  0.85487034867E+03  0.12500257062E+03 0.  0.
          5    1    3    3  501    0 -0.19586166160E+02  0.47033719513E+01 -0.17523055375E+02  0.26698447188E+02  0.10000000000E+00 0.  1.
         -5    1    3    3    0  501  0.70271098330E+01 -0.15581217710E+02 -0.82799549141E+03  0.82817190148E+03  0.10000000000E+00 0.  1.
          2    1    1    2  502    0  0.12559056327E+02  0.10877845759E+02 -0.11999211092E+04  0.12000361352E+04  0.00000000000E+00 0.  1.
<mgrwt>
<rscale>  1 0.12610194E+03</rscale>
<asrwt>0</asrwt>
<pdfrwt beam="1">  1       21 0.72821727E-03 0.12610194E+03</pdfrwt>
<pdfrwt beam="2">  1        2 0.31541135E+00 0.12610194E+03</pdfrwt>
<totfact> 0.55877867E+05</totfact>
</mgrwt>
</event>
<event>
 6    2  0.1181843E-002  0.1267922E+03  0.7546771E-02  0.1232295E+00
          1   -1    0    0  503    0 -0.00000000000E+00  0.00000000000E+00  0.16892601344E+03  0.16892601344E+03  0.00000000000E+00 0.  1.
         21   -1    0    0  502  503  0.00000000000E+00 -0.00000000000E+00 -0.46111574218E+02  0.46111574218E+02  0.00000000000E+00 0.  1.
         25    2    1    2    0    0 -0.16589250174E+02 -0.13254848688E+02  0.13914582177E+03  0.18824937586E+03  0.12500149424E+03 0.  0.
          5    1    3    3  501    0 -0.68703443246E+02 -0.44868269706E+01  0.10420567220E+03  0.12489646451E+03  0.10000000000E+00 0. -1.
         -5    1    3    3    0  501  0.52114193072E+02 -0.87680217170E+01  0.34940149571E+02  0.63352911349E+02  0.10000000000E+00 0. -1.
          1    1    1    2  502    0  0.16589250174E+02  0.13254848688E+02 -0.16331382549E+02  0.26788211792E+02  0.00000000000E+00 0.  1.
<mgrwt>
<rscale>  1 0.12679222E+03</rscale>
<asrwt>0</asrwt>
<pdfrwt beam="1">  1       21 0.70940884E-02 0.12679222E+03</pdfrwt>
<pdfrwt beam="2">  1        1 0.25988617E-01 0.12679222E+03</pdfrwt>
<totfact> 0.28411349E+05</totfact>
</mgrwt>
</event>
<event>
 6    2  0.1181843E-002  0.1338946E+03  0.7546771E-02  0.1221789E+00
          2   -1    0    0  503    0 -0.00000000000E+00  0.00000000000E+00  0.42493486421E+03  0.42493486421E+03  0.00000000000E+00 0. -1.
         21   -1    0    0  502  503  0.00000000000E+00 -0.00000000000E+00 -0.13901408788E+03  0.13901408788E+03  0.00000000000E+00 0.  1.
         25    2    1    2    0    0  0.31325272344E+02  0.36435687856E+02 -0.10495717187E+03  0.17012868543E+03  0.12497571621E+03 0.  0.
          5    1    3    3  501    0  0.90827956294E+00  0.71692792123E+02 -0.22002734036E+02  0.74998744784E+02  0.10000000000E+00 0.  1.
         -5    1    3    3    0  501  0.30416992781E+02 -0.35257104266E+02 -0.82954437835E+02  0.95129940648E+02  0.10000000000E+00 0.  1.
          2    1    1    2  502    0 -0.31325272344E+02 -0.36435687856E+02  0.39087794821E+03  0.39382026666E+03  0.00000000000E+00 0. -1.
<mgrwt>
<rscale>  1 0.13389459E+03</rscale>
<asrwt>0</asrwt>
<pdfrwt beam="1">  1       21 0.21386783E-01 0.13389459E+03</pdfrwt>
<pdfrwt beam="2">  1        2 0.65374594E-01 0.13389459E+03</pdfrwt>
<totfact> 0.19126158E+04</totfact>
</mgrwt>
</event>
<event>
 6    2  0.1181843E-002  0.1264605E+03  0.7546771E-02  0.1232804E+00
         21   -1    0    0  502  503  0.00000000000E+00  0.00000000000E+00  0.11358434398E+02  0.11358434398E+02  0.00000000000E+00 0. -1.
          2   -1    0    0  503    0 -0.00000000000E+00 -0.00000000000E+00 -0.82097493147E+03  0.82097493147E+03  0.00000000000E+00 0. -1.
         25    2    1    2    0    0 -0.10356542057E+02 -0.16047256577E+02 -0.34704372040E+03  0.36936647059E+03  0.12500989289E+03 0.  0.
          5    1    3    3  501    0  0.73125927592E+01 -0.35259296665E+02 -0.34057701878E+03  0.34247541187E+03  0.10000000000E+00 0. -1.
         -5    1    3    3    0  501 -0.17669134816E+02  0.19212040088E+02 -0.64667016276E+01  0.26891058727E+02  0.10000000000E+00 0. -1.
          2    1    1    2  502    0  0.10356542057E+02  0.16047256577E+02 -0.46257277667E+03  0.46296689528E+03  0.00000000000E+00 0. -1.
<mgrwt>
<rscale>  1 0.12646045E+03</rscale>
<asrwt>0</asrwt>
<pdfrwt beam="1">  1       21 0.17474519E-02 0.12646045E+03</pdfrwt>
<pdfrwt beam="2">  1        2 0.12630381E+00 0.12646045E+03</pdfrwt>
<totfact> 0.65101537E+05</totfact>
</mgrwt>
</event>
<event>
 6    2  0.1181843E-002  0.1296619E+03  0.7546771E-02  0.1227958E+00
          4   -1    0    0  503    0 -0.00000000000E+00  0.00000000000E+00  0.22207859487E+02  0.22207859487E+02  0.00000000000E+00 0. -1.
         21   -1    0    0  502  503  0.00000000000E+00 -0.00000000000E+00 -0.30322987455E+03  0.30322987455E+03  0.00000000000E+00 0. -1.
         25    2    1    2    0    0 -0.27060541965E+02 -0.21322656289E+02 -0.22061279404E+03  0.25589492286E+03  0.12500111218E+03 0.  0.
          5    1    3    3  501    0 -0.40292096677E+02 -0.59737801669E+02 -0.19494652066E+03  0.20783698882E+03  0.10000000000E+00 0. -1.
         -5    1    3    3    0  501  0.13231554712E+02  0.38415145379E+02 -0.25666273378E+02  0.48057934035E+02  0.10000000000E+00 0. -1.
          4    1    1    2  502    0  0.27060541965E+02  0.21322656289E+02 -0.60409221016E+02  0.69542811177E+02  0.00000000000E+00 0. -1.
<mgrwt>
<rscale>  1 0.12966189E+03</rscale>
<asrwt>0</asrwt>
<pdfrwt beam="1">  1       21 0.46650748E-01 0.12966189E+03</pdfrwt>
<pdfrwt beam="2">  1        4 0.34165939E-02 0.12966189E+03</pdfrwt>
<totfact> 0.78110723E+04</totfact>
</mgrwt>
</event>
<event>
 6    2  0.1181843E-002  0.1626265E+03  0.7546771E-02  0.1185763E+00
          2   -1    0    0  503    0 -0.00000000000E+00  0.00000000000E+00  0.18502235824E+04  0.18502235824E+04  0.00000000000E+00 0. -1.
         21   -1    0    0  502  503  0.00000000000E+00 -0.00000000000E+00 -0.43725893818E+02  0.43725893818E+02  0.00000000000E+00 0. -1.
         25    2    1    2    0    0  0.70468504762E+02 -0.76529357721E+02  0.11481839245E+03  0.19907443843E+03  0.12499926414E+03 0.  0.
          5    1    3    3  501    0  0.26306232270E+02  0.31429447729E+02  0.98455365964E+01  0.42151780884E+02  0.10000000000E+00 0.  1.
         -5    1    3    3    0  501  0.44162272492E+02 -0.10795880545E+03  0.10497285586E+03  0.15692265755E+03  0.10000000000E+00 0.  1.
          2    1    1    2  502    0 -0.70468504762E+02  0.76529357721E+02  0.16916792961E+04  0.16948750378E+04  0.00000000000E+00 0. -1.
<mgrwt>
<rscale>  1 0.16262647E+03</rscale>
<asrwt>0</asrwt>
<pdfrwt beam="1">  1       21 0.67270620E-02 0.16262647E+03</pdfrwt>
<pdfrwt beam="2">  1        2 0.28464972E+00 0.16262647E+03</pdfrwt>
<totfact> 0.18864517E+04</totfact>
</mgrwt>
</event>
<event>
 6    2  0.1181843E-002  0.1259590E+03  0.7546771E-02  0.1233578E+00
          1   -1    0    0  503    0 -0.00000000000E+00  0.00000000000E+00  0.69844800570E+03  0.69844800570E+03  0.00000000000E+00 0.  1.
         21   -1    0    0  502  503  0.00000000000E+00 -0.00000000000E+00 -0.31004194641E+03  0.31004194641E+03  0.00000000000E+00 0. -1.
         25    2    1    2    0    0  0.49631372783E+01  0.14693823852E+02 -0.29715744979E+03  0.32275103227E+03  0.12500055070E+03 0.  0.
          5    1    3    3  501    0  0.59109441731E+02  0.34320965865E+02 -0.15886062990E+03  0.17294092786E+03  0.10000000000E+00 0. -1.
         -5    1    3    3    0  501 -0.54146304453E+02 -0.19627142013E+02 -0.13829681990E+03  0.14981010441E+03  0.10000000000E+00 0. -1.
          1    1    1    2  502    0 -0.49631372783E+01 -0.14693823852E+02  0.68556350909E+03  0.68573891984E+03  0.00000000000E+00 0.  1.
<mgrwt>
<rscale>  1 0.12595904E+03</rscale>
<asrwt>0</asrwt>
<pdfrwt beam="1">  1       21 0.47698761E-01 0.12595904E+03</pdfrwt>
<pdfrwt beam="2">  1        1 0.10745354E+00 0.12595904E+03</pdfrwt>
<totfact> 0.13771771E+03</totfact>
</mgrwt>
</event>
<event>
 6    2  0.1181843E-002  0.1461972E+03  0.7546771E-02  0.1205225E+00
          2   -1    0    0  503    0 -0.00000000000E+00  0.00000000000E+00  0.17572283076E+04  0.17572283076E+04  0.00000000000E+00 0. -1.
         21   -1    0    0  502  503  0.00000000000E+00 -0.00000000000E+00 -0.37936062558E+02  0.37936062558E+02  0.00000000000E+00 0. -1.
         25    2    1    2    0    0 -0.50042851093E+02  0.56965143185E+02  0.10719607288E+03  0.18128600337E+03  0.12499720995E+03 0.  0.
          5    1    3    3  501    0 -0.36657560650E+02  0.61782873250E+01 -0.21036768425E+02  0.42714208559E+02  0.10000000000E+00 0. -1.
         -5    1    3    3    0  501 -0.13385290443E+02  0.50786855860E+02  0.12823284131E+03  0.13857179481E+03  0.10000000000E+00 0. -1.
          2    1    1    2  502    0  0.50042851093E+02 -0.56965143185E+02  0.16120961721E+04  0.16138783668E+04  0.00000000000E+00 0. -1.
<mgrwt>
<rscale>  1 0.14619719E+03</rscale>
<asrwt>0</asrwt>
<pdfrwt beam="1">  1       21 0.58363187E-02 0.14619719E+03</pdfrwt>
<pdfrwt beam="2">  1        2 0.27034275E+00 0.14619719E+03</pdfrwt>
<totfact> 0.26978357E+04</totfact>
</mgrwt>
</event>
<event>
 6    2  0.1181843E-002  0.1264596E+03  0.7546771E-02  0.1232806E+00
         21   -1    0    0  502  503  0.00000000000E+00  0.00000000000E+00  0.82840098311E+02  0.82840098311E+02  0.00000000000E+00 0. -1.
          2   -1    0    0  503    0 -0.00000000000E+00 -0.00000000000E+00 -0.73753758807E+03  0.73753758807E+03  0.00000000000E+00 0. -1.
         25    2    1    2    0    0 -0.16027970187E+02 -0.10573505405E+02  0.34366565162E+02  0.13104615031E+03  0.12499335128E+03 0.  0.
          5    1    3    3  501    0 -0.54805662753E+02 -0.37619319712E+02 -0.87647428881E+01  0.67050015684E+02  0.10000000000E+00 0.  1.
         -5    1    3    3    0  501  0.38777692566E+02  0.27045814307E+02  0.43131308050E+02  0.63996134621E+02  0.10000000000E+00 0.  1.
          2    1    1    2  502    0  0.16027970187E+02  0.10573505405E+02 -0.68906405493E+03  0.68933153608E+03  0.00000000000E+00 0. -1.
<mgrwt>
<rscale>  1 0.12645961E+03</rscale>
<asrwt>0</asrwt>
<pdfrwt beam="1">  1       21 0.12744630E-01 0.12645961E+03</pdfrwt>
<pdfrwt beam="2">  1        2 0.11346732E+00 0.12645961E+03</pdfrwt>
<totfact> 0.26381610E+04</totfact>
</mgrwt>
</event>
<event>
 6    2  0.1181843E-002  0.1469664E+03  0.7546771E-02  0.1204251E+00
          1   -1    0    0  503    0 -0.00000000000E+00  0.00000000000E+00  0.10258538030E+03  0.10258538030E+03  0.00000000000E+00 0. -1.
         21   -1    0    0  502  503  0.00000000000E+00 -0.00000000000E+00 -0.15083165707E+03  0.15083165707E+03  0.00000000000E+00 0. -1.
         25    2    1    2    0    0  0.74348730346E+02  0.21130842037E+02 -0.82873184073E+02  0.16872188463E+03  0.12499945410E+03 0.  0.
          5    1    3    3  501    0 -0.24114958653E+02 -0.27598946756E+02 -0.26602986866E+02  0.45287547991E+02  0.10000000000E+00 0. -1.
         -5    1    3    3    0  501  0.98463688999E+02  0.48729788793E+02 -0.56270197207E+02  0.12343433664E+03  0.10000000000E+00 0. -1.
          1    1    1    2  502    0 -0.74348730346E+02 -0.21130842037E+02  0.34626907300E+02  0.84695152744E+02  0.00000000000E+00 0. -1.
<mgrwt>
<rscale>  1 0.14696636E+03</rscale>
<asrwt>0</asrwt>
<pdfrwt beam="1">  1       21 0.23204870E-01 0.14696636E+03</pdfrwt>
<pdfrwt beam="2">  1        1 0.15782366E-01 0.14696636E+03</pdfrwt>
<totfact> 0.64807874E+04</totfact>
</mgrwt>
</event>
<event>
 6    2  0.1181843E-002  0.1970543E+03  0.7546771E-02  0.1152248E+00
          1   -1    0    0  503    0 -0.00000000000E+00  0.00000000000E+00  0.29932492055E+04  0.29932492055E+04  0.00000000000E+00 0.  1.
         21   -1    0    0  502  503  0.00000000000E+00 -0.00000000000E+00 -0.17089604509E+02  0.17089604509E+02  0.00000000000E+00 0.  1.
         25    2    1    2    0    0  0.11320705701E+03  0.10193096836E+03  0.65040479802E+03  0.67960047986E+03  0.12499860349E+03 0.  0.
          5    1    3    3  501    0  0.70023148259E+01  0.24373953052E+02  0.12485777290E+02  0.28267059183E+02  0.10000000000E+00 0. -1.
         -5    1    3    3    0  501  0.10620474218E+03  0.77557015311E+02  0.63791902073E+03  0.65133342068E+03  0.10000000000E+00 0. -1.
          1    1    1    2  502    0 -0.11320705701E+03 -0.10193096836E+03  0.23257548030E+04  0.23307383301E+04  0.00000000000E+00 0.  1.
<mgrwt>
<rscale>  1 0.19705434E+03</rscale>
<asrwt>0</asrwt>
<pdfrwt beam="1">  1       21 0.26291723E-02 0.19705434E+03</pdfrwt>
<pdfrwt beam="2">  1        1 0.46049946E+00 0.19705434E+03</pdfrwt>
<totfact> 0.66718191E+03</totfact>
</mgrwt>
</event>
<event>
 6    2  0.1181843E-002  0.1275592E+03  0.7546771E-02  0.1231123E+00
         21   -1    0    0  502  503  0.00000000000E+00  0.00000000000E+00  0.41201008772E+02  0.41201008772E+02  0.00000000000E+00 0.  1.
          2   -1    0    0  503    0 -0.00000000000E+00 -0.00000000000E+00 -0.29355636238E+03  0.29355636238E+03  0.00000000000E+00 0. -1.
         25    2    1    2    0    0 -0.19375920203E+02  0.16416055565E+02 -0.60412514495E+02  0.14114185873E+03  0.12500575672E+03 0.  0.
          5    1    3    3  501    0 -0.46330243143E+02 -0.19742711766E+02  0.15629948216E+02  0.52731123435E+02  0.10000000000E+00 0. -1.
         -5    1    3    3    0  501  0.26954322939E+02  0.36158767331E+02 -0.76042462711E+02  0.88410735293E+02  0.10000000000E+00 0. -1.
          2    1    1    2  502    0  0.19375920203E+02 -0.16416055565E+02 -0.19194283911E+03  0.19361551242E+03  0.00000000000E+00 0. -1.
<mgrwt>
<rscale>  1 0.12755921E+03</rscale>
<asrwt>0</asrwt>
<pdfrwt beam="1">  1       21 0.63386165E-02 0.12755921E+03</pdfrwt>
<pdfrwt beam="2">  1        2 0.45162519E-01 0.12755921E+03</pdfrwt>
<totfact> 0.24442004E+05</totfact>
</mgrwt>
</event>
<event>
 6    2  0.1181843E-002  0.1311383E+03  0.7546771E-02  0.1225776E+00
         21   -1    0    0  502  503  0.00000000000E+00  0.00000000000E+00  0.21514303701E+03  0.21514303701E+03  0.00000000000E+00 0.  1.
          2   -1    0    0  503    0 -0.00000000000E+00 -0.00000000000E+00 -0.13384481838E+03  0.13384481838E+03  0.00000000000E+00 0.  1.
         25    2    1    2    0    0  0.94609337993E+01  0.38408086230E+02  0.19138893395E+03  0.23200642115E+03  0.12503025658E+03 0.  0.
          5    1    3    3  501    0 -0.32044060511E+02  0.39012361550E+02  0.18276607533E+03  0.18961074458E+03  0.10000000000E+00 0. -1.
         -5    1    3    3    0  501  0.41504994310E+02 -0.60427532047E+00  0.86228586199E+01  0.42395676573E+02  0.10000000000E+00 0. -1.
          2    1    1    2  502    0 -0.94609337993E+01 -0.38408086230E+02 -0.11009071532E+03  0.11698143424E+03  0.00000000000E+00 0.  1.
<mgrwt>
<rscale>  1 0.13113831E+03</rscale>
<asrwt>0</asrwt>
<pdfrwt beam="1">  1       21 0.33098929E-01 0.13113831E+03</pdfrwt>
<pdfrwt beam="2">  1        2 0.20591511E-01 0.13113831E+03</pdfrwt>
<totfact> 0.28914428E+04</totfact>
</mgrwt>
</event>
<event>
 6    2  0.1181843E-002  0.1793176E+03  0.7546771E-02  0.1168465E+00
          4   -1    0    0  503    0 -0.00000000000E+00  0.00000000000E+00  0.70546588604E+03  0.70546588604E+03  0.00000000000E+00 0. -1.
         21   -1    0    0  502  503  0.00000000000E+00 -0.00000000000E+00 -0.17135266458E+03  0.17135266458E+03  0.00000000000E+00 0. -1.
         25    2    1    2    0    0 -0.72758029298E+02 -0.10601064475E+03 -0.11635791064E+03  0.21376147816E+03  0.12499127390E+03 0.  0.
          5    1    3    3  501    0 -0.44419757756E+02  0.96516438706E+01 -0.75001523856E+02  0.87701241093E+02  0.10000000000E+00 0.  1.
         -5    1    3    3    0  501 -0.28338271543E+02 -0.11566228862E+03 -0.41356386785E+02  0.12606023707E+03  0.10000000000E+00 0.  1.
          4    1    1    2  502    0  0.72758029298E+02  0.10601064475E+03  0.65047113211E+03  0.66305707246E+03  0.00000000000E+00 0. -1.
<mgrwt>
<rscale>  1 0.17931761E+03</rscale>
<asrwt>0</asrwt>
<pdfrwt beam="1">  1       21 0.26361949E-01 0.17931761E+03</pdfrwt>
<pdfrwt beam="2">  1        4 0.10853321E+00 0.17931761E+03</pdfrwt>
<totfact> 0.40585891E+02</totfact>
</mgrwt>
</event>
<event>
 6    2  0.1181843E-002  0.1403783E+03  0.7546771E-02  0.1212821E+00
          2   -1    0    0  503    0 -0.00000000000E+00  0.00000000000E+00  0.31479590801E+04  0.31479590801E+04  0.00000000000E+00 0.  1.
         21   -1    0    0  502  503  0.00000000000E+00 -0.00000000000E+00 -0.24957683888E+02  0.24957683888E+02  0.00000000000E+00 0. -1.
         25    2    1    2    0    0  0.18165812334E+02 -0.61296352739E+02  0.17556406364E+03  0.22478615816E+03  0.12497534501E+03 0.  0.
          5    1    3    3  501    0 -0.52578291601E+02 -0.36719872607E+02  0.96653332285E+02  0.11599440691E+03  0.10000000000E+00 0. -1.
         -5    1    3    3    0  501  0.70744103934E+02 -0.24576480132E+02  0.78910731359E+02  0.10879175125E+03  0.10000000000E+00 0. -1.
          2    1    1    2  502    0 -0.18165812334E+02  0.61296352739E+02  0.29474373325E+04  0.29481306058E+04  0.00000000000E+00 0.  1.
<mgrwt>
<rscale>  1 0.14037833E+03</rscale>
<asrwt>0</asrwt>
<pdfrwt beam="1">  1       21 0.38396462E-02 0.14037833E+03</pdfrwt>
<pdfrwt beam="2">  1        2 0.48430108E+00 0.14037833E+03</pdfrwt>
<totfact> 0.97161787E+03</totfact>
</mgrwt>
</event>
<event>
 6    2  0.1181843E-002  0.1356110E+03  0.7546771E-02  0.1219360E+00
          3   -1    0    0  503    0 -0.00000000000E+00  0.00000000000E+00  0.26539402363E+03  0.26539402363E+03  0.00000000000E+00 0.  1.
         21   -1    0    0  502  503  0.00000000000E+00 -0.00000000000E+00 -0.36771725722E+02  0.36771725722E+02  0.00000000000E+00 0.  1.
         25    2    1    2    0    0  0.50344611123E+02 -0.15306530294E+02  0.11839001588E+03  0.18001819211E+03  0.12498593478E+03 0.  0.
          5    1    3    3  501    0  0.90510765686E+02 -0.29961322330E+01  0.97608205123E+02  0.13314859076E+03  0.10000000000E+00 0.  1.
         -5    1    3    3    0  501 -0.40166154563E+02 -0.12310398061E+02  0.20781810761E+02  0.46869601356E+02  0.10000000000E+00 0.  1.
          3    1    1    2  502    0 -0.50344611123E+02  0.15306530294E+02  0.11023228202E+03  0.12214755724E+03  0.00000000000E+00 0.  1.
<mgrwt>
<rscale>  1 0.13561104E+03</rscale>
<asrwt>0</asrwt>
<pdfrwt beam="1">  1       21 0.56571887E-02 0.13561104E+03</pdfrwt>
<pdfrwt beam="2">  1        3 0.40829849E-01 0.13561104E+03</pdfrwt>
<totfact> 0.62165848E+04</totfact>
</mgrwt>
</event>
<event>
 6    2  0.1181843E-002  0.1293990E+03  0.7546771E-02  0.1228350E+00
         21   -1    0    0  502  503  0.00000000000E+00  0.00000000000E+00  0.40336700080E+02  0.40336700080E+02  0.00000000000E+00 0.  1.
          1   -1    0    0  503    0 -0.00000000000E+00 -0.00000000000E+00 -0.67511474085E+03  0.67511474085E+03  0.00000000000E+00 0.  1.
         25    2    1    2    0    0 -0.10443672206E+02 -0.31777563571E+02 -0.65209064244E+02  0.14490109008E+03  0.12500088004E+03 0.  0.
          5    1    3    3  501    0  0.51018832260E+02  0.13833458877E+02 -0.26501168679E+02  0.59132121314E+02  0.10000000000E+00 0. -1.
         -5    1    3    3    0  501 -0.61462504466E+02 -0.45611022448E+02 -0.38707895565E+02  0.85768968765E+02  0.10000000000E+00 0. -1.
          1    1    1    2  502    0  0.10443672206E+02  0.31777563571E+02 -0.56956897652E+03  0.57055035085E+03  0.00000000000E+00 0.  1.
<mgrwt>
<rscale>  1 0.12939901E+03</rscale>
<asrwt>0</asrwt>
<pdfrwt beam="1">  1       21 0.62056466E-02 0.12939901E+03</pdfrwt>
<pdfrwt beam="2">  1        1 0.10386380E+00 0.12939901E+03</pdfrwt>
<totfact> 0.61484755E+04</totfact>
</mgrwt>
</event>
<event>
 6    2  0.1181843E-002  0.1880021E+03  0.7546771E-02  0.1160276E+00
         21   -1    0    0  502  503  0.00000000000E+00  0.00000000000E+00  0.30093629036E+02  0.30093629036E+02  0.00000000000E+00 0.  1.
          2   -1    0    0  503    0 -0.00000000000E+00 -0.00000000000E+00 -0.11375916292E+04  0.11375916292E+04  0.00000000000E+00 0.  1.
         25    2    1    2    0    0  0.13138059308E+03 -0.49592093350E+02 -0.35015970036E+03  0.39743754723E+03  0.12499820890E+03 0.  0.
          5    1    3    3  501    0  0.13491829034E+03 -0.51172087992E+02 -0.19681785433E+03  0.24404672799E+03  0.10000000000E+00 0.  1.
         -5    1    3    3    0  501 -0.35376972518E+01  0.15799946425E+01 -0.15334184602E+03  0.15339081924E+03  0.10000000000E+00 0.  1.
          2    1    1    2  502    0 -0.13138059308E+03  0.49592093350E+02 -0.75733829979E+03  0.77024771099E+03  0.00000000000E+00 0.  1.
<mgrwt>
<rscale>  1 0.18800210E+03</rscale>
<asrwt>0</asrwt>
<pdfrwt beam="1">  1       21 0.46297893E-02 0.18800210E+03</pdfrwt>
<pdfrwt beam="2">  1        2 0.17501409E+00 0.18800210E+03</pdfrwt>
<totfact> 0.84913059E+04</totfact>
</mgrwt>
</event>
<event>
 6    2  0.1181843E-002  0.1318527E+03  0.7546771E-02  0.1224732E+00
          2   -1    0    0  503    0 -0.00000000000E+00  0.00000000000E+00  0.21534149508E+04  0.21534149508E+04  0.00000000000E+00 0. -1.
         21   -1    0    0  502  503  0.00000000000E+00 -0.00000000000E+00 -0.57210791231E+01  0.57210791231E+01  0.00000000000E+00 0.  1.
         25    2    1    2    0    0  0.31013080294E+02  0.28265620870E+02  0.80029969982E+03  0.81108862318E+03  0.12499755457E+03 0.  0.
          5    1    3    3  501    0 -0.39984817599E+02  0.43661667441E+02  0.36036983992E+03  0.36520070970E+03  0.10000000000E+00 0.  1.
         -5    1    3    3    0  501  0.70997897892E+02 -0.15396046571E+02  0.43992985990E+03  0.44588791348E+03  0.10000000000E+00 0.  1.
          2    1    1    2  502    0 -0.31013080294E+02 -0.28265620870E+02  0.13473941718E+04  0.13480474067E+04  0.00000000000E+00 0. -1.
<mgrwt>
<rscale>  1 0.13185274E+03</rscale>
<asrwt>0</asrwt>
<pdfrwt beam="1">  1       21 0.88016773E-03 0.13185274E+03</pdfrwt>
<pdfrwt beam="2">  1        2 0.33129396E+00 0.13185274E+03</pdfrwt>
<totfact> 0.36790803E+05</totfact>
</mgrwt>
</event>
<event>
 6    2  0.1181843E-002  0.1499232E+03  0.7546771E-02  0.1200567E+00
         21   -1    0    0  502  503  0.00000000000E+00  0.00000000000E+00  0.87189693279E+01  0.87189693279E+01  0.00000000000E+00 0.  1.
          2   -1    0    0  503    0 -0.00000000000E+00 -0.00000000000E+00 -0.18519942196E+04  0.18519942196E+04  0.00000000000E+00 0.  1.
         25    2    1    2    0    0  0.76168898671E+02 -0.32391404689E+02 -0.15054168032E+04  0.15128637467E+04  0.12500424154E+03 0.  0.
          5    1    3    3  501    0  0.95366362534E+01  0.40905252451E+02 -0.24623430167E+03  0.24979096946E+03  0.10000000000E+00 0.  1.
         -5    1    3    3    0  501  0.66632262417E+02 -0.73296657139E+02 -0.12591825015E+04  0.12630727772E+04  0.10000000000E+00 0.  1.
          2    1    1    2  502    0 -0.76168898671E+02  0.32391404689E+02 -0.33785844706E+03  0.34784944225E+03  0.00000000000E+00 0.  1.
<mgrwt>
<rscale>  1 0.14992320E+03</rscale>
<asrwt>0</asrwt>
<pdfrwt beam="1">  1       21 0.13413775E-02 0.14992320E+03</pdfrwt>
<pdfrwt beam="2">  1        2 0.28492270E+00 0.14992320E+03</pdfrwt>
<totfact> 0.26991321E+05</totfact>
</mgrwt>
</event>
<event>
 6    2  0.1181843E-002  0.1289116E+03  0.7546771E-02  0.1229080E+00
          4   -1    0    0  503    0 -0.00000000000E+00  0.00000000000E+00  0.13409211829E+03  0.13409211829E+03  0.00000000000E+00 0.  1.
         21   -1    0    0  502  503  0.00000000000E+00 -0.00000000000E+00 -0.11290900524E+03  0.11290900524E+03  0.00000000000E+00 0.  1.
         25    2    1    2    0    0 -0.65421831091E+01 -0.30846497724E+02 -0.72676186928E+02  0.14798660553E+03  0.12499560267E+03 0.  0.
          5    1    3    3  501    0  0.56870222788E+01 -0.99119821323E+01  0.35413188656E+02  0.37211470583E+02  0.10000000000E+00 0. -1.
         -5    1    3    3    0  501 -0.12229205388E+02 -0.20934515591E+02 -0.10808937558E+03  0.11077513494E+03  0.10000000000E+00 0. -1.
          4    1    1    2  502    0  0.65421831091E+01  0.30846497724E+02  0.93859299987E+02  0.99014518004E+02  0.00000000000E+00 0.  1.
<mgrwt>
<rscale>  1 0.12891163E+03</rscale>
<asrwt>0</asrwt>
<pdfrwt beam="1">  1       21 0.17370616E-01 0.12891163E+03</pdfrwt>
<pdfrwt beam="2">  1        4 0.20629557E-01 0.12891163E+03</pdfrwt>
<totfact> 0.25894835E+04</totfact>
</mgrwt>
</event>
<event>
 6    2  0.1181843E-002  0.1280104E+03  0.7546771E-02  0.1230438E+00
          2   -1    0    0  503    0 -0.00000000000E+00  0.00000000000E+00  0.48449067696E+03  0.48449067696E+03  0.00000000000E+00 0. -1.
         21   -1    0    0  502  503  0.00000000000E+00 -0.00000000000E+00 -0.27986581001E+02  0.27986581001E+02  0.00000000000E+00 0. -1.
         25    2    1    2    0    0  0.21817332323E+02 -0.16881320207E+02  0.12199190169E+03  0.17682955116E+03  0.12500276447E+03 0.  0.
          5    1    3    3  501    0  0.48199317150E+02 -0.26276831511E+02  0.13515986472E+03  0.14588298420E+03  0.10000000000E+00 0. -1.
         -5    1    3    3    0  501 -0.26381984827E+02  0.93955113047E+01 -0.13167963037E+02  0.30946566961E+02  0.10000000000E+00 0. -1.
          2    1    1    2  502    0 -0.21817332323E+02  0.16881320207E+02  0.33451219427E+03  0.33564770680E+03  0.00000000000E+00 0. -1.
<mgrwt>
<rscale>  1 0.12801041E+03</rscale>
<asrwt>0</asrwt>
<pdfrwt beam="1">  1       21 0.43056282E-02 0.12801041E+03</pdfrwt>
<pdfrwt beam="2">  1        2 0.74537021E-01 0.12801041E+03</pdfrwt>
<totfact> 0.27468398E+05</totfact>
</mgrwt>
</event>
<event>
 6    2  0.1181843E-002  0.1360989E+03  0.7546771E-02  0.1218677E+00
         21   -1    0    0  502  503  0.00000000000E+00  0.00000000000E+00  0.22362556064E+01  0.22362556064E+01  0.00000000000E+00 0. -1.
          2   -1    0    0  503    0 -0.00000000000E+00 -0.00000000000E+00 -0.40577133917E+04  0.40577133917E+04  0.00000000000E+00 0. -1.
         25    2    1    2    0    0 -0.53435526539E+02  0.65071886579E+01 -0.27570633414E+04  0.27604204706E+04  0.12500082687E+03 0.  0.
          5    1    3    3  501    0 -0.38559328309E+02  0.59801379020E+02 -0.20335255412E+04  0.20347700517E+04  0.10000000000E+00 0. -1.
         -5    1    3    3    0  501 -0.14876198229E+02 -0.53294190362E+02 -0.72353780026E+03  0.72565041887E+03  0.10000000000E+00 0. -1.
          2    1    1    2  502    0  0.53435526539E+02 -0.65071886579E+01 -0.12984137946E+04  0.12995291767E+04  0.00000000000E+00 0. -1.
<mgrwt>
<rscale>  1 0.13609888E+03</rscale>
<asrwt>0</asrwt>
<pdfrwt beam="1">  1       21 0.34403715E-03 0.13609888E+03</pdfrwt>
<pdfrwt beam="2">  1        2 0.62426755E+00 0.13609888E+03</pdfrwt>
<totfact> 0.11040919E+05</totfact>
</mgrwt>
</event>
<event>
 6    2  0.1181843E-002  0.1410909E+03  0.7546771E-02  0.1211869E+00
         21   -1    0    0  502  503  0.00000000000E+00  0.00000000000E+00  0.63825583880E+03  0.63825583880E+03  0.00000000000E+00 0.  1.
          1   -1    0    0  503    0 -0.00000000000E+00 -0.00000000000E+00 -0.21820402061E+02  0.21820402061E+02  0.00000000000E+00 0. -1.
         25    2    1    2    0    0  0.65156061019E+02  0.59775678694E+01  0.54602099662E+03  0.56395529111E+03  0.12500239201E+03 0.  0.
          5    1    3    3  501    0  0.89504937085E+02 -0.26905600568E+01  0.22903731438E+03  0.24591965000E+03  0.10000000000E+00 0.  1.
         -5    1    3    3    0  501 -0.24348876066E+02  0.86681279262E+01  0.31698368224E+03  0.31803564111E+03  0.10000000000E+00 0.  1.
          1    1    1    2  502    0 -0.65156061019E+02 -0.59775678694E+01  0.70414440115E+02  0.96120949755E+02  0.00000000000E+00 0. -1.
<mgrwt>
<rscale>  1 0.14109090E+03</rscale>
<asrwt>0</asrwt>
<pdfrwt beam="1">  1       21 0.98193192E-01 0.14109090E+03</pdfrwt>
<pdfrwt beam="2">  1        1 0.33569854E-02 0.14109090E+03</pdfrwt>
<totfact> 0.26132132E+04</totfact>
</mgrwt>
</event>
<event>
 6    2  0.1181843E-002  0.1401019E+03  0.7546771E-02  0.1213192E+00
          2   -1    0    0  503    0 -0.00000000000E+00  0.00000000000E+00  0.12721071877E+03  0.12721071877E+03  0.00000000000E+00 0. -1.
         21   -1    0    0  502  503  0.00000000000E+00 -0.00000000000E+00 -0.15128249590E+03  0.15128249590E+03  0.00000000000E+00 0. -1.
         25    2    1    2    0    0 -0.40789107891E+02  0.48368775025E+02  0.76535538837E+02  0.15964405924E+03  0.12500098889E+03 0.  0.
          5    1    3    3  501    0 -0.69752308636E+02  0.49298717776E+02  0.93034553515E+02  0.12629800585E+03  0.10000000000E+00 0.  1.
         -5    1    3    3    0  501  0.28963200745E+02 -0.92994275049E+00 -0.16499014679E+02  0.33346053384E+02  0.10000000000E+00 0.  1.
          2    1    1    2  502    0  0.40789107891E+02 -0.48368775025E+02 -0.10060731597E+03  0.11884915543E+03  0.00000000000E+00 0. -1.
<mgrwt>
<rscale>  1 0.14010188E+03</rscale>
<asrwt>0</asrwt>
<pdfrwt beam="1">  1       21 0.23274230E-01 0.14010188E+03</pdfrwt>
<pdfrwt beam="2">  1        2 0.19570880E-01 0.14010188E+03</pdfrwt>
<totfact> 0.60149989E+04</totfact>
</mgrwt>
</event>
<event>
 6    2  0.1181843E-002  0.1280069E+03  0.7546771E-02  0.1230443E+00
          2   -1    0    0  503    0 -0.00000000000E+00  0.00000000000E+00  0.19873646862E+04  0.19873646862E+04  0.00000000000E+00 0.  1.
         21   -1    0    0  502  503  0.00000000000E+00 -0.00000000000E+00 -0.96605949373E+02  0.96605949373E+02  0.00000000000E+00 0.  1.
         25    2    1    2    0    0  0.19684314418E+02  0.19303903888E+02 -0.54061672940E+02  0.13895481580E+03  0.12500265362E+03 0.  0.
          5    1    3    3  501    0 -0.22211911208E+02 -0.27173327308E+02 -0.66466534848E+02  0.75163614676E+02  0.10000000000E+00 0. -1.
         -5    1    3    3    0  501  0.41896225627E+02  0.46477231196E+02  0.12404861908E+02  0.63791201120E+02  0.10000000000E+00 0. -1.
          2    1    1    2  502    0 -0.19684314418E+02 -0.19303903888E+02  0.19448204098E+04  0.19450158198E+04  0.00000000000E+00 0.  1.
<mgrwt>
<rscale>  1 0.12800694E+03</rscale>
<asrwt>0</asrwt>
<pdfrwt beam="1">  1       21 0.14862455E-01 0.12800694E+03</pdfrwt>
<pdfrwt beam="2">  1        2 0.30574838E+00 0.12800694E+03</pdfrwt>
<totfact> 0.40617787E+03</totfact>
</mgrwt>
</event>
<event>
 6    2  0.1181843E-002  0.1383219E+03  0.7546771E-02  0.1215605E+00
          1   -1    0    0  503    0 -0.00000000000E+00  0.00000000000E+00  0.37215682550E+03  0.37215682550E+03  0.00000000000E+00 0. -1.
         21   -1    0    0  502  503  0.00000000000E+00 -0.00000000000E+00 -0.27270515193E+02  0.27270515193E+02  0.00000000000E+00 0. -1.
         25    2    1    2    0    0  0.34474059564E+02  0.48156315090E+02  0.27495363894E+03  0.30778635647E+03  0.12500178476E+03 0.  0.
          5    1    3    3  501    0  0.54658807541E+02  0.75419543852E+02  0.13659307926E+03  0.16532807426E+03  0.10000000000E+00 0. -1.
         -5    1    3    3    0  501 -0.20184747977E+02 -0.27263228761E+02  0.13836055969E+03  0.14245828221E+03  0.10000000000E+00 0. -1.
          1    1    1    2  502    0 -0.34474059564E+02 -0.48156315090E+02  0.69932671364E+02  0.91640984227E+02  0.00000000000E+00 0. -1.
<mgrwt>
<rscale>  1 0.13832186E+03</rscale>
<asrwt>0</asrwt>
<pdfrwt beam="1">  1       21 0.41954641E-02 0.13832186E+03</pdfrwt>
<pdfrwt beam="2">  1        1 0.57254893E-01 0.13832186E+03</pdfrwt>
<totfact> 0.26024681E+05</totfact>
</mgrwt>
</event>
<event>
 6    2  0.1181843E-002  0.1291017E+03  0.7546771E-02  0.1228795E+00
         21   -1    0    0  502  503  0.00000000000E+00  0.00000000000E+00  0.19679644479E+04  0.19679644479E+04  0.00000000000E+00 0. -1.
          4   -1    0    0  503    0 -0.00000000000E+00 -0.00000000000E+00 -0.38873583607E+01  0.38873583607E+01  0.00000000000E+00 0. -1.
         25    2    1    2    0    0  0.64546020044E+01  0.31622696877E+02  0.18004113497E+04  0.18050341476E+04  0.12500235605E+03 0.  0.
          5    1    3    3  501    0  0.22153453594E+02 -0.13122557321E+02  0.15475919526E+04  0.15478061373E+04  0.10000000000E+00 0. -1.
         -5    1    3    3    0  501 -0.15698851590E+02  0.44745254198E+02  0.25281939718E+03  0.25722801035E+03  0.10000000000E+00 0. -1.
          4    1    1    2  502    0 -0.64546020044E+01 -0.31622696877E+02  0.16366573982E+03  0.16681765864E+03  0.00000000000E+00 0. -1.
<mgrwt>
<rscale>  1 0.12910169E+03</rscale>
<asrwt>0</asrwt>
<pdfrwt beam="1">  1       21 0.30276297E+00 0.12910169E+03</pdfrwt>
<pdfrwt beam="2">  1        4 0.59805670E-03 0.12910169E+03</pdfrwt>
<totfact> 0.90034734E+03</totfact>
</mgrwt>
</event>
<event>
 6    2  0.1181843E-002  0.1270890E+03  0.7546771E-02  0.1231840E+00
          2   -1    0    0  503    0 -0.00000000000E+00  0.00000000000E+00  0.71434163739E+03  0.71434163739E+03  0.00000000000E+00 0. -1.
         21   -1    0    0  502  503  0.00000000000E+00 -0.00000000000E+00 -0.46539913350E+03  0.46539913350E+03  0.00000000000E+00 0.  1.
         25    2    1    2    0    0  0.14972786677E+02 -0.17398252848E+02 -0.45653277792E+03  0.47389216334E+03  0.12499888647E+03 0.  0.
          5    1    3    3  501    0  0.15594565688E+02  0.46405939577E+02 -0.31313695581E+03  0.31694079069E+03  0.10000000000E+00 0.  1.
         -5    1    3    3    0  501 -0.62177901130E+00 -0.63804192424E+02 -0.14339582211E+03  0.15695137265E+03  0.10000000000E+00 0.  1.
          2    1    1    2  502    0 -0.14972786677E+02  0.17398252848E+02  0.70547528180E+03  0.70584860755E+03  0.00000000000E+00 0. -1.
<mgrwt>
<rscale>  1 0.12708897E+03</rscale>
<asrwt>0</asrwt>
<pdfrwt beam="1">  1       21 0.71599867E-01 0.12708897E+03</pdfrwt>
<pdfrwt beam="2">  1        2 0.10989871E+00 0.12708897E+03</pdfrwt>
<totfact> 0.95132131E+02</totfact>
</mgrwt>
</event>
<event>
 6    2  0.1181843E-002  0.1325481E+03  0.7546771E-02  0.1223723E+00
          2   -1    0    0  503    0 -0.00000000000E+00  0.00000000000E+00  0.55331879686E+02  0.55331879686E+02  0.00000000000E+00 0.  1.
         21   -1    0    0  502  503  0.00000000000E+00 -0.00000000000E+00 -0.41282625963E+03  0.41282625963E+03  0.00000000000E+00 0.  1.
         25    2    1    2    0    0  0.11869268446E+02  0.42469076242E+02 -0.39094882254E+03  0.41280742388E+03  0.12499794159E+03 0.  0.
          5    1    3    3  501    0  0.60972699378E+02  0.22553802598E+02 -0.30488755930E+03  0.31174152418E+03  0.10000000000E+00 0.  1.
         -5    1    3    3    0  501 -0.49103430932E+02  0.19915273643E+02 -0.86061263233E+02  0.10106589970E+03  0.10000000000E+00 0.  1.
          2    1    1    2  502    0 -0.11869268446E+02 -0.42469076242E+02  0.33454442588E+02  0.55350715435E+02  0.00000000000E+00 0.  1.
<mgrwt>
<rscale>  1 0.13254806E+03</rscale>
<asrwt>0</asrwt>
<pdfrwt beam="1">  1       21 0.63511735E-01 0.13254806E+03</pdfrwt>
<pdfrwt beam="2">  1        2 0.85125965E-02 0.13254806E+03</pdfrwt>
<totfact> 0.21804330E+04</totfact>
</mgrwt>
</event>
<event>
 6    2  0.1181843E-002  0.1262928E+03  0.7546771E-02  0.1233063E+00
          2   -1    0    0  503    0 -0.00000000000E+00  0.00000000000E+00  0.38610089067E+03  0.38610089067E+03  0.00000000000E+00 0.  1.
         21   -1    0    0  502  503  0.00000000000E+00 -0.00000000000E+00 -0.20414429830E+02  0.20414429830E+02  0.00000000000E+00 0. -1.
         25    2    1    2    0    0  0.15773940763E+02 -0.83313466982E+01  0.17950385560E+03  0.21948005367E+03  0.12502652214E+03 0.  0.
          5    1    3    3  501    0  0.36429832892E+02  0.88971719756E+01  0.18766195741E+03  0.19137218359E+03  0.10000000000E+00 0. -1.
         -5    1    3    3    0  501 -0.20655892129E+02 -0.17228518674E+02 -0.81581018058E+01  0.28107870080E+02  0.10000000000E+00 0. -1.
          2    1    1    2  502    0 -0.15773940763E+02  0.83313466982E+01  0.18618260523E+03  0.18703526683E+03  0.00000000000E+00 0.  1.
<mgrwt>
<rscale>  1 0.12629275E+03</rscale>
<asrwt>0</asrwt>
<pdfrwt beam="1">  1       21 0.31406818E-02 0.12629275E+03</pdfrwt>
<pdfrwt beam="2">  1        2 0.59400132E-01 0.12629275E+03</pdfrwt>
<totfact> 0.59033311E+05</totfact>
</mgrwt>
</event>
<event>
 6    2  0.1181843E-002  0.1389436E+03  0.7546771E-02  0.1214757E+00
         21   -1    0    0  502  503  0.00000000000E+00  0.00000000000E+00  0.17825978710E+02  0.17825978710E+02  0.00000000000E+00 0.  1.
          2   -1    0    0  503    0 -0.00000000000E+00 -0.00000000000E+00 -0.22656835537E+04  0.22656835537E+04  0.00000000000E+00 0.  1.
         25    2    1    2    0    0 -0.33308996812E+02  0.50714536401E+02 -0.26060438289E+03  0.29533028924E+03  0.12499552748E+03 0.  0.
          5    1    3    3  501    0 -0.29122102210E+02  0.75482724791E+02 -0.25762989231E+03  0.27003501623E+03  0.10000000000E+00 0.  1.
         -5    1    3    3    0  501 -0.41868946025E+01 -0.24768188390E+02 -0.29744905848E+01  0.25295273012E+02  0.10000000000E+00 0.  1.
          2    1    1    2  502    0  0.33308996812E+02 -0.50714536401E+02 -0.19872531921E+04  0.19881792432E+04  0.00000000000E+00 0.  1.
<mgrwt>
<rscale>  1 0.13894364E+03</rscale>
<asrwt>0</asrwt>
<pdfrwt beam="1">  1       21 0.27424575E-02 0.13894364E+03</pdfrwt>
<pdfrwt beam="2">  1        2 0.34856680E+00 0.13894364E+03</pdfrwt>
<totfact> 0.52091275E+04</totfact>
</mgrwt>
</event>
<event>
 6    2  0.1181843E-002  0.1284899E+03  0.7546771E-02  0.1229714E+00
          3   -1    0    0  503    0 -0.00000000000E+00  0.00000000000E+00  0.31715052573E+03  0.31715052573E+03  0.00000000000E+00 0. -1.
         21   -1    0    0  502  503  0.00000000000E+00 -0.00000000000E+00 -0.54795593645E+02  0.54795593645E+02  0.00000000000E+00 0. -1.
         25    2    1    2    0    0  0.19578552387E+02  0.22402363175E+02  0.22734425297E+02  0.13048561978E+03  0.12499782913E+03 0.  0.
          5    1    3    3  501    0 -0.23011648705E+02  0.63048549570E+02 -0.69842339591E+00  0.67120439318E+02  0.10000000000E+00 0. -1.
         -5    1    3    3    0  501  0.42590201092E+02 -0.40646186395E+02  0.23432848693E+02  0.63365180465E+02  0.10000000000E+00 0. -1.
          3    1    1    2  502    0 -0.19578552387E+02 -0.22402363175E+02  0.23962050679E+03  0.24146049959E+03  0.00000000000E+00 0. -1.
<mgrwt>
<rscale>  1 0.12848986E+03</rscale>
<asrwt>0</asrwt>
<pdfrwt beam="1">  1       21 0.84300915E-02 0.12848986E+03</pdfrwt>
<pdfrwt beam="2">  1        3 0.48792388E-01 0.12848986E+03</pdfrwt>
<totfact> 0.22060253E+04</totfact>
</mgrwt>
</event>
<event>
 6    2  0.1181843E-002  0.1260066E+03  0.7546771E-02  0.1233505E+00
         21   -1    0    0  502  503  0.00000000000E+00  0.00000000000E+00  0.45853573990E+02  0.45853573990E+02  0.00000000000E+00 0.  1.
          2   -1    0    0  503    0 -0.00000000000E+00 -0.00000000000E+00 -0.17892135015E+03  0.17892135015E+03  0.00000000000E+00 0.  1.
         25    2    1    2    0    0 -0.87094033657E+01  0.13319164459E+02 -0.42742621980E+02  0.13305858248E+03  0.12499760314E+03 0.  0.
          5    1    3    3  501    0  0.30047191898E+02 -0.45919993455E+02 -0.13844861708E+02  0.56596552329E+02  0.10000000000E+00 0.  1.
         -5    1    3    3    0  501 -0.38756595263E+02  0.59239157914E+02 -0.28897760272E+02  0.76462030156E+02  0.10000000000E+00 0.  1.
          2    1    1    2  502    0  0.87094033657E+01 -0.13319164459E+02 -0.90325154183E+02  0.91716341658E+02  0.00000000000E+00 0.  1.
<mgrwt>
<rscale>  1 0.12600657E+03</rscale>
<asrwt>0</asrwt>
<pdfrwt beam="1">  1       21 0.70543962E-02 0.12600657E+03</pdfrwt>
<pdfrwt beam="2">  1        2 0.27526361E-01 0.12600657E+03</pdfrwt>
<totfact> 0.34559312E+05</totfact>
</mgrwt>
</event>
<event>
 6    2  0.1181843E-002  0.1264740E+03  0.7546771E-02  0.1232783E+00
          3   -1    0    0  503    0 -0.00000000000E+00  0.00000000000E+00  0.41965515611E+03  0.41965515611E+03  0.00000000000E+00 0.  1.
         21   -1    0    0  502  503  0.00000000000E+00 -0.00000000000E+00 -0.63673622524E+02  0.63673622524E+02  0.00000000000E+00 0.  1.
         25    2    1    2    0    0  0.19350159573E+02 -0.36534885493E+00 -0.34756301596E+00  0.12647448450E+03  0.12498444813E+03 0.  0.
          5    1    3    3  501    0  0.41390760329E+02  0.53247202578E+02  0.79805732256E+01  0.67912879279E+02  0.10000000000E+00 0. -1.
         -5    1    3    3    0  501 -0.22040600756E+02 -0.53612551433E+02 -0.83281362416E+01  0.58561605222E+02  0.10000000000E+00 0. -1.
          3    1    1    2  502    0 -0.19350159573E+02  0.36534885493E+00  0.35632909660E+03  0.35685429413E+03  0.00000000000E+00 0.  1.
<mgrwt>
<rscale>  1 0.12647401E+03</rscale>
<asrwt>0</asrwt>
<pdfrwt beam="1">  1       21 0.97959422E-02 0.12647401E+03</pdfrwt>
<pdfrwt beam="2">  1        3 0.64562330E-01 0.12647401E+03</pdfrwt>
<totfact> 0.96093619E+03</totfact>
</mgrwt>
</event>
<event>
 6    2  0.1181843E-002  0.1948674E+03  0.7546771E-02  0.1154143E+00
         21   -1    0    0  502  503  0.00000000000E+00  0.00000000000E+00  0.16252879320E+02  0.16252879320E+02  0.00000000000E+00 0. -1.
          4   -1    0    0  503    0 -0.00000000000E+00 -0.00000000000E+00 -0.18286090814E+04  0.18286090814E+04  0.00000000000E+00 0. -1.
         25    2    1    2    0    0 -0.69848839877E+02  0.13217254308E+03 -0.97966046283E+03  0.99885331080E+03  0.12499948994E+03 0.  0.
          5    1    3    3  501    0 -0.22701276202E+02  0.11780712922E+03 -0.87478187825E+03  0.88297067457E+03  0.10000000000E+00 0. -1.
         -5    1    3    3    0  501 -0.47147563675E+02  0.14365413860E+02 -0.10487858458E+03  0.11588263623E+03  0.10000000000E+00 0. -1.
          4    1    1    2  502    0  0.69848839877E+02 -0.13217254308E+03 -0.83269573923E+03  0.84600864990E+03  0.00000000000E+00 0. -1.
<mgrwt>
<rscale>  1 0.19486743E+03</rscale>
<asrwt>0</asrwt>
<pdfrwt beam="1">  1       21 0.25004427E-02 0.19486743E+03</pdfrwt>
<pdfrwt beam="2">  1        4 0.28132450E+00 0.19486743E+03</pdfrwt>
<totfact> 0.17123319E+03</totfact>
</mgrwt>
</event>
<event>
 6    2  0.1181843E-002  0.1370389E+03  0.7546771E-02  0.1217370E+00
          1   -1    0    0  503    0 -0.00000000000E+00  0.00000000000E+00  0.51255303074E+03  0.51255303074E+03  0.00000000000E+00 0.  1.
         21   -1    0    0  502  503  0.00000000000E+00 -0.00000000000E+00 -0.34011168072E+02  0.34011168072E+02  0.00000000000E+00 0.  1.
         25    2    1    2    0    0  0.22482334730E+02  0.51460789382E+02  0.11554552246E+03  0.17924960446E+03  0.12500393882E+03 0.  0.
          5    1    3    3  501    0  0.53680283947E+02  0.78115631904E+02  0.91217992912E+02  0.13154602641E+03  0.10000000000E+00 0. -1.
         -5    1    3    3    0  501 -0.31197949217E+02 -0.26654842523E+02  0.24327529546E+02  0.47703578053E+02  0.10000000000E+00 0. -1.
          1    1    1    2  502    0 -0.22482334730E+02 -0.51460789382E+02  0.36299634021E+03  0.36731459435E+03  0.00000000000E+00 0.  1.
<mgrwt>
<rscale>  1 0.13703887E+03</rscale>
<asrwt>0</asrwt>
<pdfrwt beam="1">  1       21 0.52324878E-02 0.13703887E+03</pdfrwt>
<pdfrwt beam="2">  1        1 0.78854307E-01 0.13703887E+03</pdfrwt>
<totfact> 0.11933691E+05</totfact>
</mgrwt>
</event>
<event>
 6    2  0.1181843E-002  0.1837582E+03  0.7546771E-02  0.1164215E+00
         21   -1    0    0  502  503  0.00000000000E+00  0.00000000000E+00  0.21327598250E+03  0.21327598250E+03  0.00000000000E+00 0. -1.
          1   -1    0    0  503    0 -0.00000000000E+00 -0.00000000000E+00 -0.12916787640E+03  0.12916787640E+03  0.00000000000E+00 0. -1.
         25    2    1    2    0    0 -0.13466554911E+03 -0.27696011283E+01  0.95822419549E+02  0.20724139610E+03  0.12499831743E+03 0.  0.
          5    1    3    3  501    0 -0.15690588299E+03  0.96584414802E+01  0.89868224906E+02  0.18107746811E+03  0.10000000000E+00 0. -1.
         -5    1    3    3    0  501  0.22240333877E+02 -0.12428042609E+02  0.59541946433E+01  0.26163927990E+02  0.10000000000E+00 0. -1.
          1    1    1    2  502    0  0.13466554911E+03  0.27696011283E+01 -0.11714313451E+02  0.13520246280E+03  0.00000000000E+00 0. -1.
<mgrwt>
<rscale>  1 0.18375816E+03</rscale>
<asrwt>0</asrwt>
<pdfrwt beam="1">  1       21 0.32811690E-01 0.18375816E+03</pdfrwt>
<pdfrwt beam="2">  1        1 0.19871981E-01 0.18375816E+03</pdfrwt>
<totfact> 0.24779437E+04</totfact>
</mgrwt>
</event>
<event>
 6    2  0.1181843E-002  0.1388756E+03  0.7546771E-02  0.1214850E+00
          1   -1    0    0  503    0 -0.00000000000E+00  0.00000000000E+00  0.65069647589E+02  0.65069647589E+02  0.00000000000E+00 0. -1.
         21   -1    0    0  502  503  0.00000000000E+00 -0.00000000000E+00 -0.64931962083E+03  0.64931962083E+03  0.00000000000E+00 0. -1.
         25    2    1    2    0    0 -0.32491405906E+02 -0.51045108543E+02 -0.62577671324E+03  0.64100149901E+03  0.12500052935E+03 0.  0.
          5    1    3    3  501    0  0.46120379688E+02 -0.32672532064E+02 -0.30711335564E+03  0.31227104730E+03  0.10000000000E+00 0. -1.
         -5    1    3    3    0  501 -0.78611785594E+02 -0.18372576479E+02 -0.31866335761E+03  0.32873045171E+03  0.10000000000E+00 0. -1.
          1    1    1    2  502    0  0.32491405906E+02  0.51045108543E+02  0.41526739998E+02  0.73387769409E+02  0.00000000000E+00 0. -1.
<mgrwt>
<rscale>  1 0.13887558E+03</rscale>
<asrwt>0</asrwt>
<pdfrwt beam="1">  1       21 0.99895320E-01 0.13887558E+03</pdfrwt>
<pdfrwt beam="2">  1        1 0.10010716E-01 0.13887558E+03</pdfrwt>
<totfact> 0.56890010E+03</totfact>
</mgrwt>
</event>
<event>
 6    2  0.1181843E-002  0.1335103E+03  0.7546771E-02  0.1222338E+00
          2   -1    0    0  503    0 -0.00000000000E+00  0.00000000000E+00  0.13825488203E+04  0.13825488203E+04  0.00000000000E+00 0. -1.
         21   -1    0    0  502  503  0.00000000000E+00 -0.00000000000E+00 -0.23371452284E+02  0.23371452284E+02  0.00000000000E+00 0. -1.
         25    2    1    2    0    0 -0.45807019819E+02  0.10060827883E+02  0.17161434746E+03  0.21743155530E+03  0.12500197464E+03 0.  0.
          5    1    3    3  501    0 -0.88733819896E+02  0.65139238932E+01  0.13006243131E+03  0.15758289259E+03  0.10000000000E+00 0.  1.
         -5    1    3    3    0  501  0.42926800077E+02  0.35469039898E+01  0.41551916149E+02  0.59848662712E+02  0.10000000000E+00 0.  1.
          2    1    1    2  502    0  0.45807019819E+02 -0.10060827883E+02  0.11875630206E+04  0.11884887173E+04  0.00000000000E+00 0. -1.
<mgrwt>
<rscale>  1 0.13351029E+03</rscale>
<asrwt>0</asrwt>
<pdfrwt beam="1">  1       21 0.35956091E-02 0.13351029E+03</pdfrwt>
<pdfrwt beam="2">  1        2 0.21269976E+00 0.13351029E+03</pdfrwt>
<totfact> 0.95234265E+04</totfact>
</mgrwt>
</event>
<event>
 6    2  0.1181843E-002  0.1314665E+03  0.7546771E-02  0.1225296E+00
         21   -1    0    0  502  503  0.00000000000E+00  0.00000000000E+00  0.20275661824E+02  0.20275661824E+02  0.00000000000E+00 0. -1.
          4   -1    0    0  503    0 -0.00000000000E+00 -0.00000000000E+00 -0.65411115818E+03  0.65411115818E+03  0.00000000000E+00 0. -1.
         25    2    1    2    0    0 -0.40447658659E+02  0.47308092798E+01 -0.20442353393E+03  0.24304817448E+03  0.12500016099E+03 0.  0.
          5    1    3    3  501    0 -0.57820521865E+02  0.52055989744E+02 -0.14925085874E+03  0.16831181673E+03  0.10000000000E+00 0. -1.
         -5    1    3    3    0  501  0.17372863207E+02 -0.47325180464E+02 -0.55172675188E+02  0.74736357748E+02  0.10000000000E+00 0. -1.
          4    1    1    2  502    0  0.40447658659E+02 -0.47308092798E+01 -0.42941196242E+03  0.43133864552E+03  0.00000000000E+00 0. -1.
<mgrwt>
<rscale>  1 0.13146647E+03</rscale>
<asrwt>0</asrwt>
<pdfrwt beam="1">  1       21 0.31193332E-02 0.13146647E+03</pdfrwt>
<pdfrwt beam="2">  1        4 0.10063247E+00 0.13146647E+03</pdfrwt>
<totfact> 0.20253798E+04</totfact>
</mgrwt>
</event>
<event>
 6    2  0.1181843E-002  0.1384421E+03  0.7546771E-02  0.1215441E+00
          1   -1    0    0  503    0 -0.00000000000E+00  0.00000000000E+00  0.14738724377E+04  0.14738724377E+04  0.00000000000E+00 0.  1.
         21   -1    0    0  502  503  0.00000000000E+00 -0.00000000000E+00 -0.13850038562E+03  0.13850038562E+03  0.00000000000E+00 0. -1.
         25    2    1    2    0    0  0.58094817376E+02  0.12946275441E+02 -0.10313462466E+03  0.17263532194E+03  0.12499435877E+03 0.  0.
          5    1    3    3  501    0  0.94064523369E+02  0.80219183825E+01 -0.97815259233E+02  0.13594234318E+03  0.10000000000E+00 0.  1.
         -5    1    3    3    0  501 -0.35969705993E+02  0.49243570581E+01 -0.53193654232E+01  0.36692978758E+02  0.10000000000E+00 0.  1.
          1    1    1    2  502    0 -0.58094817376E+02 -0.12946275441E+02  0.14385066768E+04  0.14397375014E+04  0.00000000000E+00 0.  1.
<mgrwt>
<rscale>  1 0.13844206E+03</rscale>
<asrwt>0</asrwt>
<pdfrwt beam="1">  1       21 0.21307753E-01 0.13844206E+03</pdfrwt>
<pdfrwt beam="2">  1        1 0.22674959E+00 0.13844206E+03</pdfrwt>
<totfact> 0.17931252E+03</totfact>
</mgrwt>
</event>
<event>
 6    2  0.1181843E-002  0.1538805E+03  0.7546771E-02  0.1195784E+00
         21   -1    0    0  502  503  0.00000000000E+00  0.00000000000E+00  0.27146944614E+02  0.27146944614E+02  0.00000000000E+00 0.  1.
          2   -1    0    0  503    0 -0.00000000000E+00 -0.00000000000E+00 -0.17403663589E+04  0.17403663589E+04  0.00000000000E+00 0. -1.
         25    2    1    2    0    0  0.34931573487E+02  0.82674362415E+02 -0.20350908575E+03  0.25513750990E+03  0.12499574372E+03 0.  0.
          5    1    3    3  501    0  0.69516446894E+01  0.10322032232E+03 -0.92324717108E+02  0.13866010130E+03  0.10000000000E+00 0. -1.
         -5    1    3    3    0  501  0.27979928798E+02 -0.20545959901E+02 -0.11118436864E+03  0.11647740860E+03  0.10000000000E+00 0. -1.
          2    1    1    2  502    0 -0.34931573487E+02 -0.82674362415E+02 -0.15097103285E+04  0.15123757936E+04  0.00000000000E+00 0. -1.
<mgrwt>
<rscale>  1 0.15388048E+03</rscale>
<asrwt>0</asrwt>
<pdfrwt beam="1">  1       21 0.41764526E-02 0.15388048E+03</pdfrwt>
<pdfrwt beam="2">  1        2 0.26774870E+00 0.15388048E+03</pdfrwt>
<totfact> 0.48274808E+04</totfact>
</mgrwt>
</event>
<event>
 6    2  0.1181843E-002  0.1359994E+03  0.7546771E-02  0.1218816E+00
         21   -1    0    0  502  503  0.00000000000E+00  0.00000000000E+00  0.29063340229E+03  0.29063340229E+03  0.00000000000E+00 0. -1.
          1   -1    0    0  503    0 -0.00000000000E+00 -0.00000000000E+00 -0.49043939807E+02  0.49043939807E+02  0.00000000000E+00 0.  1.
         25    2    1    2    0    0  0.52936960035E+02 -0.82444891037E+01  0.25081486713E+03  0.28531373819E+03  0.12500215314E+03 0.  0.
          5    1    3    3  501    0  0.91745786623E+02  0.53480367187E+01  0.14366879744E+03  0.17054801147E+03  0.10000000000E+00 0. -1.
         -5    1    3    3    0  501 -0.38808826587E+02 -0.13592525822E+02  0.10714606969E+03  0.11476572672E+03  0.10000000000E+00 0. -1.
          1    1    1    2  502    0 -0.52936960035E+02  0.82444891037E+01 -0.92254046496E+01  0.54363603903E+02  0.00000000000E+00 0.  1.
<mgrwt>
<rscale>  1 0.13599938E+03</rscale>
<asrwt>0</asrwt>
<pdfrwt beam="1">  1       21 0.44712830E-01 0.13599938E+03</pdfrwt>
<pdfrwt beam="2">  1        1 0.75452217E-02 0.13599938E+03</pdfrwt>
<totfact> 0.47633243E+04</totfact>
</mgrwt>
</event>
<event>
 6    2  0.1181843E-002  0.1268135E+03  0.7546771E-02  0.1232262E+00
         21   -1    0    0  502  503  0.00000000000E+00  0.00000000000E+00  0.12304912560E+02  0.12304912560E+02  0.00000000000E+00 0.  1.
          4   -1    0    0  503    0 -0.00000000000E+00 -0.00000000000E+00 -0.73194896290E+03  0.73194896290E+03  0.00000000000E+00 0. -1.
         25    2    1    2    0    0  0.19346250940E+02  0.91273924218E+01 -0.32254263095E+03  0.34657671494E+03  0.12499633531E+03 0.  0.
          5    1    3    3  501    0  0.21120058548E+02  0.28883213344E+02 -0.32466242242E+03  0.32662822202E+03  0.10000000000E+00 0. -1.
         -5    1    3    3    0  501 -0.17738076077E+01 -0.19755820922E+02  0.21197914763E+01  0.19948492917E+02  0.10000000000E+00 0. -1.
          4    1    1    2  502    0 -0.19346250940E+02 -0.91273924218E+01 -0.39710141939E+03  0.39767716052E+03  0.00000000000E+00 0. -1.
<mgrwt>
<rscale>  1 0.12681353E+03</rscale>
<asrwt>0</asrwt>
<pdfrwt beam="1">  1       21 0.18930634E-02 0.12681353E+03</pdfrwt>
<pdfrwt beam="2">  1        4 0.11260754E+00 0.12681353E+03</pdfrwt>
<totfact> 0.34914292E+04</totfact>
</mgrwt>
</event>
<event>
 6    2  0.1181843E-002  0.2024277E+03  0.7546771E-02  0.1147707E+00
          1   -1    0    0  503    0 -0.00000000000E+00  0.00000000000E+00  0.29634438990E+03  0.29634438990E+03  0.00000000000E+00 0.  1.
         21   -1    0    0  502  503  0.00000000000E+00 -0.00000000000E+00 -0.27175325013E+03  0.27175325013E+03  0.00000000000E+00 0. -1.
         25    2    1    2    0    0  0.15920927703E+03  0.20965283348E+01 -0.20538954657E+03  0.28837794924E+03  0.12499994578E+03 0.  0.
          5    1    3    3  501    0  0.63254726076E+02  0.11070438202E+02 -0.30841393220E+01  0.64290255003E+02  0.10000000000E+00 0.  1.
         -5    1    3    3    0  501  0.95954550955E+02 -0.89739098673E+01 -0.20230540725E+03  0.22408769424E+03  0.10000000000E+00 0.  1.
          1    1    1    2  502    0 -0.15920927703E+03 -0.20965283348E+01  0.22998068635E+03  0.27971969079E+03  0.00000000000E+00 0.  1.
<mgrwt>
<rscale>  1 0.20242771E+03</rscale>
<asrwt>0</asrwt>
<pdfrwt beam="1">  1       21 0.41808192E-01 0.20242771E+03</pdfrwt>
<pdfrwt beam="2">  1        1 0.45591445E-01 0.20242771E+03</pdfrwt>
<totfact> 0.53416184E+03</totfact>
</mgrwt>
</event>
<event>
 6    2  0.1181843E-002  0.1301242E+03  0.7546771E-02  0.1227272E+00
         21   -1    0    0  502  503  0.00000000000E+00  0.00000000000E+00  0.56464059358E+02  0.56464059358E+02  0.00000000000E+00 0. -1.
          2   -1    0    0  503    0 -0.00000000000E+00 -0.00000000000E+00 -0.19934492738E+03  0.19934492738E+03  0.00000000000E+00 0. -1.
         25    2    1    2    0    0  0.19374534042E+02 -0.30530749070E+02 -0.24996159703E+02  0.13250325425E+03  0.12499922072E+03 0.  0.
          5    1    3    3  501    0 -0.38318099434E+02  0.16637354698E+02 -0.38452798922E+02  0.56777689813E+02  0.10000000000E+00 0. -1.
         -5    1    3    3    0  501  0.57692633476E+02 -0.47168103769E+02  0.13456639220E+02  0.75725564439E+02  0.10000000000E+00 0. -1.
          2    1    1    2  502    0 -0.19374534042E+02  0.30530749070E+02 -0.11788470832E+03  0.12330573248E+03  0.00000000000E+00 0. -1.
<mgrwt>
<rscale>  1 0.13012419E+03</rscale>
<asrwt>0</asrwt>
<pdfrwt beam="1">  1       21 0.86867783E-02 0.13012419E+03</pdfrwt>
<pdfrwt beam="2">  1        2 0.30668451E-01 0.13012419E+03</pdfrwt>
<totfact> 0.21523250E+05</totfact>
</mgrwt>
</event>
<event>
 6    2  0.1181843E-002  0.1270337E+03  0.7546771E-02  0.1231925E+00
          3   -1    0    0  503    0 -0.00000000000E+00  0.00000000000E+00  0.63850386883E+02  0.63850386883E+02  0.00000000000E+00 0.  1.
         21   -1    0    0  502  503  0.00000000000E+00 -0.00000000000E+00 -0.12624180438E+03  0.12624180438E+03  0.00000000000E+00 0. -1.
         25    2    1    2    0    0 -0.83111785658E+01 -0.21065378424E+02 -0.89032477549E+02  0.15512689507E+03  0.12499898262E+03 0.  0.
          5    1    3    3  501    0 -0.86539658086E+01 -0.64723636257E+02 -0.11726736143E+02  0.66344303110E+02  0.10000000000E+00 0.  1.
         -5    1    3    3    0  501  0.34278724276E+00  0.43658257832E+02 -0.77305741406E+02  0.88782591956E+02  0.10000000000E+00 0.  1.
          3    1    1    2  502    0  0.83111785658E+01  0.21065378424E+02  0.26641060054E+02  0.34965296196E+02  0.00000000000E+00 0.  1.
<mgrwt>
<rscale>  1 0.12703374E+03</rscale>
<asrwt>0</asrwt>
<pdfrwt beam="1">  1       21 0.19421816E-01 0.12703374E+03</pdfrwt>
<pdfrwt beam="2">  1        3 0.98231366E-02 0.12703374E+03</pdfrwt>
<totfact> 0.87660647E+04</totfact>
</mgrwt>
</event>
<event>
 6    2  0.1181843E-002  0.1849238E+03  0.7546771E-02  0.1163121E+00
          2   -1    0    0  503    0 -0.00000000000E+00  0.00000000000E+00  0.87191105330E+02  0.87191105330E+02  0.00000000000E+00 0.  1.
         21   -1    0    0  502  503  0.00000000000E+00 -0.00000000000E+00 -0.33725487207E+03  0.33725487207E+03  0.00000000000E+00 0.  1.
         25    2    1    2    0    0 -0.12414678631E+03 -0.56204176541E+02 -0.21528089412E+03  0.28380038650E+03  0.12500184796E+03 0.  0.
          5    1    3    3  501    0 -0.22014084342E+02  0.26690850876E+02 -0.38781248022E+01  0.34814814116E+02  0.10000000000E+00 0. -1.
         -5    1    3    3    0  501 -0.10213270197E+03 -0.82895027417E+02 -0.21140276932E+03  0.24898557239E+03  0.10000000000E+00 0. -1.
          2    1    1    2  502    0  0.12414678631E+03  0.56204176541E+02 -0.34782872622E+02  0.14064559090E+03  0.00000000000E+00 0.  1.
<mgrwt>
<rscale>  1 0.18492376E+03</rscale>
<asrwt>0</asrwt>
<pdfrwt beam="1">  1       21 0.51885365E-01 0.18492376E+03</pdfrwt>
<pdfrwt beam="2">  1        2 0.13414016E-01 0.18492376E+03</pdfrwt>
<totfact> 0.19128151E+04</totfact>
</mgrwt>
</event>
<event>
 6    2  0.1181843E-002  0.1275483E+03  0.7546771E-02  0.1231140E+00
         21   -1    0    0  502  503  0.00000000000E+00  0.00000000000E+00  0.45856048646E+01  0.45856048646E+01  0.00000000000E+00 0.  1.
          1   -1    0    0  503    0 -0.00000000000E+00 -0.00000000000E+00 -0.22017582148E+04  0.22017582148E+04  0.00000000000E+00 0.  1.
         25    2    1    2    0    0  0.13501521003E+02  0.21454982452E+02 -0.90723403493E+03  0.91615618423E+03  0.12500380965E+03 0.  0.
          5    1    3    3  501    0 -0.55422976134E+02  0.10510560834E+02 -0.34045802508E+03  0.34509977545E+03  0.10000000000E+00 0.  1.
         -5    1    3    3    0  501  0.68924497137E+02  0.10944421618E+02 -0.56677600985E+03  0.57105640878E+03  0.10000000000E+00 0.  1.
          1    1    1    2  502    0 -0.13501521003E+02 -0.21454982452E+02 -0.12899385750E+04  0.12901876354E+04  0.00000000000E+00 0.  1.
<mgrwt>
<rscale>  1 0.12754826E+03</rscale>
<asrwt>0</asrwt>
<pdfrwt beam="1">  1       21 0.70547913E-03 0.12754826E+03</pdfrwt>
<pdfrwt beam="2">  1        1 0.33873133E+00 0.12754826E+03</pdfrwt>
<totfact> 0.18683735E+05</totfact>
</mgrwt>
</event>
<event>
 6    2  0.1181843E-002  0.1575351E+03  0.7546771E-02  0.1191508E+00
         21   -1    0    0  502  503  0.00000000000E+00  0.00000000000E+00  0.13283286651E+03  0.13283286651E+03  0.00000000000E+00 0. -1.
          2   -1    0    0  503    0 -0.00000000000E+00 -0.00000000000E+00 -0.14689334951E+03  0.14689334951E+03  0.00000000000E+00 0. -1.
         25    2    1    2    0    0 -0.85399103406E+02  0.43583036856E+02 -0.65863214233E+02  0.17074910407E+03  0.12499922235E+03 0.  0.
          5    1    3    3  501    0 -0.30531974266E+02  0.69337565171E+02  0.68683419252E+01  0.76072882930E+02  0.10000000000E+00 0. -1.
         -5    1    3    3    0  501 -0.54867129140E+02 -0.25754528315E+02 -0.72731556158E+02  0.94676221144E+02  0.10000000000E+00 0. -1.
          2    1    1    2  502    0  0.85399103406E+02 -0.43583036856E+02  0.51802731235E+02  0.10897711194E+03  0.00000000000E+00 0. -1.
<mgrwt>
<rscale>  1 0.15753505E+03</rscale>
<asrwt>0</asrwt>
<pdfrwt beam="1">  1       21 0.20435826E-01 0.15753505E+03</pdfrwt>
<pdfrwt beam="2">  1        2 0.22598977E-01 0.15753505E+03</pdfrwt>
<totfact> 0.65399939E+04</totfact>
</mgrwt>
</event>
<event>
 6    2  0.1181843E-002  0.1312321E+03  0.7546771E-02  0.1225639E+00
          1   -1    0    0  503    0 -0.00000000000E+00  0.00000000000E+00  0.16353459810E+03  0.16353459810E+03  0.00000000000E+00 0.  1.
         21   -1    0    0  502  503  0.00000000000E+00 -0.00000000000E+00 -0.74385480405E+02  0.74385480405E+02  0.00000000000E+00 0. -1.
         25    2    1    2    0    0 -0.91081120911E+01 -0.38843922408E+02 -0.94327739185E+01  0.13157066681E+03  0.12502021887E+03 0.  0.
          5    1    3    3  501    0  0.40312055042E+01  0.17676064726E+02 -0.54922903800E+02  0.57837956774E+02  0.10000000000E+00 0.  1.
         -5    1    3    3    0  501 -0.13139317595E+02 -0.56519987134E+02  0.45490129881E+02  0.73732710035E+02  0.10000000000E+00 0.  1.
          1    1    1    2  502    0  0.91081120911E+01  0.38843922408E+02  0.98581891618E+02  0.10634941170E+03  0.00000000000E+00 0.  1.
<mgrwt>
<rscale>  1 0.13123210E+03</rscale>
<asrwt>0</asrwt>
<pdfrwt beam="1">  1       21 0.11443920E-01 0.13123210E+03</pdfrwt>
<pdfrwt beam="2">  1        1 0.25159169E-01 0.13123210E+03</pdfrwt>
<totfact> 0.12914620E+05</totfact>
</mgrwt>
</event>
<event>
 6    2  0.1181843E-002  0.1276550E+03  0.7546771E-02  0.1230977E+00
          1   -1    0    0  503    0 -0.00000000000E+00  0.00000000000E+00  0.33855045574E+03  0.33855045574E+03  0.00000000000E+00 0. -1.
         21   -1    0    0  502  503  0.00000000000E+00 -0.00000000000E+00 -0.60150385094E+02  0.60150385094E+02  0.00000000000E+00 0. -1.
         25    2    1    2    0    0 -0.21724841040E+02 -0.14129746914E+02  0.89078719606E+01  0.12796542827E+03  0.12499672869E+03 0.  0.
          5    1    3    3  501    0  0.38321553356E+02  0.29327975843E+02 -0.14238093669E+02  0.50313069177E+02  0.10000000000E+00 0.  1.
         -5    1    3    3    0  501 -0.60046394396E+02 -0.43457722757E+02  0.23145965630E+02  0.77652359089E+02  0.10000000000E+00 0.  1.
          1    1    1    2  502    0  0.21724841040E+02  0.14129746914E+02  0.26949219869E+03  0.27073541257E+03  0.00000000000E+00 0. -1.
<mgrwt>
<rscale>  1 0.12765501E+03</rscale>
<asrwt>0</asrwt>
<pdfrwt beam="1">  1       21 0.92539056E-02 0.12765501E+03</pdfrwt>
<pdfrwt beam="2">  1        1 0.52084684E-01 0.12765501E+03</pdfrwt>
<totfact> 0.75982665E+04</totfact>
</mgrwt>
</event>
<event>
 6    2  0.1181843E-002  0.1281223E+03  0.7546771E-02  0.1230269E+00
         21   -1    0    0  502  503  0.00000000000E+00  0.00000000000E+00  0.82375019777E+02  0.82375019777E+02  0.00000000000E+00 0. -1.
          3   -1    0    0  503    0 -0.00000000000E+00 -0.00000000000E+00 -0.46970292734E+03  0.46970292734E+03  0.00000000000E+00 0. -1.
         25    2    1    2    0    0 -0.14596095421E+02 -0.24047855240E+02  0.31797840965E+02  0.13200921652E+03  0.12499594079E+03 0.  0.
          5    1    3    3  501    0 -0.10284328758E+02 -0.35897729276E+02  0.76733693848E+02  0.85337472172E+02  0.10000000000E+00 0.  1.
         -5    1    3    3    0  501 -0.43117666628E+01  0.11849874036E+02 -0.44935852883E+02  0.46671744351E+02  0.10000000000E+00 0.  1.
          3    1    1    2  502    0  0.14596095421E+02  0.24047855240E+02 -0.41912574852E+03  0.42006873059E+03  0.00000000000E+00 0. -1.
<mgrwt>
<rscale>  1 0.12812233E+03</rscale>
<asrwt>0</asrwt>
<pdfrwt beam="1">  1       21 0.12673080E-01 0.12812233E+03</pdfrwt>
<pdfrwt beam="2">  1        3 0.72261988E-01 0.12812233E+03</pdfrwt>
<totfact> 0.48203913E+03</totfact>
</mgrwt>
</event>
<event>
 6    2  0.1181843E-002  0.1300162E+03  0.7546771E-02  0.1227432E+00
         21   -1    0    0  502  503  0.00000000000E+00  0.00000000000E+00  0.29723998834E+02  0.29723998834E+02  0.00000000000E+00 0.  1.
          1   -1    0    0  503    0 -0.00000000000E+00 -0.00000000000E+00 -0.66523830972E+03  0.66523830972E+03  0.00000000000E+00 0. -1.
         25    2    1    2    0    0  0.31585855676E+02  0.16777017277E+02 -0.11607077488E+03  0.17428897364E+03  0.12500034786E+03 0.  0.
          5    1    3    3  501    0 -0.50368895222E+01 -0.51653228390E+02 -0.54114671467E+02  0.74978889876E+02  0.10000000000E+00 0. -1.
         -5    1    3    3    0  501  0.36622745198E+02  0.68430245667E+02 -0.61956103410E+02  0.99310083766E+02  0.10000000000E+00 0. -1.
          1    1    1    2  502    0 -0.31585855676E+02 -0.16777017277E+02 -0.51944353601E+03  0.52067333492E+03  0.00000000000E+00 0. -1.
<mgrwt>
<rscale>  1 0.13001624E+03</rscale>
<asrwt>0</asrwt>
<pdfrwt beam="1">  1       21 0.45729228E-02 0.13001624E+03</pdfrwt>
<pdfrwt beam="2">  1        1 0.10234436E+00 0.13001624E+03</pdfrwt>
<totfact> 0.10501833E+05</totfact>
</mgrwt>
</event>
<event>
 6    2  0.1181843E-002  0.1284823E+03  0.7546771E-02  0.1229725E+00
         21   -1    0    0  502  503  0.00000000000E+00  0.00000000000E+00  0.11913593713E+02  0.11913593713E+02  0.00000000000E+00 0. -1.
          2   -1    0    0  503    0 -0.00000000000E+00 -0.00000000000E+00 -0.69575119484E+03  0.69575119484E+03  0.00000000000E+00 0. -1.
         25    2    1    2    0    0  0.29504585198E+02 -0.35253240103E+01 -0.35585856837E+03  0.37834246258E+03  0.12499899940E+03 0.  0.
          5    1    3    3  501    0  0.15716871280E+02  0.45157609055E+02 -0.29656417984E+03  0.30039399538E+03  0.10000000000E+00 0. -1.
         -5    1    3    3    0  501  0.13787713919E+02 -0.48682933066E+02 -0.59294388531E+02  0.77948467197E+02  0.10000000000E+00 0. -1.
          2    1    1    2  502    0 -0.29504585198E+02  0.35253240103E+01 -0.32797903276E+03  0.32932232598E+03  0.00000000000E+00 0. -1.
<mgrwt>
<rscale>  1 0.12848229E+03</rscale>
<asrwt>0</asrwt>
<pdfrwt beam="1">  1       21 0.18328600E-02 0.12848229E+03</pdfrwt>
<pdfrwt beam="2">  1        2 0.10703868E+00 0.12848229E+03</pdfrwt>
<totfact> 0.73810086E+05</totfact>
</mgrwt>
</event>
<event>
 6    2  0.1181843E-002  0.1554713E+03  0.7546771E-02  0.1193907E+00
          2   -1    0    0  503    0 -0.00000000000E+00  0.00000000000E+00  0.22142883137E+04  0.22142883137E+04  0.00000000000E+00 0. -1.
         21   -1    0    0  502  503  0.00000000000E+00 -0.00000000000E+00 -0.86569875862E+01  0.86569875862E+01  0.00000000000E+00 0. -1.
         25    2    1    2    0    0 -0.28237927213E+02 -0.88027804285E+02  0.84545667451E+03  0.85963266006E+03  0.12500018763E+03 0.  0.
          5    1    3    3  501    0  0.58457751555E+01 -0.10314167538E+03  0.75118961908E+03  0.75826000297E+03  0.10000000000E+00 0. -1.
         -5    1    3    3    0  501 -0.34083702369E+02  0.15113871093E+02  0.94267055428E+02  0.10137265709E+03  0.10000000000E+00 0. -1.
          2    1    1    2  502    0  0.28237927213E+02  0.88027804285E+02  0.13601746516E+04  0.13633126413E+04  0.00000000000E+00 0. -1.
<mgrwt>
<rscale>  1 0.15547129E+03</rscale>
<asrwt>0</asrwt>
<pdfrwt beam="1">  1       21 0.13318460E-02 0.15547129E+03</pdfrwt>
<pdfrwt beam="2">  1        2 0.34065929E+00 0.15547129E+03</pdfrwt>
<totfact> 0.17753245E+05</totfact>
</mgrwt>
</event>
<event>
 6    2  0.1181843E-002  0.1903326E+03  0.7546771E-02  0.1158162E+00
          2   -1    0    0  503    0 -0.00000000000E+00  0.00000000000E+00  0.38595558156E+04  0.38595558156E+04  0.00000000000E+00 0.  1.
         21   -1    0    0  502  503  0.00000000000E+00 -0.00000000000E+00 -0.79565721803E+01  0.79565721803E+01  0.00000000000E+00 0. -1.
         25    2    1    2    0    0  0.37702280726E+02  0.13849118991E+03  0.15877074169E+04  0.15990751561E+04  0.12500096675E+03 0.  0.
          5    1    3    3  501    0  0.38330920153E+02  0.12304409454E+03  0.73403154319E+03  0.74525930053E+03  0.10000000000E+00 0.  1.
         -5    1    3    3    0  501 -0.62863942744E+00  0.15447095369E+02  0.85367587370E+03  0.85381585561E+03  0.10000000000E+00 0.  1.
          2    1    1    2  502    0 -0.37702280726E+02 -0.13849118991E+03  0.22638918265E+04  0.22684372316E+04  0.00000000000E+00 0.  1.
<mgrwt>
<rscale>  1 0.19033264E+03</rscale>
<asrwt>0</asrwt>
<pdfrwt beam="1">  1       21 0.12240911E-02 0.19033264E+03</pdfrwt>
<pdfrwt beam="2">  1        2 0.59377632E+00 0.19033264E+03</pdfrwt>
<totfact> 0.20750135E+04</totfact>
</mgrwt>
</event>
<event>
 6    2  0.1181843E-002  0.1392054E+03  0.7546771E-02  0.1214402E+00
          2   -1    0    0  503    0 -0.00000000000E+00  0.00000000000E+00  0.15933335294E+04  0.15933335294E+04  0.00000000000E+00 0.  1.
         21   -1    0    0  502  503  0.00000000000E+00 -0.00000000000E+00 -0.63268322131E+01  0.63268322131E+01  0.00000000000E+00 0.  1.
         25    2    1    2    0    0 -0.60454177471E+02  0.10076617989E+02  0.11420178763E+04  0.11504707619E+04  0.12498759267E+03 0.  0.
          5    1    3    3  501    0 -0.51526729719E+02 -0.41232698891E+02  0.92258057284E+03  0.92493786965E+03  0.10000000000E+00 0. -1.
         -5    1    3    3    0  501 -0.89274477529E+01  0.51309316881E+02  0.21943730346E+03  0.22553289222E+03  0.10000000000E+00 0. -1.
          2    1    1    2  502    0  0.60454177471E+02 -0.10076617989E+02  0.44498882085E+03  0.44918959971E+03  0.00000000000E+00 0.  1.
<mgrwt>
<rscale>  1 0.13920540E+03</rscale>
<asrwt>0</asrwt>
<pdfrwt beam="1">  1       21 0.97336007E-03 0.13920540E+03</pdfrwt>
<pdfrwt beam="2">  1        2 0.24512792E+00 0.13920540E+03</pdfrwt>
<totfact> 0.60868339E+05</totfact>
</mgrwt>
</event>
<event>
 6    2  0.1181843E-002  0.1262579E+03  0.7546771E-02  0.1233116E+00
          2   -1    0    0  503    0 -0.00000000000E+00  0.00000000000E+00  0.60364473527E+03  0.60364473527E+03  0.00000000000E+00 0.  1.
         21   -1    0    0  502  503  0.00000000000E+00 -0.00000000000E+00 -0.53538753857E+03  0.53538753857E+03  0.00000000000E+00 0.  1.
         25    2    1    2    0    0  0.16640106737E+02  0.61596696926E+01 -0.52780998871E+03  0.54270105363E+03  0.12500485889E+03 0.  0.
          5    1    3    3  501    0 -0.62140601569E+01  0.62854992899E+02 -0.31580491980E+03  0.32205919029E+03  0.10000000000E+00 0. -1.
         -5    1    3    3    0  501  0.22854166894E+02 -0.56695323206E+02 -0.21200506891E+03  0.22064186334E+03  0.10000000000E+00 0. -1.
          2    1    1    2  502    0 -0.16640106737E+02 -0.61596696926E+01  0.59606718541E+03  0.59633122022E+03  0.00000000000E+00 0.  1.
<mgrwt>
<rscale>  1 0.12625787E+03</rscale>
<asrwt>0</asrwt>
<pdfrwt beam="1">  1       21 0.82367313E-01 0.12625787E+03</pdfrwt>
<pdfrwt beam="2">  1        2 0.92868421E-01 0.12625787E+03</pdfrwt>
<totfact> 0.84876919E+02</totfact>
</mgrwt>
</event>
<event>
 6    2  0.1181843E-002  0.1482014E+03  0.7546771E-02  0.1202701E+00
         21   -1    0    0  502  503  0.00000000000E+00  0.00000000000E+00  0.10076747815E+02  0.10076747815E+02  0.00000000000E+00 0.  1.
          2   -1    0    0  503    0 -0.00000000000E+00 -0.00000000000E+00 -0.20722915132E+04  0.20722915132E+04  0.00000000000E+00 0.  1.
         25    2    1    2    0    0 -0.70049506366E+02 -0.37829093843E+02 -0.60160174735E+03  0.61958722404E+03  0.12500276835E+03 0.  0.
          5    1    3    3  501    0 -0.90557970798E+01 -0.37785455228E+02 -0.49688622094E+03  0.49840312464E+03  0.10000000000E+00 0.  1.
         -5    1    3    3    0  501 -0.60993709287E+02 -0.43638615305E-01 -0.10471552641E+03  0.12118409941E+03  0.10000000000E+00 0.  1.
          2    1    1    2  502    0  0.70049506366E+02  0.37829093843E+02 -0.14606130180E+04  0.14627810370E+04  0.00000000000E+00 0.  1.
<mgrwt>
<rscale>  1 0.14820144E+03</rscale>
<asrwt>0</asrwt>
<pdfrwt beam="1">  1       21 0.15502682E-02 0.14820144E+03</pdfrwt>
<pdfrwt beam="2">  1        2 0.31881422E+00 0.14820144E+03</pdfrwt>
<totfact> 0.16501244E+05</totfact>
</mgrwt>
</event>
<event>
 6    2  0.1181843E-002  0.1383582E+03  0.7546771E-02  0.1215555E+00
         21   -1    0    0  502  503  0.00000000000E+00  0.00000000000E+00  0.76055044051E+01  0.76055044051E+01  0.00000000000E+00 0.  1.
          2   -1    0    0  503    0 -0.00000000000E+00 -0.00000000000E+00 -0.12844016468E+04  0.12844016468E+04  0.00000000000E+00 0.  1.
         25    2    1    2    0    0 -0.42469090530E+02 -0.41401197277E+02 -0.89715834753E+03  0.90776433985E+03  0.12500125351E+03 0.  0.
          5    1    3    3  501    0 -0.51312724931E+02  0.33592460330E+02 -0.46971164085E+03  0.47369872775E+03  0.10000000000E+00 0. -1.
         -5    1    3    3    0  501  0.88436344012E+01 -0.74993657606E+02 -0.42744670668E+03  0.43406561210E+03  0.10000000000E+00 0. -1.
          2    1    1    2  502    0  0.42469090530E+02  0.41401197277E+02 -0.37963779490E+03  0.38424281139E+03  0.00000000000E+00 0.  1.
<mgrwt>
<rscale>  1 0.13835822E+03</rscale>
<asrwt>0</asrwt>
<pdfrwt beam="1">  1       21 0.11700771E-02 0.13835822E+03</pdfrwt>
<pdfrwt beam="2">  1        2 0.19760033E+00 0.13835822E+03</pdfrwt>
<totfact> 0.66159569E+05</totfact>
</mgrwt>
</event>
<event>
 6    2  0.1181843E-002  0.1275229E+03  0.7546771E-02  0.1231178E+00
          2   -1    0    0  503    0 -0.00000000000E+00  0.00000000000E+00  0.10403120403E+04  0.10403120403E+04  0.00000000000E+00 0. -1.
         21   -1    0    0  502  503  0.00000000000E+00 -0.00000000000E+00 -0.15143373052E+02  0.15143373052E+02  0.00000000000E+00 0. -1.
         25    2    1    2    0    0 -0.19228007231E+02  0.16286630859E+02  0.25724659106E+03  0.28712001412E+03  0.12500849288E+03 0.  0.
          5    1    3    3  501    0  0.16361700552E+02 -0.29777938502E+01  0.24395903896E+03  0.24452524449E+03  0.10000000000E+00 0. -1.
         -5    1    3    3    0  501 -0.35589707783E+02  0.19264424709E+02  0.13287552094E+02  0.42594769633E+02  0.10000000000E+00 0. -1.
          2    1    1    2  502    0  0.19228007231E+02 -0.16286630859E+02  0.76792207614E+03  0.76833539918E+03  0.00000000000E+00 0. -1.
<mgrwt>
<rscale>  1 0.12752292E+03</rscale>
<asrwt>0</asrwt>
<pdfrwt beam="1">  1       21 0.23297505E-02 0.12752292E+03</pdfrwt>
<pdfrwt beam="2">  1        2 0.16004795E+00 0.12752292E+03</pdfrwt>
<totfact> 0.29946429E+05</totfact>
</mgrwt>
</event>
<event>
 6    2  0.1181843E-002  0.1381885E+03  0.7546771E-02  0.1215787E+00
         21   -1    0    0  502  503  0.00000000000E+00  0.00000000000E+00  0.12906274476E+02  0.12906274476E+02  0.00000000000E+00 0. -1.
          2   -1    0    0  503    0 -0.00000000000E+00 -0.00000000000E+00 -0.78064441098E+03  0.78064441098E+03  0.00000000000E+00 0. -1.
         25    2    1    2    0    0  0.47075725246E+02  0.35410971363E+02 -0.46346616552E+03  0.48362893222E+03  0.12500398674E+03 0.  0.
          5    1    3    3  501    0  0.13914025902E+02  0.68625843882E+02 -0.39148173168E+03  0.39769468541E+03  0.10000000000E+00 0.  1.
         -5    1    3    3    0  501  0.33161699344E+02 -0.33214872519E+02 -0.71984433835E+02  0.85934246808E+02  0.10000000000E+00 0.  1.
          2    1    1    2  502    0 -0.47075725246E+02 -0.35410971363E+02 -0.30427197099E+03  0.30992175324E+03  0.00000000000E+00 0. -1.
<mgrwt>
<rscale>  1 0.13818849E+03</rscale>
<asrwt>0</asrwt>
<pdfrwt beam="1">  1       21 0.19855806E-02 0.13818849E+03</pdfrwt>
<pdfrwt beam="2">  1        2 0.12009914E+00 0.13818849E+03</pdfrwt>
<totfact> 0.56717775E+05</totfact>
</mgrwt>
</event>
<event>
 6    2  0.1181843E-002  0.1305713E+03  0.7546771E-02  0.1226610E+00
          2   -1    0    0  503    0 -0.00000000000E+00  0.00000000000E+00  0.48506955929E+03  0.48506955929E+03  0.00000000000E+00 0. -1.
         21   -1    0    0  502  503  0.00000000000E+00 -0.00000000000E+00 -0.15372109852E+02  0.15372109852E+02  0.00000000000E+00 0. -1.
         25    2    1    2    0    0  0.14289879761E+02  0.34922484885E+02  0.31056581001E+03  0.33689761000E+03  0.12500038665E+03 0.  0.
          5    1    3    3  501    0 -0.31141244817E+02  0.55781457480E+02  0.87747511009E+02  0.10854024054E+03  0.10000000000E+00 0. -1.
         -5    1    3    3    0  501  0.45431124578E+02 -0.20858972594E+02  0.22281829901E+03  0.22835736947E+03  0.10000000000E+00 0. -1.
          2    1    1    2  502    0 -0.14289879761E+02 -0.34922484885E+02  0.15913163942E+03  0.16354405914E+03  0.00000000000E+00 0. -1.
<mgrwt>
<rscale>  1 0.13057135E+03</rscale>
<asrwt>0</asrwt>
<pdfrwt beam="1">  1       21 0.23649404E-02 0.13057135E+03</pdfrwt>
<pdfrwt beam="2">  1        2 0.74626074E-01 0.13057135E+03</pdfrwt>
<totfact> 0.73590373E+05</totfact>
</mgrwt>
</event>
<event>
 6    2  0.1181843E-002  0.1547613E+03  0.7546771E-02  0.1194741E+00
          4   -1    0    0  503    0 -0.00000000000E+00  0.00000000000E+00  0.76795594100E+02  0.76795594100E+02  0.00000000000E+00 0.  1.
         21   -1    0    0  502  503  0.00000000000E+00 -0.00000000000E+00 -0.29636332809E+03  0.29636332809E+03  0.00000000000E+00 0.  1.
         25    2    1    2    0    0  0.67714163236E+02 -0.61153619754E+02 -0.23423746420E+03  0.28074585982E+03  0.12500430018E+03 0.  0.
          5    1    3    3  501    0  0.93363089808E+02 -0.65458289095E+02 -0.22654875083E+03  0.25362531548E+03  0.10000000000E+00 0. -1.
         -5    1    3    3    0  501 -0.25648926572E+02  0.43046693412E+01 -0.76887133704E+01  0.27120544348E+02  0.10000000000E+00 0. -1.
          4    1    1    2  502    0 -0.67714163236E+02  0.61153619754E+02  0.14669730205E+02  0.92413062367E+02  0.00000000000E+00 0.  1.
<mgrwt>
<rscale>  1 0.15476126E+03</rscale>
<asrwt>0</asrwt>
<pdfrwt beam="1">  1       21 0.45594358E-01 0.15476126E+03</pdfrwt>
<pdfrwt beam="2">  1        4 0.11814707E-01 0.15476126E+03</pdfrwt>
<totfact> 0.10930340E+04</totfact>
</mgrwt>
</event>
<event>
 6    2  0.1181843E-002  0.1259468E+03  0.7546771E-02  0.1233597E+00
          1   -1    0    0  503    0 -0.00000000000E+00  0.00000000000E+00  0.57959712517E+02  0.57959712517E+02  0.00000000000E+00 0. -1.
         21   -1    0    0  502  503  0.00000000000E+00 -0.00000000000E+00 -0.11835966014E+03  0.11835966014E+03  0.00000000000E+00 0. -1.
         25    2    1    2    0    0  0.14297171386E+02 -0.58175809272E+01 -0.81618411036E+02  0.15008053603E+03  0.12499739565E+03 0.  0.
          5    1    3    3  501    0  0.34747063852E+02  0.52374497594E+02 -0.52394396165E+02  0.81826824417E+02  0.10000000000E+00 0.  1.
         -5    1    3    3    0  501 -0.20449892467E+02 -0.58192078521E+02 -0.29224014870E+02  0.68253711618E+02  0.10000000000E+00 0.  1.
          1    1    1    2  502    0 -0.14297171386E+02  0.58175809272E+01  0.21218463415E+02  0.26238836620E+02  0.00000000000E+00 0. -1.
<mgrwt>
<rscale>  1 0.12594682E+03</rscale>
<asrwt>0</asrwt>
<pdfrwt beam="1">  1       21 0.18209179E-01 0.12594682E+03</pdfrwt>
<pdfrwt beam="2">  1        1 0.89168788E-02 0.12594682E+03</pdfrwt>
<totfact> 0.21361434E+05</totfact>
</mgrwt>
</event>
<event>
 6    2  0.1181843E-002  0.1277134E+03  0.7546771E-02  0.1230889E+00
          2   -1    0    0  503    0 -0.00000000000E+00  0.00000000000E+00  0.13223436316E+04  0.13223436316E+04  0.00000000000E+00 0. -1.
         21   -1    0    0  502  503  0.00000000000E+00 -0.00000000000E+00 -0.32780238404E+02  0.32780238404E+02  0.00000000000E+00 0.  1.
         25    2    1    2    0    0 -0.26192834570E+02  0.89680039325E+00  0.92304188237E+02  0.15757784889E+03  0.12499538576E+03 0.  0.
          5    1    3    3  501    0 -0.24074424844E+02 -0.48964243921E+02  0.92819938361E+02  0.10766905810E+03  0.10000000000E+00 0.  1.
         -5    1    3    3    0  501 -0.21184097264E+01  0.49861044314E+02 -0.51575012379E+00  0.49908790790E+02  0.10000000000E+00 0.  1.
          2    1    1    2  502    0  0.26192834570E+02 -0.89680039325E+00  0.11972592050E+04  0.11975460211E+04  0.00000000000E+00 0. -1.
<mgrwt>
<rscale>  1 0.12771341E+03</rscale>
<asrwt>0</asrwt>
<pdfrwt beam="1">  1       21 0.50431146E-02 0.12771341E+03</pdfrwt>
<pdfrwt beam="2">  1        2 0.20343744E+00 0.12771341E+03</pdfrwt>
<totfact> 0.58350519E+04</totfact>
</mgrwt>
</event>
<event>
 6    2  0.1181843E-002  0.1344321E+03  0.7546771E-02  0.1221024E+00
          1   -1    0    0  503    0 -0.00000000000E+00  0.00000000000E+00  0.15901013779E+04  0.15901013779E+04  0.00000000000E+00 0.  1.
         21   -1    0    0  502  503  0.00000000000E+00 -0.00000000000E+00 -0.30177138051E+02  0.30177138051E+02  0.00000000000E+00 0. -1.
         25    2    1    2    0    0 -0.35867411638E+02 -0.34070112665E+02  0.12210482758E+03  0.18160832925E+03  0.12499901016E+03 0.  0.
          5    1    3    3  501    0 -0.48887857040E+02  0.33491707196E+02  0.84467674157E+02  0.10318195091E+03  0.10000000000E+00 0.  1.
         -5    1    3    3    0  501  0.13020445402E+02 -0.67561819861E+02  0.37637153418E+02  0.78426378336E+02  0.10000000000E+00 0.  1.
          1    1    1    2  502    0  0.35867411638E+02  0.34070112665E+02  0.14378194123E+04  0.14386701867E+04  0.00000000000E+00 0.  1.
<mgrwt>
<rscale>  1 0.13443213E+03</rscale>
<asrwt>0</asrwt>
<pdfrwt beam="1">  1       21 0.46426379E-02 0.13443213E+03</pdfrwt>
<pdfrwt beam="2">  1        1 0.24463092E+00 0.13443213E+03</pdfrwt>
<totfact> 0.21981862E+04</totfact>
</mgrwt>
</event>
<event>
 6    2  0.1181843E-002  0.1564027E+03  0.7546771E-02  0.1192819E+00
         21   -1    0    0  502  503  0.00000000000E+00  0.00000000000E+00  0.36367870139E+03  0.36367870139E+03  0.00000000000E+00 0.  1.
          1   -1    0    0  503    0 -0.00000000000E+00 -0.00000000000E+00 -0.20769109831E+03  0.20769109831E+03  0.00000000000E+00 0.  1.
         25    2    1    2    0    0  0.59377474262E+02  0.72884344064E+02  0.33469962256E+03  0.36943961879E+03  0.12499593004E+03 0.  0.
          5    1    3    3  501    0  0.32004670331E+02 -0.20026623500E+02  0.19999188475E+03  0.20352427014E+03  0.10000000000E+00 0.  1.
         -5    1    3    3    0  501  0.27372803931E+02  0.92910967563E+02  0.13470773781E+03  0.16591534864E+03  0.10000000000E+00 0.  1.
          1    1    1    2  502    0 -0.59377474262E+02 -0.72884344064E+02 -0.17871201948E+03  0.20193018092E+03  0.00000000000E+00 0.  1.
<mgrwt>
<rscale>  1 0.15640267E+03</rscale>
<asrwt>0</asrwt>
<pdfrwt beam="1">  1       21 0.55950570E-01 0.15640267E+03</pdfrwt>
<pdfrwt beam="2">  1        1 0.31952477E-01 0.15640267E+03</pdfrwt>
<totfact> 0.46146414E+03</totfact>
</mgrwt>
</event>
<event>
 6    2  0.1181843E-002  0.1289667E+03  0.7546771E-02  0.1228997E+00
          3   -1    0    0  503    0 -0.00000000000E+00  0.00000000000E+00  0.32952793724E+02  0.32952793724E+02  0.00000000000E+00 0. -1.
         21   -1    0    0  502  503  0.00000000000E+00 -0.00000000000E+00 -0.19913610021E+03  0.19913610021E+03  0.00000000000E+00 0. -1.
         25    2    1    2    0    0  0.24955023137E+02  0.19618844655E+02 -0.14430351951E+03  0.19353532960E+03  0.12499906324E+03 0.  0.
          5    1    3    3  501    0  0.28639041785E+02  0.60981247215E+02 -0.33570939191E+02  0.75272340102E+02  0.10000000000E+00 0.  1.
         -5    1    3    3    0  501 -0.36840186483E+01 -0.41362402560E+02 -0.11073258032E+03  0.11826298949E+03  0.10000000000E+00 0.  1.
          3    1    1    2  502    0 -0.24955023137E+02 -0.19618844655E+02 -0.21879786973E+02  0.38553564340E+02  0.00000000000E+00 0. -1.
<mgrwt>
<rscale>  1 0.12896673E+03</rscale>
<asrwt>0</asrwt>
<pdfrwt beam="1">  1       21 0.30636322E-01 0.12896673E+03</pdfrwt>
<pdfrwt beam="2">  1        3 0.50696607E-02 0.12896673E+03</pdfrwt>
<totfact> 0.10798836E+05</totfact>
</mgrwt>
</event>
<event>
 6    2  0.1181843E-002  0.1517821E+03  0.7546771E-02  0.1198300E+00
         21   -1    0    0  502  503  0.00000000000E+00  0.00000000000E+00  0.58170681959E+02  0.58170681959E+02  0.00000000000E+00 0.  1.
          2   -1    0    0  503    0 -0.00000000000E+00 -0.00000000000E+00 -0.45738825965E+03  0.45738825965E+03  0.00000000000E+00 0. -1.
         25    2    1    2    0    0  0.85021220494E+02  0.13555095058E+02 -0.56120999157E+02  0.16182512822E+03  0.12500182814E+03 0.  0.
          5    1    3    3  501    0  0.53965989375E+02  0.58024812175E+02 -0.70115928859E+02  0.10580860228E+03  0.10000000000E+00 0. -1.
         -5    1    3    3    0  501  0.31055231119E+02 -0.44469717117E+02  0.13994929701E+02  0.56016525933E+02  0.10000000000E+00 0. -1.
          2    1    1    2  502    0 -0.85021220494E+02 -0.13555095058E+02 -0.34309657854E+03  0.35373381340E+03  0.00000000000E+00 0. -1.
<mgrwt>
<rscale>  1 0.15178210E+03</rscale>
<asrwt>0</asrwt>
<pdfrwt beam="1">  1       21 0.89493357E-02 0.15178210E+03</pdfrwt>
<pdfrwt beam="2">  1        2 0.70367424E-01 0.15178210E+03</pdfrwt>
<totfact> 0.84620915E+04</totfact>
</mgrwt>
</event>
<event>
 6    2  0.1181843E-002  0.1377905E+03  0.7546771E-02  0.1216333E+00
         21   -1    0    0  502  503  0.00000000000E+00  0.00000000000E+00  0.18095156656E+02  0.18095156656E+02  0.00000000000E+00 0. -1.
          2   -1    0    0  503    0 -0.00000000000E+00 -0.00000000000E+00 -0.12285134061E+04  0.12285134061E+04  0.00000000000E+00 0. -1.
         25    2    1    2    0    0 -0.52283484864E+02 -0.25028013418E+02 -0.25853203065E+03  0.29295907905E+03  0.12500498742E+03 0.  0.
          5    1    3    3  501    0  0.30442785967E+01 -0.28120421014E+02  0.27480598895E+00  0.28286237440E+02  0.10000000000E+00 0. -1.
         -5    1    3    3    0  501 -0.55327763461E+02  0.30924075964E+01 -0.25880683664E+03  0.26467284161E+03  0.10000000000E+00 0. -1.
          2    1    1    2  502    0  0.52283484864E+02  0.25028013418E+02 -0.95188621884E+03  0.95364948376E+03  0.00000000000E+00 0. -1.
<mgrwt>
<rscale>  1 0.13779046E+03</rscale>
<asrwt>0</asrwt>
<pdfrwt beam="1">  1       21 0.27838702E-02 0.13779046E+03</pdfrwt>
<pdfrwt beam="2">  1        2 0.18900207E+00 0.13779046E+03</pdfrwt>
<totfact> 0.17569690E+05</totfact>
</mgrwt>
</event>
<event>
 6    2  0.1181843E-002  0.1294658E+03  0.7546771E-02  0.1228251E+00
         21   -1    0    0  502  503  0.00000000000E+00  0.00000000000E+00  0.31640243338E+02  0.31640243338E+02  0.00000000000E+00 0. -1.
          2   -1    0    0  503    0 -0.00000000000E+00 -0.00000000000E+00 -0.30987276562E+03  0.30987276562E+03  0.00000000000E+00 0. -1.
         25    2    1    2    0    0 -0.31601855839E+02 -0.11948764522E+02 -0.10989448020E+03  0.16981808569E+03  0.12497973908E+03 0.  0.
          5    1    3    3  501    0 -0.68867539785E+02 -0.25631361017E+02 -0.27684238515E+02  0.78524720730E+02  0.10000000000E+00 0. -1.
         -5    1    3    3    0  501  0.37265683946E+02  0.13682596495E+02 -0.82210241689E+02  0.91293364958E+02  0.10000000000E+00 0. -1.
          2    1    1    2  502    0  0.31601855839E+02  0.11948764522E+02 -0.16833804208E+03  0.17169492327E+03  0.00000000000E+00 0. -1.
<mgrwt>
<rscale>  1 0.12946577E+03</rscale>
<asrwt>0</asrwt>
<pdfrwt beam="1">  1       21 0.48677296E-02 0.12946577E+03</pdfrwt>
<pdfrwt beam="2">  1        2 0.47672734E-01 0.12946577E+03</pdfrwt>
<totfact> 0.36083799E+05</totfact>
</mgrwt>
</event>
<event>
 6    2  0.1181843E-002  0.1274578E+03  0.7546771E-02  0.1231277E+00
          2   -1    0    0  503    0 -0.00000000000E+00  0.00000000000E+00  0.20037274307E+04  0.20037274307E+04  0.00000000000E+00 0. -1.
         21   -1    0    0  502  503  0.00000000000E+00 -0.00000000000E+00 -0.36422479395E+01  0.36422479395E+01  0.00000000000E+00 0. -1.
         25    2    1    2    0    0  0.24251048506E+02 -0.55584029316E+01  0.11719025493E+04  0.11788134141E+04  0.12500588359E+03 0.  0.
          5    1    3    3  501    0  0.53694808654E+01 -0.41575530622E+02  0.10386031902E+04  0.10394488698E+04  0.10000000000E+00 0.  1.
         -5    1    3    3    0  501  0.18881567640E+02  0.36017127690E+02  0.13329935905E+03  0.13936454430E+03  0.10000000000E+00 0.  1.
          2    1    1    2  502    0 -0.24251048506E+02  0.55584029316E+01  0.82818263349E+03  0.82855626460E+03  0.00000000000E+00 0. -1.
<mgrwt>
<rscale>  1 0.12745776E+03</rscale>
<asrwt>0</asrwt>
<pdfrwt beam="1">  1       21 0.56034744E-03 0.12745776E+03</pdfrwt>
<pdfrwt beam="2">  1        2 0.30826488E+00 0.12745776E+03</pdfrwt>
<totfact> 0.88716204E+05</totfact>
</mgrwt>
</event>
<event>
 6    2  0.1181843E-002  0.1336666E+03  0.7546771E-02  0.1222114E+00
         21   -1    0    0  502  503  0.00000000000E+00  0.00000000000E+00  0.13107290389E+03  0.13107290389E+03  0.00000000000E+00 0. -1.
          2   -1    0    0  503    0 -0.00000000000E+00 -0.00000000000E+00 -0.83151975659E+02  0.83151975659E+02  0.00000000000E+00 0. -1.
         25    2    1    2    0    0 -0.25931252573E+01 -0.47269140607E+02  0.81163701772E+02  0.15637872198E+03  0.12500264897E+03 0.  0.
          5    1    3    3  501    0  0.41731568015E+00 -0.17021410722E+02 -0.33594444087E+02  0.37662969198E+02  0.10000000000E+00 0. -1.
         -5    1    3    3    0  501 -0.30104409374E+01 -0.30247729885E+02  0.11475814586E+03  0.11871575278E+03  0.10000000000E+00 0. -1.
          2    1    1    2  502    0  0.25931252573E+01  0.47269140607E+02 -0.33242773544E+02  0.57846157566E+02  0.00000000000E+00 0. -1.
<mgrwt>
<rscale>  1 0.13366659E+03</rscale>
<asrwt>0</asrwt>
<pdfrwt beam="1">  1       21 0.20165062E-01 0.13366659E+03</pdfrwt>
<pdfrwt beam="2">  1        2 0.12792612E-01 0.13366659E+03</pdfrwt>
<totfact> 0.12872167E+05</totfact>
</mgrwt>
</event>
<event>
 6    2  0.1181843E-002  0.1267725E+03  0.7546771E-02  0.1232325E+00
         21   -1    0    0  502  503  0.00000000000E+00  0.00000000000E+00  0.32953763795E+02  0.32953763795E+02  0.00000000000E+00 0. -1.
          1   -1    0    0  503    0 -0.00000000000E+00 -0.00000000000E+00 -0.19954505243E+03  0.19954505243E+03  0.00000000000E+00 0. -1.
         25    2    1    2    0    0  0.19184575849E+02 -0.80934145768E+01 -0.96335511002E+02  0.15922245168E+03  0.12505081819E+03 0.  0.
          5    1    3    3  501    0 -0.31686727084E+02 -0.47598405962E+02 -0.23040729709E+02  0.61648537281E+02  0.10000000000E+00 0. -1.
         -5    1    3    3    0  501  0.50871302932E+02  0.39504991385E+02 -0.73294781293E+02  0.97573914399E+02  0.10000000000E+00 0. -1.
          1    1    1    2  502    0 -0.19184575849E+02  0.80934145768E+01 -0.70255777629E+02  0.73276364541E+02  0.00000000000E+00 0. -1.
<mgrwt>
<rscale>  1 0.12677247E+03</rscale>
<asrwt>0</asrwt>
<pdfrwt beam="1">  1       21 0.50698098E-02 0.12677247E+03</pdfrwt>
<pdfrwt beam="2">  1        1 0.30699239E-01 0.12677247E+03</pdfrwt>
<totfact> 0.40811001E+05</totfact>
</mgrwt>
</event>
<event>
 6    2  0.1181843E-002  0.1691749E+03  0.7546771E-02  0.1178711E+00
          3   -1    0    0  503    0 -0.00000000000E+00  0.00000000000E+00  0.18539631985E+03  0.18539631985E+03  0.00000000000E+00 0. -1.
         21   -1    0    0  502  503  0.00000000000E+00 -0.00000000000E+00 -0.13766285229E+03  0.13766285229E+03  0.00000000000E+00 0. -1.
         25    2    1    2    0    0  0.16388432582E+02  0.11283084306E+03 -0.46159561582E+02  0.17535920332E+03  0.12498305963E+03 0.  0.
          5    1    3    3  501    0 -0.42048423857E+02  0.33837258512E+02  0.19269307671E+02  0.57309215930E+02  0.10000000000E+00 0.  1.
         -5    1    3    3    0  501  0.58436856439E+02  0.78993584551E+02 -0.65428869252E+02  0.11804998739E+03  0.10000000000E+00 0.  1.
          3    1    1    2  502    0 -0.16388432582E+02 -0.11283084306E+03  0.93893029146E+02  0.14769996883E+03  0.00000000000E+00 0. -1.
<mgrwt>
<rscale>  1 0.16917489E+03</rscale>
<asrwt>0</asrwt>
<pdfrwt beam="1">  1       21 0.21178900E-01 0.16917489E+03</pdfrwt>
<pdfrwt beam="2">  1        3 0.28522511E-01 0.16917489E+03</pdfrwt>
<totfact> 0.11990150E+04</totfact>
</mgrwt>
</event>
<event>
 6    2  0.1181843E-002  0.1294442E+03  0.7546771E-02  0.1228283E+00
          2   -1    0    0  503    0 -0.00000000000E+00  0.00000000000E+00  0.13139799920E+04  0.13139799920E+04  0.00000000000E+00 0. -1.
         21   -1    0    0  502  503  0.00000000000E+00 -0.00000000000E+00 -0.25991293596E+02  0.25991293596E+02  0.00000000000E+00 0.  1.
         25    2    1    2    0    0  0.33281935948E+02 -0.48746737250E+01  0.13695983342E+03  0.18845103057E+03  0.12499738097E+03 0.  0.
          5    1    3    3  501    0 -0.27620784924E+02 -0.44663122458E+02  0.81587312509E+02  0.97026809852E+02  0.10000000000E+00 0.  1.
         -5    1    3    3    0  501  0.60902720872E+02  0.39788448733E+02  0.55372520907E+02  0.91424220717E+02  0.10000000000E+00 0.  1.
          2    1    1    2  502    0 -0.33281935948E+02  0.48746737250E+01  0.11510288650E+04  0.11515202550E+04  0.00000000000E+00 0. -1.
<mgrwt>
<rscale>  1 0.12944418E+03</rscale>
<asrwt>0</asrwt>
<pdfrwt beam="1">  1       21 0.39986616E-02 0.12944418E+03</pdfrwt>
<pdfrwt beam="2">  1        2 0.20215072E+00 0.12944418E+03</pdfrwt>
<totfact> 0.86866757E+04</totfact>
</mgrwt>
</event>
<event>
 6    2  0.1181843E-002  0.1473566E+03  0.7546771E-02  0.1203759E+00
          1   -1    0    0  503    0 -0.00000000000E+00  0.00000000000E+00  0.97545567086E+02  0.97545567086E+02  0.00000000000E+00 0.  1.
         21   -1    0    0  502  503  0.00000000000E+00 -0.00000000000E+00 -0.13019636044E+03  0.13019636044E+03  0.00000000000E+00 0.  1.
         25    2    1    2    0    0 -0.74556341114E+02  0.23028910726E+02 -0.21064457460E+02  0.14885452734E+03  0.12499992085E+03 0.  0.
          5    1    3    3  501    0  0.16171190185E+02  0.50101828677E+02 -0.89391974938E+01  0.53400560677E+02  0.10000000000E+00 0.  1.
         -5    1    3    3    0  501 -0.90727531299E+02 -0.27072917951E+02 -0.12125259967E+02  0.95453966661E+02  0.10000000000E+00 0.  1.
          1    1    1    2  502    0  0.74556341114E+02 -0.23028910726E+02 -0.11586335898E+02  0.78887400192E+02  0.00000000000E+00 0.  1.
<mgrwt>
<rscale>  1 0.14735657E+03</rscale>
<asrwt>0</asrwt>
<pdfrwt beam="1">  1       21 0.20030209E-01 0.14735657E+03</pdfrwt>
<pdfrwt beam="2">  1        1 0.15007010E-01 0.14735657E+03</pdfrwt>
<totfact> 0.91074060E+04</totfact>
</mgrwt>
</event>
<event>
 6    2  0.1181843E-002  0.1307461E+03  0.7546771E-02  0.1226353E+00
          1   -1    0    0  503    0 -0.00000000000E+00  0.00000000000E+00  0.25424684282E+04  0.25424684282E+04  0.00000000000E+00 0.  1.
         21   -1    0    0  502  503  0.00000000000E+00 -0.00000000000E+00 -0.29063370841E+01  0.29063370841E+01  0.00000000000E+00 0.  1.
         25    2    1    2    0    0  0.44045789657E+01 -0.38074284272E+02  0.17465471816E+04  0.17514341515E+04  0.12500191273E+03 0.  0.
          5    1    3    3  501    0  0.28886979749E+02 -0.55187267786E+02  0.42414252062E+03  0.42869217386E+03  0.10000000000E+00 0. -1.
         -5    1    3    3    0  501 -0.24482400784E+02  0.17112983514E+02  0.13224046610E+04  0.13227419777E+04  0.10000000000E+00 0. -1.
          1    1    1    2  502    0 -0.44045789657E+01  0.38074284272E+02  0.79301490949E+03  0.79394061371E+03  0.00000000000E+00 0.  1.
<mgrwt>
<rscale>  1 0.13074605E+03</rscale>
<asrwt>0</asrwt>
<pdfrwt beam="1">  1       21 0.44713081E-03 0.13074605E+03</pdfrwt>
<pdfrwt beam="2">  1        1 0.39114721E+00 0.13074605E+03</pdfrwt>
<totfact> 0.22828399E+05</totfact>
</mgrwt>
</event>
<event>
 6    2  0.1181843E-002  0.1383508E+03  0.7546771E-02  0.1215565E+00
          4   -1    0    0  503    0 -0.00000000000E+00  0.00000000000E+00  0.61556139266E+02  0.61556139266E+02  0.00000000000E+00 0.  1.
         21   -1    0    0  502  503  0.00000000000E+00 -0.00000000000E+00 -0.15865593671E+03  0.15865593671E+03  0.00000000000E+00 0.  1.
         25    2    1    2    0    0  0.23586160396E+02  0.54398158236E+02 -0.68786713716E+02  0.15450745444E+03  0.12500189963E+03 0.  0.
          5    1    3    3  501    0  0.60615474803E+02  0.60665560204E+02 -0.12243643170E+02  0.86628302411E+02  0.10000000000E+00 0. -1.
         -5    1    3    3    0  501 -0.37029314407E+02 -0.62674019680E+01 -0.56543070546E+02  0.67879152025E+02  0.10000000000E+00 0. -1.
          4    1    1    2  502    0 -0.23586160396E+02 -0.54398158236E+02 -0.28313083730E+02  0.65704621543E+02  0.00000000000E+00 0.  1.
<mgrwt>
<rscale>  1 0.13835079E+03</rscale>
<asrwt>0</asrwt>
<pdfrwt beam="1">  1       21 0.24408606E-01 0.13835079E+03</pdfrwt>
<pdfrwt beam="2">  1        4 0.94701753E-02 0.13835079E+03</pdfrwt>
<totfact> 0.53634505E+04</totfact>
</mgrwt>
</event>
<event>
 6    2  0.1181843E-002  0.1270696E+03  0.7546771E-02  0.1231870E+00
          3   -1    0    0  503    0 -0.00000000000E+00  0.00000000000E+00  0.77144023819E+02  0.77144023819E+02  0.00000000000E+00 0. -1.
         21   -1    0    0  502  503  0.00000000000E+00 -0.00000000000E+00 -0.26360653148E+03  0.26360653148E+03  0.00000000000E+00 0. -1.
         25    2    1    2    0    0  0.22825713156E+02  0.13596054217E+01 -0.24605089332E+03  0.27692550212E+03  0.12499531957E+03 0.  0.
          5    1    3    3  501    0  0.38071651239E+02 -0.26824225830E+02 -0.23659815464E+02  0.52237788881E+02  0.10000000000E+00 0. -1.
         -5    1    3    3    0  501 -0.15245938083E+02  0.28183831252E+02 -0.22239107785E+03  0.22468771324E+03  0.10000000000E+00 0. -1.
          3    1    1    2  502    0 -0.22825713156E+02 -0.13596054217E+01  0.59588385657E+02  0.63825053178E+02  0.00000000000E+00 0. -1.
<mgrwt>
<rscale>  1 0.12706963E+03</rscale>
<asrwt>0</asrwt>
<pdfrwt beam="1">  1       21 0.40554851E-01 0.12706963E+03</pdfrwt>
<pdfrwt beam="2">  1        3 0.11868311E-01 0.12706963E+03</pdfrwt>
<totfact> 0.15622706E+04</totfact>
</mgrwt>
</event>
<event>
 6    2  0.1181843E-002  0.1311881E+03  0.7546771E-02  0.1225703E+00
         21   -1    0    0  502  503  0.00000000000E+00  0.00000000000E+00  0.26645291988E+02  0.26645291988E+02  0.00000000000E+00 0. -1.
          1   -1    0    0  503    0 -0.00000000000E+00 -0.00000000000E+00 -0.39305111592E+03  0.39305111592E+03  0.00000000000E+00 0. -1.
         25    2    1    2    0    0 -0.37828395417E+02  0.12440698412E+02 -0.35471057034E+03  0.37819294500E+03  0.12499822582E+03 0.  0.
          5    1    3    3  501    0 -0.33174624521E+01  0.21733557218E+02 -0.30279262059E+00  0.21987604459E+02  0.10000000000E+00 0. -1.
         -5    1    3    3    0  501 -0.34510932965E+02 -0.92928588061E+01 -0.35440777772E+03  0.35620534054E+03  0.10000000000E+00 0. -1.
          1    1    1    2  502    0  0.37828395417E+02 -0.12440698412E+02 -0.11695253588E+02  0.41503462908E+02  0.00000000000E+00 0. -1.
<mgrwt>
<rscale>  1 0.13118809E+03</rscale>
<asrwt>0</asrwt>
<pdfrwt beam="1">  1       21 0.40992758E-02 0.13118809E+03</pdfrwt>
<pdfrwt beam="2">  1        1 0.60469401E-01 0.13118809E+03</pdfrwt>
<totfact> 0.25188368E+05</totfact>
</mgrwt>
</event>
<event>
 6    2  0.1181843E-002  0.1262153E+03  0.7546771E-02  0.1233182E+00
          1   -1    0    0  503    0 -0.00000000000E+00  0.00000000000E+00  0.55089143764E+03  0.55089143764E+03  0.00000000000E+00 0. -1.
         21   -1    0    0  502  503  0.00000000000E+00 -0.00000000000E+00 -0.27875810741E+02  0.27875810741E+02  0.00000000000E+00 0. -1.
         25    2    1    2    0    0  0.16400861978E+02 -0.59280545248E+01  0.11614334696E+03  0.17152139845E+03  0.12500473183E+03 0.  0.
          5    1    3    3  501    0 -0.38344864913E+02 -0.39129857595E+02  0.25208530271E+02  0.60307167228E+02  0.10000000000E+00 0. -1.
         -5    1    3    3    0  501  0.54745726891E+02  0.33201803070E+02  0.90934816693E+02  0.11121423123E+03  0.10000000000E+00 0. -1.
          1    1    1    2  502    0 -0.16400861978E+02  0.59280545248E+01  0.40687227994E+03  0.40724584993E+03  0.00000000000E+00 0. -1.
<mgrwt>
<rscale>  1 0.12621534E+03</rscale>
<asrwt>0</asrwt>
<pdfrwt beam="1">  1       21 0.42885867E-02 0.12621534E+03</pdfrwt>
<pdfrwt beam="2">  1        1 0.84752521E-01 0.12621534E+03</pdfrwt>
<totfact> 0.15101893E+05</totfact>
</mgrwt>
</event>
<event>
 6    2  0.1181843E-002  0.1264775E+03  0.7546771E-02  0.1232778E+00
          2   -1    0    0  503    0 -0.00000000000E+00  0.00000000000E+00  0.51209404746E+03  0.51209404746E+03  0.00000000000E+00 0.  1.
         21   -1    0    0  502  503  0.00000000000E+00 -0.00000000000E+00 -0.10363149922E+02  0.10363149922E+02  0.00000000000E+00 0.  1.
         25    2    1    2    0    0  0.16320935227E+02 -0.10141081998E+02  0.43694779634E+03  0.45488453522E+03  0.12500939639E+03 0.  0.
          5    1    3    3  501    0 -0.16176354166E+02  0.27931052312E+02  0.27544681372E+02  0.42432741948E+02  0.10000000000E+00 0. -1.
         -5    1    3    3    0  501  0.32497289393E+02 -0.38072134309E+02  0.40940311496E+03  0.41245179327E+03  0.10000000000E+00 0. -1.
          2    1    1    2  502    0 -0.16320935227E+02  0.10141081998E+02  0.64783101202E+02  0.67572662165E+02  0.00000000000E+00 0.  1.
<mgrwt>
<rscale>  1 0.12647752E+03</rscale>
<asrwt>0</asrwt>
<pdfrwt beam="1">  1       21 0.15943312E-02 0.12647752E+03</pdfrwt>
<pdfrwt beam="2">  1        2 0.78783680E-01 0.12647752E+03</pdfrwt>
<totfact> 0.13058553E+06</totfact>
</mgrwt>
</event>
<event>
 6    2  0.1181843E-002  0.1681121E+03  0.7546771E-02  0.1179831E+00
         21   -1    0    0  502  503  0.00000000000E+00  0.00000000000E+00  0.48428732566E+03  0.48428732566E+03  0.00000000000E+00 0. -1.
          1   -1    0    0  503    0 -0.00000000000E+00 -0.00000000000E+00 -0.43162311394E+02  0.43162311394E+02  0.00000000000E+00 0. -1.
         25    2    1    2    0    0 -0.83521322267E+02  0.75236732252E+02  0.32454519325E+03  0.36550139896E+03  0.12500125211E+03 0.  0.
          5    1    3    3  501    0  0.27509444284E+02  0.34575707540E+02  0.50897679472E+02  0.67400540446E+02  0.10000000000E+00 0. -1.
         -5    1    3    3    0  501 -0.11103076655E+03  0.40661024712E+02  0.27364751378E+03  0.29810085852E+03  0.10000000000E+00 0. -1.
          1    1    1    2  502    0  0.83521322267E+02 -0.75236732252E+02  0.11657982102E+03  0.16194823809E+03  0.00000000000E+00 0. -1.
<mgrwt>
<rscale>  1 0.16811214E+03</rscale>
<asrwt>0</asrwt>
<pdfrwt beam="1">  1       21 0.74505738E-01 0.16811214E+03</pdfrwt>
<pdfrwt beam="2">  1        1 0.66403559E-02 0.16811214E+03</pdfrwt>
<totfact> 0.19184466E+04</totfact>
</mgrwt>
</event>
<event>
 6    2  0.1181843E-002  0.1291572E+03  0.7546771E-02  0.1228712E+00
          1   -1    0    0  503    0 -0.00000000000E+00  0.00000000000E+00  0.63674227291E+03  0.63674227291E+03  0.00000000000E+00 0.  1.
         21   -1    0    0  502  503  0.00000000000E+00 -0.00000000000E+00 -0.10546361011E+02  0.10546361011E+02  0.00000000000E+00 0.  1.
         25    2    1    2    0    0  0.31956110437E+02  0.59483279629E+01  0.45223748861E+03  0.47031940317E+03  0.12500007717E+03 0.  0.
          5    1    3    3  501    0  0.65080354537E+02  0.18383040790E+02  0.40851315754E+03  0.41407293877E+03  0.10000000000E+00 0. -1.
         -5    1    3    3    0  501 -0.33124244100E+02 -0.12434712827E+02  0.43724331072E+02  0.56246464405E+02  0.10000000000E+00 0. -1.
          1    1    1    2  502    0 -0.31956110437E+02 -0.59483279629E+01  0.17395842329E+03  0.17696923075E+03  0.00000000000E+00 0.  1.
<mgrwt>
<rscale>  1 0.12915725E+03</rscale>
<asrwt>0</asrwt>
<pdfrwt beam="1">  1       21 0.16225176E-02 0.12915725E+03</pdfrwt>
<pdfrwt beam="2">  1        1 0.97960320E-01 0.12915725E+03</pdfrwt>
<totfact> 0.60698996E+05</totfact>
</mgrwt>
</event>
<event>
 6    2  0.1181843E-002  0.1287988E+03  0.7546771E-02  0.1229249E+00
          2   -1    0    0  503    0 -0.00000000000E+00  0.00000000000E+00  0.11510845809E+04  0.11510845809E+04  0.00000000000E+00 0.  1.
         21   -1    0    0  502  503  0.00000000000E+00 -0.00000000000E+00 -0.33807890174E+02  0.33807890174E+02  0.00000000000E+00 0. -1.
         25    2    1    2    0    0  0.25832089669E+02  0.17244410770E+02  0.89956405191E+02  0.15710278654E+03  0.12499785656E+03 0.  0.
          5    1    3    3  501    0  0.39473110280E+02 -0.32522331361E+01  0.11521313779E+03  0.12183095081E+03  0.10000000000E+00 0. -1.
         -5    1    3    3    0  501 -0.13641020611E+02  0.20496643906E+02 -0.25256732596E+02  0.35271835736E+02  0.10000000000E+00 0. -1.
          2    1    1    2  502    0 -0.25832089669E+02 -0.17244410770E+02  0.10273202856E+04  0.10277896846E+04  0.00000000000E+00 0.  1.
<mgrwt>
<rscale>  1 0.12879880E+03</rscale>
<asrwt>0</asrwt>
<pdfrwt beam="1">  1       21 0.52012148E-02 0.12879880E+03</pdfrwt>
<pdfrwt beam="2">  1        2 0.17708991E+00 0.12879880E+03</pdfrwt>
<totfact> 0.68726409E+04</totfact>
</mgrwt>
</event>
<event>
 6    2  0.1181843E-002  0.1269753E+03  0.7546771E-02  0.1232014E+00
          1   -1    0    0  503    0 -0.00000000000E+00  0.00000000000E+00  0.32799387557E+02  0.32799387557E+02  0.00000000000E+00 0.  1.
         21   -1    0    0  502  503  0.00000000000E+00 -0.00000000000E+00 -0.17180455139E+03  0.17180455139E+03  0.00000000000E+00 0.  1.
         25    2    1    2    0    0 -0.12924939485E+02  0.18187832446E+02 -0.12545926527E+03  0.17850139735E+03  0.12499948122E+03 0.  0.
          5    1    3    3  501    0  0.12054160844E+02 -0.50568702081E+02 -0.37511500754E+02  0.64106311020E+02  0.10000000000E+00 0. -1.
         -5    1    3    3    0  501 -0.24979100329E+02  0.68756534526E+02 -0.87947764520E+02  0.11439508633E+03  0.10000000000E+00 0. -1.
          1    1    1    2  502    0  0.12924939485E+02 -0.18187832446E+02 -0.13545898555E+02  0.26102541589E+02  0.00000000000E+00 0.  1.
<mgrwt>
<rscale>  1 0.12697528E+03</rscale>
<asrwt>0</asrwt>
<pdfrwt beam="1">  1       21 0.26431469E-01 0.12697528E+03</pdfrwt>
<pdfrwt beam="2">  1        1 0.50460598E-02 0.12697528E+03</pdfrwt>
<totfact> 0.22987504E+05</totfact>
</mgrwt>
</event>
<event>
 6    2  0.1181843E-002  0.1278014E+03  0.7546771E-02  0.1230755E+00
         21   -1    0    0  502  503  0.00000000000E+00  0.00000000000E+00  0.59987503103E+02  0.59987503103E+02  0.00000000000E+00 0. -1.
          1   -1    0    0  503    0 -0.00000000000E+00 -0.00000000000E+00 -0.10286886969E+04  0.10286886969E+04  0.00000000000E+00 0. -1.
         25    2    1    2    0    0 -0.44984689335E+01  0.26227021458E+02 -0.84757578804E+01  0.12808212306E+03  0.12500039559E+03 0.  0.
          5    1    3    3  501    0  0.26923748963E+02  0.62119255775E+02  0.22337000854E+02  0.71292649013E+02  0.10000000000E+00 0. -1.
         -5    1    3    3    0  501 -0.31422217897E+02 -0.35892234316E+02 -0.30812758734E+02  0.56789474047E+02  0.10000000000E+00 0. -1.
          1    1    1    2  502    0  0.44984689335E+01 -0.26227021458E+02 -0.96022543596E+03  0.96059407699E+03  0.00000000000E+00 0. -1.
<mgrwt>
<rscale>  1 0.12780138E+03</rscale>
<asrwt>0</asrwt>
<pdfrwt beam="1">  1       21 0.92288469E-02 0.12780138E+03</pdfrwt>
<pdfrwt beam="2">  1        1 0.15825979E+00 0.12780138E+03</pdfrwt>
<totfact> 0.16250346E+04</totfact>
</mgrwt>
</event>
<event>
 6    2  0.1181843E-002  0.1603900E+03  0.7546771E-02  0.1188257E+00
         21   -1    0    0  502  503  0.00000000000E+00  0.00000000000E+00  0.43999244078E+02  0.43999244078E+02  0.00000000000E+00 0. -1.
          2   -1    0    0  503    0 -0.00000000000E+00 -0.00000000000E+00 -0.40196221721E+03  0.40196221721E+03  0.00000000000E+00 0.  1.
         25    2    1    2    0    0 -0.71002210426E+02  0.71125727178E+02 -0.17622082891E+03  0.23828288767E+03  0.12499908425E+03 0.  0.
          5    1    3    3  501    0 -0.65913710408E+02 -0.55634937183E+00 -0.14625531357E+03  0.16042304539E+03  0.10000000000E+00 0. -1.
         -5    1    3    3    0  501 -0.50885000179E+01  0.71682076550E+02 -0.29965515339E+02  0.77859842284E+02  0.10000000000E+00 0. -1.
          2    1    1    2  502    0  0.71002210426E+02 -0.71125727178E+02 -0.18174214422E+03  0.20767857362E+03  0.00000000000E+00 0.  1.
<mgrwt>
<rscale>  1 0.16039001E+03</rscale>
<asrwt>0</asrwt>
<pdfrwt beam="1">  1       21 0.67691146E-02 0.16039001E+03</pdfrwt>
<pdfrwt beam="2">  1        2 0.61840340E-01 0.16039001E+03</pdfrwt>
<totfact> 0.15795123E+05</totfact>
</mgrwt>
</event>
<event>
 6    2  0.1181843E-002  0.1928766E+03  0.7546771E-02  0.1155892E+00
          2   -1    0    0  503    0 -0.00000000000E+00  0.00000000000E+00  0.96211216512E+03  0.96211216512E+03  0.00000000000E+00 0. -1.
         21   -1    0    0  502  503  0.00000000000E+00 -0.00000000000E+00 -0.31580226604E+02  0.31580226604E+02  0.00000000000E+00 0. -1.
         25    2    1    2    0    0  0.13312418680E+03  0.62076382470E+02  0.63538905231E+03  0.66401853827E+03  0.12500337997E+03 0.  0.
          5    1    3    3  501    0  0.95048894882E+02  0.41267251336E+02  0.59748443844E+03  0.60640328382E+03  0.10000000000E+00 0. -1.
         -5    1    3    3    0  501  0.38075291914E+02  0.20809131134E+02  0.37904613868E+02  0.57615254451E+02  0.10000000000E+00 0. -1.
          2    1    1    2  502    0 -0.13312418680E+03 -0.62076382470E+02  0.29514288621E+03  0.32967385346E+03  0.00000000000E+00 0. -1.
<mgrwt>
<rscale>  1 0.19287657E+03</rscale>
<asrwt>0</asrwt>
<pdfrwt beam="1">  1       21 0.48584971E-02 0.19287657E+03</pdfrwt>
<pdfrwt beam="2">  1        2 0.14801723E+00 0.19287657E+03</pdfrwt>
<totfact> 0.99466622E+04</totfact>
</mgrwt>
</event>
<event>
 6    2  0.1181843E-002  0.1275781E+03  0.7546771E-02  0.1231094E+00
         21   -1    0    0  502  503  0.00000000000E+00  0.00000000000E+00  0.49196684492E+02  0.49196684492E+02  0.00000000000E+00 0.  1.
          2   -1    0    0  503    0 -0.00000000000E+00 -0.00000000000E+00 -0.23356076545E+03  0.23356076545E+03  0.00000000000E+00 0.  1.
         25    2    1    2    0    0 -0.23464858430E+02 -0.10088078082E+02 -0.21054487256E+03  0.24618146398E+03  0.12499520369E+03 0.  0.
          5    1    3    3  501    0 -0.53904115623E+02 -0.36988891498E+02 -0.18944093788E+03  0.20040386902E+03  0.10000000000E+00 0. -1.
         -5    1    3    3    0  501  0.30439257193E+02  0.26900813416E+02 -0.21103934678E+02  0.45777594954E+02  0.10000000000E+00 0. -1.
          2    1    1    2  502    0  0.23464858430E+02  0.10088078082E+02  0.26180791598E+02  0.36575985964E+02  0.00000000000E+00 0.  1.
<mgrwt>
<rscale>  1 0.12757809E+03</rscale>
<asrwt>0</asrwt>
<pdfrwt beam="1">  1       21 0.75687207E-02 0.12757809E+03</pdfrwt>
<pdfrwt beam="2">  1        2 0.35932425E-01 0.12757809E+03</pdfrwt>
<totfact> 0.23006120E+05</totfact>
</mgrwt>
</event>
<event>
 6    2  0.1181843E-002  0.1628606E+03  0.7546771E-02  0.1185505E+00
          3   -1    0    0  503    0 -0.00000000000E+00  0.00000000000E+00  0.86863916401E+02  0.86863916401E+02  0.00000000000E+00 0. -1.
         21   -1    0    0  502  503  0.00000000000E+00 -0.00000000000E+00 -0.28891481306E+03  0.28891481306E+03  0.00000000000E+00 0. -1.
         25    2    1    2    0    0  0.70135398163E+02 -0.77319694917E+02 -0.21593926267E+03  0.27046872990E+03  0.12500503748E+03 0.  0.
          5    1    3    3  501    0 -0.35647393121E+02 -0.30443104003E+02 -0.69586589687E+02  0.83903651184E+02  0.10000000000E+00 0. -1.
         -5    1    3    3    0  501  0.10578279128E+03 -0.46876590914E+02 -0.14635267298E+03  0.18656507872E+03  0.10000000000E+00 0. -1.
          3    1    1    2  502    0 -0.70135398163E+02  0.77319694917E+02  0.13888366008E+02  0.10530999956E+03  0.00000000000E+00 0. -1.
<mgrwt>
<rscale>  1 0.16286058E+03</rscale>
<asrwt>0</asrwt>
<pdfrwt beam="1">  1       21 0.44448432E-01 0.16286058E+03</pdfrwt>
<pdfrwt beam="2">  1        3 0.13363680E-01 0.16286058E+03</pdfrwt>
<totfact> 0.10767502E+04</totfact>
</mgrwt>
</event>
<event>
 6    2  0.1181843E-002  0.1267716E+03  0.7546771E-02  0.1232326E+00
          1   -1    0    0  503    0 -0.00000000000E+00  0.00000000000E+00  0.14618733630E+03  0.14618733630E+03  0.00000000000E+00 0. -1.
         21   -1    0    0  502  503  0.00000000000E+00 -0.00000000000E+00 -0.74036381325E+02  0.74036381325E+02  0.00000000000E+00 0.  1.
         25    2    1    2    0    0 -0.19603529059E+02 -0.79514830019E+01 -0.17623260998E+02  0.12799067427E+03  0.12499403561E+03 0.  0.
          5    1    3    3  501    0  0.61131937927E+01 -0.37996962322E+01 -0.69536513090E+02  0.69908121721E+02  0.10000000000E+00 0.  1.
         -5    1    3    3    0  501 -0.25716722852E+02 -0.41517867696E+01  0.51913252092E+02  0.58082552547E+02  0.10000000000E+00 0.  1.
          1    1    1    2  502    0  0.19603529059E+02  0.79514830019E+01  0.89774215971E+02  0.92233043355E+02  0.00000000000E+00 0. -1.
<mgrwt>
<rscale>  1 0.12677158E+03</rscale>
<asrwt>0</asrwt>
<pdfrwt beam="1">  1       21 0.11390213E-01 0.12677158E+03</pdfrwt>
<pdfrwt beam="2">  1        1 0.22490359E-01 0.12677158E+03</pdfrwt>
<totfact> 0.14967641E+05</totfact>
</mgrwt>
</event>
<event>
 6    2  0.1181843E-002  0.1259284E+03  0.7546771E-02  0.1233625E+00
         21   -1    0    0  502  503  0.00000000000E+00  0.00000000000E+00  0.41486983167E+01  0.41486983167E+01  0.00000000000E+00 0.  1.
          2   -1    0    0  503    0 -0.00000000000E+00 -0.00000000000E+00 -0.19987094436E+04  0.19987094436E+04  0.00000000000E+00 0.  1.
         25    2    1    2    0    0 -0.14916692703E+02 -0.31259213438E+01 -0.96467211558E+03  0.97285674934E+03  0.12500274023E+03 0.  0.
          5    1    3    3  501    0  0.32638455266E+02  0.11163285039E+02 -0.84288028539E+02  0.91073428891E+02  0.10000000000E+00 0. -1.
         -5    1    3    3    0  501 -0.47555147969E+02 -0.14289206383E+02 -0.88038408704E+03  0.88178332045E+03  0.10000000000E+00 0. -1.
          2    1    1    2  502    0  0.14916692703E+02  0.31259213438E+01 -0.10298886297E+04  0.10300013925E+04  0.00000000000E+00 0.  1.
<mgrwt>
<rscale>  1 0.12592841E+03</rscale>
<asrwt>0</asrwt>
<pdfrwt beam="1">  1       21 0.63826154E-03 0.12592841E+03</pdfrwt>
<pdfrwt beam="2">  1        2 0.30749364E+00 0.12592841E+03</pdfrwt>
<totfact> 0.72891205E+05</totfact>
</mgrwt>
</event>
<event>
 6    2  0.1181843E-002  0.1312332E+03  0.7546771E-02  0.1225637E+00
          2   -1    0    0  503    0 -0.00000000000E+00  0.00000000000E+00  0.26827864229E+04  0.26827864229E+04  0.00000000000E+00 0.  1.
         21   -1    0    0  502  503  0.00000000000E+00 -0.00000000000E+00 -0.94320384754E+02  0.94320384754E+02  0.00000000000E+00 0.  1.
         25    2    1    2    0    0  0.36823852829E+02  0.15592160494E+02 -0.48447317195E+02  0.13989025318E+03  0.12499211490E+03 0.  0.
          5    1    3    3  501    0 -0.30658451689E+02  0.55337228899E+01 -0.62860062217E+02  0.70156683010E+02  0.10000000000E+00 0.  1.
         -5    1    3    3    0  501  0.67482304518E+02  0.10058437605E+02  0.14412745022E+02  0.69733570173E+02  0.10000000000E+00 0.  1.
          2    1    1    2  502    0 -0.36823852829E+02 -0.15592160494E+02  0.26369133554E+04  0.26372165545E+04  0.00000000000E+00 0.  1.
<mgrwt>
<rscale>  1 0.13123315E+03</rscale>
<asrwt>0</asrwt>
<pdfrwt beam="1">  1       21 0.14510830E-01 0.13123315E+03</pdfrwt>
<pdfrwt beam="2">  1        2 0.41273631E+00 0.13123315E+03</pdfrwt>
<totfact> 0.18247360E+03</totfact>
</mgrwt>
</event>
<event>
 6    2  0.1181843E-002  0.1261933E+03  0.7546771E-02  0.1233216E+00
         21   -1    0    0  502  503  0.00000000000E+00  0.00000000000E+00  0.59909808795E+02  0.59909808795E+02  0.00000000000E+00 0. -1.
          1   -1    0    0  503    0 -0.00000000000E+00 -0.00000000000E+00 -0.87818726301E+03  0.87818726301E+03  0.00000000000E+00 0.  1.
         25    2    1    2    0    0  0.17220883514E+02  0.24319065398E+01 -0.67398673778E+01  0.12637314839E+03  0.12498909481E+03 0.  0.
          5    1    3    3  501    0  0.13759584412E+02  0.17466101732E+02 -0.63643156937E+02  0.67415519710E+02  0.10000000000E+00 0.  1.
         -5    1    3    3    0  501  0.34612991016E+01 -0.15034195192E+02  0.56903289559E+02  0.58957628677E+02  0.10000000000E+00 0.  1.
          1    1    1    2  502    0 -0.17220883514E+02 -0.24319065398E+01 -0.81153758684E+03  0.81172392342E+03  0.00000000000E+00 0.  1.
<mgrwt>
<rscale>  1 0.12619329E+03</rscale>
<asrwt>0</asrwt>
<pdfrwt beam="1">  1       21 0.92168947E-02 0.12619329E+03</pdfrwt>
<pdfrwt beam="2">  1        1 0.13510572E+00 0.12619329E+03</pdfrwt>
<totfact> 0.21103221E+04</totfact>
</mgrwt>
</event>
<event>
 6    2  0.1181843E-002  0.1366081E+03  0.7546771E-02  0.1217967E+00
         21   -1    0    0  502  503  0.00000000000E+00  0.00000000000E+00  0.11635183195E+03  0.11635183195E+03  0.00000000000E+00 0. -1.
          1   -1    0    0  503    0 -0.00000000000E+00 -0.00000000000E+00 -0.31677517983E+03  0.31677517983E+03  0.00000000000E+00 0. -1.
         25    2    1    2    0    0 -0.11292721232E+02  0.53930802950E+02  0.72529392750E+02  0.15466829728E+03  0.12500284922E+03 0.  0.
          5    1    3    3  501    0  0.13433947012E+01 -0.12893741168E+02 -0.29401174205E+02  0.32132418447E+02  0.10000000000E+00 0. -1.
         -5    1    3    3    0  501 -0.12636115933E+02  0.66824544118E+02  0.10193056696E+03  0.12253587884E+03  0.10000000000E+00 0. -1.
          1    1    1    2  502    0  0.11292721232E+02 -0.53930802950E+02 -0.27295274063E+03  0.27845871449E+03  0.00000000000E+00 0. -1.
<mgrwt>
<rscale>  1 0.13660809E+03</rscale>
<asrwt>0</asrwt>
<pdfrwt beam="1">  1       21 0.17900282E-01 0.13660809E+03</pdfrwt>
<pdfrwt beam="2">  1        1 0.48734643E-01 0.13660809E+03</pdfrwt>
<totfact> 0.25460580E+04</totfact>
</mgrwt>
</event>
<event>
 6    2  0.1181843E-002  0.1317818E+03  0.7546771E-02  0.1224836E+00
          2   -1    0    0  503    0 -0.00000000000E+00  0.00000000000E+00  0.72283685592E+03  0.72283685592E+03  0.00000000000E+00 0. -1.
         21   -1    0    0  502  503  0.00000000000E+00 -0.00000000000E+00 -0.21004420069E+03  0.21004420069E+03  0.00000000000E+00 0.  1.
         25    2    1    2    0    0  0.32713563739E+02 -0.26017053767E+02 -0.18869074527E+03  0.23015349525E+03  0.12497747671E+03 0.  0.
          5    1    3    3  501    0 -0.25807837900E+02  0.34462797188E+02 -0.94478633142E+02  0.10382654288E+03  0.10000000000E+00 0. -1.
         -5    1    3    3    0  501  0.58521401639E+02 -0.60479850955E+02 -0.94212112127E+02  0.12632695236E+03  0.10000000000E+00 0. -1.
          2    1    1    2  502    0 -0.32713563739E+02  0.26017053767E+02  0.70148340049E+03  0.70272756137E+03  0.00000000000E+00 0. -1.
<mgrwt>
<rscale>  1 0.13178177E+03</rscale>
<asrwt>0</asrwt>
<pdfrwt beam="1">  1       21 0.32314493E-01 0.13178177E+03</pdfrwt>
<pdfrwt beam="2">  1        2 0.11120567E+00 0.13178177E+03</pdfrwt>
<totfact> 0.48036710E+03</totfact>
</mgrwt>
</event>
<event>
 6    2  0.1181843E-002  0.1275452E+03  0.7546771E-02  0.1231144E+00
         21   -1    0    0  502  503  0.00000000000E+00  0.00000000000E+00  0.35429237574E+02  0.35429237574E+02  0.00000000000E+00 0. -1.
          4   -1    0    0  503    0 -0.00000000000E+00 -0.00000000000E+00 -0.27544015569E+03  0.27544015569E+03  0.00000000000E+00 0. -1.
         25    2    1    2    0    0 -0.49710476993E+01 -0.24860319772E+02 -0.83792593505E+02  0.15260723178E+03  0.12500008660E+03 0.  0.
          5    1    3    3  501    0  0.55985777629E+02 -0.18168986447E+02 -0.15590442849E+02  0.60889993212E+02  0.10000000000E+00 0. -1.
         -5    1    3    3    0  501 -0.60956825328E+02 -0.66913333255E+01 -0.68202150656E+02  0.91717238564E+02  0.10000000000E+00 0. -1.
          4    1    1    2  502    0  0.49710476993E+01  0.24860319772E+02 -0.15621832461E+03  0.15826216149E+03  0.00000000000E+00 0. -1.
<mgrwt>
<rscale>  1 0.12754516E+03</rscale>
<asrwt>0</asrwt>
<pdfrwt beam="1">  1       21 0.54506519E-02 0.12754516E+03</pdfrwt>
<pdfrwt beam="2">  1        4 0.42375409E-01 0.12754516E+03</pdfrwt>
<totfact> 0.50489491E+04</totfact>
</mgrwt>
</event>
<event>
 6    2  0.1181843E-002  0.1266732E+03  0.7546771E-02  0.1232477E+00
         21   -1    0    0  502  503  0.00000000000E+00  0.00000000000E+00  0.23477241056E+02  0.23477241056E+02  0.00000000000E+00 0.  1.
          1   -1    0    0  503    0 -0.00000000000E+00 -0.00000000000E+00 -0.29667809727E+03  0.29667809727E+03  0.00000000000E+00 0.  1.
         25    2    1    2    0    0 -0.11844812206E+02 -0.16674328746E+02 -0.15490397325E+03  0.20010332737E+03  0.12501107103E+03 0.  0.
          5    1    3    3  501    0 -0.63107630224E+02  0.16930544875E+02 -0.77471232072E+02  0.10134603170E+03  0.10000000000E+00 0.  1.
         -5    1    3    3    0  501  0.51262818018E+02 -0.33604873621E+02 -0.77432741176E+02  0.98757295671E+02  0.10000000000E+00 0.  1.
          1    1    1    2  502    0  0.11844812206E+02  0.16674328746E+02 -0.11829688296E+03  0.12005201096E+03  0.00000000000E+00 0.  1.
<mgrwt>
<rscale>  1 0.12667320E+03</rscale>
<asrwt>0</asrwt>
<pdfrwt beam="1">  1       21 0.36118830E-02 0.12667320E+03</pdfrwt>
<pdfrwt beam="2">  1        1 0.45642788E-01 0.12667320E+03</pdfrwt>
<totfact> 0.43989850E+05</totfact>
</mgrwt>
</event>
<event>
 6    2  0.1181843E-002  0.1291854E+03  0.7546771E-02  0.1228670E+00
         21   -1    0    0  502  503  0.00000000000E+00  0.00000000000E+00  0.70379157582E+02  0.70379157582E+02  0.00000000000E+00 0. -1.
          2   -1    0    0  503    0 -0.00000000000E+00 -0.00000000000E+00 -0.10846024009E+03  0.10846024009E+03  0.00000000000E+00 0.  1.
         25    2    1    2    0    0  0.14688266784E+02 -0.29115684857E+02 -0.63914218541E+00  0.12918693367E+03  0.12500154817E+03 0.  0.
          5    1    3    3  501    0 -0.38399365514E+02 -0.38252810651E+02  0.35069958808E+02  0.64557732344E+02  0.10000000000E+00 0.  1.
         -5    1    3    3    0  501  0.53087632299E+02  0.91371257947E+01 -0.35709100993E+02  0.64629201330E+02  0.10000000000E+00 0.  1.
          2    1    1    2  502    0 -0.14688266784E+02  0.29115684857E+02 -0.37441940323E+02  0.49652463997E+02  0.00000000000E+00 0.  1.
<mgrwt>
<rscale>  1 0.12918535E+03</rscale>
<asrwt>0</asrwt>
<pdfrwt beam="1">  1       21 0.10827563E-01 0.12918535E+03</pdfrwt>
<pdfrwt beam="2">  1        2 0.16686191E-01 0.12918535E+03</pdfrwt>
<totfact> 0.28858455E+05</totfact>
</mgrwt>
</event>
<event>
 6    2  0.1181843E-002  0.1274768E+03  0.7546771E-02  0.1231248E+00
         21   -1    0    0  502  503  0.00000000000E+00  0.00000000000E+00  0.79496801677E+02  0.79496801677E+02  0.00000000000E+00 0.  1.
          4   -1    0    0  503    0 -0.00000000000E+00 -0.00000000000E+00 -0.12767527532E+03  0.12767527532E+03  0.00000000000E+00 0.  1.
         25    2    1    2    0    0 -0.20008077543E+02 -0.14984371711E+02  0.24944551651E+02  0.12989445158E+03  0.12500193331E+03 0.  0.
          5    1    3    3  501    0 -0.17841437338E+02 -0.42580896854E+02  0.65899154617E+02  0.80462154100E+02  0.10000000000E+00 0. -1.
         -5    1    3    3    0  501 -0.21666402054E+01  0.27596525143E+02 -0.40954602966E+02  0.49432297477E+02  0.10000000000E+00 0. -1.
          4    1    1    2  502    0  0.20008077543E+02  0.14984371711E+02 -0.73123025298E+02  0.77277625425E+02  0.00000000000E+00 0.  1.
<mgrwt>
<rscale>  1 0.12747681E+03</rscale>
<asrwt>0</asrwt>
<pdfrwt beam="1">  1       21 0.12230277E-01 0.12747681E+03</pdfrwt>
<pdfrwt beam="2">  1        4 0.19642350E-01 0.12747681E+03</pdfrwt>
<totfact> 0.53087773E+04</totfact>
</mgrwt>
</event>
<event>
 6    2  0.1181843E-002  0.1267579E+03  0.7546771E-02  0.1232347E+00
          2   -1    0    0  503    0 -0.00000000000E+00  0.00000000000E+00  0.29333886642E+04  0.29333886642E+04  0.00000000000E+00 0. -1.
         21   -1    0    0  502  503  0.00000000000E+00 -0.00000000000E+00 -0.20102778483E+01  0.20102778483E+01  0.00000000000E+00 0. -1.
         25    2    1    2    0    0 -0.20775980400E+02  0.62580666650E+00  0.21422660695E+04  0.21460129265E+04  0.12504213297E+03 0.  0.
          5    1    3    3  501    0 -0.45329870403E+02  0.46501159109E+02  0.15830219750E+04  0.15843534133E+04  0.10000000000E+00 0. -1.
         -5    1    3    3    0  501  0.24553890003E+02 -0.45875352443E+02  0.55924409450E+03  0.56165951315E+03  0.10000000000E+00 0. -1.
          2    1    1    2  502    0  0.20775980400E+02 -0.62580666650E+00  0.78911231681E+03  0.78938601554E+03  0.00000000000E+00 0. -1.
<mgrwt>
<rscale>  1 0.12675791E+03</rscale>
<asrwt>0</asrwt>
<pdfrwt beam="1">  1       21 0.30927586E-03 0.12675791E+03</pdfrwt>
<pdfrwt beam="2">  1        2 0.45128714E+00 0.12675791E+03</pdfrwt>
<totfact> 0.70558636E+05</totfact>
</mgrwt>
</event>
<event>
 6    2  0.1181843E-002  0.1272435E+03  0.7546771E-02  0.1231604E+00
          2   -1    0    0  503    0 -0.00000000000E+00  0.00000000000E+00  0.10291617661E+04  0.10291617661E+04  0.00000000000E+00 0. -1.
         21   -1    0    0  502  503  0.00000000000E+00 -0.00000000000E+00 -0.38246781587E+02  0.38246781587E+02  0.00000000000E+00 0. -1.
         25    2    1    2    0    0 -0.21243886912E+02  0.10670889064E+02  0.10210933584E+04  0.10289910406E+04  0.12500297805E+03 0.  0.
          5    1    3    3  501    0  0.45009055791E+02  0.33495025698E+02  0.52097504202E+03  0.52398734360E+03  0.10000000000E+00 0. -1.
         -5    1    3    3    0  501 -0.66252942703E+02 -0.22824136634E+02  0.50011831638E+03  0.50500369703E+03  0.10000000000E+00 0. -1.
          2    1    1    2  502    0  0.21243886912E+02 -0.10670889064E+02 -0.30178373840E+02  0.38417507105E+02  0.00000000000E+00 0. -1.
<mgrwt>
<rscale>  1 0.12724353E+03</rscale>
<asrwt>0</asrwt>
<pdfrwt beam="1">  1       21 0.58841210E-02 0.12724353E+03</pdfrwt>
<pdfrwt beam="2">  1        2 0.15833256E+00 0.12724353E+03</pdfrwt>
<totfact> 0.65554228E+04</totfact>
</mgrwt>
</event>
<event>
 6    2  0.1181843E-002  0.1622177E+03  0.7546771E-02  0.1186216E+00
         21   -1    0    0  502  503  0.00000000000E+00  0.00000000000E+00  0.88888657431E+02  0.88888657431E+02  0.00000000000E+00 0. -1.
          2   -1    0    0  503    0 -0.00000000000E+00 -0.00000000000E+00 -0.11465641598E+04  0.11465641598E+04  0.00000000000E+00 0. -1.
         25    2    1    2    0    0  0.80556683353E+02  0.64807077170E+02  0.10243454289E+02  0.16254078240E+03  0.12500096441E+03 0.  0.
          5    1    3    3  501    0  0.25092507744E+02  0.17688970193E+02  0.64720776538E+02  0.71633250150E+02  0.10000000000E+00 0.  1.
         -5    1    3    3    0  501  0.55464175609E+02  0.47118106977E+02 -0.54477322249E+02  0.90907532254E+02  0.10000000000E+00 0.  1.
          2    1    1    2  502    0 -0.80556683353E+02 -0.64807077170E+02 -0.10679189566E+04  0.10729120348E+04  0.00000000000E+00 0. -1.
<mgrwt>
<rscale>  1 0.16221769E+03</rscale>
<asrwt>0</asrwt>
<pdfrwt beam="1">  1       21 0.13675179E-01 0.16221769E+03</pdfrwt>
<pdfrwt beam="2">  1        2 0.17639447E+00 0.16221769E+03</pdfrwt>
<totfact> 0.12822010E+04</totfact>
</mgrwt>
</event>
<event>
 6    2  0.1181843E-002  0.1278524E+03  0.7546771E-02  0.1230678E+00
         21   -1    0    0  502  503  0.00000000000E+00  0.00000000000E+00  0.27947257235E+03  0.27947257235E+03  0.00000000000E+00 0.  1.
          4   -1    0    0  503    0 -0.00000000000E+00 -0.00000000000E+00 -0.14279272379E+03  0.14279272379E+03  0.00000000000E+00 0.  1.
         25    2    1    2    0    0  0.35850273428E+00  0.26809816334E+02  0.26337337167E+03  0.29276570704E+03  0.12500932579E+03 0.  0.
          5    1    3    3  501    0 -0.23437077819E+02  0.71593715909E+02  0.18074876803E+03  0.19581900807E+03  0.10000000000E+00 0.  1.
         -5    1    3    3    0  501  0.23795580553E+02 -0.44783899575E+02  0.82624603640E+02  0.96946698973E+02  0.10000000000E+00 0.  1.
          4    1    1    2  502    0 -0.35850273428E+00 -0.26809816334E+02 -0.12669352312E+03  0.12949958909E+03  0.00000000000E+00 0.  1.
<mgrwt>
<rscale>  1 0.12785236E+03</rscale>
<asrwt>0</asrwt>
<pdfrwt beam="1">  1       21 0.42995780E-01 0.12785236E+03</pdfrwt>
<pdfrwt beam="2">  1        4 0.21968111E-01 0.12785236E+03</pdfrwt>
<totfact> 0.40802533E+03</totfact>
</mgrwt>
</event>
<event>
 6    2  0.1181843E-002  0.1278317E+03  0.7546771E-02  0.1230709E+00
          2   -1    0    0  503    0 -0.00000000000E+00  0.00000000000E+00  0.70479046537E+03  0.70479046537E+03  0.00000000000E+00 0. -1.
         21   -1    0    0  502  503  0.00000000000E+00 -0.00000000000E+00 -0.86756625120E+01  0.86756625120E+01  0.00000000000E+00 0. -1.
         25    2    1    2    0    0 -0.13648613365E+02  0.22997029902E+02  0.52905540367E+03  0.54427986695E+03  0.12500322149E+03 0.  0.
          5    1    3    3  501    0  0.54875637697E+02  0.15512088561E+02  0.28647458582E+03  0.29209529066E+03  0.10000000000E+00 0.  1.
         -5    1    3    3    0  501 -0.68524251062E+02  0.74849413415E+01  0.24258081785E+03  0.25218457629E+03  0.10000000000E+00 0.  1.
          2    1    1    2  502    0  0.13648613365E+02 -0.22997029902E+02  0.16705939919E+03  0.16918626093E+03  0.00000000000E+00 0. -1.
<mgrwt>
<rscale>  1 0.12783174E+03</rscale>
<asrwt>0</asrwt>
<pdfrwt beam="1">  1       21 0.13347179E-02 0.12783174E+03</pdfrwt>
<pdfrwt beam="2">  1        2 0.10842926E+00 0.12783174E+03</pdfrwt>
<totfact> 0.12066205E+06</totfact>
</mgrwt>
</event>
<event>
 6    2  0.1181843E-002  0.2057859E+03  0.7546771E-02  0.1144947E+00
         21   -1    0    0  502  503  0.00000000000E+00  0.00000000000E+00  0.13382696660E+02  0.13382696660E+02  0.00000000000E+00 0. -1.
          2   -1    0    0  503    0 -0.00000000000E+00 -0.00000000000E+00 -0.27092756750E+04  0.27092756750E+04  0.00000000000E+00 0. -1.
         25    2    1    2    0    0  0.49061092352E+02  0.15593683793E+03 -0.18241000416E+04  0.18356712168E+04  0.12499826594E+03 0.  0.
          5    1    3    3  501    0 -0.77060302373E+00  0.14910535216E+03 -0.11374671880E+04  0.11471985938E+04  0.10000000000E+00 0.  1.
         -5    1    3    3    0  501  0.49831695376E+02  0.68314857745E+01 -0.68663285353E+03  0.68847262299E+03  0.10000000000E+00 0.  1.
          2    1    1    2  502    0 -0.49061092352E+02 -0.15593683793E+03 -0.87179293675E+03  0.88698715479E+03  0.00000000000E+00 0. -1.
<mgrwt>
<rscale>  1 0.20578594E+03</rscale>
<asrwt>0</asrwt>
<pdfrwt beam="1">  1       21 0.20588777E-02 0.20578594E+03</pdfrwt>
<pdfrwt beam="2">  1        2 0.41681138E+00 0.20578594E+03</pdfrwt>
<totfact> 0.47060777E+04</totfact>
</mgrwt>
</event>
<event>
 6    2  0.1181843E-002  0.1337751E+03  0.7546771E-02  0.1221959E+00
         21   -1    0    0  502  503  0.00000000000E+00  0.00000000000E+00  0.32161646687E+02  0.32161646687E+02  0.00000000000E+00 0. -1.
          1   -1    0    0  503    0 -0.00000000000E+00 -0.00000000000E+00 -0.88106221653E+03  0.88106221653E+03  0.00000000000E+00 0. -1.
         25    2    1    2    0    0 -0.32491234821E+02  0.34858263066E+02 -0.11112117029E+03  0.17390713728E+03  0.12499999627E+03 0.  0.
          5    1    3    3  501    0  0.22178112138E+02  0.52797898350E+02 -0.10009999795E+03  0.11532348554E+03  0.10000000000E+00 0. -1.
         -5    1    3    3    0  501 -0.54669346959E+02 -0.17939635284E+02 -0.11021172338E+02  0.58583651736E+02  0.10000000000E+00 0. -1.
          1    1    1    2  502    0  0.32491234821E+02 -0.34858263066E+02 -0.73777939955E+03  0.73931672593E+03  0.00000000000E+00 0. -1.
<mgrwt>
<rscale>  1 0.13377510E+03</rscale>
<asrwt>0</asrwt>
<pdfrwt beam="1">  1       21 0.49479462E-02 0.13377510E+03</pdfrwt>
<pdfrwt beam="2">  1        1 0.13554802E+00 0.13377510E+03</pdfrwt>
<totfact> 0.60720580E+04</totfact>
</mgrwt>
</event>
<event>
 6    2  0.1181843E-002  0.1547067E+03  0.7546771E-02  0.1194806E+00
          1   -1    0    0  503    0 -0.00000000000E+00  0.00000000000E+00  0.14250081952E+04  0.14250081952E+04  0.00000000000E+00 0.  1.
         21   -1    0    0  502  503  0.00000000000E+00 -0.00000000000E+00 -0.14941142045E+02  0.14941142045E+02  0.00000000000E+00 0.  1.
         25    2    1    2    0    0 -0.36113057671E+02 -0.83738007342E+02  0.12127531888E+04  0.12225810602E+04  0.12497177662E+03 0.  0.
          5    1    3    3  501    0  0.86122280777E+01 -0.50721222464E+02  0.15393885677E+03  0.16230833159E+03  0.10000000000E+00 0.  1.
         -5    1    3    3    0  501 -0.44725285749E+02 -0.33016784879E+02  0.10588143321E+04  0.10602727286E+04  0.10000000000E+00 0.  1.
          1    1    1    2  502    0  0.36113057671E+02  0.83738007342E+02  0.19731386434E+03  0.21736827705E+03  0.00000000000E+00 0.  1.
<mgrwt>
<rscale>  1 0.15470666E+03</rscale>
<asrwt>0</asrwt>
<pdfrwt beam="1">  1       21 0.22986384E-02 0.15470666E+03</pdfrwt>
<pdfrwt beam="2">  1        1 0.21923192E+00 0.15470666E+03</pdfrwt>
<totfact> 0.89549003E+04</totfact>
</mgrwt>
</event>
<event>
 6    2  0.1181843E-002  0.1264346E+03  0.7546771E-02  0.1232844E+00
         21   -1    0    0  502  503  0.00000000000E+00  0.00000000000E+00  0.22501446689E+02  0.22501446689E+02  0.00000000000E+00 0. -1.
          2   -1    0    0  503    0 -0.00000000000E+00 -0.00000000000E+00 -0.58338800226E+03  0.58338800226E+03  0.00000000000E+00 0.  1.
         25    2    1    2    0    0 -0.47502697953E+01 -0.18406909014E+02 -0.15711257934E+03  0.20166821837E+03  0.12499731339E+03 0.  0.
          5    1    3    3  501    0  0.46281036574E+02 -0.61871632837E+01 -0.13253098231E+02  0.48537304711E+02  0.10000000000E+00 0.  1.
         -5    1    3    3    0  501 -0.51031306369E+02 -0.12219745730E+02 -0.14385948110E+03  0.15313091366E+03  0.10000000000E+00 0.  1.
          2    1    1    2  502    0  0.47502697953E+01  0.18406909014E+02 -0.40377397624E+03  0.40422123058E+03  0.00000000000E+00 0.  1.
<mgrwt>
<rscale>  1 0.12643460E+03</rscale>
<asrwt>0</asrwt>
<pdfrwt beam="1">  1       21 0.34617611E-02 0.12643460E+03</pdfrwt>
<pdfrwt beam="2">  1        2 0.89751997E-01 0.12643460E+03</pdfrwt>
<totfact> 0.32083540E+05</totfact>
</mgrwt>
</event>
<event>
 6    2  0.1181843E-002  0.1303140E+03  0.7546771E-02  0.1226991E+00
          2   -1    0    0  503    0 -0.00000000000E+00  0.00000000000E+00  0.27259767354E+04  0.27259767354E+04  0.00000000000E+00 0.  1.
         21   -1    0    0  502  503  0.00000000000E+00 -0.00000000000E+00 -0.32928019333E+02  0.32928019333E+02  0.00000000000E+00 0. -1.
         25    2    1    2    0    0  0.35681738900E+02  0.91447973388E+01  0.96646976075E+02  0.16224174055E+03  0.12499972233E+03 0.  0.
          5    1    3    3  501    0  0.44704510303E+01  0.51987365915E+02  0.18962275925E+00  0.52179661784E+02  0.10000000000E+00 0.  1.
         -5    1    3    3    0  501  0.31211287870E+02 -0.42842568576E+02  0.96457353315E+02  0.11006207876E+03  0.10000000000E+00 0.  1.
          2    1    1    2  502    0 -0.35681738900E+02 -0.91447973388E+01  0.25964017400E+04  0.25966630142E+04  0.00000000000E+00 0.  1.
<mgrwt>
<rscale>  1 0.13031402E+03</rscale>
<asrwt>0</asrwt>
<pdfrwt beam="1">  1       21 0.50658513E-02 0.13031402E+03</pdfrwt>
<pdfrwt beam="2">  1        2 0.41938086E+00 0.13031402E+03</pdfrwt>
<totfact> 0.10732454E+04</totfact>
</mgrwt>
</event>
<event>
 6    2  0.1181843E-002  0.1266609E+03  0.7546771E-02  0.1232496E+00
         21   -1    0    0  502  503  0.00000000000E+00  0.00000000000E+00  0.30668127341E+02  0.30668127341E+02  0.00000000000E+00 0. -1.
          4   -1    0    0  503    0 -0.00000000000E+00 -0.00000000000E+00 -0.25567236284E+03  0.25567236284E+03  0.00000000000E+00 0.  1.
         25    2    1    2    0    0  0.94928701568E+01 -0.18102425666E+02 -0.10475757653E+03  0.16436888942E+03  0.12500067828E+03 0.  0.
          5    1    3    3  501    0  0.55373929859E+02  0.10386037688E+02 -0.12878323125E+02  0.57792759871E+02  0.10000000000E+00 0.  1.
         -5    1    3    3    0  501 -0.45881059703E+02 -0.28488463354E+02 -0.91879253403E+02  0.10657612955E+03  0.10000000000E+00 0.  1.
          4    1    1    2  502    0 -0.94928701568E+01  0.18102425666E+02 -0.12024665897E+03  0.12197160076E+03  0.00000000000E+00 0.  1.
<mgrwt>
<rscale>  1 0.12666089E+03</rscale>
<asrwt>0</asrwt>
<pdfrwt beam="1">  1       21 0.47181732E-02 0.12666089E+03</pdfrwt>
<pdfrwt beam="2">  1        4 0.39334211E-01 0.12666089E+03</pdfrwt>
<totfact> 0.74446007E+04</totfact>
</mgrwt>
</event>
<event>
 6    2  0.1181843E-002  0.1464722E+03  0.7546771E-02  0.1204876E+00
         21   -1    0    0  502  503  0.00000000000E+00  0.00000000000E+00  0.31602803672E+02  0.31602803672E+02  0.00000000000E+00 0. -1.
          2   -1    0    0  503    0 -0.00000000000E+00 -0.00000000000E+00 -0.49273967632E+03  0.49273967632E+03  0.00000000000E+00 0. -1.
         25    2    1    2    0    0  0.52334132617E+00  0.76355549974E+02 -0.17507975851E+03  0.22826965711E+03  0.12499468237E+03 0.  0.
          5    1    3    3  501    0 -0.33233927503E+02 -0.20125870582E+02 -0.23376990019E+02  0.45343558157E+02  0.10000000000E+00 0.  1.
         -5    1    3    3    0  501  0.33757268829E+02  0.96481420556E+02 -0.15170276849E+03  0.18292609896E+03  0.10000000000E+00 0.  1.
          2    1    1    2  502    0 -0.52334132617E+00 -0.76355549974E+02 -0.28605711414E+03  0.29607282288E+03  0.00000000000E+00 0. -1.
<mgrwt>
<rscale>  1 0.14647223E+03</rscale>
<asrwt>0</asrwt>
<pdfrwt beam="1">  1       21 0.48619698E-02 0.14647223E+03</pdfrwt>
<pdfrwt beam="2">  1        2 0.75806103E-01 0.14647223E+03</pdfrwt>
<totfact> 0.22137657E+05</totfact>
</mgrwt>
</event>
<event>
 6    2  0.1181843E-002  0.1287511E+03  0.7546771E-02  0.1229321E+00
         21   -1    0    0  502  503  0.00000000000E+00  0.00000000000E+00  0.16768653234E+02  0.16768653234E+02  0.00000000000E+00 0. -1.
          2   -1    0    0  503    0 -0.00000000000E+00 -0.00000000000E+00 -0.72602703659E+03  0.72602703659E+03  0.00000000000E+00 0. -1.
         25    2    1    2    0    0  0.30419049948E+02  0.51390225129E+01 -0.23854954943E+03  0.27107698711E+03  0.12500046902E+03 0.  0.
          5    1    3    3  501    0  0.48336846157E+02  0.53105556388E+02 -0.17700700788E+03  0.19101869452E+03  0.10000000000E+00 0.  1.
         -5    1    3    3    0  501 -0.17917796210E+02 -0.47966533875E+02 -0.61542541545E+02  0.80058292592E+02  0.10000000000E+00 0.  1.
          2    1    1    2  502    0 -0.30419049948E+02 -0.51390225129E+01 -0.47070883393E+03  0.47171870272E+03  0.00000000000E+00 0. -1.
<mgrwt>
<rscale>  1 0.12875110E+03</rscale>
<asrwt>0</asrwt>
<pdfrwt beam="1">  1       21 0.25797933E-02 0.12875110E+03</pdfrwt>
<pdfrwt beam="2">  1        2 0.11169645E+00 0.12875110E+03</pdfrwt>
<totfact> 0.40350410E+05</totfact>
</mgrwt>
</event>
<event>
 6    2  0.1181843E-002  0.1297749E+03  0.7546771E-02  0.1227790E+00
          4   -1    0    0  503    0 -0.00000000000E+00  0.00000000000E+00  0.10268069010E+04  0.10268069010E+04  0.00000000000E+00 0.  1.
         21   -1    0    0  502  503  0.00000000000E+00 -0.00000000000E+00 -0.71387169174E+01  0.71387169174E+01  0.00000000000E+00 0.  1.
         25    2    1    2    0    0 -0.30048772495E+02 -0.17692981497E+02  0.89973253703E+03  0.90904353724E+03  0.12500217634E+03 0.  0.
          5    1    3    3  501    0 -0.26980799047E+02  0.29853334716E+02  0.76636857249E+03  0.76742425295E+03  0.10000000000E+00 0. -1.
         -5    1    3    3    0  501 -0.30679734483E+01 -0.47546316214E+02  0.13336396454E+03  0.14161928430E+03  0.10000000000E+00 0. -1.
          4    1    1    2  502    0  0.30048772495E+02  0.17692981497E+02  0.11993564703E+03  0.12490208065E+03  0.00000000000E+00 0.  1.
<mgrwt>
<rscale>  1 0.12977486E+03</rscale>
<asrwt>0</asrwt>
<pdfrwt beam="1">  1       21 0.10982650E-02 0.12977486E+03</pdfrwt>
<pdfrwt beam="2">  1        4 0.15797018E+00 0.12977486E+03</pdfrwt>
<totfact> 0.36214545E+04</totfact>
</mgrwt>
</event>
<event>
 6    2  0.1181843E-002  0.1298385E+03  0.7546771E-02  0.1227696E+00
         21   -1    0    0  502  503  0.00000000000E+00  0.00000000000E+00  0.11429150129E+03  0.11429150129E+03  0.00000000000E+00 0. -1.
          2   -1    0    0  503    0 -0.00000000000E+00 -0.00000000000E+00 -0.84842347922E+03  0.84842347922E+03  0.00000000000E+00 0.  1.
         25    2    1    2    0    0 -0.18564435978E+01  0.35065199543E+02  0.76913556903E+02  0.15090966260E+03  0.12500006572E+03 0.  0.
          5    1    3    3  501    0 -0.52359197411E+02  0.53502263135E+02  0.54811220152E+02  0.92780696099E+02  0.10000000000E+00 0. -1.
         -5    1    3    3    0  501  0.50502753813E+02 -0.18437063592E+02  0.22102336751E+02  0.58128966501E+02  0.10000000000E+00 0. -1.
          2    1    1    2  502    0  0.18564435978E+01 -0.35065199543E+02 -0.81104553483E+03  0.81180531790E+03  0.00000000000E+00 0.  1.
<mgrwt>
<rscale>  1 0.12983848E+03</rscale>
<asrwt>0</asrwt>
<pdfrwt beam="1">  1       21 0.17583307E-01 0.12983848E+03</pdfrwt>
<pdfrwt beam="2">  1        2 0.13052669E+00 0.12983848E+03</pdfrwt>
<totfact> 0.12413515E+04</totfact>
</mgrwt>
</event>
<event>
 6    2  0.1181843E-002  0.1262266E+03  0.7546771E-02  0.1233165E+00
         21   -1    0    0  502  503  0.00000000000E+00  0.00000000000E+00  0.10771311593E+03  0.10771311593E+03  0.00000000000E+00 0. -1.
          1   -1    0    0  503    0 -0.00000000000E+00 -0.00000000000E+00 -0.52107908693E+02  0.52107908693E+02  0.00000000000E+00 0. -1.
         25    2    1    2    0    0  0.16783044055E+02 -0.50509098471E+01  0.62665313054E+02  0.14092585720E+03  0.12500389397E+03 0.  0.
          5    1    3    3  501    0  0.15204595454E+02  0.48426449763E+01 -0.37242344751E+02  0.40517072646E+02  0.10000000000E+00 0. -1.
         -5    1    3    3    0  501  0.15784486016E+01 -0.98935548234E+01  0.99907657805E+02  0.10040878455E+03  0.10000000000E+00 0. -1.
          1    1    1    2  502    0 -0.16783044055E+02  0.50509098471E+01 -0.70601058137E+01  0.18895167428E+02  0.00000000000E+00 0. -1.
<mgrwt>
<rscale>  1 0.12622660E+03</rscale>
<asrwt>0</asrwt>
<pdfrwt beam="1">  1       21 0.16571249E-01 0.12622660E+03</pdfrwt>
<pdfrwt beam="2">  1        1 0.80166014E-02 0.12622660E+03</pdfrwt>
<totfact> 0.29243767E+05</totfact>
</mgrwt>
</event>
<event>
 6    2  0.1181843E-002  0.1458094E+03  0.7546771E-02  0.1205719E+00
         21   -1    0    0  502  503  0.00000000000E+00  0.00000000000E+00  0.19771815012E+02  0.19771815012E+02  0.00000000000E+00 0.  1.
          2   -1    0    0  503    0 -0.00000000000E+00 -0.00000000000E+00 -0.12854597940E+04  0.12854597940E+04  0.00000000000E+00 0. -1.
         25    2    1    2    0    0 -0.49764744112E+02 -0.56259248510E+02 -0.27120697334E+03  0.30791816611E+03  0.12497496482E+03 0.  0.
          5    1    3    3  501    0 -0.73193727936E+02 -0.11586906743E+02 -0.23339230844E+03  0.24487457577E+03  0.10000000000E+00 0. -1.
         -5    1    3    3    0  501  0.23428983824E+02 -0.44672341767E+02 -0.37814664898E+02  0.63043590343E+02  0.10000000000E+00 0. -1.
          2    1    1    2  502    0  0.49764744112E+02  0.56259248510E+02 -0.99448100560E+03  0.99731344285E+03  0.00000000000E+00 0. -1.
<mgrwt>
<rscale>  1 0.14580938E+03</rscale>
<asrwt>0</asrwt>
<pdfrwt beam="1">  1       21 0.30418180E-02 0.14580938E+03</pdfrwt>
<pdfrwt beam="2">  1        2 0.19776303E+00 0.14580938E+03</pdfrwt>
<totfact> 0.14151583E+05</totfact>
</mgrwt>
</event>
<event>
 6    2  0.1181843E-002  0.1270320E+03  0.7546771E-02  0.1231927E+00
          2   -1    0    0  503    0 -0.00000000000E+00  0.00000000000E+00  0.63334969658E+02  0.63334969658E+02  0.00000000000E+00 0. -1.
         21   -1    0    0  502  503  0.00000000000E+00 -0.00000000000E+00 -0.27148461278E+03  0.27148461278E+03  0.00000000000E+00 0. -1.
         25    2    1    2    0    0 -0.13417838824E+02  0.18148384471E+02 -0.25384382264E+03  0.28385527828E+03  0.12501092135E+03 0.  0.
          5    1    3    3  501    0 -0.51835072699E+02  0.49290355329E+02 -0.19054272151E+03  0.20352629464E+03  0.10000000000E+00 0. -1.
         -5    1    3    3    0  501  0.38417233875E+02 -0.31141970858E+02 -0.63301101126E+02  0.80328983632E+02  0.10000000000E+00 0. -1.
          2    1    1    2  502    0  0.13417838824E+02 -0.18148384471E+02  0.45694179514E+02  0.50964304166E+02  0.00000000000E+00 0. -1.
<mgrwt>
<rscale>  1 0.12703201E+03</rscale>
<asrwt>0</asrwt>
<pdfrwt beam="1">  1       21 0.41766863E-01 0.12703201E+03</pdfrwt>
<pdfrwt beam="2">  1        2 0.97438416E-02 0.12703201E+03</pdfrwt>
<totfact> 0.43995484E+04</totfact>
</mgrwt>
</event>
<event>
 6    2  0.1181843E-002  0.1478939E+03  0.7546771E-02  0.1203085E+00
          1   -1    0    0  503    0 -0.00000000000E+00  0.00000000000E+00  0.93594372875E+02  0.93594372875E+02  0.00000000000E+00 0. -1.
         21   -1    0    0  502  503  0.00000000000E+00 -0.00000000000E+00 -0.16068106453E+03  0.16068106453E+03  0.00000000000E+00 0. -1.
         25    2    1    2    0    0 -0.22221936406E+02  0.75857538984E+02 -0.88538640062E+02  0.17237081746E+03  0.12499770898E+03 0.  0.
          5    1    3    3  501    0 -0.51348604190E+02 -0.13768833392E+02 -0.25274693093E+02  0.58864930444E+02  0.10000000000E+00 0.  1.
         -5    1    3    3    0  501  0.29126667784E+02  0.89626372376E+02 -0.63263946969E+02  0.11350588702E+03  0.10000000000E+00 0.  1.
          1    1    1    2  502    0  0.22221936406E+02 -0.75857538984E+02  0.21451948404E+02  0.81904619947E+02  0.00000000000E+00 0. -1.
<mgrwt>
<rscale>  1 0.14789391E+03</rscale>
<asrwt>0</asrwt>
<pdfrwt beam="1">  1       21 0.24720163E-01 0.14789391E+03</pdfrwt>
<pdfrwt beam="2">  1        1 0.14399135E-01 0.14789391E+03</pdfrwt>
<totfact> 0.64788441E+04</totfact>
</mgrwt>
</event>
<event>
 6    2  0.1181843E-002  0.1318421E+03  0.7546771E-02  0.1224748E+00
         21   -1    0    0  502  503  0.00000000000E+00  0.00000000000E+00  0.28126284489E+02  0.28126284489E+02  0.00000000000E+00 0. -1.
          2   -1    0    0  503    0 -0.00000000000E+00 -0.00000000000E+00 -0.63757045992E+03  0.63757045992E+03  0.00000000000E+00 0.  1.
         25    2    1    2    0    0 -0.33517441124E+02 -0.25200421200E+02 -0.13252098983E+03  0.18693354088E+03  0.12499542341E+03 0.  0.
          5    1    3    3  501    0  0.34208534232E+02 -0.46756333473E+02 -0.78978183504E+02  0.97948670250E+02  0.10000000000E+00 0.  1.
         -5    1    3    3    0  501 -0.67725975355E+02  0.21555912273E+02 -0.53542806323E+02  0.88984870628E+02  0.10000000000E+00 0.  1.
          2    1    1    2  502    0  0.33517441124E+02  0.25200421200E+02 -0.47692318561E+03  0.47876320353E+03  0.00000000000E+00 0.  1.
<mgrwt>
<rscale>  1 0.13184209E+03</rscale>
<asrwt>0</asrwt>
<pdfrwt beam="1">  1       21 0.43271208E-02 0.13184209E+03</pdfrwt>
<pdfrwt beam="2">  1        2 0.98087761E-01 0.13184209E+03</pdfrwt>
<totfact> 0.20064025E+05</totfact>
</mgrwt>
</event>
<event>
 6    2  0.1181843E-002  0.1448974E+03  0.7546771E-02  0.1206887E+00
          2   -1    0    0  503    0 -0.00000000000E+00  0.00000000000E+00  0.12057787860E+04  0.12057787860E+04  0.00000000000E+00 0. -1.
         21   -1    0    0  502  503  0.00000000000E+00 -0.00000000000E+00 -0.30360283925E+02  0.30360283925E+02  0.00000000000E+00 0. -1.
         25    2    1    2    0    0  0.40084531807E+02  0.61345520496E+02  0.15162736660E+03  0.20972865901E+03  0.12500083812E+03 0.  0.
          5    1    3    3  501    0  0.82279414442E+02  0.55413433195E+02  0.84968429557E+02  0.13061468004E+03  0.10000000000E+00 0. -1.
         -5    1    3    3    0  501 -0.42194882635E+02  0.59320873002E+01  0.66658937046E+02  0.79113978970E+02  0.10000000000E+00 0. -1.
          2    1    1    2  502    0 -0.40084531807E+02 -0.61345520496E+02  0.10237911355E+04  0.10264104109E+04  0.00000000000E+00 0. -1.
<mgrwt>
<rscale>  1 0.14489738E+03</rscale>
<asrwt>0</asrwt>
<pdfrwt beam="1">  1       21 0.46708138E-02 0.14489738E+03</pdfrwt>
<pdfrwt beam="2">  1        2 0.18550439E+00 0.14489738E+03</pdfrwt>
<totfact> 0.76734171E+04</totfact>
</mgrwt>
</event>
<event>
 6    2  0.1181843E-002  0.1301433E+03  0.7546771E-02  0.1227243E+00
         21   -1    0    0  502  503  0.00000000000E+00  0.00000000000E+00  0.10318841768E+02  0.10318841768E+02  0.00000000000E+00 0.  1.
          2   -1    0    0  503    0 -0.00000000000E+00 -0.00000000000E+00 -0.81832657323E+03  0.81832657323E+03  0.00000000000E+00 0.  1.
         25    2    1    2    0    0  0.46967783014E+01 -0.35887039770E+02 -0.43948308090E+03  0.45834775444E+03  0.12500938463E+03 0.  0.
          5    1    3    3  501    0 -0.18934968217E+01  0.35590109340E+02 -0.29366443801E+03  0.29581929174E+03  0.10000000000E+00 0.  1.
         -5    1    3    3    0  501  0.65902751230E+01 -0.71477149110E+02 -0.14581864290E+03  0.16252846270E+03  0.10000000000E+00 0.  1.
          2    1    1    2  502    0 -0.46967783014E+01  0.35887039770E+02 -0.36852465056E+03  0.37029766056E+03  0.00000000000E+00 0.  1.
<mgrwt>
<rscale>  1 0.13014333E+03</rscale>
<asrwt>0</asrwt>
<pdfrwt beam="1">  1       21 0.15875144E-02 0.13014333E+03</pdfrwt>
<pdfrwt beam="2">  1        2 0.12589637E+00 0.13014333E+03</pdfrwt>
<totfact> 0.76375533E+05</totfact>
</mgrwt>
</event>
<event>
 6    2  0.1181843E-002  0.1259211E+03  0.7546771E-02  0.1233637E+00
         21   -1    0    0  502  503  0.00000000000E+00  0.00000000000E+00  0.83822802259E+01  0.83822802259E+01  0.00000000000E+00 0. -1.
          2   -1    0    0  503    0 -0.00000000000E+00 -0.00000000000E+00 -0.65106455821E+03  0.65106455821E+03  0.00000000000E+00 0. -1.
         25    2    1    2    0    0  0.96884015187E+01 -0.11718684566E+02 -0.48671292309E+03  0.50273808833E+03  0.12499969307E+03 0.  0.
          5    1    3    3  501    0  0.36636197930E+02  0.44758157142E+02 -0.30805719368E+03  0.31344018282E+03  0.10000000000E+00 0.  1.
         -5    1    3    3    0  501 -0.26947796411E+02 -0.56476841708E+02 -0.17865572941E+03  0.18929790552E+03  0.10000000000E+00 0.  1.
          2    1    1    2  502    0 -0.96884015187E+01  0.11718684566E+02 -0.15596935489E+03  0.15670875010E+03  0.00000000000E+00 0. -1.
<mgrwt>
<rscale>  1 0.12592107E+03</rscale>
<asrwt>0</asrwt>
<pdfrwt beam="1">  1       21 0.12895817E-02 0.12592107E+03</pdfrwt>
<pdfrwt beam="2">  1        2 0.10016377E+00 0.12592107E+03</pdfrwt>
<totfact> 0.13968095E+06</totfact>
</mgrwt>
</event>
<event>
 6    2  0.1181843E-002  0.1260267E+03  0.7546771E-02  0.1233473E+00
          4   -1    0    0  503    0 -0.00000000000E+00  0.00000000000E+00  0.84910852902E+03  0.84910852902E+03  0.00000000000E+00 0.  1.
         21   -1    0    0  502  503  0.00000000000E+00 -0.00000000000E+00 -0.10530353439E+03  0.10530353439E+03  0.00000000000E+00 0.  1.
         25    2    1    2    0    0 -0.38823304372E+01 -0.15495860150E+02 -0.67489708723E+02  0.14296009943E+03  0.12501013989E+03 0.  0.
          5    1    3    3  501    0 -0.36271203902E+02 -0.37460665758E+02  0.12755603096E+02  0.53680695989E+02  0.10000000000E+00 0. -1.
         -5    1    3    3    0  501  0.32388873465E+02  0.21964805608E+02 -0.80245311819E+02  0.89279403441E+02  0.10000000000E+00 0. -1.
          4    1    1    2  502    0  0.38823304372E+01  0.15495860150E+02  0.81129470335E+03  0.81145196399E+03  0.00000000000E+00 0.  1.
<mgrwt>
<rscale>  1 0.12602670E+03</rscale>
<asrwt>0</asrwt>
<pdfrwt beam="1">  1       21 0.16200544E-01 0.12602670E+03</pdfrwt>
<pdfrwt beam="2">  1        4 0.13063208E+00 0.12602670E+03</pdfrwt>
<totfact> 0.64135197E+02</totfact>
</mgrwt>
</event>
<event>
 6    2  0.1181843E-002  0.1294390E+03  0.7546771E-02  0.1228291E+00
         21   -1    0    0  502  503  0.00000000000E+00  0.00000000000E+00  0.11418712593E+02  0.11418712593E+02  0.00000000000E+00 0. -1.
          2   -1    0    0  503    0 -0.00000000000E+00 -0.00000000000E+00 -0.14576933111E+04  0.14576933111E+04  0.00000000000E+00 0.  1.
         25    2    1    2    0    0  0.33580502504E+02 -0.12157474346E+01 -0.36423672045E+03  0.38655251137E+03  0.12500130929E+03 0.  0.
          5    1    3    3  501    0  0.80933705925E+02 -0.21799063277E+01 -0.20456472586E+03  0.22000398590E+03  0.10000000000E+00 0.  1.
         -5    1    3    3    0  501 -0.47353203420E+02  0.96415889310E+00 -0.15967199459E+03  0.16654852546E+03  0.10000000000E+00 0.  1.
          2    1    1    2  502    0 -0.33580502504E+02  0.12157474346E+01 -0.10820378781E+04  0.10825595124E+04  0.00000000000E+00 0.  1.
<mgrwt>
<rscale>  1 0.12943900E+03</rscale>
<asrwt>0</asrwt>
<pdfrwt beam="1">  1       21 0.17567249E-02 0.12943900E+03</pdfrwt>
<pdfrwt beam="2">  1        2 0.22426053E+00 0.12943900E+03</pdfrwt>
<totfact> 0.27919763E+05</totfact>
</mgrwt>
</event>
<event>
 6    2  0.1181843E-002  0.1361231E+03  0.7546771E-02  0.1218643E+00
         21   -1    0    0  502  503  0.00000000000E+00  0.00000000000E+00  0.35225571018E+02  0.35225571018E+02  0.00000000000E+00 0.  1.
          2   -1    0    0  503    0 -0.00000000000E+00 -0.00000000000E+00 -0.26116564409E+03  0.26116564409E+03  0.00000000000E+00 0. -1.
         25    2    1    2    0    0  0.14648019846E+02 -0.51864992909E+02 -0.14257154526E+03  0.19711960082E+03  0.12499979813E+03 0.  0.
          5    1    3    3  501    0  0.29441234345E+02 -0.70929668491E+02 -0.15271936903E+03  0.17094156847E+03  0.10000000000E+00 0.  1.
         -5    1    3    3    0  501 -0.14793214499E+02  0.19064675582E+02  0.10147823772E+02  0.26178032348E+02  0.10000000000E+00 0.  1.
          2    1    1    2  502    0 -0.14648019846E+02  0.51864992909E+02 -0.83368527807E+02  0.99271614289E+02  0.00000000000E+00 0. -1.
<mgrwt>
<rscale>  1 0.13612307E+03</rscale>
<asrwt>0</asrwt>
<pdfrwt beam="1">  1       21 0.54193187E-02 0.13612307E+03</pdfrwt>
<pdfrwt beam="2">  1        2 0.40179330E-01 0.13612307E+03</pdfrwt>
<totfact> 0.36215749E+05</totfact>
</mgrwt>
</event>
<event>
 6    2  0.1181843E-002  0.1270263E+03  0.7546771E-02  0.1231936E+00
         21   -1    0    0  502  503  0.00000000000E+00  0.00000000000E+00  0.30750226698E+03  0.30750226698E+03  0.00000000000E+00 0. -1.
          2   -1    0    0  503    0 -0.00000000000E+00 -0.00000000000E+00 -0.43873126176E+02  0.43873126176E+02  0.00000000000E+00 0. -1.
         25    2    1    2    0    0  0.20657762917E+02  0.91833259216E+01  0.29002417425E+03  0.31662234387E+03  0.12499844136E+03 0.  0.
          5    1    3    3  501    0  0.22613364341E+02 -0.25206434398E+02  0.11183869867E+02  0.35662550766E+02  0.10000000000E+00 0. -1.
         -5    1    3    3    0  501 -0.19556014242E+01  0.34389760320E+02  0.27884030438E+03  0.28095979310E+03  0.10000000000E+00 0. -1.
          2    1    1    2  502    0 -0.20657762917E+02 -0.91833259216E+01 -0.26395033450E+02  0.34753049284E+02  0.00000000000E+00 0. -1.
<mgrwt>
<rscale>  1 0.12702632E+03</rscale>
<asrwt>0</asrwt>
<pdfrwt beam="1">  1       21 0.47308040E-01 0.12702632E+03</pdfrwt>
<pdfrwt beam="2">  1        2 0.67497119E-02 0.12702632E+03</pdfrwt>
<totfact> 0.54092243E+04</totfact>
</mgrwt>
</event>
<event>
 6    2  0.1181843E-002  0.1264088E+03  0.7546771E-02  0.1232884E+00
         21   -1    0    0  502  503  0.00000000000E+00  0.00000000000E+00  0.98984091535E+02  0.98984091535E+02  0.00000000000E+00 0. -1.
          2   -1    0    0  503    0 -0.00000000000E+00 -0.00000000000E+00 -0.10709374102E+03  0.10709374102E+03  0.00000000000E+00 0. -1.
         25    2    1    2    0    0  0.16496617727E+02  0.88770860508E+01  0.56752767053E+02  0.13856432182E+03  0.12501301396E+03 0.  0.
          5    1    3    3  501    0  0.42018778048E+02 -0.34728782557E+02  0.67646273290E+02  0.86877467369E+02  0.10000000000E+00 0.  1.
         -5    1    3    3    0  501 -0.25522160320E+02  0.43605868607E+02 -0.10893506237E+02  0.51686854446E+02  0.10000000000E+00 0.  1.
          2    1    1    2  502    0 -0.16496617727E+02 -0.88770860508E+01 -0.64862416534E+02  0.67513510736E+02  0.00000000000E+00 0. -1.
<mgrwt>
<rscale>  1 0.12640884E+03</rscale>
<asrwt>0</asrwt>
<pdfrwt beam="1">  1       21 0.15228322E-01 0.12640884E+03</pdfrwt>
<pdfrwt beam="2">  1        2 0.16475960E-01 0.12640884E+03</pdfrwt>
<totfact> 0.15933973E+05</totfact>
</mgrwt>
</event>
<event>
 6    2  0.1181843E-002  0.1279865E+03  0.7546771E-02  0.1230474E+00
         21   -1    0    0  502  503  0.00000000000E+00  0.00000000000E+00  0.84401561254E+02  0.84401561254E+02  0.00000000000E+00 0.  1.
          2   -1    0    0  503    0 -0.00000000000E+00 -0.00000000000E+00 -0.16163202704E+04  0.16163202704E+04  0.00000000000E+00 0.  1.
         25    2    1    2    0    0  0.22005838275E+02  0.16468561900E+02  0.35692054879E+02  0.13287012376E+03  0.12500030623E+03 0.  0.
          5    1    3    3  501    0 -0.31487060690E+02 -0.38678024136E+02  0.49502087769E+01  0.50119248886E+02  0.10000000000E+00 0. -1.
         -5    1    3    3    0  501  0.53492898965E+02  0.55146586036E+02  0.30741846102E+02  0.82750874877E+02  0.10000000000E+00 0. -1.
          2    1    1    2  502    0 -0.22005838275E+02 -0.16468561900E+02 -0.15676107640E+04  0.15678517079E+04  0.00000000000E+00 0.  1.
<mgrwt>
<rscale>  1 0.12798651E+03</rscale>
<asrwt>0</asrwt>
<pdfrwt beam="1">  1       21 0.12984857E-01 0.12798651E+03</pdfrwt>
<pdfrwt beam="2">  1        2 0.24866464E+00 0.12798651E+03</pdfrwt>
<totfact> 0.80005839E+03</totfact>
</mgrwt>
</event>
<event>
 6    2  0.1181843E-002  0.1363839E+03  0.7546771E-02  0.1218279E+00
          2   -1    0    0  503    0 -0.00000000000E+00  0.00000000000E+00  0.15933874898E+04  0.15933874898E+04  0.00000000000E+00 0. -1.
         21   -1    0    0  502  503  0.00000000000E+00 -0.00000000000E+00 -0.44792556854E+02  0.44792556854E+02  0.00000000000E+00 0. -1.
         25    2    1    2    0    0 -0.49080666411E+02  0.23659274719E+02  0.60689776211E+02  0.14927762254E+03  0.12502754320E+03 0.  0.
          5    1    3    3  501    0  0.10961144551E+02  0.41171844551E+02  0.73948138619E+02  0.85344037160E+02  0.10000000000E+00 0.  1.
         -5    1    3    3    0  501 -0.60041810962E+02 -0.17512569832E+02 -0.13258362408E+02  0.63933585379E+02  0.10000000000E+00 0.  1.
          2    1    1    2  502    0  0.49080666411E+02 -0.23659274719E+02  0.14879051567E+04  0.14889024241E+04  0.00000000000E+00 0. -1.
<mgrwt>
<rscale>  1 0.13638387E+03</rscale>
<asrwt>0</asrwt>
<pdfrwt beam="1">  1       21 0.68911638E-02 0.13638387E+03</pdfrwt>
<pdfrwt beam="2">  1        2 0.24513649E+00 0.13638387E+03</pdfrwt>
<totfact> 0.24743997E+04</totfact>
</mgrwt>
</event>
<event>
 6    2  0.1181843E-002  0.1707066E+03  0.7546771E-02  0.1177113E+00
         21   -1    0    0  502  503  0.00000000000E+00  0.00000000000E+00  0.14931571367E+02  0.14931571367E+02  0.00000000000E+00 0. -1.
          2   -1    0    0  503    0 -0.00000000000E+00 -0.00000000000E+00 -0.15939947617E+04  0.15939947617E+04  0.00000000000E+00 0. -1.
         25    2    1    2    0    0  0.11464882950E+03  0.19259790385E+02 -0.62813204343E+03  0.65091519546E+03  0.12500173624E+03 0.  0.
          5    1    3    3  501    0  0.14183544525E+01  0.52605016873E+02 -0.20057020125E+03  0.20735890422E+03  0.10000000000E+00 0.  1.
         -5    1    3    3    0  501  0.11323047505E+03 -0.33345226489E+02 -0.42756184218E+03  0.44355629124E+03  0.10000000000E+00 0.  1.
          2    1    1    2  502    0 -0.11464882950E+03 -0.19259790385E+02 -0.95093114695E+03  0.95801113766E+03  0.00000000000E+00 0. -1.
<mgrwt>
<rscale>  1 0.17070655E+03</rscale>
<asrwt>0</asrwt>
<pdfrwt beam="1">  1       21 0.22971644E-02 0.17070655E+03</pdfrwt>
<pdfrwt beam="2">  1        2 0.24523001E+00 0.17070655E+03</pdfrwt>
<totfact> 0.15391518E+05</totfact>
</mgrwt>
</event>
<event>
 6    2  0.1181843E-002  0.1298442E+03  0.7546771E-02  0.1227687E+00
          2   -1    0    0  503    0 -0.00000000000E+00  0.00000000000E+00  0.10203413523E+04  0.10203413523E+04  0.00000000000E+00 0. -1.
         21   -1    0    0  502  503  0.00000000000E+00 -0.00000000000E+00 -0.22631733021E+02  0.22631733021E+02  0.00000000000E+00 0. -1.
         25    2    1    2    0    0 -0.28918694874E+02  0.19935594970E+02  0.16708210486E+03  0.21160325993E+03  0.12500316392E+03 0.  0.
          5    1    3    3  501    0 -0.27065339367E+01  0.12782890790E+02  0.18072703008E+03  0.18119877766E+03  0.10000000000E+00 0.  1.
         -5    1    3    3    0  501 -0.26212160937E+02  0.71527041798E+01 -0.13644925219E+02  0.30404482274E+02  0.10000000000E+00 0.  1.
          2    1    1    2  502    0  0.28918694874E+02 -0.19935594970E+02  0.83062751444E+03  0.83136982541E+03  0.00000000000E+00 0. -1.
<mgrwt>
<rscale>  1 0.12984418E+03</rscale>
<asrwt>0</asrwt>
<pdfrwt beam="1">  1       21 0.34818059E-02 0.12984418E+03</pdfrwt>
<pdfrwt beam="2">  1        2 0.15697556E+00 0.12984418E+03</pdfrwt>
<totfact> 0.15950085E+05</totfact>
</mgrwt>
</event>
<event>
 6    2  0.1181843E-002  0.1372338E+03  0.7546771E-02  0.1217100E+00
         21   -1    0    0  502  503  0.00000000000E+00  0.00000000000E+00  0.13427482219E+03  0.13427482219E+03  0.00000000000E+00 0. -1.
          2   -1    0    0  503    0 -0.00000000000E+00 -0.00000000000E+00 -0.15258628322E+03  0.15258628322E+03  0.00000000000E+00 0. -1.
         25    2    1    2    0    0  0.19458103693E+02  0.53207958614E+02  0.90358231132E+02  0.16430986448E+03  0.12499366773E+03 0.  0.
          5    1    3    3  501    0 -0.76145237909E+01  0.96139992109E+01 -0.30572939175E+02  0.32941228927E+02  0.10000000000E+00 0. -1.
         -5    1    3    3    0  501  0.27072627484E+02  0.43593959403E+02  0.12093117031E+03  0.13136863555E+03  0.10000000000E+00 0. -1.
          2    1    1    2  502    0 -0.19458103693E+02 -0.53207958614E+02 -0.10866969216E+03  0.12255124093E+03  0.00000000000E+00 0. -1.
<mgrwt>
<rscale>  1 0.13723382E+03</rscale>
<asrwt>0</asrwt>
<pdfrwt beam="1">  1       21 0.20657665E-01 0.13723382E+03</pdfrwt>
<pdfrwt beam="2">  1        2 0.23474813E-01 0.13723382E+03</pdfrwt>
<totfact> 0.61261152E+04</totfact>
</mgrwt>
</event>
<event>
 6    2  0.1181843E-002  0.1263177E+03  0.7546771E-02  0.1233024E+00
          2   -1    0    0  503    0 -0.00000000000E+00  0.00000000000E+00  0.10278113565E+04  0.10278113565E+04  0.00000000000E+00 0.  1.
         21   -1    0    0  502  503  0.00000000000E+00 -0.00000000000E+00 -0.71736896771E+01  0.71736896771E+01  0.00000000000E+00 0.  1.
         25    2    1    2    0    0 -0.10668100684E+02  0.14764567697E+02  0.56349757438E+03  0.57748218832E+03  0.12499744261E+03 0.  0.
          5    1    3    3  501    0 -0.54445654989E+02  0.29894203285E+02  0.16503355650E+03  0.17633512840E+03  0.10000000000E+00 0.  1.
         -5    1    3    3    0  501  0.43777554305E+02 -0.15129635588E+02  0.39846401788E+03  0.40114705992E+03  0.10000000000E+00 0.  1.
          2    1    1    2  502    0  0.10668100684E+02 -0.14764567697E+02  0.45714009242E+03  0.45750285784E+03  0.00000000000E+00 0.  1.
<mgrwt>
<rscale>  1 0.12631770E+03</rscale>
<asrwt>0</asrwt>
<pdfrwt beam="1">  1       21 0.11036454E-02 0.12631770E+03</pdfrwt>
<pdfrwt beam="2">  1        2 0.15812471E+00 0.12631770E+03</pdfrwt>
<totfact> 0.10064147E+06</totfact>
</mgrwt>
</event>
<event>
 6    2  0.1181843E-002  0.1871241E+03  0.7546771E-02  0.1161081E+00
          2   -1    0    0  503    0 -0.00000000000E+00  0.00000000000E+00  0.72110810951E+03  0.72110810951E+03  0.00000000000E+00 0. -1.
         21   -1    0    0  502  503  0.00000000000E+00 -0.00000000000E+00 -0.39725665891E+02  0.39725665891E+02  0.00000000000E+00 0. -1.
         25    2    1    2    0    0 -0.11530081382E+03 -0.78087096198E+02  0.28724669881E+03  0.34282078805E+03  0.12499421779E+03 0.  0.
          5    1    3    3  501    0 -0.81893639639E+01 -0.76082281734E+02  0.15299024187E+03  0.17106023320E+03  0.10000000000E+00 0.  1.
         -5    1    3    3    0  501 -0.10711144985E+03 -0.20048144640E+01  0.13425645694E+03  0.17176055485E+03  0.10000000000E+00 0.  1.
          2    1    1    2  502    0  0.11530081382E+03  0.78087096198E+02  0.39413574481E+03  0.41801298735E+03  0.00000000000E+00 0. -1.
<mgrwt>
<rscale>  1 0.18712409E+03</rscale>
<asrwt>0</asrwt>
<pdfrwt beam="1">  1       21 0.61116414E-02 0.18712409E+03</pdfrwt>
<pdfrwt beam="2">  1        2 0.11093970E+00 0.18712409E+03</pdfrwt>
<totfact> 0.97479443E+04</totfact>
</mgrwt>
</event>
<event>
 6    2  0.1181843E-002  0.1346367E+03  0.7546771E-02  0.1220734E+00
         21   -1    0    0  502  503  0.00000000000E+00  0.00000000000E+00  0.18569758553E+02  0.18569758553E+02  0.00000000000E+00 0.  1.
          2   -1    0    0  503    0 -0.00000000000E+00 -0.00000000000E+00 -0.14567413041E+04  0.14567413041E+04  0.00000000000E+00 0.  1.
         25    2    1    2    0    0  0.27113603674E+02 -0.42039333033E+02 -0.23300385917E+03  0.26910560531E+03  0.12499830158E+03 0.  0.
          5    1    3    3  501    0 -0.17407408011E+00 -0.40121928095E+02 -0.23794823282E+03  0.24130721274E+03  0.10000000000E+00 0.  1.
         -5    1    3    3    0  501  0.27287677754E+02 -0.19174049375E+01  0.49443736546E+01  0.27798392575E+02  0.10000000000E+00 0.  1.
          2    1    1    2  502    0 -0.27113603674E+02  0.42039333033E+02 -0.12051676863E+04  0.12062054573E+04  0.00000000000E+00 0.  1.
<mgrwt>
<rscale>  1 0.13463665E+03</rscale>
<asrwt>0</asrwt>
<pdfrwt beam="1">  1       21 0.28568850E-02 0.13463665E+03</pdfrwt>
<pdfrwt beam="2">  1        2 0.22411412E+00 0.13463665E+03</pdfrwt>
<totfact> 0.12710436E+05</totfact>
</mgrwt>
</event>
<event>
 6    2  0.1181843E-002  0.1261044E+03  0.7546771E-02  0.1233353E+00
         21   -1    0    0  502  503  0.00000000000E+00  0.00000000000E+00  0.31592746038E+02  0.31592746038E+02  0.00000000000E+00 0.  1.
          2   -1    0    0  503    0 -0.00000000000E+00 -0.00000000000E+00 -0.28657316164E+03  0.28657316164E+03  0.00000000000E+00 0.  1.
         25    2    1    2    0    0 -0.11852127053E+02  0.11711160860E+02 -0.96445701268E+02  0.15875800369E+03  0.12499882495E+03 0.  0.
          5    1    3    3  501    0  0.38102068551E+01 -0.24842922164E+02 -0.11294143066E+03  0.11570421434E+03  0.10000000000E+00 0.  1.
         -5    1    3    3    0  501 -0.15662333909E+02  0.36554083025E+02  0.16495729388E+02  0.43053789349E+02  0.10000000000E+00 0.  1.
          2    1    1    2  502    0  0.11852127053E+02 -0.11711160860E+02 -0.15853471433E+03  0.15940790398E+03  0.00000000000E+00 0.  1.
<mgrwt>
<rscale>  1 0.12610444E+03</rscale>
<asrwt>0</asrwt>
<pdfrwt beam="1">  1       21 0.48604223E-02 0.12610444E+03</pdfrwt>
<pdfrwt beam="2">  1        2 0.44088180E-01 0.12610444E+03</pdfrwt>
<totfact> 0.39222970E+05</totfact>
</mgrwt>
</event>
<event>
 6    2  0.1181843E-002  0.1512647E+03  0.7546771E-02  0.1198928E+00
          1   -1    0    0  503    0 -0.00000000000E+00  0.00000000000E+00  0.40955072532E+03  0.40955072532E+03  0.00000000000E+00 0.  1.
         21   -1    0    0  502  503  0.00000000000E+00 -0.00000000000E+00 -0.72804230045E+02  0.72804230045E+02  0.00000000000E+00 0. -1.
         25    2    1    2    0    0  0.66150931425E+02  0.53658555741E+02  0.17891531327E+02  0.15231908706E+03  0.12500324419E+03 0.  0.
          5    1    3    3  501    0  0.35631498470E+02 -0.36532835786E+02 -0.12185037449E+02  0.52466531346E+02  0.10000000000E+00 0.  1.
         -5    1    3    3    0  501  0.30519432954E+02  0.90191391527E+02  0.30076568775E+02  0.99852555715E+02  0.10000000000E+00 0.  1.
          1    1    1    2  502    0 -0.66150931425E+02 -0.53658555741E+02  0.31885496395E+03  0.33003586830E+03  0.00000000000E+00 0.  1.
<mgrwt>
<rscale>  1 0.15126466E+03</rscale>
<asrwt>0</asrwt>
<pdfrwt beam="1">  1       21 0.11200651E-01 0.15126466E+03</pdfrwt>
<pdfrwt beam="2">  1        1 0.63007803E-01 0.15126466E+03</pdfrwt>
<totfact> 0.42919948E+04</totfact>
</mgrwt>
</event>
<event>
 6    2  0.1181843E-002  0.1287363E+03  0.7546771E-02  0.1229343E+00
          2   -1    0    0  503    0 -0.00000000000E+00  0.00000000000E+00  0.10570898693E+04  0.10570898693E+04  0.00000000000E+00 0.  1.
         21   -1    0    0  502  503  0.00000000000E+00 -0.00000000000E+00 -0.10147043235E+02  0.10147043235E+02  0.00000000000E+00 0.  1.
         25    2    1    2    0    0  0.13957375196E+02  0.27464710653E+02  0.41420960368E+03  0.43375411927E+03  0.12499568612E+03 0.  0.
          5    1    3    3  501    0 -0.25122973179E+01 -0.49187191455E+02  0.18795441202E+03  0.19430018641E+03  0.10000000000E+00 0.  1.
         -5    1    3    3    0  501  0.16469672514E+02  0.76651902107E+02  0.22625519166E+03  0.23945393286E+03  0.10000000000E+00 0.  1.
          2    1    1    2  502    0 -0.13957375196E+02 -0.27464710653E+02  0.63273322242E+03  0.63348279330E+03  0.00000000000E+00 0.  1.
<mgrwt>
<rscale>  1 0.12873632E+03</rscale>
<asrwt>0</asrwt>
<pdfrwt beam="1">  1       21 0.15610844E-02 0.12873632E+03</pdfrwt>
<pdfrwt beam="2">  1        2 0.16262912E+00 0.12873632E+03</pdfrwt>
<totfact> 0.55821540E+05</totfact>
</mgrwt>
</event>
<event>
 6    2  0.1181843E-002  0.1524692E+03  0.7546771E-02  0.1197471E+00
          2   -1    0    0  503    0 -0.00000000000E+00  0.00000000000E+00  0.74236646910E+03  0.74236646910E+03  0.00000000000E+00 0.  1.
         21   -1    0    0  502  503  0.00000000000E+00 -0.00000000000E+00 -0.40642632531E+02  0.40642632531E+02  0.00000000000E+00 0. -1.
         25    2    1    2    0    0  0.70938710534E+02  0.50886932847E+02  0.11801228468E+03  0.19280493662E+03  0.12500025465E+03 0.  0.
          5    1    3    3  501    0 -0.10129118703E+02  0.36745288688E+02  0.10210776625E+03  0.10899000511E+03  0.10000000000E+00 0.  1.
         -5    1    3    3    0  501  0.81067829237E+02  0.14141644159E+02  0.15904518429E+02  0.83814931505E+02  0.10000000000E+00 0.  1.
          2    1    1    2  502    0 -0.70938710534E+02 -0.50886932847E+02  0.58371155189E+03  0.59020416501E+03  0.00000000000E+00 0.  1.
<mgrwt>
<rscale>  1 0.15246916E+03</rscale>
<asrwt>0</asrwt>
<pdfrwt beam="1">  1       21 0.62527132E-02 0.15246916E+03</pdfrwt>
<pdfrwt beam="2">  1        2 0.11421022E+00 0.15246916E+03</pdfrwt>
<totfact> 0.90374727E+04</totfact>
</mgrwt>
</event>
<event>
 6    2  0.1181843E-002  0.1274325E+03  0.7546771E-02  0.1231316E+00
          4   -1    0    0  503    0 -0.00000000000E+00  0.00000000000E+00  0.30363531023E+02  0.30363531023E+02  0.00000000000E+00 0.  1.
         21   -1    0    0  502  503  0.00000000000E+00 -0.00000000000E+00 -0.81619262836E+03  0.81619262836E+03  0.00000000000E+00 0. -1.
         25    2    1    2    0    0 -0.27999143143E+00 -0.24777807070E+02 -0.80512658020E+03  0.81514897926E+03  0.12500012051E+03 0.  0.
          5    1    3    3  501    0  0.26115192150E+01 -0.45786407542E+02 -0.10354077272E+03  0.11324273382E+03  0.10000000000E+00 0.  1.
         -5    1    3    3    0  501 -0.28915106464E+01  0.21008600472E+02 -0.70158580749E+03  0.70190624544E+03  0.10000000000E+00 0.  1.
          4    1    1    2  502    0  0.27999143143E+00  0.24777807070E+02  0.19297482863E+02  0.31407180122E+02  0.00000000000E+00 0.  1.
<mgrwt>
<rscale>  1 0.12743252E+03</rscale>
<asrwt>0</asrwt>
<pdfrwt beam="1">  1       21 0.12556810E+00 0.12743252E+03</pdfrwt>
<pdfrwt beam="2">  1        4 0.46713123E-02 0.12743252E+03</pdfrwt>
<totfact> 0.52271172E+03</totfact>
</mgrwt>
</event>
<event>
 6    2  0.1181843E-002  0.1310241E+03  0.7546771E-02  0.1225944E+00
          1   -1    0    0  503    0 -0.00000000000E+00  0.00000000000E+00  0.21195544425E+03  0.21195544425E+03  0.00000000000E+00 0. -1.
         21   -1    0    0  502  503  0.00000000000E+00 -0.00000000000E+00 -0.13807035215E+03  0.13807035215E+03  0.00000000000E+00 0. -1.
         25    2    1    2    0    0  0.39232336839E+02  0.19213767077E+01 -0.10435865373E+03  0.16750538420E+03  0.12499782872E+03 0.  0.
          5    1    3    3  501    0 -0.11345135559E+01  0.44833879377E+02 -0.98586606744E+02  0.10830832327E+03  0.10000000000E+00 0.  1.
         -5    1    3    3    0  501  0.40366850395E+02 -0.42912502670E+02 -0.57720469873E+01  0.59197060929E+02  0.10000000000E+00 0.  1.
          1    1    1    2  502    0 -0.39232336839E+02 -0.19213767077E+01  0.17824374583E+03  0.18252041220E+03  0.00000000000E+00 0. -1.
<mgrwt>
<rscale>  1 0.13102414E+03</rscale>
<asrwt>0</asrwt>
<pdfrwt beam="1">  1       21 0.21241593E-01 0.13102414E+03</pdfrwt>
<pdfrwt beam="2">  1        1 0.32608530E-01 0.13102414E+03</pdfrwt>
<totfact> 0.30511213E+04</totfact>
</mgrwt>
</event>
<event>
 6    2  0.1181843E-002  0.1636100E+03  0.7546771E-02  0.1184680E+00
         21   -1    0    0  502  503  0.00000000000E+00  0.00000000000E+00  0.52975704991E+02  0.52975704991E+02  0.00000000000E+00 0.  1.
          1   -1    0    0  503    0 -0.00000000000E+00 -0.00000000000E+00 -0.40968081123E+03  0.40968081123E+03  0.00000000000E+00 0. -1.
         25    2    1    2    0    0  0.49684390515E+02  0.93136333423E+02 -0.11821437042E+03  0.20184864376E+03  0.12500128940E+03 0.  0.
          5    1    3    3  501    0  0.73246445259E+02  0.63554220957E+02 -0.23383363023E+02  0.99754560852E+02  0.10000000000E+00 0.  1.
         -5    1    3    3    0  501 -0.23562054744E+02  0.29582112466E+02 -0.94831007395E+02  0.10209408291E+03  0.10000000000E+00 0.  1.
          1    1    1    2  502    0 -0.49684390515E+02 -0.93136333423E+02 -0.23849073582E+03  0.26080787246E+03  0.00000000000E+00 0. -1.
<mgrwt>
<rscale>  1 0.16361002E+03</rscale>
<asrwt>0</asrwt>
<pdfrwt beam="1">  1       21 0.81501083E-02 0.16361002E+03</pdfrwt>
<pdfrwt beam="2">  1        1 0.63027818E-01 0.16361002E+03</pdfrwt>
<totfact> 0.74966128E+04</totfact>
</mgrwt>
</event>
<event>
 6    2  0.1181843E-002  0.1300914E+03  0.7546771E-02  0.1227320E+00
          2   -1    0    0  503    0 -0.00000000000E+00  0.00000000000E+00  0.84405244427E+03  0.84405244427E+03  0.00000000000E+00 0. -1.
         21   -1    0    0  502  503  0.00000000000E+00 -0.00000000000E+00 -0.19229629078E+02  0.19229629078E+02  0.00000000000E+00 0. -1.
         25    2    1    2    0    0  0.35275584053E+02  0.73927806763E+01  0.20750131248E+03  0.24490932351E+03  0.12499904809E+03 0.  0.
          5    1    3    3  501    0  0.22046723015E+02 -0.56279264841E+02  0.67910810338E+02  0.90913705279E+02  0.10000000000E+00 0.  1.
         -5    1    3    3    0  501  0.13228861039E+02  0.63672045518E+02  0.13959050215E+03  0.15399561823E+03  0.10000000000E+00 0.  1.
          2    1    1    2  502    0 -0.35275584053E+02 -0.73927806763E+01  0.61732150271E+03  0.61837274984E+03  0.00000000000E+00 0. -1.
<mgrwt>
<rscale>  1 0.13009144E+03</rscale>
<asrwt>0</asrwt>
<pdfrwt beam="1">  1       21 0.29584051E-02 0.13009144E+03</pdfrwt>
<pdfrwt beam="2">  1        2 0.12985419E+00 0.13009144E+03</pdfrwt>
<totfact> 0.26809409E+05</totfact>
</mgrwt>
</event>
<event>
 6    2  0.1181843E-002  0.1259148E+03  0.7546771E-02  0.1233646E+00
         21   -1    0    0  502  503  0.00000000000E+00  0.00000000000E+00  0.18736282030E+02  0.18736282030E+02  0.00000000000E+00 0. -1.
          2   -1    0    0  503    0 -0.00000000000E+00 -0.00000000000E+00 -0.10604087374E+04  0.10604087374E+04  0.00000000000E+00 0. -1.
         25    2    1    2    0    0  0.10839221428E+02 -0.10620877867E+02 -0.19364960784E+03  0.23098640119E+03  0.12499702056E+03 0.  0.
          5    1    3    3  501    0  0.11849219984E+02  0.46051112932E+02 -0.26389331958E+02  0.54383047521E+02  0.10000000000E+00 0. -1.
         -5    1    3    3    0  501 -0.10099985561E+01 -0.56671990798E+02 -0.16726027588E+03  0.17660335367E+03  0.10000000000E+00 0. -1.
          2    1    1    2  502    0 -0.10839221428E+02  0.10620877867E+02 -0.84802284757E+03  0.84815861828E+03  0.00000000000E+00 0. -1.
<mgrwt>
<rscale>  1 0.12591484E+03</rscale>
<asrwt>0</asrwt>
<pdfrwt beam="1">  1       21 0.28825048E-02 0.12591484E+03</pdfrwt>
<pdfrwt beam="2">  1        2 0.16313981E+00 0.12591484E+03</pdfrwt>
<totfact> 0.20598108E+05</totfact>
</mgrwt>
</event>
<event>
 6    2  0.1181843E-002  0.1506789E+03  0.7546771E-02  0.1199641E+00
         21   -1    0    0  502  503  0.00000000000E+00  0.00000000000E+00  0.81112752779E+01  0.81112752779E+01  0.00000000000E+00 0.  1.
          2   -1    0    0  503    0 -0.00000000000E+00 -0.00000000000E+00 -0.25677539230E+04  0.25677539230E+04  0.00000000000E+00 0.  1.
         25    2    1    2    0    0 -0.15461923842E+01  0.84117803162E+02 -0.79106042764E+03  0.80528301586E+03  0.12500375966E+03 0.  0.
          5    1    3    3  501    0 -0.13412927543E+01  0.11243610113E+03 -0.48264960401E+03  0.49557474326E+03  0.10000000000E+00 0. -1.
         -5    1    3    3    0  501 -0.20489962988E+00 -0.28318297969E+02 -0.30841082363E+03  0.30970827260E+03  0.10000000000E+00 0. -1.
          2    1    1    2  502    0  0.15461923842E+01 -0.84117803162E+02 -0.17685822201E+04  0.17705821824E+04  0.00000000000E+00 0.  1.
<mgrwt>
<rscale>  1 0.15067892E+03</rscale>
<asrwt>0</asrwt>
<pdfrwt beam="1">  1       21 0.12478873E-02 0.15067892E+03</pdfrwt>
<pdfrwt beam="2">  1        2 0.39503945E+00 0.15067892E+03</pdfrwt>
<totfact> 0.12800662E+05</totfact>
</mgrwt>
</event>
<event>
 6    2  0.1181843E-002  0.1430890E+03  0.7546771E-02  0.1209232E+00
          2   -1    0    0  503    0 -0.00000000000E+00  0.00000000000E+00  0.12657370714E+04  0.12657370714E+04  0.00000000000E+00 0.  1.
         21   -1    0    0  502  503  0.00000000000E+00 -0.00000000000E+00 -0.20784962106E+02  0.20784962106E+02  0.00000000000E+00 0.  1.
         25    2    1    2    0    0 -0.66809546281E+02  0.19670799238E+02  0.24187603283E+03  0.28103107333E+03  0.12499597235E+03 0.  0.
          5    1    3    3  501    0 -0.81325827123E+02  0.19140370470E+01  0.24475120980E+03  0.25791610728E+03  0.10000000000E+00 0. -1.
         -5    1    3    3    0  501  0.14516280842E+02  0.17756762191E+02 -0.28751769714E+01  0.23114966052E+02  0.10000000000E+00 0. -1.
          2    1    1    2  502    0  0.66809546281E+02 -0.19670799238E+02  0.10030760764E+04  0.10054909601E+04  0.00000000000E+00 0.  1.
<mgrwt>
<rscale>  1 0.14308895E+03</rscale>
<asrwt>0</asrwt>
<pdfrwt beam="1">  1       21 0.31976875E-02 0.14308895E+03</pdfrwt>
<pdfrwt beam="2">  1        2 0.19472872E+00 0.14308895E+03</pdfrwt>
<totfact> 0.13357099E+05</totfact>
</mgrwt>
</event>
<event>
 6    2  0.1181843E-002  0.1262090E+03  0.7546771E-02  0.1233192E+00
         21   -1    0    0  502  503  0.00000000000E+00  0.00000000000E+00  0.11782800165E+02  0.11782800165E+02  0.00000000000E+00 0.  1.
          2   -1    0    0  503    0 -0.00000000000E+00 -0.00000000000E+00 -0.79302441457E+03  0.79302441457E+03  0.00000000000E+00 0.  1.
         25    2    1    2    0    0  0.29556163884E+01 -0.17165584517E+02 -0.33125404665E+03  0.35448266056E+03  0.12500128101E+03 0.  0.
          5    1    3    3  501    0 -0.28291445941E+02 -0.39444083575E+02 -0.46719494017E+02  0.67371824702E+02  0.10000000000E+00 0. -1.
         -5    1    3    3    0  501  0.31247062329E+02  0.22278499058E+02 -0.28453455263E+03  0.28711083586E+03  0.10000000000E+00 0. -1.
          2    1    1    2  502    0 -0.29556163884E+01  0.17165584517E+02 -0.44998756775E+03  0.45032455417E+03  0.00000000000E+00 0.  1.
<mgrwt>
<rscale>  1 0.12620901E+03</rscale>
<asrwt>0</asrwt>
<pdfrwt beam="1">  1       21 0.18127378E-02 0.12620901E+03</pdfrwt>
<pdfrwt beam="2">  1        2 0.12200380E+00 0.12620901E+03</pdfrwt>
<totfact> 0.64072458E+05</totfact>
</mgrwt>
</event>
<event>
 6    2  0.1181843E-002  0.1418458E+03  0.7546771E-02  0.1210867E+00
         21   -1    0    0  502  503  0.00000000000E+00  0.00000000000E+00  0.11121242790E+02  0.11121242790E+02  0.00000000000E+00 0. -1.
          2   -1    0    0  503    0 -0.00000000000E+00 -0.00000000000E+00 -0.22960226735E+04  0.22960226735E+04  0.00000000000E+00 0. -1.
         25    2    1    2    0    0  0.86876216018E+01 -0.66464195057E+02 -0.46840864932E+03  0.48941484164E+03  0.12500904153E+03 0.  0.
          5    1    3    3  501    0 -0.43337905943E+02  0.21109191660E+01 -0.74527343605E+02  0.86237839816E+02  0.10000000000E+00 0.  1.
         -5    1    3    3    0  501  0.52025527545E+02 -0.68575114223E+02 -0.39388130572E+03  0.40317700183E+03  0.10000000000E+00 0.  1.
          2    1    1    2  502    0 -0.86876216018E+01  0.66464195057E+02 -0.18164927814E+04  0.18177290747E+04  0.00000000000E+00 0. -1.
<mgrwt>
<rscale>  1 0.14184578E+03</rscale>
<asrwt>0</asrwt>
<pdfrwt beam="1">  1       21 0.17109602E-02 0.14184578E+03</pdfrwt>
<pdfrwt beam="2">  1        2 0.35323430E+00 0.14184578E+03</pdfrwt>
<totfact> 0.10788516E+05</totfact>
</mgrwt>
</event>
<event>
 6    2  0.1181843E-002  0.1433141E+03  0.7546771E-02  0.1208938E+00
         21   -1    0    0  502  503  0.00000000000E+00  0.00000000000E+00  0.15466177546E+03  0.15466177546E+03  0.00000000000E+00 0. -1.
          1   -1    0    0  503    0 -0.00000000000E+00 -0.00000000000E+00 -0.52957679287E+03  0.52957679287E+03  0.00000000000E+00 0.  1.
         25    2    1    2    0    0  0.30591650229E+02 -0.63066288424E+02  0.11844436331E+03  0.18592472712E+03  0.12500292459E+03 0.  0.
          5    1    3    3  501    0 -0.11947788866E+02  0.33456007257E+02  0.16277681157E+02  0.39077192635E+02  0.10000000000E+00 0.  1.
         -5    1    3    3    0  501  0.42539439095E+02 -0.96522295681E+02  0.10216668215E+03  0.14684753449E+03  0.10000000000E+00 0.  1.
          1    1    1    2  502    0 -0.30591650229E+02  0.63066288424E+02 -0.49335938072E+03  0.49831384121E+03  0.00000000000E+00 0.  1.
<mgrwt>
<rscale>  1 0.14331412E+03</rscale>
<asrwt>0</asrwt>
<pdfrwt beam="1">  1       21 0.23794119E-01 0.14331412E+03</pdfrwt>
<pdfrwt beam="2">  1        1 0.81473354E-01 0.14331412E+03</pdfrwt>
<totfact> 0.77986941E+03</totfact>
</mgrwt>
</event>
<event>
 6    2  0.1181843E-002  0.1295607E+03  0.7546771E-02  0.1228109E+00
          4   -1    0    0  503    0 -0.00000000000E+00  0.00000000000E+00  0.10519267454E+03  0.10519267454E+03  0.00000000000E+00 0. -1.
         21   -1    0    0  502  503  0.00000000000E+00 -0.00000000000E+00 -0.99297073535E+02  0.99297073535E+02  0.00000000000E+00 0. -1.
         25    2    1    2    0    0 -0.22229505271E+02 -0.25822618092E+02 -0.50126642628E+02  0.13891955446E+03  0.12500001520E+03 0.  0.
          5    1    3    3  501    0 -0.64166227484E+02 -0.49795243486E+02 -0.32975783735E+02  0.87660044127E+02  0.10000000000E+00 0. -1.
         -5    1    3    3    0  501  0.41936722213E+02  0.23972625394E+02 -0.17150858893E+02  0.51259510328E+02  0.10000000000E+00 0. -1.
          4    1    1    2  502    0  0.22229505271E+02  0.25822618092E+02  0.56022243637E+02  0.65570193623E+02  0.00000000000E+00 0. -1.
<mgrwt>
<rscale>  1 0.12956065E+03</rscale>
<asrwt>0</asrwt>
<pdfrwt beam="1">  1       21 0.15276473E-01 0.12956065E+03</pdfrwt>
<pdfrwt beam="2">  1        4 0.16183488E-01 0.12956065E+03</pdfrwt>
<totfact> 0.50389695E+04</totfact>
</mgrwt>
</event>
<event>
 6    2  0.1181843E-002  0.1554048E+03  0.7546771E-02  0.1193985E+00
          2   -1    0    0  503    0 -0.00000000000E+00  0.00000000000E+00  0.34763699359E+04  0.34763699359E+04  0.00000000000E+00 0.  1.
         21   -1    0    0  502  503  0.00000000000E+00 -0.00000000000E+00 -0.61374023055E+01  0.61374023055E+01  0.00000000000E+00 0.  1.
         25    2    1    2    0    0 -0.38370857313E+02  0.83979785317E+02  0.29538575588E+04  0.29579427172E+04  0.12500285368E+03 0.  0.
          5    1    3    3  501    0 -0.48992847511E+02  0.95972901739E+02  0.28931740052E+04  0.28951799480E+04  0.10000000000E+00 0. -1.
         -5    1    3    3    0  501  0.10621990198E+02 -0.11993116423E+02  0.60683553606E+02  0.62762769183E+02  0.10000000000E+00 0. -1.
          2    1    1    2  502    0  0.38370857313E+02 -0.83979785317E+02  0.51637497475E+03  0.52456462097E+03  0.00000000000E+00 0.  1.
<mgrwt>
<rscale>  1 0.15540476E+03</rscale>
<asrwt>0</asrwt>
<pdfrwt beam="1">  1       21 0.94421852E-03 0.15540476E+03</pdfrwt>
<pdfrwt beam="2">  1        2 0.53482457E+00 0.15540476E+03</pdfrwt>
<totfact> 0.58273948E+04</totfact>
</mgrwt>
</event>
<event>
 6    2  0.1181843E-002  0.1392064E+03  0.7546771E-02  0.1214401E+00
         21   -1    0    0  502  503  0.00000000000E+00  0.00000000000E+00  0.11103395372E+03  0.11103395372E+03  0.00000000000E+00 0.  1.
          2   -1    0    0  503    0 -0.00000000000E+00 -0.00000000000E+00 -0.56438341530E+03  0.56438341530E+03  0.00000000000E+00 0.  1.
         25    2    1    2    0    0  0.60927393606E+02  0.64159966101E+01  0.64877054240E+02  0.15358211341E+03  0.12500048436E+03 0.  0.
          5    1    3    3  501    0  0.93245353641E+02  0.26192673899E+02  0.63211258106E+02  0.11565649698E+03  0.10000000000E+00 0. -1.
         -5    1    3    3    0  501 -0.32317960035E+02 -0.19776677289E+02  0.16657961344E+01  0.37925616438E+02  0.10000000000E+00 0. -1.
          2    1    1    2  502    0 -0.60927393606E+02 -0.64159966101E+01 -0.51822651582E+03  0.52183525562E+03  0.00000000000E+00 0.  1.
<mgrwt>
<rscale>  1 0.13920644E+03</rscale>
<asrwt>0</asrwt>
<pdfrwt beam="1">  1       21 0.17082147E-01 0.13920644E+03</pdfrwt>
<pdfrwt beam="2">  1        2 0.86828217E-01 0.13920644E+03</pdfrwt>
<totfact> 0.21193758E+04</totfact>
</mgrwt>
</event>
<event>
 6    2  0.1181843E-002  0.1391697E+03  0.7546771E-02  0.1214451E+00
          1   -1    0    0  503    0 -0.00000000000E+00  0.00000000000E+00  0.18214609127E+03  0.18214609127E+03  0.00000000000E+00 0. -1.
         21   -1    0    0  502  503  0.00000000000E+00 -0.00000000000E+00 -0.57794424823E+02  0.57794424823E+02  0.00000000000E+00 0. -1.
         25    2    1    2    0    0 -0.39176962313E+01 -0.61100300902E+02  0.10912023790E+03  0.17684858690E+03  0.12497840315E+03 0.  0.
          5    1    3    3  501    0 -0.23676325886E+02  0.24521207104E+02  0.75367718209E+02  0.82717355817E+02  0.10000000000E+00 0. -1.
         -5    1    3    3    0  501  0.19758629654E+02 -0.85621508006E+02  0.33752519693E+02  0.94131231080E+02  0.10000000000E+00 0. -1.
          1    1    1    2  502    0  0.39176962313E+01  0.61100300902E+02  0.15231428546E+02  0.63091929196E+02  0.00000000000E+00 0. -1.
<mgrwt>
<rscale>  1 0.13916967E+03</rscale>
<asrwt>0</asrwt>
<pdfrwt beam="1">  1       21 0.88914501E-02 0.13916967E+03</pdfrwt>
<pdfrwt beam="2">  1        1 0.28022475E-01 0.13916967E+03</pdfrwt>
<totfact> 0.17610872E+05</totfact>
</mgrwt>
</event>
<event>
 6    2  0.1181843E-002  0.1263520E+03  0.7546771E-02  0.1232971E+00
          2   -1    0    0  503    0 -0.00000000000E+00  0.00000000000E+00  0.20939127701E+03  0.20939127701E+03  0.00000000000E+00 0. -1.
         21   -1    0    0  502  503  0.00000000000E+00 -0.00000000000E+00 -0.13435036821E+03  0.13435036821E+03  0.00000000000E+00 0. -1.
         25    2    1    2    0    0 -0.17584988630E+02 -0.53940901538E+01 -0.10406739788E+03  0.16369133682E+03  0.12500600952E+03 0.  0.
          5    1    3    3  501    0 -0.35064993814E+02 -0.57614266673E+02 -0.76898667791E+02  0.10228574008E+03  0.10000000000E+00 0.  1.
         -5    1    3    3    0  501  0.17480005184E+02  0.52220176519E+02 -0.27168730088E+02  0.61405596745E+02  0.10000000000E+00 0.  1.
          2    1    1    2  502    0  0.17584988630E+02  0.53940901538E+01  0.17910830667E+03  0.18005030839E+03  0.00000000000E+00 0. -1.
<mgrwt>
<rscale>  1 0.12635201E+03</rscale>
<asrwt>0</asrwt>
<pdfrwt beam="1">  1       21 0.20669287E-01 0.12635201E+03</pdfrwt>
<pdfrwt beam="2">  1        2 0.32214043E-01 0.12635201E+03</pdfrwt>
<totfact> 0.43260167E+04</totfact>
</mgrwt>
</event>
<event>
 6    2  0.1181843E-002  0.1293740E+03  0.7546771E-02  0.1228388E+00
         21   -1    0    0  502  503  0.00000000000E+00  0.00000000000E+00  0.17624861164E+02  0.17624861164E+02  0.00000000000E+00 0.  1.
          2   -1    0    0  503    0 -0.00000000000E+00 -0.00000000000E+00 -0.11540047337E+04  0.11540047337E+04  0.00000000000E+00 0. -1.
         25    2    1    2    0    0 -0.21213316228E+02  0.25750054912E+02 -0.22427587439E+03  0.25891563444E+03  0.12499827124E+03 0.  0.
          5    1    3    3  501    0  0.29398382088E+02  0.94697018334E+01 -0.19653599638E+03  0.19894810377E+03  0.10000000000E+00 0.  1.
         -5    1    3    3    0  501 -0.50611698316E+02  0.16280353079E+02 -0.27739878016E+02  0.59967530674E+02  0.10000000000E+00 0.  1.
          2    1    1    2  502    0  0.21213316228E+02 -0.25750054912E+02 -0.91210399815E+03  0.91271396043E+03  0.00000000000E+00 0. -1.
<mgrwt>
<rscale>  1 0.12937402E+03</rscale>
<asrwt>0</asrwt>
<pdfrwt beam="1">  1       21 0.27115159E-02 0.12937402E+03</pdfrwt>
<pdfrwt beam="2">  1        2 0.17753927E+00 0.12937402E+03</pdfrwt>
<totfact> 0.20148671E+05</totfact>
</mgrwt>
</event>
<event>
 6    2  0.1181843E-002  0.1354318E+03  0.7546771E-02  0.1219611E+00
          2   -1    0    0  503    0 -0.00000000000E+00  0.00000000000E+00  0.32475192030E+04  0.32475192030E+04  0.00000000000E+00 0.  1.
         21   -1    0    0  502  503  0.00000000000E+00 -0.00000000000E+00 -0.86088227012E+01  0.86088227012E+01  0.00000000000E+00 0.  1.
         25    2    1    2    0    0 -0.31019318361E+02  0.41886731615E+02  0.31511326820E+04  0.31540416862E+04  0.12500032904E+03 0.  0.
          5    1    3    3  501    0 -0.40001197724E+02  0.44007364057E+02  0.60997428337E+03  0.61286652729E+03  0.10000000000E+00 0.  1.
         -5    1    3    3    0  501  0.89818793631E+01 -0.21206324419E+01  0.25411583986E+04  0.25411751589E+04  0.10000000000E+00 0.  1.
          2    1    1    2  502    0  0.31019318361E+02 -0.41886731615E+02  0.87777698329E+02  0.10208633954E+03  0.00000000000E+00 0.  1.
<mgrwt>
<rscale>  1 0.13543182E+03</rscale>
<asrwt>0</asrwt>
<pdfrwt beam="1">  1       21 0.13244369E-02 0.13543182E+03</pdfrwt>
<pdfrwt beam="2">  1        2 0.49961736E+00 0.13543182E+03</pdfrwt>
<totfact> 0.47822433E+04</totfact>
</mgrwt>
</event>
<event>
 6    2  0.1181843E-002  0.2219945E+03  0.7546771E-02  0.1132405E+00
         21   -1    0    0  502  503  0.00000000000E+00  0.00000000000E+00  0.54918506283E+03  0.54918506283E+03  0.00000000000E+00 0.  1.
          3   -1    0    0  503    0 -0.00000000000E+00 -0.00000000000E+00 -0.82845030822E+02  0.82845030822E+02  0.00000000000E+00 0.  1.
         25    2    1    2    0    0  0.16949649414E+03 -0.70188119847E+02  0.15531696079E+03  0.27093345212E+03  0.12500457382E+03 0.  0.
          5    1    3    3  501    0  0.18709536146E+03 -0.65698573882E+02  0.12152907577E+03  0.23257322105E+03  0.10000000000E+00 0.  1.
         -5    1    3    3    0  501 -0.17598867320E+02 -0.44895459648E+01  0.33787885023E+02  0.38360231076E+02  0.10000000000E+00 0.  1.
          3    1    1    2  502    0 -0.16949649414E+03  0.70188119847E+02  0.31102307121E+03  0.36109664153E+03  0.00000000000E+00 0.  1.
<mgrwt>
<rscale>  1 0.22199454E+03</rscale>
<asrwt>0</asrwt>
<pdfrwt beam="1">  1       21 0.84490007E-01 0.22199454E+03</pdfrwt>
<pdfrwt beam="2">  1        3 0.12745390E-01 0.22199454E+03</pdfrwt>
<totfact> 0.29310254E+03</totfact>
</mgrwt>
</event>
<event>
 6    2  0.1181843E-002  0.1289467E+03  0.7546771E-02  0.1229027E+00
          2   -1    0    0  503    0 -0.00000000000E+00  0.00000000000E+00  0.92107948955E+02  0.92107948955E+02  0.00000000000E+00 0. -1.
         21   -1    0    0  502  503  0.00000000000E+00 -0.00000000000E+00 -0.13285637020E+03  0.13285637020E+03  0.00000000000E+00 0. -1.
         25    2    1    2    0    0  0.12406529677E+01  0.31634920019E+02 -0.96359245221E+02  0.16097313908E+03  0.12499975992E+03 0.  0.
          5    1    3    3  501    0 -0.31988027540E+02  0.43899147087E+02 -0.11026795128E+03  0.12292029979E+03  0.10000000000E+00 0.  1.
         -5    1    3    3    0  501  0.33228680508E+02 -0.12264227069E+02  0.13908706055E+02  0.38052839289E+02  0.10000000000E+00 0.  1.
          2    1    1    2  502    0 -0.12406529677E+01 -0.31634920019E+02  0.55610823978E+02  0.63991180079E+02  0.00000000000E+00 0. -1.
<mgrwt>
<rscale>  1 0.12894668E+03</rscale>
<asrwt>0</asrwt>
<pdfrwt beam="1">  1       21 0.20439442E-01 0.12894668E+03</pdfrwt>
<pdfrwt beam="2">  1        2 0.14170454E-01 0.12894668E+03</pdfrwt>
<totfact> 0.11104128E+05</totfact>
</mgrwt>
</event>
<event>
 6    2  0.1181843E-002  0.1394184E+03  0.7546771E-02  0.1214114E+00
         21   -1    0    0  502  503  0.00000000000E+00  0.00000000000E+00  0.90011664940E+02  0.90011664940E+02  0.00000000000E+00 0. -1.
          2   -1    0    0  503    0 -0.00000000000E+00 -0.00000000000E+00 -0.22917615673E+04  0.22917615673E+04  0.00000000000E+00 0.  1.
         25    2    1    2    0    0 -0.20485575818E+02 -0.58237008755E+02  0.35343229200E+02  0.14382844130E+03  0.12500507459E+03 0.  0.
          5    1    3    3  501    0 -0.29133876870E+02 -0.34376822675E+02 -0.42506389701E+02  0.61946362961E+02  0.10000000000E+00 0.  1.
         -5    1    3    3    0  501  0.86483010518E+01 -0.23860186080E+02  0.77849618901E+02  0.81882078344E+02  0.10000000000E+00 0.  1.
          2    1    1    2  502    0  0.20485575818E+02  0.58237008755E+02 -0.22370931315E+04  0.22379447909E+04  0.00000000000E+00 0.  1.
<mgrwt>
<rscale>  1 0.13941835E+03</rscale>
<asrwt>0</asrwt>
<pdfrwt beam="1">  1       21 0.13847952E-01 0.13941835E+03</pdfrwt>
<pdfrwt beam="2">  1        2 0.35257862E+00 0.13941835E+03</pdfrwt>
<totfact> 0.31860441E+03</totfact>
</mgrwt>
</event>
<event>
 6    2  0.1181843E-002  0.1364831E+03  0.7546771E-02  0.1218141E+00
          4   -1    0    0  503    0 -0.00000000000E+00  0.00000000000E+00  0.26227931607E+02  0.26227931607E+02  0.00000000000E+00 0.  1.
         21   -1    0    0  502  503  0.00000000000E+00 -0.00000000000E+00 -0.36164157586E+03  0.36164157586E+03  0.00000000000E+00 0.  1.
         25    2    1    2    0    0 -0.51172720266E+02 -0.19632039265E+02 -0.26994926011E+03  0.30249006113E+03  0.12499427900E+03 0.  0.
          5    1    3    3  501    0 -0.81740334204E+02  0.68865965672E+01 -0.23539042262E+03  0.24927408311E+03  0.10000000000E+00 0.  1.
         -5    1    3    3    0  501  0.30567613937E+02 -0.26518635832E+02 -0.34558837488E+02  0.53215978022E+02  0.10000000000E+00 0.  1.
          4    1    1    2  502    0  0.51172720266E+02  0.19632039265E+02 -0.65464384137E+02  0.85379446330E+02  0.00000000000E+00 0.  1.
<mgrwt>
<rscale>  1 0.13648309E+03</rscale>
<asrwt>0</asrwt>
<pdfrwt beam="1">  1       21 0.55637167E-01 0.13648309E+03</pdfrwt>
<pdfrwt beam="2">  1        4 0.40350663E-02 0.13648309E+03</pdfrwt>
<totfact> 0.41922150E+04</totfact>
</mgrwt>
</event>
<event>
 6    2  0.1181843E-002  0.1450496E+03  0.7546771E-02  0.1206691E+00
         21   -1    0    0  502  503  0.00000000000E+00  0.00000000000E+00  0.21428426158E+03  0.21428426158E+03  0.00000000000E+00 0.  1.
          3   -1    0    0  503    0 -0.00000000000E+00 -0.00000000000E+00 -0.63526547575E+02  0.63526547575E+02  0.00000000000E+00 0. -1.
         25    2    1    2    0    0  0.27982493683E+02  0.68030672668E+02  0.14325875994E+03  0.20386875963E+03  0.12501282525E+03 0.  0.
          5    1    3    3  501    0  0.37915069490E+02  0.88421949203E+02  0.51054042098E+02  0.10891519090E+03  0.10000000000E+00 0.  1.
         -5    1    3    3    0  501 -0.99325758071E+01 -0.20391276535E+02  0.92204717844E+02  0.94953568725E+02  0.10000000000E+00 0.  1.
          3    1    1    2  502    0 -0.27982493683E+02 -0.68030672668E+02  0.74989540657E+01  0.73942049529E+02  0.00000000000E+00 0. -1.
<mgrwt>
<rscale>  1 0.14504964E+03</rscale>
<asrwt>0</asrwt>
<pdfrwt beam="1">  1       21 0.32966809E-01 0.14504964E+03</pdfrwt>
<pdfrwt beam="2">  1        3 0.97733151E-02 0.14504964E+03</pdfrwt>
<totfact> 0.32801524E+04</totfact>
</mgrwt>
</event>
<event>
 6    2  0.1181843E-002  0.1278620E+03  0.7546771E-02  0.1230663E+00
          3   -1    0    0  503    0 -0.00000000000E+00  0.00000000000E+00  0.69242684986E+02  0.69242684986E+02  0.00000000000E+00 0. -1.
         21   -1    0    0  502  503  0.00000000000E+00 -0.00000000000E+00 -0.97941451163E+02  0.97941451163E+02  0.00000000000E+00 0.  1.
         25    2    1    2    0    0  0.26799029877E+02 -0.24771027377E+01 -0.45198618494E+02  0.13561565239E+03  0.12499746405E+03 0.  0.
          5    1    3    3  501    0 -0.27749824318E+02  0.44408677491E+02 -0.34954194260E+02  0.62960218254E+02  0.10000000000E+00 0.  1.
         -5    1    3    3    0  501  0.54548854195E+02 -0.46885780229E+02 -0.10244424235E+02  0.72655434136E+02  0.10000000000E+00 0.  1.
          3    1    1    2  502    0 -0.26799029877E+02  0.24771027377E+01  0.16499852317E+02  0.31568483759E+02  0.00000000000E+00 0. -1.
<mgrwt>
<rscale>  1 0.12786200E+03</rscale>
<asrwt>0</asrwt>
<pdfrwt beam="1">  1       21 0.15067916E-01 0.12786200E+03</pdfrwt>
<pdfrwt beam="2">  1        3 0.10652721E-01 0.12786200E+03</pdfrwt>
<totfact> 0.12184015E+05</totfact>
</mgrwt>
</event>
<event>
 6    2  0.1181843E-002  0.1275758E+03  0.7546771E-02  0.1231098E+00
          1   -1    0    0  503    0 -0.00000000000E+00  0.00000000000E+00  0.40326560354E+03  0.40326560354E+03  0.00000000000E+00 0. -1.
         21   -1    0    0  502  503  0.00000000000E+00 -0.00000000000E+00 -0.20084672777E+02  0.20084672777E+02  0.00000000000E+00 0. -1.
         25    2    1    2    0    0  0.24652098987E+02  0.66819694686E+01  0.19231336703E+03  0.23078132351E+03  0.12499285356E+03 0.  0.
          5    1    3    3  501    0  0.50067505529E+01 -0.76026374756E+01  0.20373623971E+03  0.20393953275E+03  0.10000000000E+00 0.  1.
         -5    1    3    3    0  501  0.19645348434E+02  0.14284606944E+02 -0.11422872682E+02  0.26841790755E+02  0.10000000000E+00 0.  1.
          1    1    1    2  502    0 -0.24652098987E+02 -0.66819694686E+01  0.19086756373E+03  0.19256895281E+03  0.00000000000E+00 0. -1.
<mgrwt>
<rscale>  1 0.12757581E+03</rscale>
<asrwt>0</asrwt>
<pdfrwt beam="1">  1       21 0.30899500E-02 0.12757581E+03</pdfrwt>
<pdfrwt beam="2">  1        1 0.62040856E-01 0.12757581E+03</pdfrwt>
<totfact> 0.38842470E+05</totfact>
</mgrwt>
</event>
<event>
 6    2  0.1181843E-002  0.1391786E+03  0.7546771E-02  0.1214438E+00
          3   -1    0    0  503    0 -0.00000000000E+00  0.00000000000E+00  0.10468373355E+04  0.10468373355E+04  0.00000000000E+00 0. -1.
         21   -1    0    0  502  503  0.00000000000E+00 -0.00000000000E+00 -0.96949781973E+01  0.96949781973E+01  0.00000000000E+00 0. -1.
         25    2    1    2    0    0 -0.13354934596E+02 -0.59744299112E+02  0.66758758898E+03  0.68194125355E+03  0.12499179483E+03 0.  0.
          5    1    3    3  501    0  0.26446440526E+02 -0.48053211429E+02  0.11102562650E+03  0.12383547587E+03  0.10000000000E+00 0. -1.
         -5    1    3    3    0  501 -0.39801375123E+02 -0.11691087682E+02  0.55656196248E+03  0.55810577767E+03  0.10000000000E+00 0. -1.
          3    1    1    2  502    0  0.13354934596E+02  0.59744299112E+02  0.36955476834E+03  0.37459106017E+03  0.00000000000E+00 0. -1.
<mgrwt>
<rscale>  1 0.13917861E+03</rscale>
<asrwt>0</asrwt>
<pdfrwt beam="1">  1       21 0.14915359E-02 0.13917861E+03</pdfrwt>
<pdfrwt beam="2">  1        3 0.16105181E+00 0.13917861E+03</pdfrwt>
<totfact> 0.27462169E+04</totfact>
</mgrwt>
</event>
<event>
 6    2  0.1181843E-002  0.1271421E+03  0.7546771E-02  0.1231759E+00
         21   -1    0    0  502  503  0.00000000000E+00  0.00000000000E+00  0.35770033562E+03  0.35770033562E+03  0.00000000000E+00 0. -1.
          1   -1    0    0  503    0 -0.00000000000E+00 -0.00000000000E+00 -0.95017851581E+02  0.95017851581E+02  0.00000000000E+00 0.  1.
         25    2    1    2    0    0  0.15740445235E+02  0.17082004927E+02  0.34473906658E+03  0.36743724416E+03  0.12500219145E+03 0.  0.
          5    1    3    3  501    0  0.60802884539E+00  0.22915753158E+02  0.34972062003E+03  0.35047114505E+03  0.10000000000E+00 0.  1.
         -5    1    3    3    0  501  0.15132416390E+02 -0.58337482312E+01 -0.49815534525E+01  0.16966099110E+02  0.10000000000E+00 0.  1.
          1    1    1    2  502    0 -0.15740445235E+02 -0.17082004927E+02 -0.82056582534E+02  0.85280943039E+02  0.00000000000E+00 0.  1.
<mgrwt>
<rscale>  1 0.12714206E+03</rscale>
<asrwt>0</asrwt>
<pdfrwt beam="1">  1       21 0.55030820E-01 0.12714206E+03</pdfrwt>
<pdfrwt beam="2">  1        1 0.14618131E-01 0.12714206E+03</pdfrwt>
<totfact> 0.12960154E+04</totfact>
</mgrwt>
</event>
<event>
 6    2  0.1181843E-002  0.1554438E+03  0.7546771E-02  0.1193939E+00
          3   -1    0    0  503    0 -0.00000000000E+00  0.00000000000E+00  0.24556345108E+04  0.24556345108E+04  0.00000000000E+00 0. -1.
         21   -1    0    0  502  503  0.00000000000E+00 -0.00000000000E+00 -0.81318269188E+01  0.81318269188E+01  0.00000000000E+00 0. -1.
         25    2    1    2    0    0 -0.88432734216E+02  0.26818146415E+02  0.88606717580E+03  0.89959869730E+03  0.12499285853E+03 0.  0.
          5    1    3    3  501    0 -0.28499038849E+02 -0.47985371855E+02  0.23640617808E+03  0.24290467711E+03  0.10000000000E+00 0.  1.
         -5    1    3    3    0  501 -0.59933695367E+02  0.74803518270E+02  0.64966099772E+03  0.65669402018E+03  0.10000000000E+00 0.  1.
          3    1    1    2  502    0  0.88432734216E+02 -0.26818146415E+02  0.15614355080E+04  0.15641676404E+04  0.00000000000E+00 0. -1.
<mgrwt>
<rscale>  1 0.15544380E+03</rscale>
<asrwt>0</asrwt>
<pdfrwt beam="1">  1       21 0.12510523E-02 0.15544380E+03</pdfrwt>
<pdfrwt beam="2">  1        3 0.37778933E+00 0.15544380E+03</pdfrwt>
<totfact> 0.23379303E+03</totfact>
</mgrwt>
</event>
<event>
 6    2  0.1181843E-002  0.1261011E+03  0.7546771E-02  0.1233358E+00
         21   -1    0    0  502  503  0.00000000000E+00  0.00000000000E+00  0.86405948178E+01  0.86405948178E+01  0.00000000000E+00 0.  1.
          2   -1    0    0  503    0 -0.00000000000E+00 -0.00000000000E+00 -0.79531575343E+03  0.79531575343E+03  0.00000000000E+00 0.  1.
         25    2    1    2    0    0 -0.73156236955E+01  0.14957319700E+02 -0.46335104188E+03  0.48020378189E+03  0.12499697743E+03 0.  0.
          5    1    3    3  501    0  0.49244798956E+01  0.17584140105E+02 -0.46684827716E+03  0.46720528290E+03  0.10000000000E+00 0. -1.
         -5    1    3    3    0  501 -0.12240103591E+02 -0.26268204047E+01  0.34972352782E+01  0.12998498988E+02  0.10000000000E+00 0. -1.
          2    1    1    2  502    0  0.73156236955E+01 -0.14957319700E+02 -0.32332411673E+03  0.32375256635E+03  0.00000000000E+00 0.  1.
<mgrwt>
<rscale>  1 0.12610109E+03</rscale>
<asrwt>0</asrwt>
<pdfrwt beam="1">  1       21 0.13293220E-02 0.12610109E+03</pdfrwt>
<pdfrwt beam="2">  1        2 0.12235630E+00 0.12610109E+03</pdfrwt>
<totfact> 0.10480169E+06</totfact>
</mgrwt>
</event>
<event>
 6    2  0.1181843E-002  0.1506025E+03  0.7546771E-02  0.1199735E+00
          1   -1    0    0  503    0 -0.00000000000E+00  0.00000000000E+00  0.17774900561E+03  0.17774900561E+03  0.00000000000E+00 0. -1.
         21   -1    0    0  502  503  0.00000000000E+00 -0.00000000000E+00 -0.11778308195E+03  0.11778308195E+03  0.00000000000E+00 0.  1.
         25    2    1    2    0    0  0.32720687413E+01 -0.83939080751E+02 -0.48611007513E+02  0.15825344503E+03  0.12499858840E+03 0.  0.
          5    1    3    3  501    0  0.39411518885E+02 -0.10261388736E+03 -0.35721414428E+02  0.11558073866E+03  0.10000000000E+00 0. -1.
         -5    1    3    3    0  501 -0.36139450143E+02  0.18674806614E+02 -0.12889593085E+02  0.42672706366E+02  0.10000000000E+00 0. -1.
          1    1    1    2  502    0 -0.32720687413E+01  0.83939080751E+02  0.10857693118E+03  0.13727864253E+03  0.00000000000E+00 0. -1.
<mgrwt>
<rscale>  1 0.15060253E+03</rscale>
<asrwt>0</asrwt>
<pdfrwt beam="1">  1       21 0.18120474E-01 0.15060253E+03</pdfrwt>
<pdfrwt beam="2">  1        1 0.27346001E-01 0.15060253E+03</pdfrwt>
<totfact> 0.51046351E+04</totfact>
</mgrwt>
</event>
<event>
 6    2  0.1181843E-002  0.1327186E+03  0.7546771E-02  0.1223477E+00
         21   -1    0    0  502  503  0.00000000000E+00  0.00000000000E+00  0.50039353732E+02  0.50039353732E+02  0.00000000000E+00 0.  1.
          1   -1    0    0  503    0 -0.00000000000E+00 -0.00000000000E+00 -0.80267354266E+03  0.80267354266E+03  0.00000000000E+00 0. -1.
         25    2    1    2    0    0 -0.24198669029E+02  0.37651927655E+02 -0.39916627657E+02  0.13859136235E+03  0.12494392869E+03 0.  0.
          5    1    3    3  501    0  0.10116240505E+02  0.49933878609E+02  0.30443995709E+02  0.59351305206E+02  0.10000000000E+00 0. -1.
         -5    1    3    3    0  501 -0.34314909535E+02 -0.12281950954E+02 -0.70360623366E+02  0.79240057143E+02  0.10000000000E+00 0. -1.
          1    1    1    2  502    0  0.24198669029E+02 -0.37651927655E+02 -0.71271756127E+03  0.71412153404E+03  0.00000000000E+00 0. -1.
<mgrwt>
<rscale>  1 0.13271861E+03</rscale>
<asrwt>0</asrwt>
<pdfrwt beam="1">  1       21 0.76983628E-02 0.13271861E+03</pdfrwt>
<pdfrwt beam="2">  1        1 0.12348823E+00 0.13271861E+03</pdfrwt>
<totfact> 0.33060048E+04</totfact>
</mgrwt>
</event>
<event>
 6    2  0.1181843E-002  0.1261909E+03  0.7546771E-02  0.1233220E+00
         21   -1    0    0  502  503  0.00000000000E+00  0.00000000000E+00  0.17648123230E+01  0.17648123230E+01  0.00000000000E+00 0. -1.
          2   -1    0    0  503    0 -0.00000000000E+00 -0.00000000000E+00 -0.29625730277E+04  0.29625730277E+04  0.00000000000E+00 0. -1.
         25    2    1    2    0    0  0.14107195448E+02 -0.99761506161E+01 -0.27090067586E+04  0.27119442779E+04  0.12500244790E+03 0.  0.
          5    1    3    3  501    0  0.43262808045E+02 -0.17738649398E+02 -0.25285762244E+04  0.25290085138E+04  0.10000000000E+00 0. -1.
         -5    1    3    3    0  501 -0.29155612596E+02  0.77624987816E+01 -0.18043053425E+03  0.18293576420E+03  0.10000000000E+00 0. -1.
          2    1    1    2  502    0 -0.14107195448E+02  0.99761506161E+01 -0.25180145681E+03  0.25239356211E+03  0.00000000000E+00 0. -1.
<mgrwt>
<rscale>  1 0.12619092E+03</rscale>
<asrwt>0</asrwt>
<pdfrwt beam="1">  1       21 0.27150968E-03 0.12619092E+03</pdfrwt>
<pdfrwt beam="2">  1        2 0.45578030E+00 0.12619092E+03</pdfrwt>
<totfact> 0.82788128E+05</totfact>
</mgrwt>
</event>
<event>
 6    2  0.1181843E-002  0.1672695E+03  0.7546771E-02  0.1180726E+00
         21   -1    0    0  502  503  0.00000000000E+00  0.00000000000E+00  0.16128223745E+02  0.16128223745E+02  0.00000000000E+00 0. -1.
          2   -1    0    0  503    0 -0.00000000000E+00 -0.00000000000E+00 -0.15829962963E+04  0.15829962963E+04  0.00000000000E+00 0.  1.
         25    2    1    2    0    0  0.60566269810E+01  0.11098774773E+03 -0.51692953748E+03  0.54331871863E+03  0.12499648161E+03 0.  0.
          5    1    3    3  501    0  0.48679834676E+02  0.11126801153E+03 -0.42454407126E+03  0.44157442762E+03  0.10000000000E+00 0.  1.
         -5    1    3    3    0  501 -0.42623207695E+02 -0.28026379834E+00 -0.92385466227E+02  0.10174429100E+03  0.10000000000E+00 0.  1.
          2    1    1    2  502    0 -0.60566269810E+01 -0.11098774773E+03 -0.10499385351E+04  0.10558058014E+04  0.00000000000E+00 0.  1.
<mgrwt>
<rscale>  1 0.16726949E+03</rscale>
<asrwt>0</asrwt>
<pdfrwt beam="1">  1       21 0.24812647E-02 0.16726949E+03</pdfrwt>
<pdfrwt beam="2">  1        2 0.24353794E+00 0.16726949E+03</pdfrwt>
<totfact> 0.13751792E+05</totfact>
</mgrwt>
</event>
<event>
 6    2  0.1181843E-002  0.1286522E+03  0.7546771E-02  0.1229469E+00
         21   -1    0    0  502  503  0.00000000000E+00  0.00000000000E+00  0.53241016071E+02  0.53241016071E+02  0.00000000000E+00 0. -1.
          2   -1    0    0  503    0 -0.00000000000E+00 -0.00000000000E+00 -0.82722957476E+03  0.82722957476E+03  0.00000000000E+00 0.  1.
         25    2    1    2    0    0 -0.13310755770E+02 -0.27409671432E+02 -0.25243049887E+02  0.13110532392E+03  0.12499171206E+03 0.  0.
          5    1    3    3  501    0  0.46450265308E+02  0.16542330243E+02 -0.28312605717E+02  0.56858504021E+02  0.10000000000E+00 0. -1.
         -5    1    3    3    0  501 -0.59761021077E+02 -0.43952001675E+02  0.30695558298E+01  0.74246819895E+02  0.10000000000E+00 0. -1.
          2    1    1    2  502    0  0.13310755770E+02  0.27409671432E+02 -0.74874550880E+03  0.74936526691E+03  0.00000000000E+00 0.  1.
<mgrwt>
<rscale>  1 0.12865222E+03</rscale>
<asrwt>0</asrwt>
<pdfrwt beam="1">  1       21 0.81909258E-02 0.12865222E+03</pdfrwt>
<pdfrwt beam="2">  1        2 0.12726608E+00 0.12865222E+03</pdfrwt>
<totfact> 0.49690146E+04</totfact>
</mgrwt>
</event>
<event>
 6    2  0.1181843E-002  0.1665699E+03  0.7546771E-02  0.1181473E+00
          2   -1    0    0  503    0 -0.00000000000E+00  0.00000000000E+00  0.78696462838E+03  0.78696462838E+03  0.00000000000E+00 0.  1.
         21   -1    0    0  502  503  0.00000000000E+00 -0.00000000000E+00 -0.35056168511E+02  0.35056168511E+02  0.00000000000E+00 0.  1.
         25    2    1    2    0    0  0.55861033674E+01  0.10995120908E+03  0.20499817880E+03  0.26413969086E+03  0.12500020018E+03 0.  0.
          5    1    3    3  501    0 -0.62510074232E+01  0.12816941134E+03  0.20565265266E+03  0.24240358216E+03  0.10000000000E+00 0.  1.
         -5    1    3    3    0  501  0.11837110791E+02 -0.18218202258E+02 -0.65447386034E+00  0.21736108700E+02  0.10000000000E+00 0.  1.
          2    1    1    2  502    0 -0.55861033674E+01 -0.10995120908E+03  0.54691028107E+03  0.55788110603E+03  0.00000000000E+00 0.  1.
<mgrwt>
<rscale>  1 0.16656987E+03</rscale>
<asrwt>0</asrwt>
<pdfrwt beam="1">  1       21 0.53932573E-02 0.16656987E+03</pdfrwt>
<pdfrwt beam="2">  1        2 0.12107147E+00 0.16656987E+03</pdfrwt>
<totfact> 0.10826558E+05</totfact>
</mgrwt>
</event>
<event>
 6    2  0.1181843E-002  0.1363630E+03  0.7546771E-02  0.1218308E+00
          1   -1    0    0  503    0 -0.00000000000E+00  0.00000000000E+00  0.72759631599E+03  0.72759631599E+03  0.00000000000E+00 0.  1.
         21   -1    0    0  502  503  0.00000000000E+00 -0.00000000000E+00 -0.31521762468E+02  0.31521762468E+02  0.00000000000E+00 0. -1.
         25    2    1    2    0    0 -0.28525757971E+02  0.46402889656E+02  0.12355358849E+03  0.18401182529E+03  0.12501166178E+03 0.  0.
          5    1    3    3  501    0 -0.24692614315E+02  0.26567376470E+01  0.13609476558E+03  0.13834225195E+03  0.10000000000E+00 0. -1.
         -5    1    3    3    0  501 -0.38331436556E+01  0.43746152009E+02 -0.12541177089E+02  0.45669573335E+02  0.10000000000E+00 0. -1.
          1    1    1    2  502    0  0.28525757971E+02 -0.46402889656E+02  0.57252096503E+03  0.57510625317E+03  0.00000000000E+00 0.  1.
<mgrwt>
<rscale>  1 0.13636298E+03</rscale>
<asrwt>0</asrwt>
<pdfrwt beam="1">  1       21 0.48495025E-02 0.13636298E+03</pdfrwt>
<pdfrwt beam="2">  1        1 0.11193788E+00 0.13636298E+03</pdfrwt>
<totfact> 0.83840397E+04</totfact>
</mgrwt>
</event>
<event>
 6    2  0.1181843E-002  0.1714319E+03  0.7546771E-02  0.1176363E+00
          2   -1    0    0  503    0 -0.00000000000E+00  0.00000000000E+00  0.19674209652E+04  0.19674209652E+04  0.00000000000E+00 0.  1.
         21   -1    0    0  502  503  0.00000000000E+00 -0.00000000000E+00 -0.17210166642E+02  0.17210166642E+02  0.00000000000E+00 0.  1.
         25    2    1    2    0    0 -0.10952696429E+03 -0.42072009788E+02  0.47907357981E+03  0.50882256489E+03  0.12499079067E+03 0.  0.
          5    1    3    3  501    0  0.23369922034E+02 -0.24453264581E+02  0.14414850007E+03  0.14806388984E+03  0.10000000000E+00 0.  1.
         -5    1    3    3    0  501 -0.13289688632E+03 -0.17618745207E+02  0.33492507975E+03  0.36075867505E+03  0.10000000000E+00 0.  1.
          2    1    1    2  502    0  0.10952696429E+03  0.42072009788E+02  0.14711372187E+04  0.14758085669E+04  0.00000000000E+00 0.  1.
<mgrwt>
<rscale>  1 0.17143193E+03</rscale>
<asrwt>0</asrwt>
<pdfrwt beam="1">  1       21 0.26477195E-02 0.17143193E+03</pdfrwt>
<pdfrwt beam="2">  1        2 0.30267997E+00 0.17143193E+03</pdfrwt>
<totfact> 0.78201899E+04</totfact>
</mgrwt>
</event>
<event>
 6    2  0.1181843E-002  0.1302113E+03  0.7546771E-02  0.1227143E+00
         21   -1    0    0  502  503  0.00000000000E+00  0.00000000000E+00  0.65892669586E+02  0.65892669586E+02  0.00000000000E+00 0. -1.
          3   -1    0    0  503    0 -0.00000000000E+00 -0.00000000000E+00 -0.16985705491E+03  0.16985705491E+03  0.00000000000E+00 0. -1.
         25    2    1    2    0    0  0.10595454325E+01 -0.36472402154E+02 -0.50379080767E+01  0.13030871418E+03  0.12499448675E+03 0.  0.
          5    1    3    3  501    0 -0.16966780842E+02  0.44272765365E+02  0.15578654741E+00  0.47412906203E+02  0.10000000000E+00 0. -1.
         -5    1    3    3    0  501  0.18026326274E+02 -0.80745167519E+02 -0.51936946241E+01  0.82895807979E+02  0.10000000000E+00 0. -1.
          3    1    1    2  502    0 -0.10595454325E+01  0.36472402154E+02 -0.98926477251E+02  0.10544101032E+03  0.00000000000E+00 0. -1.
<mgrwt>
<rscale>  1 0.13021129E+03</rscale>
<asrwt>0</asrwt>
<pdfrwt beam="1">  1       21 0.10137334E-01 0.13021129E+03</pdfrwt>
<pdfrwt beam="2">  1        3 0.26131854E-01 0.13021129E+03</pdfrwt>
<totfact> 0.52294991E+04</totfact>
</mgrwt>
</event>
<event>
 6    2  0.1181843E-002  0.1266915E+03  0.7546771E-02  0.1232449E+00
         21   -1    0    0  502  503  0.00000000000E+00  0.00000000000E+00  0.86340393900E+01  0.86340393900E+01  0.00000000000E+00 0.  1.
          2   -1    0    0  503    0 -0.00000000000E+00 -0.00000000000E+00 -0.10557017497E+04  0.10557017497E+04  0.00000000000E+00 0.  1.
         25    2    1    2    0    0  0.20579499007E+02  0.14839063048E+01 -0.46637704021E+03  0.48327867305E+03  0.12500005774E+03 0.  0.
          5    1    3    3  501    0  0.13963014840E+02 -0.57393300697E+02 -0.14647513969E+03  0.15793648500E+03  0.10000000000E+00 0. -1.
         -5    1    3    3    0  501  0.66164841678E+01  0.58877207002E+02 -0.31990190052E+03  0.32534218805E+03  0.10000000000E+00 0. -1.
          2    1    1    2  502    0 -0.20579499007E+02 -0.14839063048E+01 -0.58069067009E+03  0.58105711603E+03  0.00000000000E+00 0.  1.
<mgrwt>
<rscale>  1 0.12669148E+03</rscale>
<asrwt>0</asrwt>
<pdfrwt beam="1">  1       21 0.13283134E-02 0.12669148E+03</pdfrwt>
<pdfrwt beam="2">  1        2 0.16241569E+00 0.12669148E+03</pdfrwt>
<totfact> 0.72283496E+05</totfact>
</mgrwt>
</event>
<event>
 6    2  0.1181843E-002  0.1262750E+03  0.7546771E-02  0.1233090E+00
          1   -1    0    0  503    0 -0.00000000000E+00  0.00000000000E+00  0.96658070150E+03  0.96658070150E+03  0.00000000000E+00 0.  1.
         21   -1    0    0  502  503  0.00000000000E+00 -0.00000000000E+00 -0.92394529152E+02  0.92394529152E+02  0.00000000000E+00 0.  1.
         25    2    1    2    0    0  0.17718368759E+02 -0.23389309258E+01 -0.49122823079E+02  0.13549328052E+03  0.12500386446E+03 0.  0.
          5    1    3    3  501    0  0.40553245268E+01  0.61094926745E+02 -0.20476278071E+02  0.64562556444E+02  0.10000000000E+00 0. -1.
         -5    1    3    3    0  501  0.13663044233E+02 -0.63433857670E+02 -0.28646545008E+02  0.70930724073E+02  0.10000000000E+00 0. -1.
          1    1    1    2  502    0 -0.17718368759E+02  0.23389309258E+01  0.92330899543E+03  0.92348195013E+03  0.00000000000E+00 0.  1.
<mgrwt>
<rscale>  1 0.12627501E+03</rscale>
<asrwt>0</asrwt>
<pdfrwt beam="1">  1       21 0.14214544E-01 0.12627501E+03</pdfrwt>
<pdfrwt beam="2">  1        1 0.14870472E+00 0.12627501E+03</pdfrwt>
<totfact> 0.84187433E+03</totfact>
</mgrwt>
</event>
<event>
 6    2  0.1181843E-002  0.1939997E+03  0.7546771E-02  0.1154903E+00
          1   -1    0    0  503    0 -0.00000000000E+00  0.00000000000E+00  0.62268431549E+03  0.62268431549E+03  0.00000000000E+00 0. -1.
         21   -1    0    0  502  503  0.00000000000E+00 -0.00000000000E+00 -0.19912961115E+03  0.19912961115E+03  0.00000000000E+00 0. -1.
         25    2    1    2    0    0 -0.29659458953E+02 -0.14536846586E+03 -0.13988199059E+03  0.23917116854E+03  0.12499680875E+03 0.  0.
          5    1    3    3  501    0  0.34335668927E+02 -0.31417460036E+02 -0.86045539461E+02  0.97825558097E+02  0.10000000000E+00 0. -1.
         -5    1    3    3    0  501 -0.63995127880E+02 -0.11395100583E+03 -0.53836451127E+02  0.14134561044E+03  0.10000000000E+00 0. -1.
          1    1    1    2  502    0  0.29659458953E+02  0.14536846586E+03  0.56343669493E+03  0.58264275810E+03  0.00000000000E+00 0. -1.
<mgrwt>
<rscale>  1 0.19399968E+03</rscale>
<asrwt>0</asrwt>
<pdfrwt beam="1">  1       21 0.30635325E-01 0.19399968E+03</pdfrwt>
<pdfrwt beam="2">  1        1 0.95797586E-01 0.19399968E+03</pdfrwt>
<totfact> 0.37910117E+03</totfact>
</mgrwt>
</event>
<event>
 6    2  0.1181843E-002  0.1269769E+03  0.7546771E-02  0.1232012E+00
          2   -1    0    0  503    0 -0.00000000000E+00  0.00000000000E+00  0.14214184561E+02  0.14214184561E+02  0.00000000000E+00 0. -1.
         21   -1    0    0  502  503  0.00000000000E+00 -0.00000000000E+00 -0.41773329850E+03  0.41773329850E+03  0.00000000000E+00 0. -1.
         25    2    1    2    0    0  0.21469646173E+02  0.42597251663E+01 -0.37552831268E+03  0.39641473872E+03  0.12507613875E+03 0.  0.
          5    1    3    3  501    0  0.16305957225E+02 -0.60123299275E+02 -0.19190568968E+03  0.20176347313E+03  0.10000000000E+00 0. -1.
         -5    1    3    3    0  501  0.51636889480E+01  0.64383024441E+02 -0.18362262299E+03  0.19465126559E+03  0.10000000000E+00 0. -1.
          2    1    1    2  502    0 -0.21469646173E+02 -0.42597251663E+01 -0.27990801261E+02  0.35532744342E+02  0.00000000000E+00 0. -1.
<mgrwt>
<rscale>  1 0.12697689E+03</rscale>
<asrwt>0</asrwt>
<pdfrwt beam="1">  1       21 0.64266666E-01 0.12697689E+03</pdfrwt>
<pdfrwt beam="2">  1        2 0.21867975E-02 0.12697689E+03</pdfrwt>
<totfact> 0.12628352E+05</totfact>
</mgrwt>
</event>
<event>
 6    2  0.1181843E-002  0.1264138E+03  0.7546771E-02  0.1232876E+00
         21   -1    0    0  502  503  0.00000000000E+00  0.00000000000E+00  0.66154481856E+02  0.66154481856E+02  0.00000000000E+00 0.  1.
          2   -1    0    0  503    0 -0.00000000000E+00 -0.00000000000E+00 -0.76422957793E+03  0.76422957793E+03  0.00000000000E+00 0.  1.
         25    2    1    2    0    0 -0.18775509332E+02 -0.11130327222E+01  0.55232123032E+01  0.12653440386E+03  0.12500676339E+03 0.  0.
          5    1    3    3  501    0  0.45845851357E+02  0.14407057361E+02  0.28908156564E+02  0.56081163543E+02  0.10000000000E+00 0.  1.
         -5    1    3    3    0  501 -0.64621360689E+02 -0.15520090084E+02 -0.23384944261E+02  0.70453240320E+02  0.10000000000E+00 0.  1.
          2    1    1    2  502    0  0.18775509332E+02  0.11130327222E+01 -0.70359830838E+03  0.70384965592E+03  0.00000000000E+00 0.  1.
<mgrwt>
<rscale>  1 0.12641380E+03</rscale>
<asrwt>0</asrwt>
<pdfrwt beam="1">  1       21 0.10177612E-01 0.12641380E+03</pdfrwt>
<pdfrwt beam="2">  1        2 0.11757379E+00 0.12641380E+03</pdfrwt>
<totfact> 0.37577374E+04</totfact>
</mgrwt>
</event>
<event>
 6    2  0.1181843E-002  0.1478216E+03  0.7546771E-02  0.1203176E+00
         21   -1    0    0  502  503  0.00000000000E+00  0.00000000000E+00  0.34056610789E+02  0.34056610789E+02  0.00000000000E+00 0.  1.
          2   -1    0    0  503    0 -0.00000000000E+00 -0.00000000000E+00 -0.14986374014E+04  0.14986374014E+04  0.00000000000E+00 0. -1.
         25    2    1    2    0    0  0.39878541566E+01  0.78802889400E+02 -0.13321195625E+03  0.19898910799E+03  0.12500176580E+03 0.  0.
          5    1    3    3  501    0  0.37110408634E+02  0.99653474647E+02 -0.80687736464E+02  0.13348602269E+03  0.10000000000E+00 0.  1.
         -5    1    3    3    0  501 -0.33122554478E+02 -0.20850585247E+02 -0.52524219784E+02  0.65503085303E+02  0.10000000000E+00 0.  1.
          2    1    1    2  502    0 -0.39878541566E+01 -0.78802889400E+02 -0.13313688344E+04  0.13337049042E+04  0.00000000000E+00 0. -1.
<mgrwt>
<rscale>  1 0.14782165E+03</rscale>
<asrwt>0</asrwt>
<pdfrwt beam="1">  1       21 0.52394783E-02 0.14782165E+03</pdfrwt>
<pdfrwt beam="2">  1        2 0.23055961E+00 0.14782165E+03</pdfrwt>
<totfact> 0.44039063E+04</totfact>
</mgrwt>
</event>
<event>
 6    2  0.1181843E-002  0.1293012E+03  0.7546771E-02  0.1228496E+00
         21   -1    0    0  502  503  0.00000000000E+00  0.00000000000E+00  0.64489937109E+02  0.64489937109E+02  0.00000000000E+00 0. -1.
          2   -1    0    0  503    0 -0.00000000000E+00 -0.00000000000E+00 -0.30638170697E+03  0.30638170697E+03  0.00000000000E+00 0.  1.
         25    2    1    2    0    0  0.40599169480E+01  0.32807729253E+02 -0.26207106853E+01  0.12932771477E+03  0.12500383858E+03 0.  0.
          5    1    3    3  501    0 -0.50768296430E+01  0.15881530558E+02  0.60804913785E+02  0.63049542048E+02  0.10000000000E+00 0. -1.
         -5    1    3    3    0  501  0.91367465910E+01  0.16926198695E+02 -0.63425624470E+02  0.66278172727E+02  0.10000000000E+00 0. -1.
          2    1    1    2  502    0 -0.40599169480E+01 -0.32807729253E+02 -0.23927105918E+03  0.24154392931E+03  0.00000000000E+00 0.  1.
<mgrwt>
<rscale>  1 0.12930116E+03</rscale>
<asrwt>0</asrwt>
<pdfrwt beam="1">  1       21 0.99215289E-02 0.12930116E+03</pdfrwt>
<pdfrwt beam="2">  1        2 0.47135647E-01 0.12930116E+03</pdfrwt>
<totfact> 0.10799033E+05</totfact>
</mgrwt>
</event>
<event>
 6    2  0.1181843E-002  0.1284220E+03  0.7546771E-02  0.1229816E+00
          2   -1    0    0  503    0 -0.00000000000E+00  0.00000000000E+00  0.48412460239E+03  0.48412460239E+03  0.00000000000E+00 0. -1.
         21   -1    0    0  502  503  0.00000000000E+00 -0.00000000000E+00 -0.12977009847E+02  0.12977009847E+02  0.00000000000E+00 0. -1.
         25    2    1    2    0    0  0.11451531127E+02 -0.27145454309E+02  0.36460466368E+03  0.38656017682E+03  0.12499678503E+03 0.  0.
          5    1    3    3  501    0 -0.53663573580E+02 -0.29448964264E+02  0.14238824040E+03  0.15498852096E+03  0.10000000000E+00 0. -1.
         -5    1    3    3    0  501  0.65115104707E+02  0.23035099553E+01  0.22221642328E+03  0.23157165586E+03  0.10000000000E+00 0. -1.
          2    1    1    2  502    0 -0.11451531127E+02  0.27145454309E+02  0.10654292886E+03  0.11054143542E+03  0.00000000000E+00 0. -1.
<mgrwt>
<rscale>  1 0.12842200E+03</rscale>
<asrwt>0</asrwt>
<pdfrwt beam="1">  1       21 0.19964634E-02 0.12842200E+03</pdfrwt>
<pdfrwt beam="2">  1        2 0.74480694E-01 0.12842200E+03</pdfrwt>
<totfact> 0.96886229E+05</totfact>
</mgrwt>
</event>
<event>
 6    2  0.1181843E-002  0.1540324E+03  0.7546771E-02  0.1195604E+00
          1   -1    0    0  503    0 -0.00000000000E+00  0.00000000000E+00  0.15433053348E+03  0.15433053348E+03  0.00000000000E+00 0. -1.
         21   -1    0    0  502  503  0.00000000000E+00 -0.00000000000E+00 -0.36467247905E+03  0.36467247905E+03  0.00000000000E+00 0.  1.
         25    2    1    2    0    0 -0.40838207212E+02 -0.80208242939E+02 -0.33297979631E+03  0.36688081217E+03  0.12499945674E+03 0.  0.
          5    1    3    3  501    0  0.29797902302E+02 -0.69572804685E+01 -0.17183840215E+02  0.35094345666E+02  0.10000000000E+00 0.  1.
         -5    1    3    3    0  501 -0.70636109514E+02 -0.73250962471E+02 -0.31579595610E+03  0.33178646651E+03  0.10000000000E+00 0.  1.
          1    1    1    2  502    0  0.40838207212E+02  0.80208242939E+02  0.12263785075E+03  0.15212220035E+03  0.00000000000E+00 0. -1.
<mgrwt>
<rscale>  1 0.15403242E+03</rscale>
<asrwt>0</asrwt>
<pdfrwt beam="1">  1       21 0.56103457E-01 0.15403242E+03</pdfrwt>
<pdfrwt beam="2">  1        1 0.23743159E-01 0.15403242E+03</pdfrwt>
<totfact> 0.66625226E+03</totfact>
</mgrwt>
</event>
<event>
 6    2  0.1181843E-002  0.1290167E+03  0.7546771E-02  0.1228922E+00
         21   -1    0    0  502  503  0.00000000000E+00  0.00000000000E+00  0.34007899983E+03  0.34007899983E+03  0.00000000000E+00 0. -1.
          3   -1    0    0  503    0 -0.00000000000E+00 -0.00000000000E+00 -0.64815027725E+02  0.64815027725E+02  0.00000000000E+00 0.  1.
         25    2    1    2    0    0 -0.31869045280E+02  0.11249468989E+01  0.32281408366E+03  0.34764095198E+03  0.12501358858E+03 0.  0.
          5    1    3    3  501    0 -0.31842240407E+02 -0.58021099752E+02  0.21115174272E+03  0.22128137008E+03  0.10000000000E+00 0. -1.
         -5    1    3    3    0  501 -0.26804872793E-01  0.59146046651E+02  0.11166234095E+03  0.12635958190E+03  0.10000000000E+00 0. -1.
          3    1    1    2  502    0  0.31869045280E+02 -0.11249468989E+01 -0.47550111564E+02  0.57253075571E+02  0.00000000000E+00 0.  1.
<mgrwt>
<rscale>  1 0.12901666E+03</rscale>
<asrwt>0</asrwt>
<pdfrwt beam="1">  1       21 0.52319845E-01 0.12901666E+03</pdfrwt>
<pdfrwt beam="2">  1        3 0.99715429E-02 0.12901666E+03</pdfrwt>
<totfact> 0.12423802E+04</totfact>
</mgrwt>
</event>
<event>
 6    2  0.1181843E-002  0.1354527E+03  0.7546771E-02  0.1219582E+00
         21   -1    0    0  502  503  0.00000000000E+00  0.00000000000E+00  0.15363042371E+02  0.15363042371E+02  0.00000000000E+00 0. -1.
          2   -1    0    0  503    0 -0.00000000000E+00 -0.00000000000E+00 -0.58305141893E+03  0.58305141893E+03  0.00000000000E+00 0. -1.
         25    2    1    2    0    0 -0.12186813806E+02  0.50730092724E+02 -0.37210600710E+03  0.39599281231E+03  0.12500146455E+03 0.  0.
          5    1    3    3  501    0 -0.54207222094E+02  0.33741102972E+02 -0.32265728036E+03  0.32891429815E+03  0.10000000000E+00 0. -1.
         -5    1    3    3    0  501  0.42020408288E+02  0.16988989752E+02 -0.49448726741E+02  0.67078514159E+02  0.10000000000E+00 0. -1.
          2    1    1    2  502    0  0.12186813806E+02 -0.50730092724E+02 -0.19558236946E+03  0.20242164899E+03  0.00000000000E+00 0. -1.
<mgrwt>
<rscale>  1 0.13545267E+03</rscale>
<asrwt>0</asrwt>
<pdfrwt beam="1">  1       21 0.23635446E-02 0.13545267E+03</pdfrwt>
<pdfrwt beam="2">  1        2 0.89700232E-01 0.13545267E+03</pdfrwt>
<totfact> 0.60214246E+05</totfact>
</mgrwt>
</event>
<event>
 6    2  0.1181843E-002  0.1289451E+03  0.7546771E-02  0.1229029E+00
         21   -1    0    0  502  503  0.00000000000E+00  0.00000000000E+00  0.93650908301E+01  0.93650908301E+01  0.00000000000E+00 0. -1.
          1   -1    0    0  503    0 -0.00000000000E+00 -0.00000000000E+00 -0.81274926644E+03  0.81274926644E+03  0.00000000000E+00 0. -1.
         25    2    1    2    0    0  0.14771526663E+02  0.28033740882E+02 -0.47453766149E+03  0.49174468785E+03  0.12499102857E+03 0.  0.
          5    1    3    3  501    0 -0.46129433542E+01 -0.44822143040E+02 -0.27044000767E+03  0.27416803516E+03  0.10000000000E+00 0.  1.
         -5    1    3    3    0  501  0.19384470018E+02  0.72855883922E+02 -0.20409765382E+03  0.21757665269E+03  0.10000000000E+00 0.  1.
          1    1    1    2  502    0 -0.14771526663E+02 -0.28033740882E+02 -0.32884651411E+03  0.33036966942E+03  0.00000000000E+00 0. -1.
<mgrwt>
<rscale>  1 0.12894513E+03</rscale>
<asrwt>0</asrwt>
<pdfrwt beam="1">  1       21 0.14407835E-02 0.12894513E+03</pdfrwt>
<pdfrwt beam="2">  1        1 0.12503833E+00 0.12894513E+03</pdfrwt>
<totfact> 0.51595703E+05</totfact>
</mgrwt>
</event>
<event>
 6    2  0.1181843E-002  0.1269440E+03  0.7546771E-02  0.1232062E+00
          2   -1    0    0  503    0 -0.00000000000E+00  0.00000000000E+00  0.10201932611E+04  0.10201932611E+04  0.00000000000E+00 0. -1.
         21   -1    0    0  502  503  0.00000000000E+00 -0.00000000000E+00 -0.59324908531E+02  0.59324908531E+02  0.00000000000E+00 0. -1.
         25    2    1    2    0    0 -0.21750784435E+02 -0.41502999917E+01  0.88605001167E+01  0.12725283227E+03  0.12499781296E+03 0.  0.
          5    1    3    3  501    0  0.11094114099E+02 -0.34663410882E+02  0.53029918117E+02  0.64318066180E+02  0.10000000000E+00 0.  1.
         -5    1    3    3    0  501 -0.32844898534E+02  0.30513110891E+02 -0.44169418000E+02  0.62934766087E+02  0.10000000000E+00 0.  1.
          2    1    1    2  502    0  0.21750784435E+02  0.41502999917E+01  0.95200785244E+03  0.95226533735E+03  0.00000000000E+00 0. -1.
<mgrwt>
<rscale>  1 0.12694398E+03</rscale>
<asrwt>0</asrwt>
<pdfrwt beam="1">  1       21 0.91269098E-02 0.12694398E+03</pdfrwt>
<pdfrwt beam="2">  1        2 0.15695280E+00 0.12694398E+03</pdfrwt>
<totfact> 0.31258249E+04</totfact>
</mgrwt>
</event>
<event>
 6    2  0.1181843E-002  0.1314557E+03  0.7546771E-02  0.1225312E+00
          2   -1    0    0  503    0 -0.00000000000E+00  0.00000000000E+00  0.11473298152E+03  0.11473298152E+03  0.00000000000E+00 0.  1.
         21   -1    0    0  502  503  0.00000000000E+00 -0.00000000000E+00 -0.99381779056E+02  0.99381779056E+02  0.00000000000E+00 0.  1.
         25    2    1    2    0    0  0.42200860306E+01 -0.40460923252E+02 -0.47052073998E+02  0.13962271839E+03  0.12500284151E+03 0.  0.
          5    1    3    3  501    0  0.96446068217E+01  0.20895654927E+02  0.31993765384E+02  0.39411392503E+02  0.10000000000E+00 0. -1.
         -5    1    3    3    0  501 -0.54245207911E+01 -0.61356578178E+02 -0.79045839382E+02  0.10021132588E+03  0.10000000000E+00 0. -1.
          2    1    1    2  502    0 -0.42200860306E+01  0.40460923252E+02  0.62403276462E+02  0.74492042190E+02  0.00000000000E+00 0.  1.
<mgrwt>
<rscale>  1 0.13145572E+03</rscale>
<asrwt>0</asrwt>
<pdfrwt beam="1">  1       21 0.15289504E-01 0.13145572E+03</pdfrwt>
<pdfrwt beam="2">  1        2 0.17651228E-01 0.13145572E+03</pdfrwt>
<totfact> 0.14641207E+05</totfact>
</mgrwt>
</event>
<event>
 6    2  0.1181843E-002  0.1274157E+03  0.7546771E-02  0.1231342E+00
         21   -1    0    0  502  503  0.00000000000E+00  0.00000000000E+00  0.17218372163E+02  0.17218372163E+02  0.00000000000E+00 0. -1.
          2   -1    0    0  503    0 -0.00000000000E+00 -0.00000000000E+00 -0.13002001665E+04  0.13002001665E+04  0.00000000000E+00 0.  1.
         25    2    1    2    0    0  0.17542664767E+02  0.17426664150E+02 -0.22063021245E+03  0.25477922203E+03  0.12499331031E+03 0.  0.
          5    1    3    3  501    0  0.69010717464E+02  0.13638554841E+02 -0.89343094633E+02  0.11371318244E+03  0.10000000000E+00 0. -1.
         -5    1    3    3    0  501 -0.51468052697E+02  0.37881093089E+01 -0.13128711781E+03  0.14106603959E+03  0.10000000000E+00 0. -1.
          2    1    1    2  502    0 -0.17542664767E+02 -0.17426664150E+02 -0.10623515819E+04  0.10626393167E+04  0.00000000000E+00 0.  1.
<mgrwt>
<rscale>  1 0.12741570E+03</rscale>
<asrwt>0</asrwt>
<pdfrwt beam="1">  1       21 0.26489808E-02 0.12741570E+03</pdfrwt>
<pdfrwt beam="2">  1        2 0.20003076E+00 0.12741570E+03</pdfrwt>
<totfact> 0.17398666E+05</totfact>
</mgrwt>
</event>
<event>
 6    2  0.1181843E-002  0.1316526E+03  0.7546771E-02  0.1225024E+00
         21   -1    0    0  502  503  0.00000000000E+00  0.00000000000E+00  0.21996456857E+03  0.21996456857E+03  0.00000000000E+00 0.  1.
          1   -1    0    0  503    0 -0.00000000000E+00 -0.00000000000E+00 -0.38872257962E+02  0.38872257962E+02  0.00000000000E+00 0.  1.
         25    2    1    2    0    0 -0.41149882630E+02  0.37211872922E+01  0.17187616880E+03  0.21650365579E+03  0.12500102197E+03 0.  0.
          5    1    3    3  501    0 -0.38178666813E+02 -0.11486792533E+02 -0.38872966064E+01  0.40058433285E+02  0.10000000000E+00 0. -1.
         -5    1    3    3    0  501 -0.29712158171E+01  0.15207979826E+02  0.17576346540E+03  0.17644522250E+03  0.10000000000E+00 0. -1.
          1    1    1    2  502    0  0.41149882630E+02 -0.37211872922E+01  0.92161418105E+01  0.42333170743E+02  0.00000000000E+00 0.  1.
<mgrwt>
<rscale>  1 0.13165263E+03</rscale>
<asrwt>0</asrwt>
<pdfrwt beam="1">  1       21 0.33840702E-01 0.13165263E+03</pdfrwt>
<pdfrwt beam="2">  1        1 0.59803475E-02 0.13165263E+03</pdfrwt>
<totfact> 0.11352142E+05</totfact>
</mgrwt>
</event>
<event>
 6    2  0.1181843E-002  0.1270675E+03  0.7546771E-02  0.1231873E+00
          2   -1    0    0  503    0 -0.00000000000E+00  0.00000000000E+00  0.36636459954E+02  0.36636459954E+02  0.00000000000E+00 0.  1.
         21   -1    0    0  502  503  0.00000000000E+00 -0.00000000000E+00 -0.19327273548E+04  0.19327273548E+04  0.00000000000E+00 0.  1.
         25    2    1    2    0    0  0.91279638720E+01 -0.20928808154E+02 -0.19268617597E+04  0.19310469665E+04  0.12499924453E+03 0.  0.
          5    1    3    3  501    0  0.20580167687E+02  0.56805145744E+01 -0.18255491625E+04  0.18256740033E+04  0.10000000000E+00 0.  1.
         -5    1    3    3    0  501 -0.11452203815E+02 -0.26609322728E+02 -0.10131259722E+03  0.10537296325E+03  0.10000000000E+00 0.  1.
          2    1    1    2  502    0 -0.91279638720E+01  0.20928808154E+02  0.30770864857E+02  0.38316848243E+02  0.00000000000E+00 0.  1.
<mgrwt>
<rscale>  1 0.12706749E+03</rscale>
<asrwt>0</asrwt>
<pdfrwt beam="1">  1       21 0.29734280E+00 0.12706749E+03</pdfrwt>
<pdfrwt beam="2">  1        2 0.56363760E-02 0.12706749E+03</pdfrwt>
<totfact> 0.61194030E+02</totfact>
</mgrwt>
</event>
<event>
 6    2  0.1181843E-002  0.1295291E+03  0.7546771E-02  0.1228156E+00
          2   -1    0    0  503    0 -0.00000000000E+00  0.00000000000E+00  0.11501545659E+03  0.11501545659E+03  0.00000000000E+00 0.  1.
         21   -1    0    0  502  503  0.00000000000E+00 -0.00000000000E+00 -0.60849236400E+02  0.60849236400E+02  0.00000000000E+00 0.  1.
         25    2    1    2    0    0  0.17071691053E+02  0.29332626827E+02  0.26812897279E+02  0.13227513110E+03  0.12500373280E+03 0.  0.
          5    1    3    3  501    0  0.39041119904E+02 -0.35110609953E+02 -0.12060217367E+02  0.53874138672E+02  0.10000000000E+00 0.  1.
         -5    1    3    3    0  501 -0.21969428852E+02  0.64443236780E+02  0.38873114646E+02  0.78400992424E+02  0.10000000000E+00 0.  1.
          2    1    1    2  502    0 -0.17071691053E+02 -0.29332626827E+02  0.27353322915E+02  0.43589561898E+02  0.00000000000E+00 0.  1.
<mgrwt>
<rscale>  1 0.12952907E+03</rscale>
<asrwt>0</asrwt>
<pdfrwt beam="1">  1       21 0.93614210E-02 0.12952907E+03</pdfrwt>
<pdfrwt beam="2">  1        2 0.17694686E-01 0.12952907E+03</pdfrwt>
<totfact> 0.34804963E+05</totfact>
</mgrwt>
</event>
<event>
 6    2  0.1181843E-002  0.1339318E+03  0.7546771E-02  0.1221736E+00
         21   -1    0    0  502  503  0.00000000000E+00  0.00000000000E+00  0.34666140881E+03  0.34666140881E+03  0.00000000000E+00 0.  1.
          2   -1    0    0  503    0 -0.00000000000E+00 -0.00000000000E+00 -0.74406632533E+02  0.74406632533E+02  0.00000000000E+00 0. -1.
         25    2    1    2    0    0 -0.12252161489E+02  0.46521463202E+02  0.32389367132E+03  0.35049228431E+03  0.12499347600E+03 0.  0.
          5    1    3    3  501    0  0.10968955739E+02  0.27505591160E+02  0.31865097056E+03  0.32002394688E+03  0.10000000000E+00 0.  1.
         -5    1    3    3    0  501 -0.23221117228E+02  0.19015872042E+02  0.52427007573E+01  0.30468337435E+02  0.10000000000E+00 0.  1.
          2    1    1    2  502    0  0.12252161489E+02 -0.46521463202E+02 -0.51638895041E+02  0.70575757032E+02  0.00000000000E+00 0. -1.
<mgrwt>
<rscale>  1 0.13393181E+03</rscale>
<asrwt>0</asrwt>
<pdfrwt beam="1">  1       21 0.53332524E-01 0.13393181E+03</pdfrwt>
<pdfrwt beam="2">  1        2 0.11447174E-01 0.13393181E+03</pdfrwt>
<totfact> 0.21930568E+04</totfact>
</mgrwt>
</event>
<event>
 6    2  0.1181843E-002  0.1535767E+03  0.7546771E-02  0.1196146E+00
          2   -1    0    0  503    0 -0.00000000000E+00  0.00000000000E+00  0.55613378358E+03  0.55613378358E+03  0.00000000000E+00 0. -1.
         21   -1    0    0  502  503  0.00000000000E+00 -0.00000000000E+00 -0.28850403947E+03  0.28850403947E+03  0.00000000000E+00 0. -1.
         25    2    1    2    0    0 -0.88745077927E+02  0.95188473214E+01 -0.26407949896E+03  0.30548940519E+03  0.12497798848E+03 0.  0.
          5    1    3    3  501    0 -0.10496204155E+03  0.45272951283E+02 -0.19783297483E+03  0.22848318584E+03  0.10000000000E+00 0. -1.
         -5    1    3    3    0  501  0.16216963624E+02 -0.35754103961E+02 -0.66246524129E+02  0.77006219349E+02  0.10000000000E+00 0. -1.
          2    1    1    2  502    0  0.88745077927E+02 -0.95188473214E+01  0.53170924307E+03  0.53914841786E+03  0.00000000000E+00 0. -1.
<mgrwt>
<rscale>  1 0.15357667E+03</rscale>
<asrwt>0</asrwt>
<pdfrwt beam="1">  1       21 0.44385237E-01 0.15357667E+03</pdfrwt>
<pdfrwt beam="2">  1        2 0.85559043E-01 0.15357667E+03</pdfrwt>
<totfact> 0.34266719E+03</totfact>
</mgrwt>
</event>
<event>
 6    2  0.1181843E-002  0.1276198E+03  0.7546771E-02  0.1231031E+00
         21   -1    0    0  502  503  0.00000000000E+00  0.00000000000E+00  0.17479503724E+02  0.17479503724E+02  0.00000000000E+00 0. -1.
          1   -1    0    0  503    0 -0.00000000000E+00 -0.00000000000E+00 -0.68340603363E+03  0.68340603363E+03  0.00000000000E+00 0. -1.
         25    2    1    2    0    0  0.15955563929E+02  0.20182628121E+02 -0.22089224675E+03  0.25510820316E+03  0.12499956858E+03 0.  0.
          5    1    3    3  501    0 -0.17491809390E+02  0.48942165029E+02 -0.19935642054E+03  0.20602012359E+03  0.10000000000E+00 0.  1.
         -5    1    3    3    0  501  0.33447373319E+02 -0.28759536909E+02 -0.21535826210E+02  0.49088079568E+02  0.10000000000E+00 0.  1.
          1    1    1    2  502    0 -0.15955563929E+02 -0.20182628121E+02 -0.44503428316E+03  0.44577733420E+03  0.00000000000E+00 0. -1.
<mgrwt>
<rscale>  1 0.12761979E+03</rscale>
<asrwt>0</asrwt>
<pdfrwt beam="1">  1       21 0.26891549E-02 0.12761979E+03</pdfrwt>
<pdfrwt beam="2">  1        1 0.10513937E+00 0.12761979E+03</pdfrwt>
<totfact> 0.24282965E+05</totfact>
</mgrwt>
</event>
<event>
 6    2  0.1181843E-002  0.1261537E+03  0.7546771E-02  0.1233277E+00
         21   -1    0    0  502  503  0.00000000000E+00  0.00000000000E+00  0.12228475082E+03  0.12228475082E+03  0.00000000000E+00 0.  1.
          2   -1    0    0  503    0 -0.00000000000E+00 -0.00000000000E+00 -0.12289667131E+03  0.12289667131E+03  0.00000000000E+00 0.  1.
         25    2    1    2    0    0 -0.58844387304E+01 -0.15901336477E+02  0.88737743854E+02  0.15423725443E+03  0.12500905706E+03 0.  0.
          5    1    3    3  501    0 -0.64657243989E+02  0.19330044345E+01  0.43385354489E+02  0.77888347592E+02  0.10000000000E+00 0.  1.
         -5    1    3    3    0  501  0.58772805259E+02 -0.17834340912E+02  0.45352389365E+02  0.76348906835E+02  0.10000000000E+00 0.  1.
          2    1    1    2  502    0  0.58844387304E+01  0.15901336477E+02 -0.89349664341E+02  0.90944167701E+02  0.00000000000E+00 0.  1.
<mgrwt>
<rscale>  1 0.12615365E+03</rscale>
<asrwt>0</asrwt>
<pdfrwt beam="1">  1       21 0.18813039E-01 0.12615365E+03</pdfrwt>
<pdfrwt beam="2">  1        2 0.18907180E-01 0.12615365E+03</pdfrwt>
<totfact> 0.92624591E+04</totfact>
</mgrwt>
</event>
<event>
 6    2  0.1181843E-002  0.1304845E+03  0.7546771E-02  0.1226739E+00
          1   -1    0    0  503    0 -0.00000000000E+00  0.00000000000E+00  0.26738839241E+02  0.26738839241E+02  0.00000000000E+00 0. -1.
         21   -1    0    0  502  503  0.00000000000E+00 -0.00000000000E+00 -0.17355686870E+04  0.17355686870E+04  0.00000000000E+00 0. -1.
         25    2    1    2    0    0 -0.29439286601E+02 -0.23084061724E+02 -0.17186766667E+04  0.17236228349E+04  0.12500658761E+03 0.  0.
          5    1    3    3  501    0 -0.76964379630E+02  0.12912418473E+01 -0.98163322723E+03  0.98464662993E+03  0.10000000000E+00 0. -1.
         -5    1    3    3    0  501  0.47525093029E+02 -0.24375303571E+02 -0.73704343944E+03  0.73897620497E+03  0.10000000000E+00 0. -1.
          1    1    1    2  502    0  0.29439286601E+02  0.23084061724E+02  0.98468189104E+01  0.38684691337E+02  0.00000000000E+00 0. -1.
<mgrwt>
<rscale>  1 0.13048445E+03</rscale>
<asrwt>0</asrwt>
<pdfrwt beam="1">  1       21 0.26701057E+00 0.13048445E+03</pdfrwt>
<pdfrwt beam="2">  1        1 0.41136675E-02 0.13048445E+03</pdfrwt>
<totfact> 0.12804007E+03</totfact>
</mgrwt>
</event>
<event>
 6    2  0.1181843E-002  0.1336975E+03  0.7546771E-02  0.1222070E+00
         21   -1    0    0  502  503  0.00000000000E+00  0.00000000000E+00  0.13231699244E+03  0.13231699244E+03  0.00000000000E+00 0.  1.
          2   -1    0    0  503    0 -0.00000000000E+00 -0.00000000000E+00 -0.97866131132E+03  0.97866131132E+03  0.00000000000E+00 0.  1.
         25    2    1    2    0    0  0.40355688864E+02 -0.24929915520E+02  0.97795791432E+02  0.16564734044E+03  0.12499976904E+03 0.  0.
          5    1    3    3  501    0  0.73036620113E+02 -0.53249498624E+02  0.63694551283E+02  0.11057514569E+03  0.10000000000E+00 0.  1.
         -5    1    3    3    0  501 -0.32680931249E+02  0.28319583104E+02  0.34101240149E+02  0.55072194746E+02  0.10000000000E+00 0.  1.
          2    1    1    2  502    0 -0.40355688864E+02  0.24929915520E+02 -0.94414011032E+03  0.94533096332E+03  0.00000000000E+00 0.  1.
<mgrwt>
<rscale>  1 0.13369751E+03</rscale>
<asrwt>0</asrwt>
<pdfrwt beam="1">  1       21 0.20356461E-01 0.13369751E+03</pdfrwt>
<pdfrwt beam="2">  1        2 0.15056328E+00 0.13369751E+03</pdfrwt>
<totfact> 0.78491772E+03</totfact>
</mgrwt>
</event>
<event>
 6    2  0.1181843E-002  0.1566059E+03  0.7546771E-02  0.1192583E+00
          2   -1    0    0  503    0 -0.00000000000E+00  0.00000000000E+00  0.19299505176E+04  0.19299505176E+04  0.00000000000E+00 0.  1.
         21   -1    0    0  502  503  0.00000000000E+00 -0.00000000000E+00 -0.82040563312E+01  0.82040563312E+01  0.00000000000E+00 0.  1.
         25    2    1    2    0    0 -0.43334811827E+02  0.83797538533E+02  0.12687376534E+04  0.12783663984E+04  0.12500192836E+03 0.  0.
          5    1    3    3  501    0 -0.74586413222E+02  0.15605306392E+02  0.80529632757E+03  0.80889359240E+03  0.10000000000E+00 0.  1.
         -5    1    3    3    0  501  0.31251601395E+02  0.68192232141E+02  0.46344132584E+03  0.46947280604E+03  0.10000000000E+00 0.  1.
          2    1    1    2  502    0  0.43334811827E+02 -0.83797538533E+02  0.65300880784E+03  0.65978817548E+03  0.00000000000E+00 0.  1.
<mgrwt>
<rscale>  1 0.15660592E+03</rscale>
<asrwt>0</asrwt>
<pdfrwt beam="1">  1       21 0.12621640E-02 0.15660592E+03</pdfrwt>
<pdfrwt beam="2">  1        2 0.29691510E+00 0.15660592E+03</pdfrwt>
<totfact> 0.27132549E+05</totfact>
</mgrwt>
</event>
<event>
 6    2  0.1181843E-002  0.1837388E+03  0.7546771E-02  0.1164233E+00
         21   -1    0    0  502  503  0.00000000000E+00  0.00000000000E+00  0.11885826264E+03  0.11885826264E+03  0.00000000000E+00 0.  1.
          2   -1    0    0  503    0 -0.00000000000E+00 -0.00000000000E+00 -0.17383102012E+04  0.17383102012E+04  0.00000000000E+00 0. -1.
         25    2    1    2    0    0  0.13437253026E+03 -0.89484509220E+01  0.43462952298E+02  0.18880939400E+03  0.12499562943E+03 0.  0.
          5    1    3    3  501    0 -0.86865176897E+01 -0.36224824176E+02  0.16445614997E+01  0.37288175856E+02  0.10000000000E+00 0. -1.
         -5    1    3    3    0  501  0.14305904795E+03  0.27276373254E+02  0.41818390799E+02  0.15152121814E+03  0.10000000000E+00 0. -1.
          2    1    1    2  502    0 -0.13437253026E+03  0.89484509220E+01 -0.16629148908E+04  0.16683590698E+04  0.00000000000E+00 0. -1.
<mgrwt>
<rscale>  1 0.18373883E+03</rscale>
<asrwt>0</asrwt>
<pdfrwt beam="1">  1       21 0.18285887E-01 0.18373883E+03</pdfrwt>
<pdfrwt beam="2">  1        2 0.26743233E+00 0.18373883E+03</pdfrwt>
<totfact> 0.36084787E+03</totfact>
</mgrwt>
</event>
<event>
 6    2  0.1181843E-002  0.1414143E+03  0.7546771E-02  0.1211438E+00
         21   -1    0    0  502  503  0.00000000000E+00  0.00000000000E+00  0.56170340472E+02  0.56170340472E+02  0.00000000000E+00 0.  1.
          1   -1    0    0  503    0 -0.00000000000E+00 -0.00000000000E+00 -0.45559810911E+03  0.45559810911E+03  0.00000000000E+00 0.  1.
         25    2    1    2    0    0 -0.20633552586E+01  0.66098579832E+02 -0.40924642388E+02  0.14721698378E+03  0.12499893706E+03 0.  0.
          5    1    3    3  501    0 -0.40250710892E+02  0.88079649909E+02 -0.22268359755E+02  0.99368175497E+02  0.10000000000E+00 0.  1.
         -5    1    3    3    0  501  0.38187355633E+02 -0.21981070077E+02 -0.18656282633E+02  0.47848808278E+02  0.10000000000E+00 0.  1.
          1    1    1    2  502    0  0.20633552586E+01 -0.66098579832E+02 -0.35850312625E+03  0.36455146581E+03  0.00000000000E+00 0.  1.
<mgrwt>
<rscale>  1 0.14141433E+03</rscale>
<asrwt>0</asrwt>
<pdfrwt beam="1">  1       21 0.86415910E-02 0.14141433E+03</pdfrwt>
<pdfrwt beam="2">  1        1 0.70092016E-01 0.14141433E+03</pdfrwt>
<totfact> 0.58991789E+04</totfact>
</mgrwt>
</event>
<event>
 6    2  0.1181843E-002  0.1429719E+03  0.7546771E-02  0.1209385E+00
         21   -1    0    0  502  503  0.00000000000E+00  0.00000000000E+00  0.16196409725E+03  0.16196409725E+03  0.00000000000E+00 0. -1.
          1   -1    0    0  503    0 -0.00000000000E+00 -0.00000000000E+00 -0.13681877625E+03  0.13681877625E+03  0.00000000000E+00 0. -1.
         25    2    1    2    0    0 -0.69394830643E+02  0.14598037022E+00  0.11624303391E+03  0.18426450324E+03  0.12500120155E+03 0.  0.
          5    1    3    3  501    0 -0.32651956190E+02  0.61625821095E+02  0.71140983699E+02  0.99624001277E+02  0.10000000000E+00 0. -1.
         -5    1    3    3    0  501 -0.36742874452E+02 -0.61479840725E+02  0.45102050215E+02  0.84640501961E+02  0.10000000000E+00 0. -1.
          1    1    1    2  502    0  0.69394830643E+02 -0.14598037022E+00 -0.91097712911E+02  0.11451837026E+03  0.00000000000E+00 0. -1.
<mgrwt>
<rscale>  1 0.14297190E+03</rscale>
<asrwt>0</asrwt>
<pdfrwt beam="1">  1       21 0.24917553E-01 0.14297190E+03</pdfrwt>
<pdfrwt beam="2">  1        1 0.21049043E-01 0.14297190E+03</pdfrwt>
<totfact> 0.39156402E+04</totfact>
</mgrwt>
</event>
<event>
 6    2  0.1181843E-002  0.1277356E+03  0.7546771E-02  0.1230855E+00
         21   -1    0    0  502  503  0.00000000000E+00  0.00000000000E+00  0.30243998284E+02  0.30243998284E+02  0.00000000000E+00 0. -1.
          1   -1    0    0  503    0 -0.00000000000E+00 -0.00000000000E+00 -0.78191764538E+03  0.78191764538E+03  0.00000000000E+00 0. -1.
         25    2    1    2    0    0  0.22417234696E+02  0.13722679953E+02 -0.10609952199E+03  0.16605267811E+03  0.12500215592E+03 0.  0.
          5    1    3    3  501    0 -0.44888386339E+02  0.11806246800E+02 -0.80474948355E+01  0.47107609414E+02  0.10000000000E+00 0.  1.
         -5    1    3    3    0  501  0.67305621035E+02  0.19164331528E+01 -0.98052027153E+02  0.11894506870E+03  0.10000000000E+00 0.  1.
          1    1    1    2  502    0 -0.22417234696E+02 -0.13722679953E+02 -0.64557412511E+03  0.64610896555E+03  0.00000000000E+00 0. -1.
<mgrwt>
<rscale>  1 0.12773560E+03</rscale>
<asrwt>0</asrwt>
<pdfrwt beam="1">  1       21 0.46529226E-02 0.12773560E+03</pdfrwt>
<pdfrwt beam="2">  1        1 0.12029503E+00 0.12773560E+03</pdfrwt>
<totfact> 0.80767751E+04</totfact>
</mgrwt>
</event>
<event>
 6    2  0.1181843E-002  0.1260255E+03  0.7546771E-02  0.1233475E+00
          1   -1    0    0  503    0 -0.00000000000E+00  0.00000000000E+00  0.94737051250E+03  0.94737051250E+03  0.00000000000E+00 0.  1.
         21   -1    0    0  502  503  0.00000000000E+00 -0.00000000000E+00 -0.12039880760E+02  0.12039880760E+02  0.00000000000E+00 0.  1.
         25    2    1    2    0    0 -0.15567119910E+01  0.15951305987E+02  0.32073921168E+03  0.34461003451E+03  0.12500226581E+03 0.  0.
          5    1    3    3  501    0  0.20040470110E+02 -0.31112349447E+02  0.26855818070E+03  0.27109611792E+03  0.10000000000E+00 0. -1.
         -5    1    3    3    0  501 -0.21597182101E+02  0.47063655434E+02  0.52181030978E+02  0.73513916583E+02  0.10000000000E+00 0. -1.
          1    1    1    2  502    0  0.15567119910E+01 -0.15951305987E+02  0.61459142006E+03  0.61480035875E+03  0.00000000000E+00 0.  1.
<mgrwt>
<rscale>  1 0.12602553E+03</rscale>
<asrwt>0</asrwt>
<pdfrwt beam="1">  1       21 0.18522901E-02 0.12602553E+03</pdfrwt>
<pdfrwt beam="2">  1        1 0.14574925E+00 0.12602553E+03</pdfrwt>
<totfact> 0.27096768E+05</totfact>
</mgrwt>
</event>
<event>
 6    2  0.1181843E-002  0.1310471E+03  0.7546771E-02  0.1225910E+00
         21   -1    0    0  502  503  0.00000000000E+00  0.00000000000E+00  0.29029280320E+03  0.29029280320E+03  0.00000000000E+00 0. -1.
          1   -1    0    0  503    0 -0.00000000000E+00 -0.00000000000E+00 -0.36357878437E+02  0.36357878437E+02  0.00000000000E+00 0. -1.
         25    2    1    2    0    0  0.39183390966E+02  0.37739191089E+01  0.25561548140E+03  0.28725011231E+03  0.12499508828E+03 0.  0.
          5    1    3    3  501    0 -0.11481876298E+02 -0.36237980599E+02  0.20007924751E+02  0.42957557822E+02  0.10000000000E+00 0. -1.
         -5    1    3    3    0  501  0.50665267264E+02  0.40011899708E+02  0.23560755665E+03  0.24429255448E+03  0.10000000000E+00 0. -1.
          1    1    1    2  502    0 -0.39183390966E+02 -0.37739191089E+01 -0.16805566370E+01  0.39400569332E+02  0.00000000000E+00 0. -1.
<mgrwt>
<rscale>  1 0.13104714E+03</rscale>
<asrwt>0</asrwt>
<pdfrwt beam="1">  1       21 0.44660430E-01 0.13104714E+03</pdfrwt>
<pdfrwt beam="2">  1        1 0.55935199E-02 0.13104714E+03</pdfrwt>
<totfact> 0.71505550E+04</totfact>
</mgrwt>
</event>
<event>
 6    2  0.1181843E-002  0.1502896E+03  0.7546771E-02  0.1200118E+00
         21   -1    0    0  502  503  0.00000000000E+00  0.00000000000E+00  0.32986640587E+03  0.32986640587E+03  0.00000000000E+00 0. -1.
          1   -1    0    0  503    0 -0.00000000000E+00 -0.00000000000E+00 -0.54990780205E+02  0.54990780205E+02  0.00000000000E+00 0. -1.
         25    2    1    2    0    0 -0.74208021196E+02  0.38259096584E+02  0.25962333100E+03  0.29998539233E+03  0.12496548616E+03 0.  0.
          5    1    3    3  501    0 -0.61666959741E+02  0.61972364493E+02  0.25877720583E+03  0.27314655433E+03  0.10000000000E+00 0. -1.
         -5    1    3    3    0  501 -0.12541061455E+02 -0.23713267909E+02  0.84612516641E+00  0.26838837999E+02  0.10000000000E+00 0. -1.
          1    1    1    2  502    0  0.74208021196E+02 -0.38259096584E+02  0.15252294668E+02  0.84871793747E+02  0.00000000000E+00 0. -1.
<mgrwt>
<rscale>  1 0.15028959E+03</rscale>
<asrwt>0</asrwt>
<pdfrwt beam="1">  1       21 0.50748677E-01 0.15028959E+03</pdfrwt>
<pdfrwt beam="2">  1        1 0.84601202E-02 0.15028959E+03</pdfrwt>
<totfact> 0.31536305E+04</totfact>
</mgrwt>
</event>
<event>
 6    2  0.1181843E-002  0.1260903E+03  0.7546771E-02  0.1233375E+00
          2   -1    0    0  503    0 -0.00000000000E+00  0.00000000000E+00  0.58970161565E+03  0.58970161565E+03  0.00000000000E+00 0. -1.
         21   -1    0    0  502  503  0.00000000000E+00 -0.00000000000E+00 -0.26980473803E+03  0.26980473803E+03  0.00000000000E+00 0. -1.
         25    2    1    2    0    0 -0.43183114748E+01  0.15948007987E+02 -0.25494782063E+03  0.28442426052E+03  0.12500312779E+03 0.  0.
          5    1    3    3  501    0 -0.33791654953E+02  0.62144677466E+02 -0.13030287695E+03  0.14826559487E+03  0.10000000000E+00 0.  1.
         -5    1    3    3    0  501  0.29473343479E+02 -0.46196669479E+02 -0.12464494368E+03  0.13615866565E+03  0.10000000000E+00 0.  1.
          2    1    1    2  502    0  0.43183114748E+01 -0.15948007987E+02  0.57484469825E+03  0.57508209316E+03  0.00000000000E+00 0. -1.
<mgrwt>
<rscale>  1 0.12609032E+03</rscale>
<asrwt>0</asrwt>
<pdfrwt beam="1">  1       21 0.41508421E-01 0.12609032E+03</pdfrwt>
<pdfrwt beam="2">  1        2 0.90723325E-01 0.12609032E+03</pdfrwt>
<totfact> 0.37202000E+03</totfact>
</mgrwt>
</event>
<event>
 6    2  0.1181843E-002  0.1276596E+03  0.7546771E-02  0.1230970E+00
          2   -1    0    0  503    0 -0.00000000000E+00  0.00000000000E+00  0.80975221359E+03  0.80975221359E+03  0.00000000000E+00 0.  1.
         21   -1    0    0  502  503  0.00000000000E+00 -0.00000000000E+00 -0.83974575744E+01  0.83974575744E+01  0.00000000000E+00 0.  1.
         25    2    1    2    0    0 -0.91614661514E+01  0.24242109755E+02  0.51349812859E+03  0.52912882364E+03  0.12500148639E+03 0.  0.
          5    1    3    3  501    0 -0.26173815108E+02  0.54222984041E+02  0.46895797281E+03  0.47280735068E+03  0.10000000000E+00 0. -1.
         -5    1    3    3    0  501  0.17012348957E+02 -0.29980874287E+02  0.44540155777E+02  0.56321472963E+02  0.10000000000E+00 0. -1.
          2    1    1    2  502    0  0.91614661514E+01 -0.24242109755E+02  0.28785662743E+03  0.28902084752E+03  0.00000000000E+00 0.  1.
<mgrwt>
<rscale>  1 0.12765964E+03</rscale>
<asrwt>0</asrwt>
<pdfrwt beam="1">  1       21 0.12919172E-02 0.12765964E+03</pdfrwt>
<pdfrwt beam="2">  1        2 0.12457720E+00 0.12765964E+03</pdfrwt>
<totfact> 0.10733899E+06</totfact>
</mgrwt>
</event>
<event>
 6    2  0.1181843E-002  0.1557013E+03  0.7546771E-02  0.1193637E+00
         21   -1    0    0  502  503  0.00000000000E+00  0.00000000000E+00  0.14166440485E+03  0.14166440485E+03  0.00000000000E+00 0. -1.
          2   -1    0    0  503    0 -0.00000000000E+00 -0.00000000000E+00 -0.12762604621E+03  0.12762604621E+03  0.00000000000E+00 0.  1.
         25    2    1    2    0    0 -0.90527616431E+02 -0.20549884381E+02  0.58542057490E+02  0.16634324956E+03  0.12500142837E+03 0.  0.
          5    1    3    3  501    0 -0.96915736591E+02 -0.55752206911E+02  0.65947129065E+02  0.12980755913E+03  0.10000000000E+00 0. -1.
         -5    1    3    3    0  501  0.63881201601E+01  0.35202322530E+02 -0.74050715755E+01  0.36535690437E+02  0.10000000000E+00 0. -1.
          2    1    1    2  502    0  0.90527616431E+02  0.20549884381E+02 -0.44503698849E+02  0.10294720150E+03  0.00000000000E+00 0.  1.
<mgrwt>
<rscale>  1 0.15570133E+03</rscale>
<asrwt>0</asrwt>
<pdfrwt beam="1">  1       21 0.21794524E-01 0.15570133E+03</pdfrwt>
<pdfrwt beam="2">  1        2 0.19634776E-01 0.15570133E+03</pdfrwt>
<totfact> 0.67945732E+04</totfact>
</mgrwt>
</event>
<event>
 6    2  0.1181843E-002  0.1486026E+03  0.7546771E-02  0.1202201E+00
         21   -1    0    0  502  503  0.00000000000E+00  0.00000000000E+00  0.29051334460E+02  0.29051334460E+02  0.00000000000E+00 0. -1.
          2   -1    0    0  503    0 -0.00000000000E+00 -0.00000000000E+00 -0.14781549556E+04  0.14781549556E+04  0.00000000000E+00 0. -1.
         25    2    1    2    0    0 -0.31884552448E+02  0.73756539432E+02 -0.17086909976E+03  0.22644864576E+03  0.12500435240E+03 0.  0.
          5    1    3    3  501    0 -0.73458444176E+02  0.17574155973E+02 -0.11188656808E+03  0.13499484470E+03  0.10000000000E+00 0. -1.
         -5    1    3    3    0  501  0.41573891728E+02  0.56182383458E+02 -0.58982531685E+02  0.91453801061E+02  0.10000000000E+00 0. -1.
          2    1    1    2  502    0  0.31884552448E+02 -0.73756539432E+02 -0.12782345214E+04  0.12807576443E+04  0.00000000000E+00 0. -1.
<mgrwt>
<rscale>  1 0.14860262E+03</rscale>
<asrwt>0</asrwt>
<pdfrwt beam="1">  1       21 0.44694339E-02 0.14860262E+03</pdfrwt>
<pdfrwt beam="2">  1        2 0.22740857E+00 0.14860262E+03</pdfrwt>
<totfact> 0.58974603E+04</totfact>
</mgrwt>
</event>
<event>
 6    2  0.1181843E-002  0.1724750E+03  0.7546771E-02  0.1175291E+00
         21   -1    0    0  502  503  0.00000000000E+00  0.00000000000E+00  0.82778760820E+02  0.82778760820E+02  0.00000000000E+00 0. -1.
          2   -1    0    0  503    0 -0.00000000000E+00 -0.00000000000E+00 -0.47033343295E+03  0.47033343295E+03  0.00000000000E+00 0. -1.
         25    2    1    2    0    0  0.99063244595E+01  0.11842435752E+03 -0.28387518141E+02  0.17479551660E+03  0.12500063087E+03 0.  0.
          5    1    3    3  501    0 -0.45260885032E+02  0.73427293592E+02  0.20218310105E+02  0.88594047326E+02  0.10000000000E+00 0. -1.
         -5    1    3    3    0  501  0.55167209491E+02  0.44997063932E+02 -0.48605828246E+02  0.86201469274E+02  0.10000000000E+00 0. -1.
          2    1    1    2  502    0 -0.99063244595E+01 -0.11842435752E+03 -0.35916715399E+03  0.37831667717E+03  0.00000000000E+00 0. -1.
<mgrwt>
<rscale>  1 0.17247499E+03</rscale>
<asrwt>0</asrwt>
<pdfrwt beam="1">  1       21 0.12735194E-01 0.17247499E+03</pdfrwt>
<pdfrwt beam="2">  1        2 0.72358989E-01 0.17247499E+03</pdfrwt>
<totfact> 0.44032174E+04</totfact>
</mgrwt>
</event>
<event>
 6    2  0.1181843E-002  0.1423268E+03  0.7546771E-02  0.1210232E+00
          1   -1    0    0  503    0 -0.00000000000E+00  0.00000000000E+00  0.16638122718E+03  0.16638122718E+03  0.00000000000E+00 0. -1.
         21   -1    0    0  502  503  0.00000000000E+00 -0.00000000000E+00 -0.94651828541E+02  0.94651828541E+02  0.00000000000E+00 0. -1.
         25    2    1    2    0    0  0.56632702485E+02 -0.37757040812E+02 -0.23218808309E+02  0.14420831894E+03  0.12499627622E+03 0.  0.
          5    1    3    3  501    0  0.81539778738E+02 -0.65672901635E+02 -0.20594093217E+02  0.10670422766E+03  0.10000000000E+00 0.  1.
         -5    1    3    3    0  501 -0.24907076253E+02  0.27915860823E+02 -0.26247150920E+01  0.37504091274E+02  0.10000000000E+00 0.  1.
          1    1    1    2  502    0 -0.56632702485E+02  0.37757040812E+02  0.94948206946E+02  0.11682473678E+03  0.00000000000E+00 0. -1.
<mgrwt>
<rscale>  1 0.14232683E+03</rscale>
<asrwt>0</asrwt>
<pdfrwt beam="1">  1       21 0.14561820E-01 0.14232683E+03</pdfrwt>
<pdfrwt beam="2">  1        1 0.25597112E-01 0.14232683E+03</pdfrwt>
<totfact> 0.82461881E+04</totfact>
</mgrwt>
</event>
<event>
 6    2  0.1181843E-002  0.1322823E+03  0.7546771E-02  0.1224108E+00
         21   -1    0    0  502  503  0.00000000000E+00  0.00000000000E+00  0.42831224415E+01  0.42831224415E+01  0.00000000000E+00 0.  1.
          2   -1    0    0  503    0 -0.00000000000E+00 -0.00000000000E+00 -0.19309579877E+04  0.19309579877E+04  0.00000000000E+00 0.  1.
         25    2    1    2    0    0 -0.44945361348E+01 -0.43037573072E+02 -0.11976689008E+04  0.12049520374E+04  0.12500473166E+03 0.  0.
          5    1    3    3  501    0  0.55852082674E+02 -0.43248912315E+02 -0.56110458156E+03  0.56553362853E+03  0.10000000000E+00 0. -1.
         -5    1    3    3    0  501 -0.60346618809E+02  0.21133924218E+00 -0.63656431928E+03  0.63941840891E+03  0.10000000000E+00 0. -1.
          2    1    1    2  502    0  0.44945361348E+01  0.43037573072E+02 -0.72900596446E+03  0.73028907274E+03  0.00000000000E+00 0.  1.
<mgrwt>
<rscale>  1 0.13228234E+03</rscale>
<asrwt>0</asrwt>
<pdfrwt beam="1">  1       21 0.65894138E-03 0.13228234E+03</pdfrwt>
<pdfrwt beam="2">  1        2 0.29707070E+00 0.13228234E+03</pdfrwt>
<totfact> 0.75222419E+05</totfact>
</mgrwt>
</event>
<event>
 6    2  0.1181843E-002  0.1346219E+03  0.7546771E-02  0.1220755E+00
          2   -1    0    0  503    0 -0.00000000000E+00  0.00000000000E+00  0.25251499180E+03  0.25251499180E+03  0.00000000000E+00 0. -1.
         21   -1    0    0  502  503  0.00000000000E+00 -0.00000000000E+00 -0.17300645577E+03  0.17300645577E+03  0.00000000000E+00 0. -1.
         25    2    1    2    0    0 -0.27336939573E+02 -0.41853761658E+02 -0.14362698057E+03  0.19685464981E+03  0.12499599184E+03 0.  0.
          5    1    3    3  501    0  0.19808539167E+02 -0.25397786300E+02  0.11257244829E+02  0.34119808528E+02  0.10000000000E+00 0.  1.
         -5    1    3    3    0  501 -0.47145478740E+02 -0.16455975358E+02 -0.15488422540E+03  0.16273484128E+03  0.10000000000E+00 0.  1.
          2    1    1    2  502    0  0.27336939573E+02  0.41853761658E+02  0.22313551660E+03  0.22866679776E+03  0.00000000000E+00 0. -1.
<mgrwt>
<rscale>  1 0.13462185E+03</rscale>
<asrwt>0</asrwt>
<pdfrwt beam="1">  1       21 0.26616378E-01 0.13462185E+03</pdfrwt>
<pdfrwt beam="2">  1        2 0.38848460E-01 0.13462185E+03</pdfrwt>
<totfact> 0.22024522E+04</totfact>
</mgrwt>
</event>
<event>
 6    2  0.1181843E-002  0.1498655E+03  0.7546771E-02  0.1200638E+00
          3   -1    0    0  503    0 -0.00000000000E+00  0.00000000000E+00  0.75098378122E+02  0.75098378122E+02  0.00000000000E+00 0.  1.
         21   -1    0    0  502  503  0.00000000000E+00 -0.00000000000E+00 -0.97970676221E+03  0.97970676221E+03  0.00000000000E+00 0.  1.
         25    2    1    2    0    0  0.74889258826E+02 -0.34997746004E+02 -0.94914765731E+03  0.96090631088E+03  0.12500567832E+03 0.  0.
          5    1    3    3  501    0  0.19049127665E+02  0.37287317356E+02 -0.54309975565E+03  0.54471145379E+03  0.10000000000E+00 0. -1.
         -5    1    3    3    0  501  0.55840131162E+02 -0.72285063360E+02 -0.40604790166E+03  0.41619485710E+03  0.10000000000E+00 0. -1.
          3    1    1    2  502    0 -0.74889258826E+02  0.34997746004E+02  0.44539273219E+02  0.93898829448E+02  0.00000000000E+00 0.  1.
<mgrwt>
<rscale>  1 0.14986548E+03</rscale>
<asrwt>0</asrwt>
<pdfrwt beam="1">  1       21 0.15072411E+00 0.14986548E+03</pdfrwt>
<pdfrwt beam="2">  1        3 0.11553597E-01 0.14986548E+03</pdfrwt>
<totfact> 0.85051880E+02</totfact>
</mgrwt>
</event>
<event>
 6    2  0.1181843E-002  0.1263543E+03  0.7546771E-02  0.1232968E+00
         21   -1    0    0  502  503  0.00000000000E+00  0.00000000000E+00  0.11581640045E+02  0.11581640045E+02  0.00000000000E+00 0.  1.
          3   -1    0    0  503    0 -0.00000000000E+00 -0.00000000000E+00 -0.81411494648E+03  0.81411494648E+03  0.00000000000E+00 0.  1.
         25    2    1    2    0    0 -0.18036327714E+02  0.39617991454E+01 -0.33878582122E+03  0.36158158459E+03  0.12499761874E+03 0.  0.
          5    1    3    3  501    0  0.12505913633E+02  0.59008259560E+02 -0.12626249204E+03  0.13993069523E+03  0.10000000000E+00 0. -1.
         -5    1    3    3    0  501 -0.30542241347E+02 -0.55046460414E+02 -0.21252332918E+03  0.22165088937E+03  0.10000000000E+00 0. -1.
          3    1    1    2  502    0  0.18036327714E+02 -0.39617991454E+01 -0.46374748522E+03  0.46411500194E+03  0.00000000000E+00 0.  1.
<mgrwt>
<rscale>  1 0.12635430E+03</rscale>
<asrwt>0</asrwt>
<pdfrwt beam="1">  1       21 0.17817913E-02 0.12635430E+03</pdfrwt>
<pdfrwt beam="2">  1        3 0.12524841E+00 0.12635430E+03</pdfrwt>
<totfact> 0.37907641E+04</totfact>
</mgrwt>
</event>
<event>
 6    2  0.1181843E-002  0.1284480E+03  0.7546771E-02  0.1229777E+00
         21   -1    0    0  502  503  0.00000000000E+00  0.00000000000E+00  0.32659386407E+02  0.32659386407E+02  0.00000000000E+00 0. -1.
          1   -1    0    0  503    0 -0.00000000000E+00 -0.00000000000E+00 -0.15255589270E+04  0.15255589270E+04  0.00000000000E+00 0.  1.
         25    2    1    2    0    0  0.11909669732E+02 -0.27059100266E+02 -0.94398990259E+02  0.15940530788E+03  0.12499939071E+03 0.  0.
          5    1    3    3  501    0  0.24558139750E+02 -0.13817083228E+02  0.25567665899E+02  0.38049041465E+02  0.10000000000E+00 0. -1.
         -5    1    3    3    0  501 -0.12648470018E+02 -0.13242017038E+02 -0.11996665616E+03  0.12135626642E+03  0.10000000000E+00 0. -1.
          1    1    1    2  502    0 -0.11909669732E+02  0.27059100266E+02 -0.13985005503E+04  0.13988130055E+04  0.00000000000E+00 0.  1.
<mgrwt>
<rscale>  1 0.12844798E+03</rscale>
<asrwt>0</asrwt>
<pdfrwt beam="1">  1       21 0.50245204E-02 0.12844798E+03</pdfrwt>
<pdfrwt beam="2">  1        1 0.23470140E+00 0.12844798E+03</pdfrwt>
<totfact> 0.21220221E+04</totfact>
</mgrwt>
</event>
<event>
 6    2  0.1181843E-002  0.1309586E+03  0.7546771E-02  0.1226040E+00
          3   -1    0    0  503    0 -0.00000000000E+00  0.00000000000E+00  0.27433132977E+03  0.27433132977E+03  0.00000000000E+00 0. -1.
         21   -1    0    0  502  503  0.00000000000E+00 -0.00000000000E+00 -0.50471303289E+02  0.50471303289E+02  0.00000000000E+00 0. -1.
         25    2    1    2    0    0 -0.38985270367E+02 -0.23866117545E+01  0.40133429326E+02  0.13697023510E+03  0.12499842372E+03 0.  0.
          5    1    3    3  501    0 -0.39155579836E+02 -0.58035453447E+02  0.41348189679E+02  0.81307786089E+02  0.10000000000E+00 0. -1.
         -5    1    3    3    0  501  0.17030946891E+00  0.55648841692E+02 -0.12147603526E+01  0.55662449009E+02  0.10000000000E+00 0. -1.
          3    1    1    2  502    0  0.38985270367E+02  0.23866117545E+01  0.18372659716E+03  0.18783239796E+03  0.00000000000E+00 0. -1.
<mgrwt>
<rscale>  1 0.13095859E+03</rscale>
<asrwt>0</asrwt>
<pdfrwt beam="1">  1       21 0.77648160E-02 0.13095859E+03</pdfrwt>
<pdfrwt beam="2">  1        3 0.42204819E-01 0.13095859E+03</pdfrwt>
<totfact> 0.33846875E+04</totfact>
</mgrwt>
</event>
<event>
 6    2  0.1181843E-002  0.1279477E+03  0.7546771E-02  0.1230533E+00
          2   -1    0    0  503    0 -0.00000000000E+00  0.00000000000E+00  0.11323879469E+04  0.11323879469E+04  0.00000000000E+00 0.  1.
         21   -1    0    0  502  503  0.00000000000E+00 -0.00000000000E+00 -0.14569466361E+02  0.14569466361E+02  0.00000000000E+00 0.  1.
         25    2    1    2    0    0 -0.14626835296E+02  0.23034462493E+02  0.27085717352E+03  0.29955668966E+03  0.12500428432E+03 0.  0.
          5    1    3    3  501    0 -0.40898688960E+02  0.47707772017E+02  0.25029398019E+03  0.25806166083E+03  0.10000000000E+00 0. -1.
         -5    1    3    3    0  501  0.26271853664E+02 -0.24673309524E+02  0.20563193330E+02  0.41495028831E+02  0.10000000000E+00 0. -1.
          2    1    1    2  502    0  0.14626835296E+02 -0.23034462493E+02  0.84696130701E+03  0.84740072360E+03  0.00000000000E+00 0.  1.
<mgrwt>
<rscale>  1 0.12794765E+03</rscale>
<asrwt>0</asrwt>
<pdfrwt beam="1">  1       21 0.22414573E-02 0.12794765E+03</pdfrwt>
<pdfrwt beam="2">  1        2 0.17421346E+00 0.12794765E+03</pdfrwt>
<totfact> 0.28232678E+05</totfact>
</mgrwt>
</event>
<event>
 6    2  0.1181843E-002  0.1735716E+03  0.7546771E-02  0.1174174E+00
          1   -1    0    0  503    0 -0.00000000000E+00  0.00000000000E+00  0.10175428897E+04  0.10175428897E+04  0.00000000000E+00 0.  1.
         21   -1    0    0  502  503  0.00000000000E+00 -0.00000000000E+00 -0.27539991300E+02  0.27539991300E+02  0.00000000000E+00 0. -1.
         25    2    1    2    0    0  0.10949346864E+03  0.50132782986E+02  0.31716594065E+03  0.36155403207E+03  0.12499987438E+03 0.  0.
          5    1    3    3  501    0  0.28265333059E+02  0.34935463521E+02  0.13614405669E+02  0.46955060495E+02  0.10000000000E+00 0.  1.
         -5    1    3    3    0  501  0.81228135577E+02  0.15197319464E+02  0.30355153498E+03  0.31459897158E+03  0.10000000000E+00 0.  1.
          1    1    1    2  502    0 -0.10949346864E+03 -0.50132782986E+02  0.67283695778E+03  0.68352884896E+03  0.00000000000E+00 0.  1.
<mgrwt>
<rscale>  1 0.17357155E+03</rscale>
<asrwt>0</asrwt>
<pdfrwt beam="1">  1       21 0.42369225E-02 0.17357155E+03</pdfrwt>
<pdfrwt beam="2">  1        1 0.15654503E+00 0.17357155E+03</pdfrwt>
<totfact> 0.62138541E+04</totfact>
</mgrwt>
</event>
<event>
 6    2  0.1181843E-002  0.1483065E+03  0.7546771E-02  0.1202569E+00
         21   -1    0    0  502  503  0.00000000000E+00  0.00000000000E+00  0.52633414686E+01  0.52633414686E+01  0.00000000000E+00 0.  1.
          2   -1    0    0  503    0 -0.00000000000E+00 -0.00000000000E+00 -0.24839189540E+04  0.24839189540E+04  0.00000000000E+00 0.  1.
         25    2    1    2    0    0  0.46825156925E+02  0.64634863818E+02 -0.16926796752E+04  0.16991642989E+04  0.12499828261E+03 0.  0.
          5    1    3    3  501    0  0.58906493471E+02  0.96124776890E+02 -0.14045378543E+04  0.14090551948E+04  0.10000000000E+00 0. -1.
         -5    1    3    3    0  501 -0.12081336546E+02 -0.31489913072E+02 -0.28814182092E+03  0.29010910410E+03  0.10000000000E+00 0. -1.
          2    1    1    2  502    0 -0.46825156925E+02 -0.64634863818E+02 -0.78597593728E+03  0.79001799658E+03  0.00000000000E+00 0.  1.
<mgrwt>
<rscale>  1 0.14830655E+03</rscale>
<asrwt>0</asrwt>
<pdfrwt beam="1">  1       21 0.80974621E-03 0.14830655E+03</pdfrwt>
<pdfrwt beam="2">  1        2 0.38214073E+00 0.14830655E+03</pdfrwt>
<totfact> 0.28146655E+05</totfact>
</mgrwt>
</event>
<event>
 6    2  0.1181843E-002  0.1261809E+03  0.7546771E-02  0.1233235E+00
          2   -1    0    0  503    0 -0.00000000000E+00  0.00000000000E+00  0.32764713685E+02  0.32764713685E+02  0.00000000000E+00 0. -1.
         21   -1    0    0  502  503  0.00000000000E+00 -0.00000000000E+00 -0.18016581878E+03  0.18016581878E+03  0.00000000000E+00 0. -1.
         25    2    1    2    0    0  0.56091524990E+01  0.16567274560E+02 -0.14913567442E+03  0.19535367527E+03  0.12496268194E+03 0.  0.
          5    1    3    3  501    0  0.27707877353E+02  0.40004769859E+02 -0.15513354860E+03  0.16258701049E+03  0.10000000000E+00 0. -1.
         -5    1    3    3    0  501 -0.22098724854E+02 -0.23437495299E+02  0.59978741790E+01  0.32766664779E+02  0.10000000000E+00 0. -1.
          2    1    1    2  502    0 -0.56091524990E+01 -0.16567274560E+02  0.17345693262E+01  0.17576857195E+02  0.00000000000E+00 0. -1.
<mgrwt>
<rscale>  1 0.12618086E+03</rscale>
<asrwt>0</asrwt>
<pdfrwt beam="1">  1       21 0.27717818E-01 0.12618086E+03</pdfrwt>
<pdfrwt beam="2">  1        2 0.50407252E-02 0.12618086E+03</pdfrwt>
<totfact> 0.22626004E+05</totfact>
</mgrwt>
</event>
<event>
 6    2  0.1181843E-002  0.1304046E+03  0.7546771E-02  0.1226857E+00
          2   -1    0    0  503    0 -0.00000000000E+00  0.00000000000E+00  0.48682124651E+03  0.48682124651E+03  0.00000000000E+00 0. -1.
         21   -1    0    0  502  503  0.00000000000E+00 -0.00000000000E+00 -0.14586795968E+02  0.14586795968E+02  0.00000000000E+00 0. -1.
         25    2    1    2    0    0 -0.34011555442E+02 -0.14964009876E+02  0.34357538628E+03  0.36749067127E+03  0.12499855966E+03 0.  0.
          5    1    3    3  501    0  0.47194749212E+02  0.48912118305E+00  0.10913381627E+03  0.11890241144E+03  0.10000000000E+00 0. -1.
         -5    1    3    3    0  501 -0.81206304654E+02 -0.15453131059E+02  0.23444157001E+03  0.24858825983E+03  0.10000000000E+00 0. -1.
          2    1    1    2  502    0  0.34011555442E+02  0.14964009876E+02  0.12865906426E+03  0.13391737121E+03  0.00000000000E+00 0. -1.
<mgrwt>
<rscale>  1 0.13040455E+03</rscale>
<asrwt>0</asrwt>
<pdfrwt beam="1">  1       21 0.22441228E-02 0.13040455E+03</pdfrwt>
<pdfrwt beam="2">  1        2 0.74895564E-01 0.13040455E+03</pdfrwt>
<totfact> 0.79804575E+05</totfact>
</mgrwt>
</event>
<event>
 6    2  0.1181843E-002  0.1304059E+03  0.7546771E-02  0.1226855E+00
          1   -1    0    0  503    0 -0.00000000000E+00  0.00000000000E+00  0.62356829779E+02  0.62356829779E+02  0.00000000000E+00 0.  1.
         21   -1    0    0  502  503  0.00000000000E+00 -0.00000000000E+00 -0.22265294325E+03  0.22265294325E+03  0.00000000000E+00 0. -1.
         25    2    1    2    0    0 -0.34262353113E+02  0.14374921275E+02 -0.19472328745E+03  0.23435626861E+03  0.12500061903E+03 0.  0.
          5    1    3    3  501    0 -0.63941450717E+02  0.21018236836E+02 -0.19242372301E+03  0.20385576905E+03  0.10000000000E+00 0.  1.
         -5    1    3    3    0  501  0.29679097604E+02 -0.66433155602E+01 -0.22995644395E+01  0.30500499551E+02  0.10000000000E+00 0.  1.
          1    1    1    2  502    0  0.34262353113E+02 -0.14374921275E+02  0.34427173977E+02  0.50653504425E+02  0.00000000000E+00 0.  1.
<mgrwt>
<rscale>  1 0.13040591E+03</rscale>
<asrwt>0</asrwt>
<pdfrwt beam="1">  1       21 0.34254299E-01 0.13040591E+03</pdfrwt>
<pdfrwt beam="2">  1        1 0.95933584E-02 0.13040591E+03</pdfrwt>
<totfact> 0.58748816E+04</totfact>
</mgrwt>
</event>
<event>
 6    2  0.1181843E-002  0.1326523E+03  0.7546771E-02  0.1223572E+00
         21   -1    0    0  502  503  0.00000000000E+00  0.00000000000E+00  0.48412375165E+02  0.48412375165E+02  0.00000000000E+00 0. -1.
          2   -1    0    0  503    0 -0.00000000000E+00 -0.00000000000E+00 -0.49711956646E+03  0.49711956646E+03  0.00000000000E+00 0. -1.
         25    2    1    2    0    0 -0.44319232880E+02 -0.28500058161E+01 -0.46027518089E+02  0.14041068058E+03  0.12499723943E+03 0.  0.
          5    1    3    3  501    0  0.93375192140E+01 -0.51195265856E+02  0.45494285028E+01  0.52238413173E+02  0.10000000000E+00 0. -1.
         -5    1    3    3    0  501 -0.53656752094E+02  0.48345260040E+02 -0.50576946592E+02  0.88172267409E+02  0.10000000000E+00 0. -1.
          2    1    1    2  502    0  0.44319232880E+02  0.28500058161E+01 -0.40267967321E+03  0.40512126105E+03  0.00000000000E+00 0. -1.
<mgrwt>
<rscale>  1 0.13265228E+03</rscale>
<asrwt>0</asrwt>
<pdfrwt beam="1">  1       21 0.74480578E-02 0.13265228E+03</pdfrwt>
<pdfrwt beam="2">  1        2 0.76479932E-01 0.13265228E+03</pdfrwt>
<totfact> 0.10584522E+05</totfact>
</mgrwt>
</event>
<event>
 6    2  0.1181843E-002  0.1278065E+03  0.7546771E-02  0.1230747E+00
         21   -1    0    0  502  503  0.00000000000E+00  0.00000000000E+00  0.29388679493E+02  0.29388679493E+02  0.00000000000E+00 0.  1.
          2   -1    0    0  503    0 -0.00000000000E+00 -0.00000000000E+00 -0.39049892365E+03  0.39049892365E+03  0.00000000000E+00 0. -1.
         25    2    1    2    0    0 -0.10230903836E+02  0.24658565012E+02 -0.11376306126E+03  0.17110387154E+03  0.12498713745E+03 0.  0.
          5    1    3    3  501    0  0.50819978808E+02  0.36969204345E+02 -0.74563136737E+02  0.97514428040E+02  0.10000000000E+00 0. -1.
         -5    1    3    3    0  501 -0.61050882644E+02 -0.12310639333E+02 -0.39199924524E+02  0.73589443503E+02  0.10000000000E+00 0. -1.
          2    1    1    2  502    0  0.10230903836E+02 -0.24658565012E+02 -0.24734718290E+03  0.24878373160E+03  0.00000000000E+00 0. -1.
<mgrwt>
<rscale>  1 0.12780650E+03</rscale>
<asrwt>0</asrwt>
<pdfrwt beam="1">  1       21 0.45213353E-02 0.12780650E+03</pdfrwt>
<pdfrwt beam="2">  1        2 0.60076757E-01 0.12780650E+03</pdfrwt>
<totfact> 0.31925033E+05</totfact>
</mgrwt>
</event>
<event>
 6    2  0.1181843E-002  0.1342704E+03  0.7546771E-02  0.1221253E+00
         21   -1    0    0  502  503  0.00000000000E+00  0.00000000000E+00  0.19371144415E+02  0.19371144415E+02  0.00000000000E+00 0. -1.
          1   -1    0    0  503    0 -0.00000000000E+00 -0.00000000000E+00 -0.62710410126E+03  0.62710410126E+03  0.00000000000E+00 0.  1.
         25    2    1    2    0    0 -0.33129597697E+02  0.36139476553E+02 -0.23599539843E+03  0.27151865573E+03  0.12499968128E+03 0.  0.
          5    1    3    3  501    0  0.62409166793E+01 -0.62463095668E+01  0.13097608552E+02  0.15796289880E+02  0.10000000000E+00 0.  1.
         -5    1    3    3    0  501 -0.39370514376E+02  0.42385786120E+02 -0.24909300698E+03  0.25572236585E+03  0.10000000000E+00 0.  1.
          1    1    1    2  502    0  0.33129597697E+02 -0.36139476553E+02 -0.37173755841E+03  0.37495658994E+03  0.00000000000E+00 0.  1.
<mgrwt>
<rscale>  1 0.13427044E+03</rscale>
<asrwt>0</asrwt>
<pdfrwt beam="1">  1       21 0.29801759E-02 0.13427044E+03</pdfrwt>
<pdfrwt beam="2">  1        1 0.96477560E-01 0.13427044E+03</pdfrwt>
<totfact> 0.23193129E+05</totfact>
</mgrwt>
</event>
<event>
 6    2  0.1181843E-002  0.1261054E+03  0.7546771E-02  0.1233352E+00
         21   -1    0    0  502  503  0.00000000000E+00  0.00000000000E+00  0.16465366342E+04  0.16465366342E+04  0.00000000000E+00 0. -1.
          2   -1    0    0  503    0 -0.00000000000E+00 -0.00000000000E+00 -0.29514188734E+03  0.29514188734E+03  0.00000000000E+00 0. -1.
         25    2    1    2    0    0 -0.16414076756E+02 -0.23116049893E+01  0.16438870821E+04  0.16487168659E+04  0.12501119801E+03 0.  0.
          5    1    3    3  501    0  0.43132805901E+02 -0.37284698951E+02  0.72449183965E+03  0.72673174104E+03  0.10000000000E+00 0.  1.
         -5    1    3    3    0  501 -0.59546882656E+02  0.34973093962E+02  0.91939524249E+03  0.92198512485E+03  0.10000000000E+00 0.  1.
          2    1    1    2  502    0  0.16414076756E+02  0.23116049893E+01 -0.29249233532E+03  0.29296165561E+03  0.00000000000E+00 0. -1.
<mgrwt>
<rscale>  1 0.12610537E+03</rscale>
<asrwt>0</asrwt>
<pdfrwt beam="1">  1       21 0.25331332E+00 0.12610537E+03</pdfrwt>
<pdfrwt beam="2">  1        2 0.45406445E-01 0.12610537E+03</pdfrwt>
<totfact> 0.95867806E+01</totfact>
</mgrwt>
</event>
<event>
 6    2  0.1181843E-002  0.1335667E+03  0.7546771E-02  0.1222257E+00
         21   -1    0    0  502  503  0.00000000000E+00  0.00000000000E+00  0.48724915065E+03  0.48724915065E+03  0.00000000000E+00 0.  1.
          1   -1    0    0  503    0 -0.00000000000E+00 -0.00000000000E+00 -0.99088284189E+03  0.99088284189E+03  0.00000000000E+00 0. -1.
         25    2    1    2    0    0 -0.39168718628E+02  0.26081066720E+02  0.47752116593E+03  0.49584931209E+03  0.12500266328E+03 0.  0.
          5    1    3    3  501    0 -0.12710749133E+02  0.75916807877E+02  0.28778381072E+03  0.29790007817E+03  0.10000000000E+00 0.  1.
         -5    1    3    3    0  501 -0.26457969495E+02 -0.49835741157E+02  0.18973735521E+03  0.19794923392E+03  0.10000000000E+00 0.  1.
          1    1    1    2  502    0  0.39168718628E+02 -0.26081066720E+02 -0.98115485717E+03  0.98228268045E+03  0.00000000000E+00 0. -1.
<mgrwt>
<rscale>  1 0.13356675E+03</rscale>
<asrwt>0</asrwt>
<pdfrwt beam="1">  1       21 0.74961408E-01 0.13356675E+03</pdfrwt>
<pdfrwt beam="2">  1        1 0.15244351E+00 0.13356675E+03</pdfrwt>
<totfact> 0.30588813E+02</totfact>
</mgrwt>
</event>
<event>
 6    2  0.1181843E-002  0.1282522E+03  0.7546771E-02  0.1230072E+00
          3   -1    0    0  503    0 -0.00000000000E+00  0.00000000000E+00  0.37112415655E+03  0.37112415655E+03  0.00000000000E+00 0. -1.
         21   -1    0    0  502  503  0.00000000000E+00 -0.00000000000E+00 -0.75126159686E+02  0.75126159686E+02  0.00000000000E+00 0.  1.
         25    2    1    2    0    0 -0.26253107118E+02  0.11569342343E+02 -0.19259410193E+02  0.12969019869E+03  0.12500218974E+03 0.  0.
          5    1    3    3  501    0 -0.21897982466E+02  0.40842731550E+02  0.41434514940E+02  0.62164936941E+02  0.10000000000E+00 0.  1.
         -5    1    3    3    0  501 -0.43551246524E+01 -0.29273389207E+02 -0.60693925133E+02  0.67525261750E+02  0.10000000000E+00 0.  1.
          3    1    1    2  502    0  0.26253107118E+02 -0.11569342343E+02  0.31525740706E+03  0.31656011755E+03  0.00000000000E+00 0. -1.
<mgrwt>
<rscale>  1 0.12825218E+03</rscale>
<asrwt>0</asrwt>
<pdfrwt beam="1">  1       21 0.11557871E-01 0.12825218E+03</pdfrwt>
<pdfrwt beam="2">  1        3 0.57096023E-01 0.12825218E+03</pdfrwt>
<totfact> 0.92645594E+03</totfact>
</mgrwt>
</event>
<event>
 6    2  0.1181843E-002  0.1312900E+03  0.7546771E-02  0.1225554E+00
         21   -1    0    0  502  503  0.00000000000E+00  0.00000000000E+00  0.38270056133E+02  0.38270056133E+02  0.00000000000E+00 0.  1.
          1   -1    0    0  503    0 -0.00000000000E+00 -0.00000000000E+00 -0.20869214442E+03  0.20869214442E+03  0.00000000000E+00 0.  1.
         25    2    1    2    0    0  0.35027192618E+02 -0.19628279721E+02 -0.96851258367E+02  0.16314787837E+03  0.12499956153E+03 0.  0.
          5    1    3    3  501    0 -0.19117657585E+02  0.30866712867E+02  0.56083176343E+01  0.36738290943E+02  0.10000000000E+00 0.  1.
         -5    1    3    3    0  501  0.54144850203E+02 -0.50494992588E+02 -0.10245957600E+03  0.12640958743E+03  0.10000000000E+00 0.  1.
          1    1    1    2  502    0 -0.35027192618E+02  0.19628279721E+02 -0.73570829924E+02  0.83814322184E+02  0.00000000000E+00 0.  1.
<mgrwt>
<rscale>  1 0.13129000E+03</rscale>
<asrwt>0</asrwt>
<pdfrwt beam="1">  1       21 0.58877009E-02 0.13129000E+03</pdfrwt>
<pdfrwt beam="2">  1        1 0.32106484E-01 0.13129000E+03</pdfrwt>
<totfact> 0.30069239E+05</totfact>
</mgrwt>
</event>
<event>
 6    2  0.1181843E-002  0.1263430E+03  0.7546771E-02  0.1232985E+00
         21   -1    0    0  502  503  0.00000000000E+00  0.00000000000E+00  0.20383088025E+03  0.20383088025E+03  0.00000000000E+00 0.  1.
          1   -1    0    0  503    0 -0.00000000000E+00 -0.00000000000E+00 -0.31709598827E+02  0.31709598827E+02  0.00000000000E+00 0.  1.
         25    2    1    2    0    0 -0.11148679537E+02  0.14621481636E+02  0.17609378978E+03  0.21672926957E+03  0.12499789081E+03 0.  0.
          5    1    3    3  501    0  0.45861477007E+02  0.10013989698E+02  0.21000512168E+02  0.51425543986E+02  0.10000000000E+00 0.  1.
         -5    1    3    3    0  501 -0.57010156544E+02  0.46074919378E+01  0.15509327761E+03  0.16530372558E+03  0.10000000000E+00 0.  1.
          1    1    1    2  502    0  0.11148679537E+02 -0.14621481636E+02 -0.39725083551E+01  0.18811209511E+02  0.00000000000E+00 0.  1.
<mgrwt>
<rscale>  1 0.12634300E+03</rscale>
<asrwt>0</asrwt>
<pdfrwt beam="1">  1       21 0.31358596E-01 0.12634300E+03</pdfrwt>
<pdfrwt beam="2">  1        1 0.48783999E-02 0.12634300E+03</pdfrwt>
<totfact> 0.17334952E+05</totfact>
</mgrwt>
</event>
<event>
 6    2  0.1181843E-002  0.1495467E+03  0.7546771E-02  0.1201031E+00
          2   -1    0    0  503    0 -0.00000000000E+00  0.00000000000E+00  0.25940815044E+03  0.25940815044E+03  0.00000000000E+00 0. -1.
         21   -1    0    0  502  503  0.00000000000E+00 -0.00000000000E+00 -0.81251718893E+02  0.81251718893E+02  0.00000000000E+00 0. -1.
         25    2    1    2    0    0 -0.34054017717E+02  0.74696491333E+02  0.56930991561E+01  0.14965504489E+03  0.12499991658E+03 0.  0.
          5    1    3    3  501    0  0.23434718448E+02  0.46774563950E+02 -0.44268720111E+02  0.68533024460E+02  0.10000000000E+00 0.  1.
         -5    1    3    3    0  501 -0.57488736165E+02  0.27921927383E+02  0.49961819267E+02  0.81122020433E+02  0.10000000000E+00 0.  1.
          2    1    1    2  502    0  0.34054017717E+02 -0.74696491333E+02  0.17246333239E+03  0.19100482444E+03  0.00000000000E+00 0. -1.
<mgrwt>
<rscale>  1 0.14954672E+03</rscale>
<asrwt>0</asrwt>
<pdfrwt beam="1">  1       21 0.12500265E-01 0.14954672E+03</pdfrwt>
<pdfrwt beam="2">  1        2 0.39908946E-01 0.14954672E+03</pdfrwt>
<totfact> 0.86045260E+04</totfact>
</mgrwt>
</event>
<event>
 6    2  0.1181843E-002  0.1304962E+03  0.7546771E-02  0.1226721E+00
         21   -1    0    0  502  503  0.00000000000E+00  0.00000000000E+00  0.26289348216E+03  0.26289348216E+03  0.00000000000E+00 0.  1.
          2   -1    0    0  503    0 -0.00000000000E+00 -0.00000000000E+00 -0.27168429883E+03  0.27168429883E+03  0.00000000000E+00 0.  1.
         25    2    1    2    0    0  0.42760090415E+01  0.37225157137E+02  0.24524003613E+03  0.27779836057E+03  0.12500102895E+03 0.  0.
          5    1    3    3  501    0  0.48887819349E+02  0.18740146460E+02  0.37198211567E+02  0.64225609486E+02  0.10000000000E+00 0. -1.
         -5    1    3    3    0  501 -0.44611810307E+02  0.18485010676E+02  0.20804182456E+03  0.21357275108E+03  0.10000000000E+00 0. -1.
          2    1    1    2  502    0 -0.42760090415E+01 -0.37225157137E+02 -0.25403085280E+03  0.25677942042E+03  0.00000000000E+00 0.  1.
<mgrwt>
<rscale>  1 0.13049618E+03</rscale>
<asrwt>0</asrwt>
<pdfrwt beam="1">  1       21 0.40445151E-01 0.13049618E+03</pdfrwt>
<pdfrwt beam="2">  1        2 0.41797584E-01 0.13049618E+03</pdfrwt>
<totfact> 0.90115517E+03</totfact>
</mgrwt>
</event>
<event>
 6    2  0.1181843E-002  0.1358077E+03  0.7546771E-02  0.1219084E+00
         21   -1    0    0  502  503  0.00000000000E+00  0.00000000000E+00  0.38243089742E+02  0.38243089742E+02  0.00000000000E+00 0.  1.
          1   -1    0    0  503    0 -0.00000000000E+00 -0.00000000000E+00 -0.41782144958E+03  0.41782144958E+03  0.00000000000E+00 0. -1.
         25    2    1    2    0    0 -0.79967676387E+01 -0.52458761037E+02 -0.92961765753E+02  0.16457707491E+03  0.12501141465E+03 0.  0.
          5    1    3    3  501    0 -0.40391920198E+02  0.17021481178E+02 -0.73347179404E+02  0.85446221481E+02  0.10000000000E+00 0.  1.
         -5    1    3    3    0  501  0.32395152559E+02 -0.69480242215E+02 -0.19614586349E+02  0.79130853434E+02  0.10000000000E+00 0.  1.
          1    1    1    2  502    0  0.79967676387E+01  0.52458761037E+02 -0.28661659408E+03  0.29148746441E+03  0.00000000000E+00 0. -1.
<mgrwt>
<rscale>  1 0.13580767E+03</rscale>
<asrwt>0</asrwt>
<pdfrwt beam="1">  1       21 0.58835528E-02 0.13580767E+03</pdfrwt>
<pdfrwt beam="2">  1        1 0.64280218E-01 0.13580767E+03</pdfrwt>
<totfact> 0.12728528E+05</totfact>
</mgrwt>
</event>
<event>
 6    2  0.1181843E-002  0.1260380E+03  0.7546771E-02  0.1233456E+00
          1   -1    0    0  503    0 -0.00000000000E+00  0.00000000000E+00  0.15214313713E+03  0.15214313713E+03  0.00000000000E+00 0.  1.
         21   -1    0    0  502  503  0.00000000000E+00 -0.00000000000E+00 -0.21727004289E+03  0.21727004289E+03  0.00000000000E+00 0. -1.
         25    2    1    2    0    0 -0.85363688269E+01 -0.14098203097E+02 -0.19844119381E+03  0.23508400104E+03  0.12495579707E+03 0.  0.
          5    1    3    3  501    0 -0.42515805516E+02 -0.50498599524E+02 -0.64950708431E+02  0.92608351665E+02  0.10000000000E+00 0.  1.
         -5    1    3    3    0  501  0.33979436689E+02  0.36400396427E+02 -0.13349048538E+03  0.14247564938E+03  0.10000000000E+00 0.  1.
          1    1    1    2  502    0  0.85363688269E+01  0.14098203097E+02  0.13331428806E+03  0.13432917897E+03  0.00000000000E+00 0.  1.
<mgrwt>
<rscale>  1 0.12603801E+03</rscale>
<asrwt>0</asrwt>
<pdfrwt beam="1">  1       21 0.33426160E-01 0.12603801E+03</pdfrwt>
<pdfrwt beam="2">  1        1 0.23406637E-01 0.12603801E+03</pdfrwt>
<totfact> 0.19457473E+04</totfact>
</mgrwt>
</event>
<event>
 6    2  0.1181843E-002  0.1260428E+03  0.7546771E-02  0.1233449E+00
         21   -1    0    0  502  503  0.00000000000E+00  0.00000000000E+00  0.17166095879E+02  0.17166095879E+02  0.00000000000E+00 0. -1.
          2   -1    0    0  503    0 -0.00000000000E+00 -0.00000000000E+00 -0.33249601529E+03  0.33249601529E+03  0.00000000000E+00 0. -1.
         25    2    1    2    0    0  0.52478142506E+01  0.15297889934E+02 -0.22502672809E+03  0.25792209071E+03  0.12500084612E+03 0.  0.
          5    1    3    3  501    0  0.39097608767E+02 -0.41895498528E+02 -0.12883158680E+03  0.14100157292E+03  0.10000000000E+00 0.  1.
         -5    1    3    3    0  501 -0.33849794517E+02  0.57193388463E+02 -0.96195141282E+02  0.11692051778E+03  0.10000000000E+00 0.  1.
          2    1    1    2  502    0 -0.52478142506E+01 -0.15297889934E+02 -0.90303191326E+02  0.91740020463E+02  0.00000000000E+00 0. -1.
<mgrwt>
<rscale>  1 0.12604276E+03</rscale>
<asrwt>0</asrwt>
<pdfrwt beam="1">  1       21 0.26409379E-02 0.12604276E+03</pdfrwt>
<pdfrwt beam="2">  1        2 0.51153231E-01 0.12604276E+03</pdfrwt>
<totfact> 0.91839162E+05</totfact>
</mgrwt>
</event>
<event>
 6    2  0.1181843E-002  0.1264810E+03  0.7546771E-02  0.1232773E+00
         21   -1    0    0  502  503  0.00000000000E+00  0.00000000000E+00  0.10101184468E+02  0.10101184468E+02  0.00000000000E+00 0. -1.
          2   -1    0    0  503    0 -0.00000000000E+00 -0.00000000000E+00 -0.12858133683E+04  0.12858133683E+04  0.00000000000E+00 0. -1.
         25    2    1    2    0    0 -0.59218136228E+01  0.18353503546E+02 -0.39009132635E+03  0.41008374377E+03  0.12500206014E+03 0.  0.
          5    1    3    3  501    0  0.65552935489E+01  0.11145801810E+02  0.56276302019E+01  0.14102517264E+02  0.10000000000E+00 0.  1.
         -5    1    3    3    0  501 -0.12477107172E+02  0.72077017360E+01 -0.39571895655E+03  0.39598122650E+03  0.10000000000E+00 0.  1.
          2    1    1    2  502    0  0.59218136228E+01 -0.18353503546E+02 -0.88562085745E+03  0.88583080896E+03  0.00000000000E+00 0. -1.
<mgrwt>
<rscale>  1 0.12648096E+03</rscale>
<asrwt>0</asrwt>
<pdfrwt beam="1">  1       21 0.15540289E-02 0.12648096E+03</pdfrwt>
<pdfrwt beam="2">  1        2 0.19781737E+00 0.12648096E+03</pdfrwt>
<totfact> 0.41881752E+05</totfact>
</mgrwt>
</event>
<event>
 6    2  0.1181843E-002  0.1282006E+03  0.7546771E-02  0.1230150E+00
          2   -1    0    0  503    0 -0.00000000000E+00  0.00000000000E+00  0.74359265358E+03  0.74359265358E+03  0.00000000000E+00 0.  1.
         21   -1    0    0  502  503  0.00000000000E+00 -0.00000000000E+00 -0.14084836944E+03  0.14084836944E+03  0.00000000000E+00 0.  1.
         25    2    1    2    0    0  0.22747499878E+02 -0.17098267114E+02 -0.11133401092E+03  0.16979592861E+03  0.12500238356E+03 0.  0.
          5    1    3    3  501    0 -0.11182113915E+02 -0.16818093559E+02 -0.12966603525E+03  0.13122948846E+03  0.10000000000E+00 0. -1.
         -5    1    3    3    0  501  0.33929613793E+02 -0.28017355499E+00  0.18332024336E+02  0.38566440147E+02  0.10000000000E+00 0. -1.
          2    1    1    2  502    0 -0.22747499878E+02  0.17098267114E+02  0.71407829506E+03  0.71464509441E+03  0.00000000000E+00 0.  1.
<mgrwt>
<rscale>  1 0.12820061E+03</rscale>
<asrwt>0</asrwt>
<pdfrwt beam="1">  1       21 0.21668980E-01 0.12820061E+03</pdfrwt>
<pdfrwt beam="2">  1        2 0.11439887E+00 0.12820061E+03</pdfrwt>
<totfact> 0.99458993E+03</totfact>
</mgrwt>
</event>
<event>
 6    2  0.1181843E-002  0.1465388E+03  0.7546771E-02  0.1204792E+00
          2   -1    0    0  503    0 -0.00000000000E+00  0.00000000000E+00  0.15960392666E+04  0.15960392666E+04  0.00000000000E+00 0.  1.
         21   -1    0    0  502  503  0.00000000000E+00 -0.00000000000E+00 -0.50979643134E+02  0.50979643134E+02  0.00000000000E+00 0. -1.
         25    2    1    2    0    0 -0.46902971175E+02  0.60405737874E+02  0.57376200146E+02  0.15737106212E+03  0.12499952391E+03 0.  0.
          5    1    3    3  501    0 -0.46741263301E+01 -0.39001382987E+01 -0.35928149337E+02  0.36440368419E+02  0.10000000000E+00 0. -1.
         -5    1    3    3    0  501 -0.42228844845E+02  0.64305876172E+02  0.93304349483E+02  0.12093069370E+03  0.10000000000E+00 0. -1.
          2    1    1    2  502    0  0.46902971175E+02 -0.60405737874E+02  0.14876834233E+04  0.14896478476E+04  0.00000000000E+00 0.  1.
<mgrwt>
<rscale>  1 0.14653881E+03</rscale>
<asrwt>0</asrwt>
<pdfrwt beam="1">  1       21 0.78430232E-02 0.14653881E+03</pdfrwt>
<pdfrwt beam="2">  1        2 0.24554446E+00 0.14653881E+03</pdfrwt>
<totfact> 0.19684887E+04</totfact>
</mgrwt>
</event>
<event>
 6    2  0.1181843E-002  0.1286077E+03  0.7546771E-02  0.1229536E+00
          1   -1    0    0  503    0 -0.00000000000E+00  0.00000000000E+00  0.14059828563E+04  0.14059828563E+04  0.00000000000E+00 0.  1.
         21   -1    0    0  502  503  0.00000000000E+00 -0.00000000000E+00 -0.57570698899E+02  0.57570698899E+02  0.00000000000E+00 0.  1.
         25    2    1    2    0    0  0.26135392783E+01 -0.30126304210E+02  0.14639566054E+02  0.12943821153E+03  0.12500203565E+03 0.  0.
          5    1    3    3  501    0  0.24688739020E+02 -0.66202315063E+02 -0.21448715184E+02  0.73839946757E+02  0.10000000000E+00 0. -1.
         -5    1    3    3    0  501 -0.22075199741E+02  0.36076010852E+02  0.36088281237E+02  0.55598264769E+02  0.10000000000E+00 0. -1.
          1    1    1    2  502    0 -0.26135392783E+01  0.30126304210E+02  0.13337725913E+04  0.13341153436E+04  0.00000000000E+00 0.  1.
<mgrwt>
<rscale>  1 0.12860767E+03</rscale>
<asrwt>0</asrwt>
<pdfrwt beam="1">  1       21 0.88570316E-02 0.12860767E+03</pdfrwt>
<pdfrwt beam="2">  1        1 0.21630503E+00 0.12860767E+03</pdfrwt>
<totfact> 0.96461455E+03</totfact>
</mgrwt>
</event>
<event>
 6    2  0.1181843E-002  0.1274953E+03  0.7546771E-02  0.1231220E+00
          1   -1    0    0  503    0 -0.00000000000E+00  0.00000000000E+00  0.13762598428E+04  0.13762598428E+04  0.00000000000E+00 0.  1.
         21   -1    0    0  502  503  0.00000000000E+00 -0.00000000000E+00 -0.14669662704E+03  0.14669662704E+03  0.00000000000E+00 0. -1.
         25    2    1    2    0    0 -0.82143746375E+00  0.25079799499E+02 -0.11885600094E+03  0.17430378843E+03  0.12500156239E+03 0.  0.
          5    1    3    3  501    0 -0.36911351094E+02  0.62765989593E+02 -0.51908635361E+02  0.89423339874E+02  0.10000000000E+00 0. -1.
         -5    1    3    3    0  501  0.36089913630E+02 -0.37686190094E+02 -0.66947365579E+02  0.84880448559E+02  0.10000000000E+00 0. -1.
          1    1    1    2  502    0  0.82143746375E+00 -0.25079799499E+02  0.13484192167E+04  0.13486526814E+04  0.00000000000E+00 0.  1.
<mgrwt>
<rscale>  1 0.12749534E+03</rscale>
<asrwt>0</asrwt>
<pdfrwt beam="1">  1       21 0.22568713E-01 0.12749534E+03</pdfrwt>
<pdfrwt beam="2">  1        1 0.21173227E+00 0.12749534E+03</pdfrwt>
<totfact> 0.18805933E+03</totfact>
</mgrwt>
</event>
<event>
 6    2  0.1181843E-002  0.1283713E+03  0.7546771E-02  0.1229893E+00
          3   -1    0    0  503    0 -0.00000000000E+00  0.00000000000E+00  0.44858507732E+02  0.44858507732E+02  0.00000000000E+00 0. -1.
         21   -1    0    0  502  503  0.00000000000E+00 -0.00000000000E+00 -0.31427728711E+03  0.31427728711E+03  0.00000000000E+00 0. -1.
         25    2    1    2    0    0  0.25456183516E+02  0.14515882807E+02 -0.29405327441E+03  0.32085281588E+03  0.12498189123E+03 0.  0.
          5    1    3    3  501    0  0.72656978771E+02 -0.12884154879E+02 -0.17018967957E+03  0.18549818070E+03  0.10000000000E+00 0. -1.
         -5    1    3    3    0  501 -0.47200795255E+02  0.27400037686E+02 -0.12386359484E+03  0.13535463518E+03  0.10000000000E+00 0. -1.
          3    1    1    2  502    0 -0.25456183516E+02 -0.14515882807E+02  0.24634495030E+02  0.38282978963E+02  0.00000000000E+00 0. -1.
<mgrwt>
<rscale>  1 0.12837134E+03</rscale>
<asrwt>0</asrwt>
<pdfrwt beam="1">  1       21 0.48350352E-01 0.12837134E+03</pdfrwt>
<pdfrwt beam="2">  1        3 0.69013088E-02 0.12837134E+03</pdfrwt>
<totfact> 0.26620617E+04</totfact>
</mgrwt>
</event>
<event>
 6    2  0.1181843E-002  0.1736218E+03  0.7546771E-02  0.1174123E+00
          2   -1    0    0  503    0 -0.00000000000E+00  0.00000000000E+00  0.11468807674E+04  0.11468807674E+04  0.00000000000E+00 0.  1.
         21   -1    0    0  502  503  0.00000000000E+00 -0.00000000000E+00 -0.19216427016E+02  0.19216427016E+02  0.00000000000E+00 0.  1.
         25    2    1    2    0    0 -0.11794437231E+03  0.24686469505E+02  0.74219555551E+03  0.76223276066E+03  0.12499696825E+03 0.  0.
          5    1    3    3  501    0 -0.66801692666E+02 -0.49759397866E+02  0.35865492818E+03  0.36820080299E+03  0.10000000000E+00 0. -1.
         -5    1    3    3    0  501 -0.51142679646E+02  0.74445867371E+02  0.38354062733E+03  0.39403195767E+03  0.10000000000E+00 0. -1.
          2    1    1    2  502    0  0.11794437231E+03 -0.24686469505E+02  0.38546878485E+03  0.40386443372E+03  0.00000000000E+00 0.  1.
<mgrwt>
<rscale>  1 0.17362183E+03</rscale>
<asrwt>0</asrwt>
<pdfrwt beam="1">  1       21 0.29563743E-02 0.17362183E+03</pdfrwt>
<pdfrwt beam="2">  1        2 0.17644314E+00 0.17362183E+03</pdfrwt>
<totfact> 0.17731138E+05</totfact>
</mgrwt>
</event>
<event>
 6    2  0.1181843E-002  0.1265374E+03  0.7546771E-02  0.1232686E+00
         21   -1    0    0  502  503  0.00000000000E+00  0.00000000000E+00  0.15650731577E+03  0.15650731577E+03  0.00000000000E+00 0.  1.
          2   -1    0    0  503    0 -0.00000000000E+00 -0.00000000000E+00 -0.62035947762E+03  0.62035947762E+03  0.00000000000E+00 0. -1.
         25    2    1    2    0    0 -0.19554309095E+02 -0.18837382590E+01  0.13074195885E+03  0.18194823776E+03  0.12500312774E+03 0.  0.
          5    1    3    3  501    0 -0.60254255424E+02 -0.28091301930E+02  0.11158376302E+03  0.12988703827E+03  0.10000000000E+00 0.  1.
         -5    1    3    3    0  501  0.40699946329E+02  0.26207563671E+02  0.19158195834E+02  0.52061199490E+02  0.10000000000E+00 0.  1.
          2    1    1    2  502    0  0.19554309095E+02  0.18837382590E+01 -0.59459412069E+03  0.59491855563E+03  0.00000000000E+00 0. -1.
<mgrwt>
<rscale>  1 0.12653735E+03</rscale>
<asrwt>0</asrwt>
<pdfrwt beam="1">  1       21 0.24078048E-01 0.12653735E+03</pdfrwt>
<pdfrwt beam="2">  1        2 0.95439921E-01 0.12653735E+03</pdfrwt>
<totfact> 0.10105321E+04</totfact>
</mgrwt>
</event>
<event>
 6    2  0.1181843E-002  0.1357678E+03  0.7546771E-02  0.1219140E+00
          2   -1    0    0  503    0 -0.00000000000E+00  0.00000000000E+00  0.21369719299E+04  0.21369719299E+04  0.00000000000E+00 0.  1.
         21   -1    0    0  502  503  0.00000000000E+00 -0.00000000000E+00 -0.17311314818E+02  0.17311314818E+02  0.00000000000E+00 0.  1.
         25    2    1    2    0    0 -0.28970718264E+02 -0.44370539900E+02  0.25517979291E+03  0.28904953722E+03  0.12499944373E+03 0.  0.
          5    1    3    3  501    0  0.19235636965E+02 -0.16320957900E+02 -0.25487940112E+01  0.25355270598E+02  0.10000000000E+00 0. -1.
         -5    1    3    3    0  501 -0.48206355229E+02 -0.28049582001E+02  0.25772858692E+03  0.26369426662E+03  0.10000000000E+00 0. -1.
          2    1    1    2  502    0  0.28970718264E+02  0.44370539900E+02  0.18644808222E+04  0.18652337075E+04  0.00000000000E+00 0.  1.
<mgrwt>
<rscale>  1 0.13576785E+03</rscale>
<asrwt>0</asrwt>
<pdfrwt beam="1">  1       21 0.26632809E-02 0.13576785E+03</pdfrwt>
<pdfrwt beam="2">  1        2 0.32876470E+00 0.13576785E+03</pdfrwt>
<totfact> 0.63767706E+04</totfact>
</mgrwt>
</event>
<event>
 6    2  0.1181843E-002  0.1629992E+03  0.7546771E-02  0.1185352E+00
         21   -1    0    0  502  503  0.00000000000E+00  0.00000000000E+00  0.13692295413E+02  0.13692295413E+02  0.00000000000E+00 0.  1.
          3   -1    0    0  503    0 -0.00000000000E+00 -0.00000000000E+00 -0.17167594432E+04  0.17167594432E+04  0.00000000000E+00 0.  1.
         25    2    1    2    0    0 -0.18328582558E+01  0.10460106994E+03 -0.57838183495E+03  0.60091121428E+03  0.12499598892E+03 0.  0.
          5    1    3    3  501    0 -0.14850015548E+02  0.10978195557E+03 -0.57617429665E+03  0.58672773145E+03  0.10000000000E+00 0.  1.
         -5    1    3    3    0  501  0.13017157292E+02 -0.51808856332E+01 -0.22075383003E+01  0.14183482832E+02  0.10000000000E+00 0.  1.
          3    1    1    2  502    0  0.18328582558E+01 -0.10460106994E+03 -0.11246853128E+04  0.11295405243E+04  0.00000000000E+00 0.  1.
<mgrwt>
<rscale>  1 0.16299920E+03</rscale>
<asrwt>0</asrwt>
<pdfrwt beam="1">  1       21 0.21065070E-02 0.16299920E+03</pdfrwt>
<pdfrwt beam="2">  1        3 0.26411684E+00 0.16299920E+03</pdfrwt>
<totfact> 0.39187826E+03</totfact>
</mgrwt>
</event>
<event>
 6    2  0.1181843E-002  0.1278454E+03  0.7546771E-02  0.1230688E+00
         21   -1    0    0  502  503  0.00000000000E+00  0.00000000000E+00  0.21285304972E+03  0.21285304972E+03  0.00000000000E+00 0.  1.
          1   -1    0    0  503    0 -0.00000000000E+00 -0.00000000000E+00 -0.85042317978E+02  0.85042317978E+02  0.00000000000E+00 0.  1.
         25    2    1    2    0    0  0.65670268197E+01  0.26060483743E+02  0.19065182744E+03  0.22954861969E+03  0.12498869884E+03 0.  0.
          5    1    3    3  501    0  0.40655852213E+02  0.34601679477E+02  0.22790674881E+02  0.58048250648E+02  0.10000000000E+00 0. -1.
         -5    1    3    3    0  501 -0.34088825393E+02 -0.85411957333E+01  0.16786115256E+03  0.17150036904E+03  0.10000000000E+00 0. -1.
          1    1    1    2  502    0 -0.65670268197E+01 -0.26060483743E+02 -0.62841095703E+02  0.68346748008E+02  0.00000000000E+00 0.  1.
<mgrwt>
<rscale>  1 0.12784541E+03</rscale>
<asrwt>0</asrwt>
<pdfrwt beam="1">  1       21 0.32746623E-01 0.12784541E+03</pdfrwt>
<pdfrwt beam="2">  1        1 0.13083434E-01 0.12784541E+03</pdfrwt>
<totfact> 0.42632688E+04</totfact>
</mgrwt>
</event>
<event>
 6    2  0.1181843E-002  0.1262703E+03  0.7546771E-02  0.1233097E+00
          2   -1    0    0  503    0 -0.00000000000E+00  0.00000000000E+00  0.11455971821E+03  0.11455971821E+03  0.00000000000E+00 0. -1.
         21   -1    0    0  502  503  0.00000000000E+00 -0.00000000000E+00 -0.17760846647E+03  0.17760846647E+03  0.00000000000E+00 0.  1.
         25    2    1    2    0    0 -0.17657256030E+02  0.27146741052E+01 -0.15418825513E+03  0.19929430321E+03  0.12500021250E+03 0.  0.
          5    1    3    3  501    0 -0.64162102249E+02  0.25328128811E+02 -0.11618765030E+03  0.13512168426E+03  0.10000000000E+00 0.  1.
         -5    1    3    3    0  501  0.46504846219E+02 -0.22613454705E+02 -0.38000604828E+02  0.64172618950E+02  0.10000000000E+00 0.  1.
          2    1    1    2  502    0  0.17657256030E+02 -0.27146741052E+01  0.91139506877E+02  0.92873881472E+02  0.00000000000E+00 0. -1.
<mgrwt>
<rscale>  1 0.12627035E+03</rscale>
<asrwt>0</asrwt>
<pdfrwt beam="1">  1       21 0.27324379E-01 0.12627035E+03</pdfrwt>
<pdfrwt beam="2">  1        2 0.17624572E-01 0.12627035E+03</pdfrwt>
<totfact> 0.49923879E+04</totfact>
</mgrwt>
</event>
<event>
 6    2  0.1181843E-002  0.1398434E+03  0.7546771E-02  0.1213540E+00
         21   -1    0    0  502  503  0.00000000000E+00  0.00000000000E+00  0.52661760006E+02  0.52661760006E+02  0.00000000000E+00 0.  1.
          1   -1    0    0  503    0 -0.00000000000E+00 -0.00000000000E+00 -0.23036590094E+03  0.23036590094E+03  0.00000000000E+00 0.  1.
         25    2    1    2    0    0  0.61633496989E+02  0.11591323294E+02 -0.65358334967E+02  0.15436287616E+03  0.12499255521E+03 0.  0.
          5    1    3    3  501    0  0.41015527332E+02 -0.52960580744E+02 -0.11864759730E+02  0.68028516950E+02  0.10000000000E+00 0. -1.
         -5    1    3    3    0  501  0.20617969657E+02  0.64551904038E+02 -0.53493575237E+02  0.86334359205E+02  0.10000000000E+00 0. -1.
          1    1    1    2  502    0 -0.61633496989E+02 -0.11591323294E+02 -0.11234580597E+03  0.12866478479E+03  0.00000000000E+00 0.  1.
<mgrwt>
<rscale>  1 0.13984343E+03</rscale>
<asrwt>0</asrwt>
<pdfrwt beam="1">  1       21 0.81018093E-02 0.13984343E+03</pdfrwt>
<pdfrwt beam="2">  1        1 0.35440908E-01 0.13984343E+03</pdfrwt>
<totfact> 0.15456666E+05</totfact>
</mgrwt>
</event>
<event>
 6    2  0.1181843E-002  0.1504294E+03  0.7546771E-02  0.1199946E+00
          2   -1    0    0  503    0 -0.00000000000E+00  0.00000000000E+00  0.33158797843E+03  0.33158797843E+03  0.00000000000E+00 0.  1.
         21   -1    0    0  502  503  0.00000000000E+00 -0.00000000000E+00 -0.11749791308E+03  0.11749791308E+03  0.00000000000E+00 0.  1.
         25    2    1    2    0    0  0.80445206288E+02 -0.23024506945E+02 -0.60417307526E+02  0.16210878982E+03  0.12500979783E+03 0.  0.
          5    1    3    3  501    0 -0.17728797747E+02  0.10283877593E+02 -0.54548817598E+02  0.58272222450E+02  0.10000000000E+00 0.  1.
         -5    1    3    3    0  501  0.98174004034E+02 -0.33308384538E+02 -0.58684899275E+01  0.10383656737E+03  0.10000000000E+00 0.  1.
          2    1    1    2  502    0 -0.80445206288E+02  0.23024506945E+02  0.27450737287E+03  0.28697710169E+03  0.00000000000E+00 0.  1.
<mgrwt>
<rscale>  1 0.15042941E+03</rscale>
<asrwt>0</asrwt>
<pdfrwt beam="1">  1       21 0.18076602E-01 0.15042941E+03</pdfrwt>
<pdfrwt beam="2">  1        2 0.51013535E-01 0.15042941E+03</pdfrwt>
<totfact> 0.33990048E+04</totfact>
</mgrwt>
</event>
<event>
 6    2  0.1181843E-002  0.1311705E+03  0.7546771E-02  0.1225729E+00
          2   -1    0    0  503    0 -0.00000000000E+00  0.00000000000E+00  0.17772400335E+04  0.17772400335E+04  0.00000000000E+00 0. -1.
         21   -1    0    0  502  503  0.00000000000E+00 -0.00000000000E+00 -0.41173855796E+01  0.41173855796E+01  0.00000000000E+00 0. -1.
         25    2    1    2    0    0  0.39663899878E+02  0.26019947805E+01  0.13266782722E+04  0.13331470043E+04  0.12500280693E+03 0.  0.
          5    1    3    3  501    0  0.27522930700E+02 -0.31804354320E+02  0.14684647613E+03  0.15275119057E+03  0.10000000000E+00 0.  1.
         -5    1    3    3    0  501  0.12140969179E+02  0.34406349101E+02  0.11798317961E+04  0.11803958137E+04  0.10000000000E+00 0.  1.
          2    1    1    2  502    0 -0.39663899878E+02 -0.26019947805E+01  0.44644437567E+03  0.44821041476E+03  0.00000000000E+00 0. -1.
<mgrwt>
<rscale>  1 0.13117049E+03</rscale>
<asrwt>0</asrwt>
<pdfrwt beam="1">  1       21 0.63344535E-03 0.13117049E+03</pdfrwt>
<pdfrwt beam="2">  1        2 0.27342093E+00 0.13117049E+03</pdfrwt>
<totfact> 0.95781637E+05</totfact>
</mgrwt>
</event>
<event>
 6    2  0.1181843E-002  0.1321191E+03  0.7546771E-02  0.1224345E+00
         21   -1    0    0  502  503  0.00000000000E+00  0.00000000000E+00  0.14443064463E+02  0.14443064463E+02  0.00000000000E+00 0.  1.
          1   -1    0    0  503    0 -0.00000000000E+00 -0.00000000000E+00 -0.59478730628E+03  0.59478730628E+03  0.00000000000E+00 0.  1.
         25    2    1    2    0    0  0.96464745398E+01 -0.41669674165E+02 -0.51059412203E+03  0.52741047447E+03  0.12500413959E+03 0.  0.
          5    1    3    3  501    0  0.50584485699E+02 -0.66513660358E+02 -0.34939967943E+03  0.35925339691E+03  0.10000000000E+00 0.  1.
         -5    1    3    3    0  501 -0.40938011159E+02  0.24843986193E+02 -0.16119444260E+03  0.16815707756E+03  0.10000000000E+00 0.  1.
          1    1    1    2  502    0 -0.96464745398E+01  0.41669674165E+02 -0.69750119793E+02  0.81819896280E+02  0.00000000000E+00 0.  1.
<mgrwt>
<rscale>  1 0.13211908E+03</rscale>
<asrwt>0</asrwt>
<pdfrwt beam="1">  1       21 0.22220106E-02 0.13211908E+03</pdfrwt>
<pdfrwt beam="2">  1        1 0.91505713E-01 0.13211908E+03</pdfrwt>
<totfact> 0.40211147E+05</totfact>
</mgrwt>
</event>
<event>
 6    2  0.1181843E-002  0.1266957E+03  0.7546771E-02  0.1232443E+00
         21   -1    0    0  502  503  0.00000000000E+00  0.00000000000E+00  0.21626539338E+03  0.21626539338E+03  0.00000000000E+00 0.  1.
          2   -1    0    0  503    0 -0.00000000000E+00 -0.00000000000E+00 -0.10891175393E+04  0.10891175393E+04  0.00000000000E+00 0. -1.
         25    2    1    2    0    0 -0.19791695117E+02  0.58234848835E+01  0.19760180499E+03  0.23473019477E+03  0.12500466723E+03 0.  0.
          5    1    3    3  501    0  0.18365687340E+01  0.82690418292E+01  0.20967074902E+03  0.20984180478E+03  0.10000000000E+00 0. -1.
         -5    1    3    3    0  501 -0.21628263851E+02 -0.24455569457E+01 -0.12068944038E+02  0.24888389988E+02  0.10000000000E+00 0. -1.
          2    1    1    2  502    0  0.19791695117E+02 -0.58234848835E+01 -0.10704539509E+04  0.10706527379E+04  0.00000000000E+00 0. -1.
<mgrwt>
<rscale>  1 0.12669566E+03</rscale>
<asrwt>0</asrwt>
<pdfrwt beam="1">  1       21 0.33271600E-01 0.12669566E+03</pdfrwt>
<pdfrwt beam="2">  1        2 0.16755654E+00 0.12669566E+03</pdfrwt>
<totfact> 0.26678467E+03</totfact>
</mgrwt>
</event>
<event>
 6    2  0.1181843E-002  0.1500217E+03  0.7546771E-02  0.1200446E+00
         21   -1    0    0  502  503  0.00000000000E+00  0.00000000000E+00  0.35571584662E+02  0.35571584662E+02  0.00000000000E+00 0.  1.
          2   -1    0    0  503    0 -0.00000000000E+00 -0.00000000000E+00 -0.22653100734E+04  0.22653100734E+04  0.00000000000E+00 0.  1.
         25    2    1    2    0    0 -0.23481959916E+01 -0.82920616156E+02 -0.12714643985E+03  0.19665385038E+03  0.12500070837E+03 0.  0.
          5    1    3    3  501    0 -0.55272425532E+02 -0.52486298089E+02 -0.29994304667E+02  0.81911664760E+02  0.10000000000E+00 0. -1.
         -5    1    3    3    0  501  0.52924229540E+02 -0.30434318067E+02 -0.97152135186E+02  0.11474218562E+03  0.10000000000E+00 0. -1.
          2    1    1    2  502    0  0.23481959916E+01  0.82920616156E+02 -0.21025920489E+04  0.21042278077E+04  0.00000000000E+00 0.  1.
<mgrwt>
<rscale>  1 0.15002173E+03</rscale>
<asrwt>0</asrwt>
<pdfrwt beam="1">  1       21 0.54725526E-02 0.15002173E+03</pdfrwt>
<pdfrwt beam="2">  1        2 0.34850917E+00 0.15002173E+03</pdfrwt>
<totfact> 0.16443570E+04</totfact>
</mgrwt>
</event>
<event>
 6    2  0.1181843E-002  0.1969750E+03  0.7546771E-02  0.1152317E+00
          2   -1    0    0  503    0 -0.00000000000E+00  0.00000000000E+00  0.85520704921E+03  0.85520704921E+03  0.00000000000E+00 0.  1.
         21   -1    0    0  502  503  0.00000000000E+00 -0.00000000000E+00 -0.53317569855E+02  0.53317569855E+02  0.00000000000E+00 0. -1.
         25    2    1    2    0    0  0.11962108663E+03 -0.94154633373E+02  0.17522231097E+03  0.26363234954E+03  0.12499943246E+03 0.  0.
          5    1    3    3  501    0  0.10748476379E+02 -0.30252368816E+02 -0.14916358389E+02  0.35401176690E+02  0.10000000000E+00 0. -1.
         -5    1    3    3    0  501  0.10887261025E+03 -0.63902264556E+02  0.19013866936E+03  0.22823117285E+03  0.10000000000E+00 0. -1.
          2    1    1    2  502    0 -0.11962108663E+03  0.94154633373E+02  0.62666716839E+03  0.64489226952E+03  0.00000000000E+00 0.  1.
<mgrwt>
<rscale>  1 0.19697502E+03</rscale>
<asrwt>0</asrwt>
<pdfrwt beam="1">  1       21 0.82027037E-02 0.19697502E+03</pdfrwt>
<pdfrwt beam="2">  1        2 0.13157031E+00 0.19697502E+03</pdfrwt>
<totfact> 0.47313348E+04</totfact>
</mgrwt>
</event>
<event>
 6    2  0.1181843E-002  0.1291118E+03  0.7546771E-02  0.1228780E+00
          1   -1    0    0  503    0 -0.00000000000E+00  0.00000000000E+00  0.33762056945E+02  0.33762056945E+02  0.00000000000E+00 0.  1.
         21   -1    0    0  502  503  0.00000000000E+00 -0.00000000000E+00 -0.24920225550E+04  0.24920225550E+04  0.00000000000E+00 0. -1.
         25    2    1    2    0    0  0.19093440022E+02 -0.26090020260E+02 -0.24822001891E+04  0.24855557987E+04  0.12499840482E+03 0.  0.
          5    1    3    3  501    0  0.72556859666E+02 -0.15690855381E+02 -0.13324740076E+04  0.13345402548E+04  0.10000000000E+00 0. -1.
         -5    1    3    3    0  501 -0.53463419644E+02 -0.10399164880E+02 -0.11497261815E+04  0.11510155439E+04  0.10000000000E+00 0. -1.
          1    1    1    2  502    0 -0.19093440022E+02  0.26090020260E+02  0.23939691018E+02  0.40228813245E+02  0.00000000000E+00 0.  1.
<mgrwt>
<rscale>  1 0.12911177E+03</rscale>
<asrwt>0</asrwt>
<pdfrwt beam="1">  1       21 0.38338814E+00 0.12911177E+03</pdfrwt>
<pdfrwt beam="2">  1        1 0.51941618E-02 0.12911177E+03</pdfrwt>
<totfact> 0.20134792E+02</totfact>
</mgrwt>
</event>
<event>
 6    2  0.1181843E-002  0.1505709E+03  0.7546771E-02  0.1199773E+00
          2   -1    0    0  503    0 -0.00000000000E+00  0.00000000000E+00  0.31234737157E+04  0.31234737157E+04  0.00000000000E+00 0.  1.
         21   -1    0    0  502  503  0.00000000000E+00 -0.00000000000E+00 -0.53550535473E+01  0.53550535473E+01  0.00000000000E+00 0.  1.
         25    2    1    2    0    0 -0.63527602317E+02 -0.54865794499E+02  0.25609447322E+04  0.25653673244E+04  0.12500230324E+03 0.  0.
          5    1    3    3  501    0 -0.84793717099E+02 -0.24576139004E+02  0.97445577767E+03  0.97844674546E+03  0.10000000000E+00 0.  1.
         -5    1    3    3    0  501  0.21266114782E+02 -0.30289655495E+02  0.15864889545E+04  0.15869205789E+04  0.10000000000E+00 0.  1.
          2    1    1    2  502    0  0.63527602317E+02  0.54865794499E+02  0.55717392989E+03  0.56346144483E+03  0.00000000000E+00 0.  1.
<mgrwt>
<rscale>  1 0.15057087E+03</rscale>
<asrwt>0</asrwt>
<pdfrwt beam="1">  1       21 0.82385689E-03 0.15057087E+03</pdfrwt>
<pdfrwt beam="2">  1        2 0.48053296E+00 0.15057087E+03</pdfrwt>
<totfact> 0.11971007E+05</totfact>
</mgrwt>
</event>
<event>
 6    2  0.1181843E-002  0.1283134E+03  0.7546771E-02  0.1229980E+00
          2   -1    0    0  503    0 -0.00000000000E+00  0.00000000000E+00  0.32728905556E+03  0.32728905556E+03  0.00000000000E+00 0.  1.
         21   -1    0    0  502  503  0.00000000000E+00 -0.00000000000E+00 -0.75219604987E+02  0.75219604987E+02  0.00000000000E+00 0.  1.
         25    2    1    2    0    0  0.10122460292E+02 -0.27148139947E+02 -0.19160065849E+02  0.12973597811E+03  0.12499932075E+03 0.  0.
          5    1    3    3  501    0 -0.25636507792E+02 -0.21961413398E+02  0.44908178336E+02  0.56180856986E+02  0.10000000000E+00 0. -1.
         -5    1    3    3    0  501  0.35758968084E+02 -0.51867265491E+01 -0.64068244185E+02  0.73555121125E+02  0.10000000000E+00 0. -1.
          2    1    1    2  502    0 -0.10122460292E+02  0.27148139947E+02  0.27122951642E+03  0.27277268243E+03  0.00000000000E+00 0.  1.
<mgrwt>
<rscale>  1 0.12831335E+03</rscale>
<asrwt>0</asrwt>
<pdfrwt beam="1">  1       21 0.11572247E-01 0.12831335E+03</pdfrwt>
<pdfrwt beam="2">  1        2 0.50352162E-01 0.12831335E+03</pdfrwt>
<totfact> 0.76822388E+04</totfact>
</mgrwt>
</event>
<event>
 6    2  0.1181843E-002  0.1339244E+03  0.7546771E-02  0.1221746E+00
         21   -1    0    0  502  503  0.00000000000E+00  0.00000000000E+00  0.66630630142E+03  0.66630630142E+03  0.00000000000E+00 0.  1.
          2   -1    0    0  503    0 -0.00000000000E+00 -0.00000000000E+00 -0.19851421804E+02  0.19851421804E+02  0.00000000000E+00 0.  1.
         25    2    1    2    0    0  0.26987799862E+02 -0.39819638578E+02  0.61325883774E+03  0.62771183240E+03  0.12498718939E+03 0.  0.
          5    1    3    3  501    0  0.20023527370E+02  0.44753587646E+02  0.21761027601E+03  0.22306516421E+03  0.10000000000E+00 0. -1.
         -5    1    3    3    0  501  0.69642724927E+01 -0.84573226224E+02  0.39564856172E+03  0.40464666819E+03  0.10000000000E+00 0. -1.
          2    1    1    2  502    0 -0.26987799862E+02  0.39819638578E+02  0.33196041878E+02  0.58445890824E+02  0.00000000000E+00 0.  1.
<mgrwt>
<rscale>  1 0.13392439E+03</rscale>
<asrwt>0</asrwt>
<pdfrwt beam="1">  1       21 0.10250864E+00 0.13392439E+03</pdfrwt>
<pdfrwt beam="2">  1        2 0.30540654E-02 0.13392439E+03</pdfrwt>
<totfact> 0.28238156E+04</totfact>
</mgrwt>
</event>
<event>
 6    2  0.1181843E-002  0.1351909E+03  0.7546771E-02  0.1219950E+00
          2   -1    0    0  503    0 -0.00000000000E+00  0.00000000000E+00  0.48048306087E+02  0.48048306087E+02  0.00000000000E+00 0. -1.
         21   -1    0    0  502  503  0.00000000000E+00 -0.00000000000E+00 -0.25072759049E+03  0.25072759049E+03  0.00000000000E+00 0. -1.
         25    2    1    2    0    0 -0.64628748397E+01 -0.51083130953E+02 -0.20685718257E+03  0.24711633936E+03  0.12500134470E+03 0.  0.
          5    1    3    3  501    0 -0.14176693171E+02 -0.38500544926E+02 -0.13190762945E+01  0.41049001829E+02  0.10000000000E+00 0.  1.
         -5    1    3    3    0  501  0.77138183313E+01 -0.12582586026E+02 -0.20553810628E+03  0.20606733753E+03  0.10000000000E+00 0.  1.
          2    1    1    2  502    0  0.64628748397E+01  0.51083130953E+02  0.41778981661E+01  0.51659557221E+02  0.00000000000E+00 0. -1.
<mgrwt>
<rscale>  1 0.13519094E+03</rscale>
<asrwt>0</asrwt>
<pdfrwt beam="1">  1       21 0.38573474E-01 0.13519094E+03</pdfrwt>
<pdfrwt beam="2">  1        2 0.73920473E-02 0.13519094E+03</pdfrwt>
<totfact> 0.72895999E+04</totfact>
</mgrwt>
</event>
<event>
 6    2  0.1181843E-002  0.1282789E+03  0.7546771E-02  0.1230032E+00
          4   -1    0    0  503    0 -0.00000000000E+00  0.00000000000E+00  0.19216989383E+03  0.19216989383E+03  0.00000000000E+00 0. -1.
         21   -1    0    0  502  503  0.00000000000E+00 -0.00000000000E+00 -0.37394284068E+02  0.37394284068E+02  0.00000000000E+00 0. -1.
         25    2    1    2    0    0  0.24313560390E+02  0.15430929750E+02  0.84477800483E+02  0.15359678488E+03  0.12500484287E+03 0.  0.
          5    1    3    3  501    0  0.31656910802E+02  0.29035817810E+02  0.11314574424E+03  0.12102565083E+03  0.10000000000E+00 0. -1.
         -5    1    3    3    0  501 -0.73433504128E+01 -0.13604888060E+02 -0.28667943760E+02  0.32571134058E+02  0.10000000000E+00 0. -1.
          4    1    1    2  502    0 -0.24313560390E+02 -0.15430929750E+02  0.70297809275E+02  0.75967393009E+02  0.00000000000E+00 0. -1.
<mgrwt>
<rscale>  1 0.12827889E+03</rscale>
<asrwt>0</asrwt>
<pdfrwt beam="1">  1       21 0.57529669E-02 0.12827889E+03</pdfrwt>
<pdfrwt beam="2">  1        4 0.29564598E-01 0.12827889E+03</pdfrwt>
<totfact> 0.92454189E+04</totfact>
</mgrwt>
</event>
<event>
 6    2  0.1181843E-002  0.1786514E+03  0.7546771E-02  0.1169115E+00
         21   -1    0    0  502  503  0.00000000000E+00  0.00000000000E+00  0.36382063652E+02  0.36382063652E+02  0.00000000000E+00 0.  1.
          2   -1    0    0  503    0 -0.00000000000E+00 -0.00000000000E+00 -0.19966731351E+04  0.19966731351E+04  0.00000000000E+00 0. -1.
         25    2    1    2    0    0  0.71885971495E+02 -0.10546901254E+03 -0.20011693746E+03  0.26825937842E+03  0.12499999979E+03 0.  0.
          5    1    3    3  501    0 -0.35507766650E+02 -0.18287031696E+02 -0.37728243672E+02  0.54942218660E+02  0.10000000000E+00 0.  1.
         -5    1    3    3    0  501  0.10739373814E+03 -0.87181980844E+02 -0.16238869378E+03  0.21331715975E+03  0.10000000000E+00 0.  1.
          2    1    1    2  502    0 -0.71885971495E+02  0.10546901254E+03 -0.17601741340E+04  0.17647958204E+04  0.00000000000E+00 0. -1.
<mgrwt>
<rscale>  1 0.17865135E+03</rscale>
<asrwt>0</asrwt>
<pdfrwt beam="1">  1       21 0.55972403E-02 0.17865135E+03</pdfrwt>
<pdfrwt beam="2">  1        2 0.30718049E+00 0.17865135E+03</pdfrwt>
<totfact> 0.21581235E+04</totfact>
</mgrwt>
</event>
<event>
 6    2  0.1181843E-002  0.1493226E+03  0.7546771E-02  0.1201308E+00
          2   -1    0    0  503    0 -0.00000000000E+00  0.00000000000E+00  0.12543888183E+04  0.12543888183E+04  0.00000000000E+00 0.  1.
         21   -1    0    0  502  503  0.00000000000E+00 -0.00000000000E+00 -0.28232741534E+02  0.28232741534E+02  0.00000000000E+00 0.  1.
         25    2    1    2    0    0  0.29856867979E+02  0.76020501463E+02  0.18263164466E+03  0.23590584408E+03  0.12500680154E+03 0.  0.
          5    1    3    3  501    0  0.66104741099E+02  0.66028981905E+02  0.17373912374E+03  0.19726874148E+03  0.10000000000E+00 0.  1.
         -5    1    3    3    0  501 -0.36247873120E+02  0.99915195581E+01  0.88925209194E+01  0.38637102597E+02  0.10000000000E+00 0.  1.
          2    1    1    2  502    0 -0.29856867979E+02 -0.76020501463E+02  0.10435244321E+04  0.10467157158E+04  0.00000000000E+00 0.  1.
<mgrwt>
<rscale>  1 0.14932264E+03</rscale>
<asrwt>0</asrwt>
<pdfrwt beam="1">  1       21 0.43434997E-02 0.14932264E+03</pdfrwt>
<pdfrwt beam="2">  1        2 0.19298285E+00 0.14932264E+03</pdfrwt>
<totfact> 0.81481782E+04</totfact>
</mgrwt>
</event>
<event>
 6    2  0.1181843E-002  0.1334561E+03  0.7546771E-02  0.1222416E+00
          3   -1    0    0  503    0 -0.00000000000E+00  0.00000000000E+00  0.16306750521E+02  0.16306750521E+02  0.00000000000E+00 0.  1.
         21   -1    0    0  502  503  0.00000000000E+00 -0.00000000000E+00 -0.52257343690E+03  0.52257343690E+03  0.00000000000E+00 0.  1.
         25    2    1    2    0    0  0.42517843367E+02  0.19408471436E+02 -0.42096957884E+03  0.44161738712E+03  0.12500429804E+03 0.  0.
          5    1    3    3  501    0  0.25259625952E+01 -0.46116662818E+02 -0.24963699455E+03  0.25387352387E+03  0.10000000000E+00 0.  1.
         -5    1    3    3    0  501  0.39991880772E+02  0.65525134254E+02 -0.17133258430E+03  0.18774386325E+03  0.10000000000E+00 0.  1.
          3    1    1    2  502    0 -0.42517843367E+02 -0.19408471436E+02 -0.85297107532E+02  0.97262800296E+02  0.00000000000E+00 0.  1.
<mgrwt>
<rscale>  1 0.13345610E+03</rscale>
<asrwt>0</asrwt>
<pdfrwt beam="1">  1       21 0.80395916E-01 0.13345610E+03</pdfrwt>
<pdfrwt beam="2">  1        3 0.25087308E-02 0.13345610E+03</pdfrwt>
<totfact> 0.43950564E+04</totfact>
</mgrwt>
</event>
<event>
 6    2  0.1181843E-002  0.1265919E+03  0.7546771E-02  0.1232602E+00
          2   -1    0    0  503    0 -0.00000000000E+00  0.00000000000E+00  0.83769319486E+03  0.83769319486E+03  0.00000000000E+00 0. -1.
         21   -1    0    0  502  503  0.00000000000E+00 -0.00000000000E+00 -0.13187717107E+03  0.13187717107E+03  0.00000000000E+00 0. -1.
         25    2    1    2    0    0  0.14876030175E+02 -0.13408281491E+02 -0.10134471633E+03  0.16216121396E+03  0.12499771797E+03 0.  0.
          5    1    3    3  501    0 -0.25496386252E+02  0.29787069963E+02 -0.94906181048E+02  0.10268655438E+03  0.10000000000E+00 0. -1.
         -5    1    3    3    0  501  0.40372416427E+02 -0.43195351453E+02 -0.64385352860E+01  0.59474659579E+02  0.10000000000E+00 0. -1.
          2    1    1    2  502    0 -0.14876030175E+02  0.13408281491E+02  0.80716074012E+03  0.80740915197E+03  0.00000000000E+00 0. -1.
<mgrwt>
<rscale>  1 0.12659189E+03</rscale>
<asrwt>0</asrwt>
<pdfrwt beam="1">  1       21 0.20288796E-01 0.12659189E+03</pdfrwt>
<pdfrwt beam="2">  1        2 0.12887587E+00 0.12659189E+03</pdfrwt>
<totfact> 0.97064338E+03</totfact>
</mgrwt>
</event>
<event>
 6    2  0.1181843E-002  0.1260298E+03  0.7546771E-02  0.1233469E+00
         21   -1    0    0  502  503  0.00000000000E+00  0.00000000000E+00  0.30570727056E+02  0.30570727056E+02  0.00000000000E+00 0. -1.
          1   -1    0    0  503    0 -0.00000000000E+00 -0.00000000000E+00 -0.28406830508E+03  0.28406830508E+03  0.00000000000E+00 0. -1.
         25    2    1    2    0    0  0.36337509947E+01 -0.15681125492E+02 -0.10157811293E+03  0.16186918656E+03  0.12499767473E+03 0.  0.
          5    1    3    3  501    0 -0.27893774327E+02  0.73215857046E+01 -0.11655289101E+03  0.12006770867E+03  0.10000000000E+00 0. -1.
         -5    1    3    3    0  501  0.31527525322E+02 -0.23002711197E+02  0.14974778076E+02  0.41801477889E+02  0.10000000000E+00 0. -1.
          1    1    1    2  502    0 -0.36337509947E+01  0.15681125492E+02 -0.15191946510E+03  0.15276984558E+03  0.00000000000E+00 0. -1.
<mgrwt>
<rscale>  1 0.12602984E+03</rscale>
<asrwt>0</asrwt>
<pdfrwt beam="1">  1       21 0.47031888E-02 0.12602984E+03</pdfrwt>
<pdfrwt beam="2">  1        1 0.43702816E-01 0.12602984E+03</pdfrwt>
<totfact> 0.29910132E+05</totfact>
</mgrwt>
</event>
<event>
 6    2  0.1181843E-002  0.1318280E+03  0.7546771E-02  0.1224768E+00
         21   -1    0    0  502  503  0.00000000000E+00  0.00000000000E+00  0.58075479894E+01  0.58075479894E+01  0.00000000000E+00 0.  1.
          1   -1    0    0  503    0 -0.00000000000E+00 -0.00000000000E+00 -0.27182590349E+04  0.27182590349E+04  0.00000000000E+00 0.  1.
         25    2    1    2    0    0  0.35251359732E+02  0.22612818090E+02 -0.77282085397E+03  0.78398385523E+03  0.12499846012E+03 0.  0.
          5    1    3    3  501    0  0.15228489605E+00  0.53072562039E+02 -0.65768043385E+03  0.65981837130E+03  0.10000000000E+00 0. -1.
         -5    1    3    3    0  501  0.35099074836E+02 -0.30459743949E+02 -0.11514042011E+03  0.12416548393E+03  0.10000000000E+00 0. -1.
          1    1    1    2  502    0 -0.35251359732E+02 -0.22612818090E+02 -0.19396306329E+04  0.19400827277E+04  0.00000000000E+00 0.  1.
<mgrwt>
<rscale>  1 0.13182797E+03</rscale>
<asrwt>0</asrwt>
<pdfrwt beam="1">  1       21 0.89346613E-03 0.13182797E+03</pdfrwt>
<pdfrwt beam="2">  1        1 0.41819500E+00 0.13182797E+03</pdfrwt>
<totfact> 0.59557859E+04</totfact>
</mgrwt>
</event>
<event>
 6    2  0.1181843E-002  0.1821063E+03  0.7546771E-02  0.1165780E+00
          2   -1    0    0  503    0 -0.00000000000E+00  0.00000000000E+00  0.10159748521E+04  0.10159748521E+04  0.00000000000E+00 0. -1.
         21   -1    0    0  502  503  0.00000000000E+00 -0.00000000000E+00 -0.24973129471E+02  0.24973129471E+02  0.00000000000E+00 0. -1.
         25    2    1    2    0    0  0.12577671952E+03 -0.41445652105E+02  0.65337036089E+03  0.67827393827E+03  0.12500072640E+03 0.  0.
          5    1    3    3  501    0  0.91793822607E+02 -0.52810258135E+02  0.62106232382E+03  0.63002654651E+03  0.10000000000E+00 0. -1.
         -5    1    3    3    0  501  0.33982896916E+02  0.11364606030E+02  0.32308037063E+02  0.48247391763E+02  0.10000000000E+00 0. -1.
          2    1    1    2  502    0 -0.12577671952E+03  0.41445652105E+02  0.33763136176E+03  0.36267404332E+03  0.00000000000E+00 0. -1.
<mgrwt>
<rscale>  1 0.18210631E+03</rscale>
<asrwt>0</asrwt>
<pdfrwt beam="1">  1       21 0.38420207E-02 0.18210631E+03</pdfrwt>
<pdfrwt beam="2">  1        2 0.15630379E+00 0.18210631E+03</pdfrwt>
<totfact> 0.13686647E+05</totfact>
</mgrwt>
</event>
<event>
 6    2  0.1181843E-002  0.1278358E+03  0.7546771E-02  0.1230703E+00
          2   -1    0    0  503    0 -0.00000000000E+00  0.00000000000E+00  0.64239599796E+03  0.64239599796E+03  0.00000000000E+00 0.  1.
         21   -1    0    0  502  503  0.00000000000E+00 -0.00000000000E+00 -0.85134727114E+02  0.85134727114E+02  0.00000000000E+00 0. -1.
         25    2    1    2    0    0  0.13710072521E+02  0.23030226654E+02 -0.36672945490E+02  0.13299207136E+03  0.12499451462E+03 0.  0.
          5    1    3    3  501    0 -0.33720995607E+02 -0.17111269098E+02 -0.56307289632E+02  0.67826410347E+02  0.10000000000E+00 0. -1.
         -5    1    3    3    0  501  0.47431068128E+02  0.40141495752E+02  0.19634344142E+02  0.65165661010E+02  0.10000000000E+00 0. -1.
          2    1    1    2  502    0 -0.13710072521E+02 -0.23030226654E+02  0.59393421634E+03  0.59453865372E+03  0.00000000000E+00 0.  1.
<mgrwt>
<rscale>  1 0.12783578E+03</rscale>
<asrwt>0</asrwt>
<pdfrwt beam="1">  1       21 0.13097651E-01 0.12783578E+03</pdfrwt>
<pdfrwt beam="2">  1        2 0.98830150E-01 0.12783578E+03</pdfrwt>
<totfact> 0.29566219E+04</totfact>
</mgrwt>
</event>
<event>
 6    2  0.1181843E-002  0.1308050E+03  0.7546771E-02  0.1226266E+00
         21   -1    0    0  502  503  0.00000000000E+00  0.00000000000E+00  0.93776663911E+02  0.93776663911E+02  0.00000000000E+00 0.  1.
          2   -1    0    0  503    0 -0.00000000000E+00 -0.00000000000E+00 -0.19483218195E+03  0.19483218195E+03  0.00000000000E+00 0.  1.
         25    2    1    2    0    0 -0.36327066703E+02 -0.12875988196E+02  0.44398925336E+02  0.13813478848E+03  0.12499803346E+03 0.  0.
          5    1    3    3  501    0 -0.48697713803E+02  0.47849878528E+02  0.29638947046E+02  0.74428189463E+02  0.10000000000E+00 0. -1.
         -5    1    3    3    0  501  0.12370647100E+02 -0.60725866724E+02  0.14759978291E+02  0.63706599016E+02  0.10000000000E+00 0. -1.
          2    1    1    2  502    0  0.36327066703E+02  0.12875988196E+02 -0.14545444338E+03  0.15047405738E+03  0.00000000000E+00 0.  1.
<mgrwt>
<rscale>  1 0.13080503E+03</rscale>
<asrwt>0</asrwt>
<pdfrwt beam="1">  1       21 0.14427179E-01 0.13080503E+03</pdfrwt>
<pdfrwt beam="2">  1        2 0.29974182E-01 0.13080503E+03</pdfrwt>
<totfact> 0.90170439E+04</totfact>
</mgrwt>
</event>
<event>
 6    2  0.1181843E-002  0.1312290E+03  0.7546771E-02  0.1225643E+00
         21   -1    0    0  502  503  0.00000000000E+00  0.00000000000E+00  0.27773692597E+03  0.27773692597E+03  0.00000000000E+00 0. -1.
          2   -1    0    0  503    0 -0.00000000000E+00 -0.00000000000E+00 -0.52778338681E+02  0.52778338681E+02  0.00000000000E+00 0. -1.
         25    2    1    2    0    0  0.39708308970E+02  0.43389904883E+01  0.25071793046E+03  0.28298505951E+03  0.12500194645E+03 0.  0.
          5    1    3    3  501    0 -0.40372395111E+02 -0.17566903887E+02  0.55478499131E+02  0.70826550565E+02  0.10000000000E+00 0.  1.
         -5    1    3    3    0  501  0.80080704081E+02  0.21905894375E+02  0.19523943133E+03  0.21215850895E+03  0.10000000000E+00 0.  1.
          2    1    1    2  502    0 -0.39708308970E+02 -0.43389904883E+01 -0.25759343169E+02  0.47530205136E+02  0.00000000000E+00 0. -1.
<mgrwt>
<rscale>  1 0.13122905E+03</rscale>
<asrwt>0</asrwt>
<pdfrwt beam="1">  1       21 0.42728757E-01 0.13122905E+03</pdfrwt>
<pdfrwt beam="2">  1        2 0.81197446E-02 0.13122905E+03</pdfrwt>
<totfact> 0.52720162E+04</totfact>
</mgrwt>
</event>
<event>
 6    2  0.1181843E-002  0.1363396E+03  0.7546771E-02  0.1218341E+00
         21   -1    0    0  502  503  0.00000000000E+00  0.00000000000E+00  0.15689214453E+02  0.15689214453E+02  0.00000000000E+00 0.  1.
          2   -1    0    0  503    0 -0.00000000000E+00 -0.00000000000E+00 -0.18296165215E+04  0.18296165215E+04  0.00000000000E+00 0.  1.
         25    2    1    2    0    0 -0.25507533851E+02 -0.48075881182E+02 -0.29046182822E+03  0.32086846607E+03  0.12500629676E+03 0.  0.
          5    1    3    3  501    0 -0.55093727480E+02 -0.38018077666E+01 -0.24408473939E+03  0.25025415592E+03  0.10000000000E+00 0.  1.
         -5    1    3    3    0  501  0.29586193629E+02 -0.44274073416E+02 -0.46377088834E+02  0.70614310157E+02  0.10000000000E+00 0.  1.
          2    1    1    2  502    0  0.25507533851E+02  0.48075881182E+02 -0.15234654789E+04  0.15244372699E+04  0.00000000000E+00 0.  1.
<mgrwt>
<rscale>  1 0.13633965E+03</rscale>
<asrwt>0</asrwt>
<pdfrwt beam="1">  1       21 0.24137246E-02 0.13633965E+03</pdfrwt>
<pdfrwt beam="2">  1        2 0.28147955E+00 0.13633965E+03</pdfrwt>
<totfact> 0.10755713E+05</totfact>
</mgrwt>
</event>
<event>
 6    2  0.1181843E-002  0.1298847E+03  0.7546771E-02  0.1227627E+00
         21   -1    0    0  502  503  0.00000000000E+00  0.00000000000E+00  0.10264358369E+03  0.10264358369E+03  0.00000000000E+00 0.  1.
          2   -1    0    0  503    0 -0.00000000000E+00 -0.00000000000E+00 -0.72128544071E+02  0.72128544071E+02  0.00000000000E+00 0.  1.
         25    2    1    2    0    0 -0.35176689615E+02  0.28209037775E+01  0.43790568589E+02  0.13706806088E+03  0.12499872970E+03 0.  0.
          5    1    3    3  501    0 -0.40512583118E+01 -0.19804967259E+01 -0.43777274356E+02  0.44009031019E+02  0.10000000000E+00 0.  1.
         -5    1    3    3    0  501 -0.31125431303E+02  0.48014005034E+01  0.87567842945E+02  0.93059029861E+02  0.10000000000E+00 0.  1.
          2    1    1    2  502    0  0.35176689615E+02 -0.28209037775E+01 -0.13275528966E+02  0.37704066885E+02  0.00000000000E+00 0.  1.
<mgrwt>
<rscale>  1 0.12988472E+03</rscale>
<asrwt>0</asrwt>
<pdfrwt beam="1">  1       21 0.15791321E-01 0.12988472E+03</pdfrwt>
<pdfrwt beam="2">  1        2 0.11096699E-01 0.12988472E+03</pdfrwt>
<totfact> 0.23856844E+05</totfact>
</mgrwt>
</event>
<event>
 6    2  0.1181843E-002  0.1267511E+03  0.7546771E-02  0.1232358E+00
          2   -1    0    0  503    0 -0.00000000000E+00  0.00000000000E+00  0.17977962061E+04  0.17977962061E+04  0.00000000000E+00 0. -1.
         21   -1    0    0  502  503  0.00000000000E+00 -0.00000000000E+00 -0.14557469788E+02  0.14557469788E+02  0.00000000000E+00 0.  1.
         25    2    1    2    0    0 -0.11519723291E+02 -0.17529570601E+02  0.26279667003E+03  0.29176692506E+03  0.12500343560E+03 0.  0.
          5    1    3    3  501    0  0.47664306073E+02  0.77087999682E+00  0.19137125335E+03  0.19721928642E+03  0.10000000000E+00 0.  1.
         -5    1    3    3    0  501 -0.59184029364E+02 -0.18300450598E+02  0.71425416681E+02  0.94547638637E+02  0.10000000000E+00 0.  1.
          2    1    1    2  502    0  0.11519723291E+02  0.17529570601E+02  0.15204420663E+04  0.15205867508E+04  0.00000000000E+00 0. -1.
<mgrwt>
<rscale>  1 0.12675113E+03</rscale>
<asrwt>0</asrwt>
<pdfrwt beam="1">  1       21 0.22396122E-02 0.12675113E+03</pdfrwt>
<pdfrwt beam="2">  1        2 0.27658386E+00 0.12675113E+03</pdfrwt>
<totfact> 0.12615499E+05</totfact>
</mgrwt>
</event>
<event>
 6    2  0.1181843E-002  0.2200277E+03  0.7546771E-02  0.1133862E+00
          2   -1    0    0  503    0 -0.00000000000E+00  0.00000000000E+00  0.11493729321E+04  0.11493729321E+04  0.00000000000E+00 0.  1.
         21   -1    0    0  502  503  0.00000000000E+00 -0.00000000000E+00 -0.35783970984E+02  0.35783970984E+02  0.00000000000E+00 0. -1.
         25    2    1    2    0    0  0.12721328956E+03 -0.12885901171E+03  0.52201298447E+03  0.56648897755E+03  0.12499735914E+03 0.  0.
          5    1    3    3  501    0  0.33478554425E+02  0.13893520427E+02  0.34941447895E+02  0.50346383160E+02  0.10000000000E+00 0.  1.
         -5    1    3    3    0  501  0.93734735133E+02 -0.14275253214E+03  0.48707153658E+03  0.51614259439E+03  0.10000000000E+00 0.  1.
          2    1    1    2  502    0 -0.12721328956E+03  0.12885901171E+03  0.59157597660E+03  0.61866792549E+03  0.00000000000E+00 0.  1.
<mgrwt>
<rscale>  1 0.22002774E+03</rscale>
<asrwt>0</asrwt>
<pdfrwt beam="1">  1       21 0.55052272E-02 0.22002774E+03</pdfrwt>
<pdfrwt beam="2">  1        2 0.17682658E+00 0.22002774E+03</pdfrwt>
<totfact> 0.62104691E+04</totfact>
</mgrwt>
</event>
<event>
 6    2  0.1181843E-002  0.1596562E+03  0.7546771E-02  0.1189085E+00
         21   -1    0    0  502  503  0.00000000000E+00  0.00000000000E+00  0.10881289686E+03  0.10881289686E+03  0.00000000000E+00 0. -1.
          2   -1    0    0  503    0 -0.00000000000E+00 -0.00000000000E+00 -0.10324199499E+04  0.10324199499E+04  0.00000000000E+00 0. -1.
         25    2    1    2    0    0  0.28289944949E+02 -0.95209229134E+02  0.46315160375E+02  0.16623837582E+03  0.12499994087E+03 0.  0.
          5    1    3    3  501    0 -0.87797886747E+01 -0.10868767220E+03  0.50572511097E+01  0.10915896924E+03  0.10000000000E+00 0.  1.
         -5    1    3    3    0  501  0.37069733623E+02  0.13478443063E+02  0.41257909266E+02  0.57079406578E+02  0.10000000000E+00 0.  1.
          2    1    1    2  502    0 -0.28289944949E+02  0.95209229134E+02 -0.96992221342E+03  0.97499447095E+03  0.00000000000E+00 0. -1.
<mgrwt>
<rscale>  1 0.15965620E+03</rscale>
<asrwt>0</asrwt>
<pdfrwt beam="1">  1       21 0.16740446E-01 0.15965620E+03</pdfrwt>
<pdfrwt beam="2">  1        2 0.15883384E+00 0.15965620E+03</pdfrwt>
<totfact> 0.10353862E+04</totfact>
</mgrwt>
</event>
<event>
 6    2  0.1181843E-002  0.1312130E+03  0.7546771E-02  0.1225667E+00
          3   -1    0    0  503    0 -0.00000000000E+00  0.00000000000E+00  0.27292491992E+02  0.27292491992E+02  0.00000000000E+00 0. -1.
         21   -1    0    0  502  503  0.00000000000E+00 -0.00000000000E+00 -0.44808629747E+03  0.44808629747E+03  0.00000000000E+00 0.  1.
         25    2    1    2    0    0  0.92571481089E+01 -0.38809830830E+02 -0.41476768831E+03  0.43502768231E+03  0.12499980542E+03 0.  0.
          5    1    3    3  501    0 -0.12298724444E+02  0.24663994806E+02 -0.30616311043E+03  0.30740109215E+03  0.10000000000E+00 0. -1.
         -5    1    3    3    0  501  0.21555872553E+02 -0.63473825636E+02 -0.10860457787E+03  0.12762659017E+03  0.10000000000E+00 0. -1.
          3    1    1    2  502    0 -0.92571481089E+01  0.38809830830E+02 -0.60261171736E+01  0.40351107152E+02  0.00000000000E+00 0. -1.
<mgrwt>
<rscale>  1 0.13121299E+03</rscale>
<asrwt>0</asrwt>
<pdfrwt beam="1">  1       21 0.68936350E-01 0.13121299E+03</pdfrwt>
<pdfrwt beam="2">  1        3 0.41988451E-02 0.13121299E+03</pdfrwt>
<totfact> 0.27740099E+04</totfact>
</mgrwt>
</event>
<event>
 6    2  0.1181843E-002  0.1333212E+03  0.7546771E-02  0.1222609E+00
         21   -1    0    0  502  503  0.00000000000E+00  0.00000000000E+00  0.56379493621E+01  0.56379493621E+01  0.00000000000E+00 0. -1.
          1   -1    0    0  503    0 -0.00000000000E+00 -0.00000000000E+00 -0.15543186325E+04  0.15543186325E+04  0.00000000000E+00 0. -1.
         25    2    1    2    0    0 -0.39944173823E+02  0.23590993841E+02 -0.92573662780E+03  0.93528757504E+03  0.12498988738E+03 0.  0.
          5    1    3    3  501    0 -0.48652246336E+02  0.12887223563E+02 -0.91817344814E+03  0.91955185416E+03  0.10000000000E+00 0. -1.
         -5    1    3    3    0  501  0.87080725126E+01  0.10703770278E+02 -0.75631796596E+01  0.15735720880E+02  0.10000000000E+00 0. -1.
          1    1    1    2  502    0  0.39944173823E+02 -0.23590993841E+02 -0.62294405531E+03  0.62466900681E+03  0.00000000000E+00 0. -1.
<mgrwt>
<rscale>  1 0.13332121E+03</rscale>
<asrwt>0</asrwt>
<pdfrwt beam="1">  1       21 0.86737627E-03 0.13332121E+03</pdfrwt>
<pdfrwt beam="2">  1        1 0.23912610E+00 0.13332121E+03</pdfrwt>
<totfact> 0.34961558E+05</totfact>
</mgrwt>
</event>
<event>
 6    2  0.1181843E-002  0.1355077E+03  0.7546771E-02  0.1219505E+00
          2   -1    0    0  503    0 -0.00000000000E+00  0.00000000000E+00  0.14459533574E+04  0.14459533574E+04  0.00000000000E+00 0.  1.
         21   -1    0    0  502  503  0.00000000000E+00 -0.00000000000E+00 -0.18227473506E+02  0.18227473506E+02  0.00000000000E+00 0. -1.
         25    2    1    2    0    0  0.44670178404E+02  0.27308108341E+02  0.24244621825E+03  0.27774539507E+03  0.12498471154E+03 0.  0.
          5    1    3    3  501    0  0.71672544367E+02  0.45048451727E+02  0.96960877017E+02  0.12871572667E+03  0.10000000000E+00 0.  1.
         -5    1    3    3    0  501 -0.27002365963E+02 -0.17740343385E+02  0.14548534123E+03  0.14902966840E+03  0.10000000000E+00 0.  1.
          2    1    1    2  502    0 -0.44670178404E+02 -0.27308108341E+02  0.11852796656E+04  0.11864354358E+04  0.00000000000E+00 0.  1.
<mgrwt>
<rscale>  1 0.13550770E+03</rscale>
<asrwt>0</asrwt>
<pdfrwt beam="1">  1       21 0.28042278E-02 0.13550770E+03</pdfrwt>
<pdfrwt beam="2">  1        2 0.22245427E+00 0.13550770E+03</pdfrwt>
<totfact> 0.13275570E+05</totfact>
</mgrwt>
</event>
<event>
 6    2  0.1181843E-002  0.1261656E+03  0.7546771E-02  0.1233259E+00
         21   -1    0    0  502  503  0.00000000000E+00  0.00000000000E+00  0.52412353372E+03  0.52412353372E+03  0.00000000000E+00 0.  1.
          4   -1    0    0  503    0 -0.00000000000E+00 -0.00000000000E+00 -0.15625698138E+03  0.15625698138E+03  0.00000000000E+00 0.  1.
         25    2    1    2    0    0 -0.12501571093E+02 -0.10909634271E+02  0.51606126310E+03  0.53125982005E+03  0.12506981940E+03 0.  0.
          5    1    3    3  501    0  0.11384041700E+02  0.49633722805E+02  0.33516438320E+03  0.33901073229E+03  0.10000000000E+00 0. -1.
         -5    1    3    3    0  501 -0.23885612792E+02 -0.60543357076E+02  0.18089687990E+03  0.19224908775E+03  0.10000000000E+00 0. -1.
          4    1    1    2  502    0  0.12501571093E+02  0.10909634271E+02 -0.14819471076E+03  0.14912069506E+03  0.00000000000E+00 0.  1.
<mgrwt>
<rscale>  1 0.12616564E+03</rscale>
<asrwt>0</asrwt>
<pdfrwt beam="1">  1       21 0.80634389E-01 0.12616564E+03</pdfrwt>
<pdfrwt beam="2">  1        4 0.24039536E-01 0.12616564E+03</pdfrwt>
<totfact> 0.91236638E+02</totfact>
</mgrwt>
</event>
<event>
 6    2  0.1181843E-002  0.1370029E+03  0.7546771E-02  0.1217420E+00
          1   -1    0    0  503    0 -0.00000000000E+00  0.00000000000E+00  0.53953280214E+03  0.53953280214E+03  0.00000000000E+00 0.  1.
         21   -1    0    0  502  503  0.00000000000E+00 -0.00000000000E+00 -0.64002419934E+02  0.64002419934E+02  0.00000000000E+00 0. -1.
         25    2    1    2    0    0  0.53103523627E+02  0.18019772260E+02  0.13000603076E+02  0.13761839152E+03  0.12500043836E+03 0.  0.
          5    1    3    3  501    0  0.69359560406E+02  0.37847302989E+02  0.49332961429E+02  0.93149976095E+02  0.10000000000E+00 0. -1.
         -5    1    3    3    0  501 -0.16256036779E+02 -0.19827530730E+02 -0.36332358353E+02  0.44468415421E+02  0.10000000000E+00 0. -1.
          1    1    1    2  502    0 -0.53103523627E+02 -0.18019772260E+02  0.46252977913E+03  0.46591683055E+03  0.00000000000E+00 0.  1.
<mgrwt>
<rscale>  1 0.13700294E+03</rscale>
<asrwt>0</asrwt>
<pdfrwt beam="1">  1       21 0.98465265E-02 0.13700294E+03</pdfrwt>
<pdfrwt beam="2">  1        1 0.83005044E-01 0.13700294E+03</pdfrwt>
<totfact> 0.37681481E+04</totfact>
</mgrwt>
</event>
<event>
 6    2  0.1181843E-002  0.1264854E+03  0.7546771E-02  0.1232766E+00
         21   -1    0    0  502  503  0.00000000000E+00  0.00000000000E+00  0.84502715226E+02  0.84502715226E+02  0.00000000000E+00 0. -1.
          2   -1    0    0  503    0 -0.00000000000E+00 -0.00000000000E+00 -0.73454528517E+03  0.73454528517E+03  0.00000000000E+00 0. -1.
         25    2    1    2    0    0  0.12752716551E+02  0.14502007369E+02  0.36959439201E+02  0.13177461915E+03  0.12500244041E+03 0.  0.
          5    1    3    3  501    0  0.38516731592E+02  0.10348759548E+02 -0.36347551110E+02  0.53961003589E+02  0.10000000000E+00 0.  1.
         -5    1    3    3    0  501 -0.25764015041E+02  0.41532478213E+01  0.73306990311E+02  0.77813615563E+02  0.10000000000E+00 0.  1.
          2    1    1    2  502    0 -0.12752716551E+02 -0.14502007369E+02 -0.68700200915E+03  0.68727338125E+03  0.00000000000E+00 0. -1.
<mgrwt>
<rscale>  1 0.12648538E+03</rscale>
<asrwt>0</asrwt>
<pdfrwt beam="1">  1       21 0.13000418E-01 0.12648538E+03</pdfrwt>
<pdfrwt beam="2">  1        2 0.11300696E+00 0.12648538E+03</pdfrwt>
<totfact> 0.25589558E+04</totfact>
</mgrwt>
</event>
<event>
 6    2  0.1181843E-002  0.2079730E+03  0.7546771E-02  0.1143181E+00
          3   -1    0    0  503    0 -0.00000000000E+00  0.00000000000E+00  0.37567185192E+03  0.37567185192E+03  0.00000000000E+00 0.  1.
         21   -1    0    0  502  503  0.00000000000E+00 -0.00000000000E+00 -0.51900430572E+03  0.51900430572E+03  0.00000000000E+00 0.  1.
         25    2    1    2    0    0  0.49614359129E+02 -0.15863159907E+03 -0.47784782542E+03  0.52114422767E+03  0.12500877139E+03 0.  0.
          5    1    3    3  501    0  0.68089078683E+02 -0.10764020123E+03 -0.43116790143E+03  0.44958681562E+03  0.10000000000E+00 0. -1.
         -5    1    3    3    0  501 -0.18474719554E+02 -0.50991397838E+02 -0.46679923989E+02  0.71557412053E+02  0.10000000000E+00 0. -1.
          3    1    1    2  502    0 -0.49614359129E+02  0.15863159907E+03  0.33451537162E+03  0.37353192996E+03  0.00000000000E+00 0.  1.
<mgrwt>
<rscale>  1 0.20797298E+03</rscale>
<asrwt>0</asrwt>
<pdfrwt beam="1">  1       21 0.79846816E-01 0.20797298E+03</pdfrwt>
<pdfrwt beam="2">  1        3 0.57795669E-01 0.20797298E+03</pdfrwt>
<totfact> 0.20202181E+02</totfact>
</mgrwt>
</event>
<event>
 6    2  0.1181843E-002  0.1274676E+03  0.7546771E-02  0.1231262E+00
          2   -1    0    0  503    0 -0.00000000000E+00  0.00000000000E+00  0.37626841658E+03  0.37626841658E+03  0.00000000000E+00 0.  1.
         21   -1    0    0  502  503  0.00000000000E+00 -0.00000000000E+00 -0.20063275309E+03  0.20063275309E+03  0.00000000000E+00 0.  1.
         25    2    1    2    0    0 -0.22601091973E+02 -0.10600189364E+02 -0.17990490485E+03  0.22048530426E+03  0.12499928494E+03 0.  0.
          5    1    3    3  501    0 -0.72836917397E+02  0.91523392563E+01 -0.99841037599E+02  0.12392426977E+03  0.10000000000E+00 0. -1.
         -5    1    3    3    0  501  0.50235825424E+02 -0.19752528620E+02 -0.80063867249E+02  0.96561034490E+02  0.10000000000E+00 0. -1.
          2    1    1    2  502    0  0.22601091973E+02  0.10600189364E+02  0.35554056834E+03  0.35641586540E+03  0.00000000000E+00 0.  1.
<mgrwt>
<rscale>  1 0.12746762E+03</rscale>
<asrwt>0</asrwt>
<pdfrwt beam="1">  1       21 0.30866577E-01 0.12746762E+03</pdfrwt>
<pdfrwt beam="2">  1        2 0.57887449E-01 0.12746762E+03</pdfrwt>
<totfact> 0.10869689E+04</totfact>
</mgrwt>
</event>
<event>
 6    2  0.1181843E-002  0.1270563E+03  0.7546771E-02  0.1231890E+00
          2   -1    0    0  503    0 -0.00000000000E+00  0.00000000000E+00  0.19771380193E+04  0.19771380193E+04  0.00000000000E+00 0. -1.
         21   -1    0    0  502  503  0.00000000000E+00 -0.00000000000E+00 -0.46613170938E+01  0.46613170938E+01  0.00000000000E+00 0. -1.
         25    2    1    2    0    0  0.19825857245E+02  0.11151043643E+02  0.19246465068E+04  0.19288357831E+04  0.12500356582E+03 0.  0.
          5    1    3    3  501    0 -0.10348727757E+02 -0.35833744870E+02  0.15083334246E+04  0.15087945133E+04  0.10000000000E+00 0. -1.
         -5    1    3    3    0  501  0.30174585002E+02  0.46984788513E+02  0.41631308217E+03  0.42004126978E+03  0.10000000000E+00 0. -1.
          2    1    1    2  502    0 -0.19825857245E+02 -0.11151043643E+02  0.47830195424E+02  0.52963553356E+02  0.00000000000E+00 0. -1.
<mgrwt>
<rscale>  1 0.12705629E+03</rscale>
<asrwt>0</asrwt>
<pdfrwt beam="1">  1       21 0.71712729E-03 0.12705629E+03</pdfrwt>
<pdfrwt beam="2">  1        2 0.30417441E+00 0.12705629E+03</pdfrwt>
<totfact> 0.62375241E+05</totfact>
</mgrwt>
</event>
<event>
 6    2  0.1181843E-002  0.1550553E+03  0.7546771E-02  0.1194395E+00
         21   -1    0    0  502  503  0.00000000000E+00  0.00000000000E+00  0.84467563580E+03  0.84467563580E+03  0.00000000000E+00 0. -1.
          2   -1    0    0  503    0 -0.00000000000E+00 -0.00000000000E+00 -0.12944109095E+04  0.12944109095E+04  0.00000000000E+00 0.  1.
         25    2    1    2    0    0 -0.83036235405E+02 -0.39010491518E+02  0.83591142816E+03  0.85017061444E+03  0.12500129236E+03 0.  0.
          5    1    3    3  501    0 -0.10549591811E+03 -0.74304293831E+01  0.72524401913E+03  0.73291438606E+03  0.10000000000E+00 0. -1.
         -5    1    3    3    0  501  0.22459682701E+02 -0.31580062135E+02  0.11066740903E+03  0.11725622837E+03  0.10000000000E+00 0. -1.
          2    1    1    2  502    0  0.83036235405E+02  0.39010491518E+02 -0.12856467018E+04  0.12889159309E+04  0.00000000000E+00 0.  1.
<mgrwt>
<rscale>  1 0.15505534E+03</rscale>
<asrwt>0</asrwt>
<pdfrwt beam="1">  1       21 0.12995010E+00 0.15505534E+03</pdfrwt>
<pdfrwt beam="2">  1        2 0.19914014E+00 0.15505534E+03</pdfrwt>
<totfact> 0.10201650E+02</totfact>
</mgrwt>
</event>
<event>
 6    2  0.1181843E-002  0.1925372E+03  0.7546771E-02  0.1156193E+00
         21   -1    0    0  502  503  0.00000000000E+00  0.00000000000E+00  0.10879588898E+04  0.10879588898E+04  0.00000000000E+00 0. -1.
          4   -1    0    0  503    0 -0.00000000000E+00 -0.00000000000E+00 -0.10522889329E+03  0.10522889329E+03  0.00000000000E+00 0.  1.
         25    2    1    2    0    0  0.13706863050E+03 -0.51548631264E+02  0.10232798786E+04  0.10412359361E+04  0.12500197536E+03 0.  0.
          5    1    3    3  501    0 -0.32986314453E+01 -0.44360828249E+02  0.39102262196E+03  0.39354474325E+03  0.10000000000E+00 0. -1.
         -5    1    3    3    0  501  0.14036726194E+03 -0.71878030149E+01  0.63225725663E+03  0.64769119285E+03  0.10000000000E+00 0. -1.
          4    1    1    2  502    0 -0.13706863050E+03  0.51548631264E+02 -0.40549882126E+02  0.15195184695E+03  0.00000000000E+00 0.  1.
<mgrwt>
<rscale>  1 0.19253718E+03</rscale>
<asrwt>0</asrwt>
<pdfrwt beam="1">  1       21 0.16737828E+00 0.19253718E+03</pdfrwt>
<pdfrwt beam="2">  1        4 0.16189061E-01 0.19253718E+03</pdfrwt>
<totfact> 0.30854314E+02</totfact>
</mgrwt>
</event>
<event>
 6    2  0.1181843E-002  0.1264748E+03  0.7546771E-02  0.1232782E+00
         21   -1    0    0  502  503  0.00000000000E+00  0.00000000000E+00  0.11866908154E+03  0.11866908154E+03  0.00000000000E+00 0.  1.
          3   -1    0    0  503    0 -0.00000000000E+00 -0.00000000000E+00 -0.95922784277E+02  0.95922784277E+02  0.00000000000E+00 0.  1.
         25    2    1    2    0    0 -0.18076640932E+02 -0.66212370926E+01  0.83039960320E+02  0.15129943710E+03  0.12500111571E+03 0.  0.
          5    1    3    3  501    0 -0.47722720023E+01  0.46052601700E+02 -0.63117488157E+01  0.46727560139E+02  0.10000000000E+00 0. -1.
         -5    1    3    3    0  501 -0.13304368930E+02 -0.52673838792E+02  0.89351709136E+02  0.10457187696E+03  0.10000000000E+00 0. -1.
          3    1    1    2  502    0  0.18076640932E+02  0.66212370926E+01 -0.60293663058E+02  0.63292428717E+02  0.00000000000E+00 0.  1.
<mgrwt>
<rscale>  1 0.12647484E+03</rscale>
<asrwt>0</asrwt>
<pdfrwt beam="1">  1       21 0.18256782E-01 0.12647484E+03</pdfrwt>
<pdfrwt beam="2">  1        3 0.14757351E-01 0.12647484E+03</pdfrwt>
<totfact> 0.49645236E+04</totfact>
</mgrwt>
</event>
<event>
 6    2  0.1181843E-002  0.1268186E+03  0.7546771E-02  0.1232254E+00
         21   -1    0    0  502  503  0.00000000000E+00  0.00000000000E+00  0.10561548826E+03  0.10561548826E+03  0.00000000000E+00 0. -1.
          2   -1    0    0  503    0 -0.00000000000E+00 -0.00000000000E+00 -0.10258408195E+03  0.10258408195E+03  0.00000000000E+00 0. -1.
         25    2    1    2    0    0 -0.15615318023E+02  0.14635107670E+02  0.65095207627E+02  0.14254943718E+03  0.12499972581E+03 0.  0.
          5    1    3    3  501    0 -0.40953544450E+01 -0.11401910179E+02  0.98166041267E+02  0.98910854519E+02  0.10000000000E+00 0.  1.
         -5    1    3    3    0  501 -0.11519963578E+02  0.26037017848E+02 -0.33070833640E+02  0.43638582664E+02  0.10000000000E+00 0.  1.
          2    1    1    2  502    0  0.15615318023E+02 -0.14635107670E+02 -0.62063801312E+02  0.65650133029E+02  0.00000000000E+00 0. -1.
<mgrwt>
<rscale>  1 0.12681859E+03</rscale>
<asrwt>0</asrwt>
<pdfrwt beam="1">  1       21 0.16248537E-01 0.12681859E+03</pdfrwt>
<pdfrwt beam="2">  1        2 0.15782166E-01 0.12681859E+03</pdfrwt>
<totfact> 0.14896847E+05</totfact>
</mgrwt>
</event>
<event>
 6    2  0.1181843E-002  0.1403738E+03  0.7546771E-02  0.1212827E+00
         21   -1    0    0  502  503  0.00000000000E+00  0.00000000000E+00  0.10954731892E+03  0.10954731892E+03  0.00000000000E+00 0. -1.
          1   -1    0    0  503    0 -0.00000000000E+00 -0.00000000000E+00 -0.72132409241E+03  0.72132409241E+03  0.00000000000E+00 0. -1.
         25    2    1    2    0    0  0.82396149250E+01 -0.63339729478E+02  0.62440930536E+02  0.15363487583E+03  0.12499997073E+03 0.  0.
          5    1    3    3  501    0  0.41068099791E+02 -0.88890581858E+02  0.51423090870E+02  0.11060049113E+03  0.10000000000E+00 0.  1.
         -5    1    3    3    0  501 -0.32828484866E+02  0.25550852380E+02  0.11017839666E+02  0.43034384704E+02  0.10000000000E+00 0.  1.
          1    1    1    2  502    0 -0.82396149250E+01  0.63339729478E+02 -0.67421770403E+03  0.67723653550E+03  0.00000000000E+00 0. -1.
<mgrwt>
<rscale>  1 0.14037381E+03</rscale>
<asrwt>0</asrwt>
<pdfrwt beam="1">  1       21 0.16853434E-01 0.14037381E+03</pdfrwt>
<pdfrwt beam="2">  1        1 0.11097294E+00 0.14037381E+03</pdfrwt>
<totfact> 0.96627321E+03</totfact>
</mgrwt>
</event>
<event>
 6    2  0.1181843E-002  0.1308619E+03  0.7546771E-02  0.1226182E+00
         21   -1    0    0  502  503  0.00000000000E+00  0.00000000000E+00  0.48610609682E+02  0.48610609682E+02  0.00000000000E+00 0.  1.
          2   -1    0    0  503    0 -0.00000000000E+00 -0.00000000000E+00 -0.18876070933E+03  0.18876070933E+03  0.00000000000E+00 0.  1.
         25    2    1    2    0    0  0.59347521258E+01  0.38271012886E+02 -0.51500379143E+02  0.14063112749E+03  0.12499973303E+03 0.  0.
          5    1    3    3  501    0  0.40608243088E+02  0.59706147186E+02 -0.65540976855E+02  0.97516578414E+02  0.10000000000E+00 0. -1.
         -5    1    3    3    0  501 -0.34673490962E+02 -0.21435134300E+02  0.14040597712E+02  0.43114549076E+02  0.10000000000E+00 0. -1.
          2    1    1    2  502    0 -0.59347521258E+01 -0.38271012886E+02 -0.88649720501E+02  0.96740191518E+02  0.00000000000E+00 0.  1.
<mgrwt>
<rscale>  1 0.13086185E+03</rscale>
<asrwt>0</asrwt>
<pdfrwt beam="1">  1       21 0.74785552E-02 0.13086185E+03</pdfrwt>
<pdfrwt beam="2">  1        2 0.29040110E-01 0.13086185E+03</pdfrwt>
<totfact> 0.29574441E+05</totfact>
</mgrwt>
</event>
<event>
 6    2  0.1181843E-002  0.1260573E+03  0.7546771E-02  0.1233426E+00
          3   -1    0    0  503    0 -0.00000000000E+00  0.00000000000E+00  0.18390331108E+03  0.18390331108E+03  0.00000000000E+00 0. -1.
         21   -1    0    0  502  503  0.00000000000E+00 -0.00000000000E+00 -0.40023264524E+02  0.40023264524E+02  0.00000000000E+00 0. -1.
         25    2    1    2    0    0 -0.15585272752E+02 -0.47895937379E+01  0.62074901029E+02  0.14051241152E+03  0.12499841407E+03 0.  0.
          5    1    3    3  501    0 -0.18000508940E+02 -0.60676344560E+02  0.99793268368E+01  0.64072100601E+02  0.10000000000E+00 0. -1.
         -5    1    3    3    0  501  0.24152361883E+01  0.55886750822E+02  0.52095574192E+02  0.76440310921E+02  0.10000000000E+00 0. -1.
          3    1    1    2  502    0  0.15585272752E+02  0.47895937379E+01  0.81805145525E+02  0.83414164080E+02  0.00000000000E+00 0. -1.
<mgrwt>
<rscale>  1 0.12605731E+03</rscale>
<asrwt>0</asrwt>
<pdfrwt beam="1">  1       21 0.61574254E-02 0.12605731E+03</pdfrwt>
<pdfrwt beam="2">  1        3 0.28292817E-01 0.12605731E+03</pdfrwt>
<totfact> 0.10643995E+05</totfact>
</mgrwt>
</event>
<event>
 6    2  0.1181843E-002  0.1326573E+03  0.7546771E-02  0.1223565E+00
          2   -1    0    0  503    0 -0.00000000000E+00  0.00000000000E+00  0.26213676506E+04  0.26213676506E+04  0.00000000000E+00 0. -1.
         21   -1    0    0  502  503  0.00000000000E+00 -0.00000000000E+00 -0.30276539628E+01  0.30276539628E+01  0.00000000000E+00 0. -1.
         25    2    1    2    0    0  0.31323526062E+01 -0.44302628058E+02  0.20802764198E+04  0.20845018454E+04  0.12500170550E+03 0.  0.
          5    1    3    3  501    0 -0.49865846195E+02 -0.50668295982E+02  0.15276973252E+04  0.15293505178E+04  0.10000000000E+00 0.  1.
         -5    1    3    3    0  501  0.52998198801E+02  0.63656679236E+01  0.55257909463E+03  0.55515132769E+03  0.10000000000E+00 0.  1.
          2    1    1    2  502    0 -0.31323526062E+01  0.44302628058E+02  0.53806357688E+03  0.53989345916E+03  0.00000000000E+00 0. -1.
<mgrwt>
<rscale>  1 0.13265731E+03</rscale>
<asrwt>0</asrwt>
<pdfrwt beam="1">  1       21 0.46579501E-03 0.13265731E+03</pdfrwt>
<pdfrwt beam="2">  1        2 0.40328552E+00 0.13265731E+03</pdfrwt>
<totfact> 0.56122384E+05</totfact>
</mgrwt>
</event>
<event>
 6    2  0.1181843E-002  0.1292663E+03  0.7546771E-02  0.1228549E+00
          2   -1    0    0  503    0 -0.00000000000E+00  0.00000000000E+00  0.16440876003E+04  0.16440876003E+04  0.00000000000E+00 0.  1.
         21   -1    0    0  502  503  0.00000000000E+00 -0.00000000000E+00 -0.40457636181E+01  0.40457636181E+01  0.00000000000E+00 0.  1.
         25    2    1    2    0    0  0.13055552119E+02 -0.30205621754E+02  0.13730038146E+04  0.13790755034E+04  0.12500776921E+03 0.  0.
          5    1    3    3  501    0 -0.41261460548E+02 -0.55322506572E+02  0.68046187907E+03  0.68395282493E+03  0.10000000000E+00 0.  1.
         -5    1    3    3    0  501  0.54317012667E+02  0.25116884817E+02  0.69254193550E+03  0.69512267852E+03  0.10000000000E+00 0.  1.
          2    1    1    2  502    0 -0.13055552119E+02  0.30205621754E+02  0.26703802213E+03  0.26905786048E+03  0.00000000000E+00 0.  1.
<mgrwt>
<rscale>  1 0.12926627E+03</rscale>
<asrwt>0</asrwt>
<pdfrwt beam="1">  1       21 0.62242648E-03 0.12926627E+03</pdfrwt>
<pdfrwt beam="2">  1        2 0.25293602E+00 0.12926627E+03</pdfrwt>
<totfact> 0.11505730E+06</totfact>
</mgrwt>
</event>
<event>
 6    2  0.1181843E-002  0.1827245E+03  0.7546771E-02  0.1165192E+00
          2   -1    0    0  503    0 -0.00000000000E+00  0.00000000000E+00  0.13024987941E+04  0.13024987941E+04  0.00000000000E+00 0.  1.
         21   -1    0    0  502  503  0.00000000000E+00 -0.00000000000E+00 -0.13905454435E+03  0.13905454435E+03  0.00000000000E+00 0.  1.
         25    2    1    2    0    0  0.12928592285E+03 -0.32380037059E+02 -0.73862852579E+02  0.19708872179E+03  0.12499970647E+03 0.  0.
          5    1    3    3  501    0  0.41678205121E+02 -0.47691532684E+02 -0.86553214279E+02  0.10725215137E+03  0.10000000000E+00 0.  1.
         -5    1    3    3    0  501  0.87607717733E+02  0.15311495625E+02  0.12690361700E+02  0.89836570419E+02  0.10000000000E+00 0.  1.
          2    1    1    2  502    0 -0.12928592285E+03  0.32380037059E+02  0.12373071024E+04  0.12444646167E+04  0.00000000000E+00 0.  1.
<mgrwt>
<rscale>  1 0.18272450E+03</rscale>
<asrwt>0</asrwt>
<pdfrwt beam="1">  1       21 0.21393008E-01 0.18272450E+03</pdfrwt>
<pdfrwt beam="2">  1        2 0.20038442E+00 0.18272450E+03</pdfrwt>
<totfact> 0.45791555E+03</totfact>
</mgrwt>
</event>
<event>
 6    2  0.1181843E-002  0.1282575E+03  0.7546771E-02  0.1230064E+00
          2   -1    0    0  503    0 -0.00000000000E+00  0.00000000000E+00  0.12593782381E+03  0.12593782381E+03  0.00000000000E+00 0.  1.
         21   -1    0    0  502  503  0.00000000000E+00 -0.00000000000E+00 -0.20683465099E+03  0.20683465099E+03  0.00000000000E+00 0.  1.
         25    2    1    2    0    0  0.13315530399E+02 -0.25465274234E+02 -0.18481231228E+03  0.22495683779E+03  0.12499681818E+03 0.  0.
          5    1    3    3  501    0  0.38734341194E+02 -0.20179018805E+02 -0.19288492893E+03  0.19776791397E+03  0.10000000000E+00 0.  1.
         -5    1    3    3    0  501 -0.25418810795E+02 -0.52862554293E+01  0.80726166501E+01  0.27188923816E+02  0.10000000000E+00 0.  1.
          2    1    1    2  502    0 -0.13315530399E+02  0.25465274234E+02  0.10391548510E+03  0.10781563701E+03  0.00000000000E+00 0.  1.
<mgrwt>
<rscale>  1 0.12825751E+03</rscale>
<asrwt>0</asrwt>
<pdfrwt beam="1">  1       21 0.31820715E-01 0.12825751E+03</pdfrwt>
<pdfrwt beam="2">  1        2 0.19375050E-01 0.12825751E+03</pdfrwt>
<totfact> 0.33436187E+04</totfact>
</mgrwt>
</event>
<event>
 6    2  0.1181843E-002  0.1274700E+03  0.7546771E-02  0.1231259E+00
          4   -1    0    0  503    0 -0.00000000000E+00  0.00000000000E+00  0.16761721487E+03  0.16761721487E+03  0.00000000000E+00 0. -1.
         21   -1    0    0  502  503  0.00000000000E+00 -0.00000000000E+00 -0.83947342080E+02  0.83947342080E+02  0.00000000000E+00 0. -1.
         25    2    1    2    0    0  0.82968186710E+01 -0.23480712394E+02 -0.33482905531E+02  0.13179413271E+03  0.12501362885E+03 0.  0.
          5    1    3    3  501    0  0.53824981984E+02  0.31647519103E+01 -0.52944539054E+02  0.75566385092E+02  0.10000000000E+00 0.  1.
         -5    1    3    3    0  501 -0.45528163312E+02 -0.26645464304E+02  0.19461633523E+02  0.56227747616E+02  0.10000000000E+00 0.  1.
          4    1    1    2  502    0 -0.82968186710E+01  0.23480712394E+02  0.11715277832E+03  0.11977042424E+03  0.00000000000E+00 0. -1.
<mgrwt>
<rscale>  1 0.12746995E+03</rscale>
<asrwt>0</asrwt>
<pdfrwt beam="1">  1       21 0.12914976E-01 0.12746995E+03</pdfrwt>
<pdfrwt beam="2">  1        4 0.25787264E-01 0.12746995E+03</pdfrwt>
<totfact> 0.29354295E+04</totfact>
</mgrwt>
</event>
<event>
 6    2  0.1181843E-002  0.1266761E+03  0.7546771E-02  0.1232473E+00
          2   -1    0    0  503    0 -0.00000000000E+00  0.00000000000E+00  0.31070073643E+02  0.31070073643E+02  0.00000000000E+00 0. -1.
         21   -1    0    0  502  503  0.00000000000E+00 -0.00000000000E+00 -0.17432932918E+03  0.17432932918E+03  0.00000000000E+00 0. -1.
         25    2    1    2    0    0  0.19869059162E+02  0.51115538118E+01 -0.12349604317E+03  0.17691270316E+03  0.12500369742E+03 0.  0.
          5    1    3    3  501    0  0.60309980227E+02 -0.18374982958E+02 -0.11235821149E+03  0.12883831496E+03  0.10000000000E+00 0. -1.
         -5    1    3    3    0  501 -0.40440921065E+02  0.23486536770E+02 -0.11137831676E+02  0.48074388197E+02  0.10000000000E+00 0. -1.
          2    1    1    2  502    0 -0.19869059162E+02 -0.51115538118E+01 -0.19763212367E+02  0.28486699658E+02  0.00000000000E+00 0. -1.
<mgrwt>
<rscale>  1 0.12667609E+03</rscale>
<asrwt>0</asrwt>
<pdfrwt beam="1">  1       21 0.26819897E-01 0.12667609E+03</pdfrwt>
<pdfrwt beam="2">  1        2 0.47800114E-02 0.12667609E+03</pdfrwt>
<totfact> 0.25827187E+05</totfact>
</mgrwt>
</event>
<event>
 6    2  0.1181843E-002  0.1269941E+03  0.7546771E-02  0.1231985E+00
          2   -1    0    0  503    0 -0.00000000000E+00  0.00000000000E+00  0.17191231276E+04  0.17191231276E+04  0.00000000000E+00 0.  1.
         21   -1    0    0  502  503  0.00000000000E+00 -0.00000000000E+00 -0.74992158345E+01  0.74992158345E+01  0.00000000000E+00 0.  1.
         25    2    1    2    0    0 -0.19954829141E+02  0.10161758069E+02  0.53801549576E+03  0.55280030809E+03  0.12500420160E+03 0.  0.
          5    1    3    3  501    0 -0.60165673607E+02  0.40237782274E+02  0.38534516798E+03  0.39208404187E+03  0.10000000000E+00 0. -1.
         -5    1    3    3    0  501  0.40210844466E+02 -0.30076024205E+02  0.15267032778E+03  0.16071626622E+03  0.10000000000E+00 0. -1.
          2    1    1    2  502    0  0.19954829141E+02 -0.10161758069E+02  0.11736084160E+04  0.11738220354E+04  0.00000000000E+00 0.  1.
<mgrwt>
<rscale>  1 0.12699412E+03</rscale>
<asrwt>0</asrwt>
<pdfrwt beam="1">  1       21 0.11537269E-02 0.12699412E+03</pdfrwt>
<pdfrwt beam="2">  1        2 0.26448017E+00 0.12699412E+03</pdfrwt>
<totfact> 0.40000107E+05</totfact>
</mgrwt>
</event>
<event>
 6    2  0.1181843E-002  0.1263845E+03  0.7546771E-02  0.1232921E+00
          1   -1    0    0  503    0 -0.00000000000E+00  0.00000000000E+00  0.13541097995E+03  0.13541097995E+03  0.00000000000E+00 0. -1.
         21   -1    0    0  502  503  0.00000000000E+00 -0.00000000000E+00 -0.72726433423E+02  0.72726433423E+02  0.00000000000E+00 0.  1.
         25    2    1    2    0    0 -0.55851326137E+01  0.17814032355E+02 -0.15886339970E+02  0.12737902273E+03  0.12499802470E+03 0.  0.
          5    1    3    3  501    0  0.48166016733E+02  0.44256710410E+02 -0.16548158590E+02  0.67472017437E+02  0.10000000000E+00 0.  1.
         -5    1    3    3    0  501 -0.53751149347E+02 -0.26442678054E+02  0.66181862033E+00  0.59907005289E+02  0.10000000000E+00 0.  1.
          1    1    1    2  502    0  0.55851326137E+01 -0.17814032355E+02  0.78570886494E+02  0.80758390645E+02  0.00000000000E+00 0. -1.
<mgrwt>
<rscale>  1 0.12638449E+03</rscale>
<asrwt>0</asrwt>
<pdfrwt beam="1">  1       21 0.11188682E-01 0.12638449E+03</pdfrwt>
<pdfrwt beam="2">  1        1 0.20832458E-01 0.12638449E+03</pdfrwt>
<totfact> 0.17011230E+05</totfact>
</mgrwt>
</event>
<event>
 6    2  0.1181843E-002  0.1294771E+03  0.7546771E-02  0.1228234E+00
         21   -1    0    0  502  503  0.00000000000E+00  0.00000000000E+00  0.72281165187E+02  0.72281165187E+02  0.00000000000E+00 0. -1.
          4   -1    0    0  503    0 -0.00000000000E+00 -0.00000000000E+00 -0.11175393987E+03  0.11175393987E+03  0.00000000000E+00 0. -1.
         25    2    1    2    0    0  0.33172896235E+02 -0.61971421756E+01  0.33411385669E+01  0.12952018248E+03  0.12500187538E+03 0.  0.
          5    1    3    3  501    0  0.17476904055E+02 -0.54734026622E+02 -0.33579193902E+02  0.66549441085E+02  0.10000000000E+00 0. -1.
         -5    1    3    3    0  501  0.15695992180E+02  0.48536884447E+02  0.36920332469E+02  0.62970741396E+02  0.10000000000E+00 0. -1.
          4    1    1    2  502    0 -0.33172896235E+02  0.61971421756E+01 -0.42813913253E+02  0.54514922579E+02  0.00000000000E+00 0. -1.
<mgrwt>
<rscale>  1 0.12947708E+03</rscale>
<asrwt>0</asrwt>
<pdfrwt beam="1">  1       21 0.11120179E-01 0.12947708E+03</pdfrwt>
<pdfrwt beam="2">  1        4 0.17192914E-01 0.12947708E+03</pdfrwt>
<totfact> 0.79785063E+04</totfact>
</mgrwt>
</event>
<event>
 6    2  0.1181843E-002  0.1702063E+03  0.7546771E-02  0.1177633E+00
         21   -1    0    0  502  503  0.00000000000E+00  0.00000000000E+00  0.75179957215E+02  0.75179957215E+02  0.00000000000E+00 0.  1.
          1   -1    0    0  503    0 -0.00000000000E+00 -0.00000000000E+00 -0.19961181948E+04  0.19961181948E+04  0.00000000000E+00 0. -1.
         25    2    1    2    0    0 -0.60180302445E+02 -0.98604481001E+02 -0.25221231129E+02  0.17206475903E+03  0.12500263327E+03 0.  0.
          5    1    3    3  501    0 -0.22748312422E+02  0.26002688105E+02  0.12269311962E+02  0.36662944818E+02  0.10000000000E+00 0. -1.
         -5    1    3    3    0  501 -0.37431990023E+02 -0.12460716911E+03 -0.37490543091E+02  0.13540181421E+03  0.10000000000E+00 0. -1.
          1    1    1    2  502    0  0.60180302445E+02  0.98604481001E+02 -0.18957170065E+04  0.18992333930E+04  0.00000000000E+00 0. -1.
<mgrwt>
<rscale>  1 0.17020626E+03</rscale>
<asrwt>0</asrwt>
<pdfrwt beam="1">  1       21 0.11566146E-01 0.17020626E+03</pdfrwt>
<pdfrwt beam="2">  1        1 0.30709515E+00 0.17020626E+03</pdfrwt>
<totfact> 0.24662684E+03</totfact>
</mgrwt>
</event>
<event>
 6    2  0.1181843E-002  0.1260763E+03  0.7546771E-02  0.1233397E+00
         21   -1    0    0  502  503  0.00000000000E+00  0.00000000000E+00  0.75621177671E+02  0.75621177671E+02  0.00000000000E+00 0.  1.
          2   -1    0    0  503    0 -0.00000000000E+00 -0.00000000000E+00 -0.18156793180E+03  0.18156793180E+03  0.00000000000E+00 0. -1.
         25    2    1    2    0    0 -0.16252504968E+02  0.24283729968E+01  0.22180369658E+02  0.12801248325E+03  0.12500074462E+03 0.  0.
          5    1    3    3  501    0 -0.42996076222E+02 -0.34239667121E+02 -0.26875314972E+02  0.61182594992E+02  0.10000000000E+00 0. -1.
         -5    1    3    3    0  501  0.26743571254E+02  0.36668040118E+02  0.49055684631E+02  0.66829888254E+02  0.10000000000E+00 0. -1.
          2    1    1    2  502    0  0.16252504968E+02 -0.24283729968E+01 -0.12812712379E+03  0.12917662623E+03  0.00000000000E+00 0. -1.
<mgrwt>
<rscale>  1 0.12607627E+03</rscale>
<asrwt>0</asrwt>
<pdfrwt beam="1">  1       21 0.11634027E-01 0.12607627E+03</pdfrwt>
<pdfrwt beam="2">  1        2 0.27933528E-01 0.12607627E+03</pdfrwt>
<totfact> 0.14261544E+05</totfact>
</mgrwt>
</event>
<event>
 6    2  0.1181843E-002  0.1298889E+03  0.7546771E-02  0.1227621E+00
          1   -1    0    0  503    0 -0.00000000000E+00  0.00000000000E+00  0.35737514659E+03  0.35737514659E+03  0.00000000000E+00 0. -1.
         21   -1    0    0  502  503  0.00000000000E+00 -0.00000000000E+00 -0.12146776646E+03  0.12146776646E+03  0.00000000000E+00 0.  1.
         25    2    1    2    0    0  0.35089300079E+02  0.38626006602E+01 -0.85499399885E+02  0.15550331308E+03  0.12499981734E+03 0.  0.
          5    1    3    3  501    0  0.63924498172E+02  0.78351603774E+01 -0.10304569507E+03  0.12151607497E+03  0.10000000000E+00 0.  1.
         -5    1    3    3    0  501 -0.28835198093E+02 -0.39725597172E+01  0.17546295183E+02  0.33987238111E+02  0.10000000000E+00 0.  1.
          1    1    1    2  502    0 -0.35089300079E+02 -0.38626006602E+01  0.32140678002E+03  0.32333959997E+03  0.00000000000E+00 0. -1.
<mgrwt>
<rscale>  1 0.12988893E+03</rscale>
<asrwt>0</asrwt>
<pdfrwt beam="1">  1       21 0.18687349E-01 0.12988893E+03</pdfrwt>
<pdfrwt beam="2">  1        1 0.54980791E-01 0.12988893E+03</pdfrwt>
<totfact> 0.20257625E+04</totfact>
</mgrwt>
</event>
<event>
 6    2  0.1181843E-002  0.1475849E+03  0.7546771E-02  0.1203472E+00
         21   -1    0    0  502  503  0.00000000000E+00  0.00000000000E+00  0.13760327553E+03  0.13760327553E+03  0.00000000000E+00 0. -1.
          2   -1    0    0  503    0 -0.00000000000E+00 -0.00000000000E+00 -0.15229956013E+04  0.15229956013E+04  0.00000000000E+00 0.  1.
         25    2    1    2    0    0 -0.28762109225E+02  0.72999767686E+02  0.96692206386E+02  0.17643891730E+03  0.12500033501E+03 0.  0.
          5    1    3    3  501    0 -0.77822505614E+02  0.48479521670E+02  0.70502954961E+02  0.11566020517E+03  0.10000000000E+00 0. -1.
         -5    1    3    3    0  501  0.49060396389E+02  0.24520246015E+02  0.26189251425E+02  0.60778712134E+02  0.10000000000E+00 0. -1.
          2    1    1    2  502    0  0.28762109225E+02 -0.72999767686E+02 -0.14820845321E+04  0.14841599595E+04  0.00000000000E+00 0.  1.
<mgrwt>
<rscale>  1 0.14758492E+03</rscale>
<asrwt>0</asrwt>
<pdfrwt beam="1">  1       21 0.21169734E-01 0.14758492E+03</pdfrwt>
<pdfrwt beam="2">  1        2 0.23430702E+00 0.14758492E+03</pdfrwt>
<totfact> 0.36296495E+03</totfact>
</mgrwt>
</event>
<event>
 6    2  0.1181843E-002  0.1269155E+03  0.7546771E-02  0.1232106E+00
          3   -1    0    0  503    0 -0.00000000000E+00  0.00000000000E+00  0.25895807947E+02  0.25895807947E+02  0.00000000000E+00 0. -1.
         21   -1    0    0  502  503  0.00000000000E+00 -0.00000000000E+00 -0.21422220711E+03  0.21422220711E+03  0.00000000000E+00 0. -1.
         25    2    1    2    0    0  0.18520569934E+02 -0.11802558745E+02 -0.15758405661E+03  0.20233702077E+03  0.12500089269E+03 0.  0.
          5    1    3    3  501    0  0.35626191483E+01 -0.33856741023E+02  0.77122281570E+01  0.34906441111E+02  0.10000000000E+00 0. -1.
         -5    1    3    3    0  501  0.14957950785E+02  0.22054182278E+02 -0.16529628477E+03  0.16743057966E+03  0.10000000000E+00 0. -1.
          3    1    1    2  502    0 -0.18520569934E+02  0.11802558745E+02 -0.30742342554E+02  0.37780994287E+02  0.00000000000E+00 0. -1.
<mgrwt>
<rscale>  1 0.12691546E+03</rscale>
<asrwt>0</asrwt>
<pdfrwt beam="1">  1       21 0.32957264E-01 0.12691546E+03</pdfrwt>
<pdfrwt beam="2">  1        3 0.39839703E-02 0.12691546E+03</pdfrwt>
<totfact> 0.13661602E+05</totfact>
</mgrwt>
</event>
<event>
 6    2  0.1181843E-002  0.1265816E+03  0.7546771E-02  0.1232618E+00
          1   -1    0    0  503    0 -0.00000000000E+00  0.00000000000E+00  0.57339714095E+03  0.57339714095E+03  0.00000000000E+00 0. -1.
         21   -1    0    0  502  503  0.00000000000E+00 -0.00000000000E+00 -0.31139359036E+02  0.31139359036E+02  0.00000000000E+00 0.  1.
         25    2    1    2    0    0 -0.19877546807E+02  0.18663118071E+01  0.98658158413E+02  0.16048782477E+03  0.12499723874E+03 0.  0.
          5    1    3    3  501    0 -0.20280274136E+02  0.46929452859E+02  0.10322550118E+03  0.11519191446E+03  0.10000000000E+00 0.  1.
         -5    1    3    3    0  501  0.40272732895E+00 -0.45063141052E+02 -0.45673427649E+01  0.45295910309E+02  0.10000000000E+00 0.  1.
          1    1    1    2  502    0  0.19877546807E+02 -0.18663118071E+01  0.44359962350E+03  0.44404867521E+03  0.00000000000E+00 0. -1.
<mgrwt>
<rscale>  1 0.12658163E+03</rscale>
<asrwt>0</asrwt>
<pdfrwt beam="1">  1       21 0.47906710E-02 0.12658163E+03</pdfrwt>
<pdfrwt beam="2">  1        1 0.88214937E-01 0.12658163E+03</pdfrwt>
<totfact> 0.11899723E+05</totfact>
</mgrwt>
</event>
<event>
 6    2  0.1181843E-002  0.1262368E+03  0.7546771E-02  0.1233149E+00
         21   -1    0    0  502  503  0.00000000000E+00  0.00000000000E+00  0.15881171309E+04  0.15881171309E+04  0.00000000000E+00 0.  1.
          2   -1    0    0  503    0 -0.00000000000E+00 -0.00000000000E+00 -0.24782628787E+02  0.24782628787E+02  0.00000000000E+00 0. -1.
         25    2    1    2    0    0 -0.54364928406E+00 -0.17904011820E+02  0.15820007624E+04  0.15870293429E+04  0.12495948796E+03 0.  0.
          5    1    3    3  501    0  0.55341342265E+01 -0.58973107792E+02  0.13529818389E+04  0.13542777855E+04  0.10000000000E+00 0. -1.
         -5    1    3    3    0  501 -0.60777835105E+01  0.41069095972E+02  0.22901892356E+03  0.23275155734E+03  0.10000000000E+00 0. -1.
          2    1    1    2  502    0  0.54364928406E+00  0.17904011820E+02 -0.18666260294E+02  0.25870416833E+02  0.00000000000E+00 0. -1.
<mgrwt>
<rscale>  1 0.12623677E+03</rscale>
<asrwt>0</asrwt>
<pdfrwt beam="1">  1       21 0.24432563E+00 0.12623677E+03</pdfrwt>
<pdfrwt beam="2">  1        2 0.38127134E-02 0.12623677E+03</pdfrwt>
<totfact> 0.20383740E+03</totfact>
</mgrwt>
</event>
<event>
 6    2  0.1181843E-002  0.1290390E+03  0.7546771E-02  0.1228889E+00
         21   -1    0    0  502  503  0.00000000000E+00  0.00000000000E+00  0.51163970819E+02  0.51163970819E+02  0.00000000000E+00 0.  1.
          1   -1    0    0  503    0 -0.00000000000E+00 -0.00000000000E+00 -0.12752478405E+03  0.12752478405E+03  0.00000000000E+00 0.  1.
         25    2    1    2    0    0 -0.19930897754E+02  0.25072099539E+02 -0.66559524157E+02  0.14519373840E+03  0.12500080222E+03 0.  0.
          5    1    3    3  501    0  0.34969761951E+02  0.38693910756E+02 -0.71401933715E+02  0.88421429070E+02  0.10000000000E+00 0.  1.
         -5    1    3    3    0  501 -0.54900659705E+02 -0.13621811216E+02  0.48424095583E+01  0.56772309335E+02  0.10000000000E+00 0.  1.
          1    1    1    2  502    0  0.19930897754E+02 -0.25072099539E+02 -0.98012890757E+01  0.33495016467E+02  0.00000000000E+00 0.  1.
<mgrwt>
<rscale>  1 0.12903895E+03</rscale>
<asrwt>0</asrwt>
<pdfrwt beam="1">  1       21 0.78713801E-02 0.12903895E+03</pdfrwt>
<pdfrwt beam="2">  1        1 0.19619198E-01 0.12903895E+03</pdfrwt>
<totfact> 0.33911690E+05</totfact>
</mgrwt>
</event>
<event>
 6    2  0.1181843E-002  0.1259343E+03  0.7546771E-02  0.1233616E+00
          1   -1    0    0  503    0 -0.00000000000E+00  0.00000000000E+00  0.61163599952E+03  0.61163599952E+03  0.00000000000E+00 0. -1.
         21   -1    0    0  502  503  0.00000000000E+00 -0.00000000000E+00 -0.16000960050E+02  0.16000960050E+02  0.00000000000E+00 0.  1.
         25    2    1    2    0    0  0.10387517840E+02 -0.11256627356E+02  0.23449011689E+03  0.26616736570E+03  0.12499935783E+03 0.  0.
          5    1    3    3  501    0  0.39551662562E+02  0.16191485369E+02  0.18627102005E+02  0.46620565623E+02  0.10000000000E+00 0. -1.
         -5    1    3    3    0  501 -0.29164144721E+02 -0.27448112724E+02  0.21586301488E+03  0.21954680008E+03  0.10000000000E+00 0. -1.
          1    1    1    2  502    0 -0.10387517840E+02  0.11256627356E+02  0.36114492258E+03  0.36146959387E+03  0.00000000000E+00 0. -1.
<mgrwt>
<rscale>  1 0.12593431E+03</rscale>
<asrwt>0</asrwt>
<pdfrwt beam="1">  1       21 0.24616866E-02 0.12593431E+03</pdfrwt>
<pdfrwt beam="2">  1        1 0.94097828E-01 0.12593431E+03</pdfrwt>
<totfact> 0.32691971E+05</totfact>
</mgrwt>
</event>
<event>
 6    2  0.1181843E-002  0.1327659E+03  0.7546771E-02  0.1223408E+00
         21   -1    0    0  502  503  0.00000000000E+00  0.00000000000E+00  0.17668519549E+02  0.17668519549E+02  0.00000000000E+00 0. -1.
          2   -1    0    0  503    0 -0.00000000000E+00 -0.00000000000E+00 -0.62384083293E+03  0.62384083293E+03  0.00000000000E+00 0. -1.
         25    2    1    2    0    0 -0.44257809488E+02 -0.65649955599E+01 -0.25494244625E+03  0.28744117765E+03  0.12499970735E+03 0.  0.
          5    1    3    3  501    0 -0.49943421625E+02 -0.59775765549E+02 -0.17079456582E+03  0.18771862247E+03  0.10000000000E+00 0.  1.
         -5    1    3    3    0  501  0.56856121378E+01  0.53210769989E+02 -0.84147880437E+02  0.99722555173E+02  0.10000000000E+00 0.  1.
          2    1    1    2  502    0  0.44257809488E+02  0.65649955599E+01 -0.35122986712E+03  0.35406817483E+03  0.00000000000E+00 0. -1.
<mgrwt>
<rscale>  1 0.13276588E+03</rscale>
<asrwt>0</asrwt>
<pdfrwt beam="1">  1       21 0.27182344E-02 0.13276588E+03</pdfrwt>
<pdfrwt beam="2">  1        2 0.95975490E-01 0.13276588E+03</pdfrwt>
<totfact> 0.44336829E+05</totfact>
</mgrwt>
</event>
<event>
 6    2  0.1181843E-002  0.1340874E+03  0.7546771E-02  0.1221514E+00
         21   -1    0    0  502  503  0.00000000000E+00  0.00000000000E+00  0.35023369311E+02  0.35023369311E+02  0.00000000000E+00 0.  1.
          2   -1    0    0  503    0 -0.00000000000E+00 -0.00000000000E+00 -0.50549344889E+03  0.50549344889E+03  0.00000000000E+00 0. -1.
         25    2    1    2    0    0  0.47871155255E+02  0.78954039373E+01 -0.10098866081E+03  0.16786348905E+03  0.12500182573E+03 0.  0.
          5    1    3    3  501    0  0.11966793309E+01 -0.32520331497E+02  0.15484051293E+02  0.36038449558E+02  0.10000000000E+00 0.  1.
         -5    1    3    3    0  501  0.46674475924E+02  0.40415735434E+02 -0.11647271210E+03  0.13182503950E+03  0.10000000000E+00 0.  1.
          2    1    1    2  502    0 -0.47871155255E+02 -0.78954039373E+01 -0.36948141877E+03  0.37265332915E+03  0.00000000000E+00 0. -1.
<mgrwt>
<rscale>  1 0.13408744E+03</rscale>
<asrwt>0</asrwt>
<pdfrwt beam="1">  1       21 0.53882110E-02 0.13408744E+03</pdfrwt>
<pdfrwt beam="2">  1        2 0.77768218E-01 0.13408744E+03</pdfrwt>
<totfact> 0.18039016E+05</totfact>
</mgrwt>
</event>
<event>
 6    2  0.1181843E-002  0.1376560E+03  0.7546771E-02  0.1216518E+00
         21   -1    0    0  502  503  0.00000000000E+00  0.00000000000E+00  0.19617279677E+02  0.19617279677E+02  0.00000000000E+00 0.  1.
          2   -1    0    0  503    0 -0.00000000000E+00 -0.00000000000E+00 -0.34251683217E+04  0.34251683217E+04  0.00000000000E+00 0. -1.
         25    2    1    2    0    0 -0.50364566843E+02 -0.28028443595E+02 -0.22538772206E+03  0.26409999527E+03  0.12500799576E+03 0.  0.
          5    1    3    3  501    0  0.28712654963E+02  0.18160751108E+02 -0.11885606602E+03  0.12361635760E+03  0.10000000000E+00 0. -1.
         -5    1    3    3    0  501 -0.79077221806E+02 -0.46189194702E+02 -0.10653165604E+03  0.14048363767E+03  0.10000000000E+00 0. -1.
          2    1    1    2  502    0  0.50364566843E+02  0.28028443595E+02 -0.31801633199E+04  0.31806856061E+04  0.00000000000E+00 0. -1.
<mgrwt>
<rscale>  1 0.13765603E+03</rscale>
<asrwt>0</asrwt>
<pdfrwt beam="1">  1       21 0.30180451E-02 0.13765603E+03</pdfrwt>
<pdfrwt beam="2">  1        2 0.52694861E+00 0.13765603E+03</pdfrwt>
<totfact> 0.97832838E+03</totfact>
</mgrwt>
</event>
<event>
 6    2  0.1181843E-002  0.1307157E+03  0.7546771E-02  0.1226398E+00
         21   -1    0    0  502  503  0.00000000000E+00  0.00000000000E+00  0.99376061390E+02  0.99376061390E+02  0.00000000000E+00 0. -1.
          2   -1    0    0  503    0 -0.00000000000E+00 -0.00000000000E+00 -0.21503868499E+04  0.21503868499E+04  0.00000000000E+00 0. -1.
         25    2    1    2    0    0  0.32187353386E+01  0.38088925589E+02  0.56142932183E+02  0.14226251292E+03  0.12500186894E+03 0.  0.
          5    1    3    3  501    0 -0.16925305293E+02  0.45584973094E+02  0.89920590194E+02  0.10222611346E+03  0.10000000000E+00 0. -1.
         -5    1    3    3    0  501  0.20144040631E+02 -0.74960475042E+01 -0.33777658011E+02  0.40036399462E+02  0.10000000000E+00 0. -1.
          2    1    1    2  502    0 -0.32187353386E+01 -0.38088925589E+02 -0.21071537207E+04  0.21075003984E+04  0.00000000000E+00 0. -1.
<mgrwt>
<rscale>  1 0.13071570E+03</rscale>
<asrwt>0</asrwt>
<pdfrwt beam="1">  1       21 0.15288624E-01 0.13071570E+03</pdfrwt>
<pdfrwt beam="2">  1        2 0.33082876E+00 0.13071570E+03</pdfrwt>
<totfact> 0.31777178E+03</totfact>
</mgrwt>
</event>
<event>
 6    2  0.1181843E-002  0.1296171E+03  0.7546771E-02  0.1228025E+00
          2   -1    0    0  503    0 -0.00000000000E+00  0.00000000000E+00  0.79828242354E+03  0.79828242354E+03  0.00000000000E+00 0. -1.
         21   -1    0    0  502  503  0.00000000000E+00 -0.00000000000E+00 -0.20747594911E+02  0.20747594911E+02  0.00000000000E+00 0.  1.
         25    2    1    2    0    0 -0.63857064640E+01  0.33620833633E+02  0.18714117822E+03  0.22764537193E+03  0.12501782702E+03 0.  0.
          5    1    3    3  501    0 -0.41984818779E+02 -0.33333625020E+02  0.83434704233E+02  0.99172654675E+02  0.10000000000E+00 0.  1.
         -5    1    3    3    0  501  0.35599112315E+02  0.66954458653E+02  0.10370647399E+03  0.12847271725E+03  0.10000000000E+00 0.  1.
          2    1    1    2  502    0  0.63857064640E+01 -0.33620833633E+02  0.59039365041E+03  0.59138464652E+03  0.00000000000E+00 0. -1.
<mgrwt>
<rscale>  1 0.12961711E+03</rscale>
<asrwt>0</asrwt>
<pdfrwt beam="1">  1       21 0.31919383E-02 0.12961711E+03</pdfrwt>
<pdfrwt beam="2">  1        2 0.12281266E+00 0.12961711E+03</pdfrwt>
<totfact> 0.25374758E+05</totfact>
</mgrwt>
</event>
<event>
 6    2  0.1181843E-002  0.1272200E+03  0.7546771E-02  0.1231640E+00
          1   -1    0    0  503    0 -0.00000000000E+00  0.00000000000E+00  0.15644104448E+04  0.15644104448E+04  0.00000000000E+00 0. -1.
         21   -1    0    0  502  503  0.00000000000E+00 -0.00000000000E+00 -0.29964859580E+03  0.29964859580E+03  0.00000000000E+00 0.  1.
         25    2    1    2    0    0  0.42735009332E+01  0.23296933046E+02 -0.28605083437E+03  0.31306549167E+03  0.12499564927E+03 0.  0.
          5    1    3    3  501    0 -0.49227644735E+02  0.16769626959E+02 -0.22798092626E+03  0.23383732408E+03  0.10000000000E+00 0.  1.
         -5    1    3    3    0  501  0.53501145669E+02  0.65273060870E+01 -0.58069908101E+02  0.79228167589E+02  0.10000000000E+00 0.  1.
          1    1    1    2  502    0 -0.42735009332E+01 -0.23296933046E+02  0.15508126834E+04  0.15509935490E+04  0.00000000000E+00 0. -1.
<mgrwt>
<rscale>  1 0.12721998E+03</rscale>
<asrwt>0</asrwt>
<pdfrwt beam="1">  1       21 0.46099785E-01 0.12721998E+03</pdfrwt>
<pdfrwt beam="2">  1        1 0.24067852E+00 0.12721998E+03</pdfrwt>
<totfact> 0.35329450E+02</totfact>
</mgrwt>
</event>
<event>
 6    2  0.1181843E-002  0.1261096E+03  0.7546771E-02  0.1233345E+00
          2   -1    0    0  503    0 -0.00000000000E+00  0.00000000000E+00  0.15987115553E+03  0.15987115553E+03  0.00000000000E+00 0. -1.
         21   -1    0    0  502  503  0.00000000000E+00 -0.00000000000E+00 -0.90567471151E+02  0.90567471151E+02  0.00000000000E+00 0.  1.
         25    2    1    2    0    0 -0.14660536858E+02 -0.79668955505E+01 -0.45772265400E+02  0.13415932077E+03  0.12500088121E+03 0.  0.
          5    1    3    3  501    0 -0.12755132061E+02 -0.21897486439E+02  0.39940102350E+02  0.47301322201E+02  0.10000000000E+00 0.  1.
         -5    1    3    3    0  501 -0.19054047970E+01  0.13930590888E+02 -0.85712367750E+02  0.86857998568E+02  0.10000000000E+00 0.  1.
          2    1    1    2  502    0  0.14660536858E+02  0.79668955505E+01  0.11507594978E+03  0.11627930591E+03  0.00000000000E+00 0. -1.
<mgrwt>
<rscale>  1 0.12610957E+03</rscale>
<asrwt>0</asrwt>
<pdfrwt beam="1">  1       21 0.13933457E-01 0.12610957E+03</pdfrwt>
<pdfrwt beam="2">  1        2 0.24595562E-01 0.12610957E+03</pdfrwt>
<totfact> 0.11895654E+05</totfact>
</mgrwt>
</event>
<event>
 6    2  0.1181843E-002  0.1269945E+03  0.7546771E-02  0.1231985E+00
         21   -1    0    0  502  503  0.00000000000E+00  0.00000000000E+00  0.17083567699E+03  0.17083567699E+03  0.00000000000E+00 0.  1.
          2   -1    0    0  503    0 -0.00000000000E+00 -0.00000000000E+00 -0.25110076590E+03  0.25110076590E+03  0.00000000000E+00 0. -1.
         25    2    1    2    0    0 -0.48890526935E+01  0.21868363446E+02  0.14660616764E+03  0.19396123546E+03  0.12500185726E+03 0.  0.
          5    1    3    3  501    0 -0.11915851217E+02  0.27027592199E+02  0.16814772700E+03  0.17072242485E+03  0.10000000000E+00 0. -1.
         -5    1    3    3    0  501  0.70267985232E+01 -0.51592287525E+01 -0.21541559367E+02  0.23238810614E+02  0.10000000000E+00 0. -1.
          2    1    1    2  502    0  0.48890526935E+01 -0.21868363446E+02 -0.22687125654E+03  0.22797520742E+03  0.00000000000E+00 0. -1.
<mgrwt>
<rscale>  1 0.12699446E+03</rscale>
<asrwt>0</asrwt>
<pdfrwt beam="1">  1       21 0.26282412E-01 0.12699446E+03</pdfrwt>
<pdfrwt beam="2">  1        2 0.38630887E-01 0.12699446E+03</pdfrwt>
<totfact> 0.22703450E+04</totfact>
</mgrwt>
</event>
<event>
 6    2  0.1181843E-002  0.1261728E+03  0.7546771E-02  0.1233248E+00
         21   -1    0    0  502  503  0.00000000000E+00  0.00000000000E+00  0.61045117345E+02  0.61045117345E+02  0.00000000000E+00 0. -1.
          3   -1    0    0  503    0 -0.00000000000E+00 -0.00000000000E+00 -0.12988814665E+03  0.12988814665E+03  0.00000000000E+00 0.  1.
         25    2    1    2    0    0  0.70401030188E+00 -0.17178252305E+02 -0.65845266681E+01  0.12634449459E+03  0.12499594929E+03 0.  0.
          5    1    3    3  501    0  0.37756648990E+02 -0.20221340766E+02  0.45412263867E+02  0.62423960743E+02  0.10000000000E+00 0. -1.
         -5    1    3    3    0  501 -0.37052638688E+02  0.30430884602E+01 -0.51996790535E+02  0.63920533846E+02  0.10000000000E+00 0. -1.
          3    1    1    2  502    0 -0.70401030188E+00  0.17178252305E+02 -0.62258502633E+02  0.64588769402E+02  0.00000000000E+00 0.  1.
<mgrwt>
<rscale>  1 0.12617280E+03</rscale>
<asrwt>0</asrwt>
<pdfrwt beam="1">  1       21 0.93915565E-02 0.12617280E+03</pdfrwt>
<pdfrwt beam="2">  1        3 0.19982792E-01 0.12617280E+03</pdfrwt>
<totfact> 0.96145561E+04</totfact>
</mgrwt>
</event>
<event>
 6    2  0.1181843E-002  0.1262447E+03  0.7546771E-02  0.1233137E+00
          1   -1    0    0  503    0 -0.00000000000E+00  0.00000000000E+00  0.27214800590E+03  0.27214800590E+03  0.00000000000E+00 0.  1.
         21   -1    0    0  502  503  0.00000000000E+00 -0.00000000000E+00 -0.48665395270E+02  0.48665395270E+02  0.00000000000E+00 0.  1.
         25    2    1    2    0    0  0.50579795200E+01  0.16944173559E+02  0.34320656908E+02  0.13082673609E+03  0.12500015684E+03 0.  0.
          5    1    3    3  501    0  0.45943255510E+02 -0.29585141018E+02  0.41297315510E+02  0.68494828741E+02  0.10000000000E+00 0.  1.
         -5    1    3    3    0  501 -0.40885275990E+02  0.46529314577E+02 -0.69766586023E+01  0.62331907344E+02  0.10000000000E+00 0.  1.
          1    1    1    2  502    0 -0.50579795200E+01 -0.16944173559E+02  0.18916195372E+03  0.18998666508E+03  0.00000000000E+00 0.  1.
<mgrwt>
<rscale>  1 0.12624471E+03</rscale>
<asrwt>0</asrwt>
<pdfrwt beam="1">  1       21 0.74869841E-02 0.12624471E+03</pdfrwt>
<pdfrwt beam="2">  1        1 0.41868923E-01 0.12624471E+03</pdfrwt>
<totfact> 0.14346116E+05</totfact>
</mgrwt>
</event>
<event>
 6    2  0.1181843E-002  0.2082088E+03  0.7546771E-02  0.1142992E+00
          2   -1    0    0  503    0 -0.00000000000E+00  0.00000000000E+00  0.23838284207E+04  0.23838284207E+04  0.00000000000E+00 0. -1.
         21   -1    0    0  502  503  0.00000000000E+00 -0.00000000000E+00 -0.44886544021E+03  0.44886544021E+03  0.00000000000E+00 0.  1.
         25    2    1    2    0    0 -0.15609801122E+03  0.57964040397E+02 -0.42162395735E+03  0.47023149832E+03  0.12499792604E+03 0.  0.
          5    1    3    3  501    0 -0.10201496986E+03  0.15212150537E+02 -0.10887398363E+03  0.14997339067E+03  0.10000000000E+00 0.  1.
         -5    1    3    3    0  501 -0.54083041360E+02  0.42751889860E+02 -0.31274997372E+03  0.32025810765E+03  0.10000000000E+00 0.  1.
          2    1    1    2  502    0  0.15609801122E+03 -0.57964040397E+02  0.23565869379E+04  0.23624623626E+04  0.00000000000E+00 0. -1.
<mgrwt>
<rscale>  1 0.20820879E+03</rscale>
<asrwt>0</asrwt>
<pdfrwt beam="1">  1       21 0.69056223E-01 0.20820879E+03</pdfrwt>
<pdfrwt beam="2">  1        2 0.36674283E+00 0.20820879E+03</pdfrwt>
<totfact> 0.11383673E+02</totfact>
</mgrwt>
</event>
<event>
 6    2  0.1181843E-002  0.1348481E+03  0.7546771E-02  0.1220434E+00
          2   -1    0    0  503    0 -0.00000000000E+00  0.00000000000E+00  0.35812493474E+03  0.35812493474E+03  0.00000000000E+00 0. -1.
         21   -1    0    0  502  503  0.00000000000E+00 -0.00000000000E+00 -0.44040360867E+03  0.44040360867E+03  0.00000000000E+00 0.  1.
         25    2    1    2    0    0 -0.30341661293E+02 -0.40471807084E+02 -0.42819862694E+03  0.44892992002E+03  0.12500170159E+03 0.  0.
          5    1    3    3  501    0 -0.48201378391E+02 -0.74564584992E+02 -0.22066654982E+03  0.23785917351E+03  0.10000000000E+00 0.  1.
         -5    1    3    3    0  501  0.17859717098E+02  0.34092777908E+02 -0.20753207712E+03  0.21107074651E+03  0.10000000000E+00 0.  1.
          2    1    1    2  502    0  0.30341661293E+02  0.40471807084E+02  0.34591995301E+03  0.34959862338E+03  0.00000000000E+00 0. -1.
<mgrwt>
<rscale>  1 0.13484810E+03</rscale>
<asrwt>0</asrwt>
<pdfrwt beam="1">  1       21 0.67754401E-01 0.13484810E+03</pdfrwt>
<pdfrwt beam="2">  1        2 0.55096144E-01 0.13484810E+03</pdfrwt>
<totfact> 0.22933840E+03</totfact>
</mgrwt>
</event>
<event>
 6    2  0.1181843E-002  0.1425393E+03  0.7546771E-02  0.1209952E+00
         21   -1    0    0  502  503  0.00000000000E+00  0.00000000000E+00  0.21251490044E+02  0.21251490044E+02  0.00000000000E+00 0.  1.
          1   -1    0    0  503    0 -0.00000000000E+00 -0.00000000000E+00 -0.16239133882E+04  0.16239133882E+04  0.00000000000E+00 0.  1.
         25    2    1    2    0    0 -0.52989333569E+02 -0.43394890222E+02 -0.22860779593E+03  0.26940484764E+03  0.12500584627E+03 0.  0.
          5    1    3    3  501    0 -0.70225966839E+02 -0.84423789510E+01 -0.50062433485E+02  0.86655740878E+02  0.10000000000E+00 0.  1.
         -5    1    3    3    0  501  0.17236633269E+02 -0.34952511271E+02 -0.17854536245E+03  0.18274910676E+03  0.10000000000E+00 0.  1.
          1    1    1    2  502    0  0.52989333569E+02  0.43394890222E+02 -0.13740541022E+04  0.13757600306E+04  0.00000000000E+00 0.  1.
<mgrwt>
<rscale>  1 0.14253928E+03</rscale>
<asrwt>0</asrwt>
<pdfrwt beam="1">  1       21 0.32694597E-02 0.14253928E+03</pdfrwt>
<pdfrwt beam="2">  1        1 0.24983285E+00 0.14253928E+03</pdfrwt>
<totfact> 0.37382563E+04</totfact>
</mgrwt>
</event>
<event>
 6    2  0.1181843E-002  0.1306277E+03  0.7546771E-02  0.1226527E+00
          2   -1    0    0  503    0 -0.00000000000E+00  0.00000000000E+00  0.74579279044E+03  0.74579279044E+03  0.00000000000E+00 0.  1.
         21   -1    0    0  502  503  0.00000000000E+00 -0.00000000000E+00 -0.10632243049E+02  0.10632243049E+02  0.00000000000E+00 0. -1.
         25    2    1    2    0    0 -0.25055237903E+02 -0.28481195389E+02  0.44440930099E+03  0.46320970183E+03  0.12499863049E+03 0.  0.
          5    1    3    3  501    0  0.48057589439E+02 -0.37722882610E+01  0.11154135570E+03  0.12151232897E+03  0.10000000000E+00 0.  1.
         -5    1    3    3    0  501 -0.73112827342E+02 -0.24708907128E+02  0.33286794529E+03  0.34169737286E+03  0.10000000000E+00 0.  1.
          2    1    1    2  502    0  0.25055237903E+02  0.28481195389E+02  0.29075124640E+03  0.29321533166E+03  0.00000000000E+00 0.  1.
<mgrwt>
<rscale>  1 0.13062772E+03</rscale>
<asrwt>0</asrwt>
<pdfrwt beam="1">  1       21 0.16357303E-02 0.13062772E+03</pdfrwt>
<pdfrwt beam="2">  1        2 0.11473731E+00 0.13062772E+03</pdfrwt>
<totfact> 0.81632726E+05</totfact>
</mgrwt>
</event>
<event>
 6    2  0.1181843E-002  0.2356828E+03  0.7546771E-02  0.1122703E+00
         21   -1    0    0  502  503  0.00000000000E+00  0.00000000000E+00  0.84872162516E+02  0.84872162516E+02  0.00000000000E+00 0.  1.
          2   -1    0    0  503    0 -0.00000000000E+00 -0.00000000000E+00 -0.72839265225E+03  0.72839265225E+03  0.00000000000E+00 0.  1.
         25    2    1    2    0    0  0.10444648905E+03 -0.17033818754E+03 -0.14629999195E+03  0.27739879548E+03  0.12498894702E+03 0.  0.
          5    1    3    3  501    0  0.15575289945E+02  0.14385339827E+02 -0.42795674679E+02  0.47759893530E+02  0.10000000000E+00 0. -1.
         -5    1    3    3    0  501  0.88871199105E+02 -0.18472352737E+03 -0.10350431727E+03  0.22963890195E+03  0.10000000000E+00 0. -1.
          2    1    1    2  502    0 -0.10444648905E+03  0.17033818754E+03 -0.49722049778E+03  0.53586601928E+03  0.00000000000E+00 0.  1.
<mgrwt>
<rscale>  1 0.23568285E+03</rscale>
<asrwt>0</asrwt>
<pdfrwt beam="1">  1       21 0.13057256E-01 0.23568285E+03</pdfrwt>
<pdfrwt beam="2">  1        2 0.11206041E+00 0.23568285E+03</pdfrwt>
<totfact> 0.25247053E+04</totfact>
</mgrwt>
</event>
<event>
 6    2  0.1181843E-002  0.1279480E+03  0.7546771E-02  0.1230533E+00
         21   -1    0    0  502  503  0.00000000000E+00  0.00000000000E+00  0.39492682892E+01  0.39492682892E+01  0.00000000000E+00 0.  1.
          2   -1    0    0  503    0 -0.00000000000E+00 -0.00000000000E+00 -0.25802214587E+04  0.25802214587E+04  0.00000000000E+00 0.  1.
         25    2    1    2    0    0 -0.22515378693E+02  0.15437012780E+02 -0.10658955444E+04  0.10735473933E+04  0.12500180130E+03 0.  0.
          5    1    3    3  501    0 -0.63727142237E+02  0.69256216894E+00 -0.89032633307E+03  0.89260440154E+03  0.10000000000E+00 0.  1.
         -5    1    3    3    0  501  0.41211763544E+02  0.14744450611E+02 -0.17556921137E+03  0.18094299174E+03  0.10000000000E+00 0.  1.
          2    1    1    2  502    0  0.22515378693E+02 -0.15437012780E+02 -0.15103766460E+04  0.15106233337E+04  0.00000000000E+00 0.  1.
<mgrwt>
<rscale>  1 0.12794801E+03</rscale>
<asrwt>0</asrwt>
<pdfrwt beam="1">  1       21 0.60758030E-03 0.12794801E+03</pdfrwt>
<pdfrwt beam="2">  1        2 0.39695678E+00 0.12794801E+03</pdfrwt>
<totfact> 0.39148103E+05</totfact>
</mgrwt>
</event>
<event>
 6    2  0.1181843E-002  0.2249579E+03  0.7546771E-02  0.1130240E+00
         21   -1    0    0  502  503  0.00000000000E+00  0.00000000000E+00  0.11195921445E+03  0.11195921445E+03  0.00000000000E+00 0. -1.
          1   -1    0    0  503    0 -0.00000000000E+00 -0.00000000000E+00 -0.11221955210E+04  0.11221955210E+04  0.00000000000E+00 0.  1.
         25    2    1    2    0    0 -0.14094253970E+03 -0.12294553466E+03 -0.19368664535E+02  0.22579017439E+03  0.12500261476E+03 0.  0.
          5    1    3    3  501    0 -0.52339861124E+02 -0.81630640868E+01 -0.55117975453E+02  0.76446699705E+02  0.10000000000E+00 0. -1.
         -5    1    3    3    0  501 -0.88602678576E+02 -0.11478247057E+03  0.35749310918E+02  0.14934347469E+03  0.10000000000E+00 0. -1.
          1    1    1    2  502    0  0.14094253970E+03  0.12294553466E+03 -0.99086764203E+03  0.10083645611E+04  0.00000000000E+00 0.  1.
<mgrwt>
<rscale>  1 0.22495790E+03</rscale>
<asrwt>0</asrwt>
<pdfrwt beam="1">  1       21 0.17224494E-01 0.22495790E+03</pdfrwt>
<pdfrwt beam="2">  1        1 0.17264547E+00 0.22495790E+03</pdfrwt>
<totfact> 0.44085327E+03</totfact>
</mgrwt>
</event>
<event>
 6    2  0.1181843E-002  0.1272073E+03  0.7546771E-02  0.1231659E+00
          2   -1    0    0  503    0 -0.00000000000E+00  0.00000000000E+00  0.25442354668E+02  0.25442354668E+02  0.00000000000E+00 0. -1.
         21   -1    0    0  502  503  0.00000000000E+00 -0.00000000000E+00 -0.29861739593E+03  0.29861739593E+03  0.00000000000E+00 0. -1.
         25    2    1    2    0    0  0.18416043138E+02 -0.14564702933E+02 -0.14135729123E+03  0.19016725476E+03  0.12502167726E+03 0.  0.
          5    1    3    3  501    0  0.13530812933E+02 -0.51158959515E+02 -0.14373987560E+03  0.15317141990E+03  0.10000000000E+00 0. -1.
         -5    1    3    3    0  501  0.48852302048E+01  0.36594256582E+02  0.23825843702E+01  0.36995834863E+02  0.10000000000E+00 0. -1.
          2    1    1    2  502    0 -0.18416043138E+02  0.14564702933E+02 -0.13181775003E+03  0.13389249583E+03  0.00000000000E+00 0. -1.
<mgrwt>
<rscale>  1 0.12720732E+03</rscale>
<asrwt>0</asrwt>
<pdfrwt beam="1">  1       21 0.45941136E-01 0.12720732E+03</pdfrwt>
<pdfrwt beam="2">  1        2 0.39142086E-02 0.12720732E+03</pdfrwt>
<totfact> 0.11659447E+05</totfact>
</mgrwt>
</event>
<event>
 6    2  0.1181843E-002  0.1260378E+03  0.7546771E-02  0.1233456E+00
          3   -1    0    0  503    0 -0.00000000000E+00  0.00000000000E+00  0.91381082169E+01  0.91381082169E+01  0.00000000000E+00 0. -1.
         21   -1    0    0  502  503  0.00000000000E+00 -0.00000000000E+00 -0.10176806613E+04  0.10176806613E+04  0.00000000000E+00 0. -1.
         25    2    1    2    0    0 -0.14871937894E+02  0.58853217802E+01 -0.10014030486E+04  0.10093035169E+04  0.12501884669E+03 0.  0.
          5    1    3    3  501    0  0.16852844908E+02  0.60161972837E+02 -0.55195057194E+03  0.55547540470E+03  0.10000000000E+00 0. -1.
         -5    1    3    3    0  501 -0.31724782802E+02 -0.54276651057E+02 -0.44945247666E+03  0.45382811225E+03  0.10000000000E+00 0. -1.
          3    1    1    2  502    0  0.14871937894E+02 -0.58853217802E+01 -0.71395045247E+01  0.17515252611E+02  0.00000000000E+00 0. -1.
<mgrwt>
<rscale>  1 0.12603779E+03</rscale>
<asrwt>0</asrwt>
<pdfrwt beam="1">  1       21 0.15656633E+00 0.12603779E+03</pdfrwt>
<pdfrwt beam="2">  1        3 0.14058621E-02 0.12603779E+03</pdfrwt>
<totfact> 0.21168684E+04</totfact>
</mgrwt>
</event>
<event>
 6    2  0.1181843E-002  0.1954750E+03  0.7546771E-02  0.1153614E+00
          2   -1    0    0  503    0 -0.00000000000E+00  0.00000000000E+00  0.29137705408E+04  0.29137705408E+04  0.00000000000E+00 0. -1.
         21   -1    0    0  502  503  0.00000000000E+00 -0.00000000000E+00 -0.10450734942E+02  0.10450734942E+02  0.00000000000E+00 0. -1.
         25    2    1    2    0    0  0.40700893931E+01  0.15022964362E+03  0.14406395552E+04  0.14538407035E+04  0.12499980722E+03 0.  0.
          5    1    3    3  501    0 -0.22479329325E+02  0.90808630118E+02  0.12256761346E+04  0.12292410360E+04  0.10000000000E+00 0. -1.
         -5    1    3    3    0  501  0.26549418718E+02  0.59421013505E+02  0.21496342052E+03  0.22459966750E+03  0.10000000000E+00 0. -1.
          2    1    1    2  502    0 -0.40700893931E+01 -0.15022964362E+03  0.14626802507E+04  0.14703805723E+04  0.00000000000E+00 0. -1.
<mgrwt>
<rscale>  1 0.19547497E+03</rscale>
<asrwt>0</asrwt>
<pdfrwt beam="1">  1       21 0.16078077E-02 0.19547497E+03</pdfrwt>
<pdfrwt beam="2">  1        2 0.44827174E+00 0.19547497E+03</pdfrwt>
<totfact> 0.54006491E+04</totfact>
</mgrwt>
</event>
<event>
 6    2  0.1181843E-002  0.1263687E+03  0.7546771E-02  0.1232946E+00
          2   -1    0    0  503    0 -0.00000000000E+00  0.00000000000E+00  0.97566939694E+02  0.97566939694E+02  0.00000000000E+00 0. -1.
         21   -1    0    0  502  503  0.00000000000E+00 -0.00000000000E+00 -0.68513224047E+02  0.68513224047E+02  0.00000000000E+00 0. -1.
         25    2    1    2    0    0  0.17216475529E+02 -0.68876706991E+01 -0.59064779684E+01  0.12650666030E+03  0.12500080632E+03 0.  0.
          5    1    3    3  501    0 -0.34972200837E+02 -0.22073237666E+02  0.38360714606E+02  0.56407774974E+02  0.10000000000E+00 0. -1.
         -5    1    3    3    0  501  0.52188676366E+02  0.15185566967E+02 -0.44267192574E+02  0.70098885322E+02  0.10000000000E+00 0. -1.
          2    1    1    2  502    0 -0.17216475529E+02  0.68876706991E+01  0.34960193615E+02  0.39573503445E+02  0.00000000000E+00 0. -1.
<mgrwt>
<rscale>  1 0.12636870E+03</rscale>
<asrwt>0</asrwt>
<pdfrwt beam="1">  1       21 0.10540496E-01 0.12636870E+03</pdfrwt>
<pdfrwt beam="2">  1        2 0.15010298E-01 0.12636870E+03</pdfrwt>
<totfact> 0.34157739E+05</totfact>
</mgrwt>
</event>
<event>
 6    2  0.1181843E-002  0.1266103E+03  0.7546771E-02  0.1232574E+00
          1   -1    0    0  503    0 -0.00000000000E+00  0.00000000000E+00  0.13590112855E+04  0.13590112855E+04  0.00000000000E+00 0. -1.
         21   -1    0    0  502  503  0.00000000000E+00 -0.00000000000E+00 -0.83178824739E+01  0.83178824739E+01  0.00000000000E+00 0. -1.
         25    2    1    2    0    0 -0.19596904888E+02 -0.44162467614E+01  0.48040475859E+03  0.49680871069E+03  0.12500648393E+03 0.  0.
          5    1    3    3  501    0 -0.11925058956E+02 -0.20718238699E+02  0.97627588649E+01  0.25821965582E+02  0.10000000000E+00 0. -1.
         -5    1    3    3    0  501 -0.76718459321E+01  0.16301991938E+02  0.47064199973E+03  0.47098674511E+03  0.10000000000E+00 0. -1.
          1    1    1    2  502    0  0.19596904888E+02  0.44162467614E+01  0.87028864443E+03  0.87052045728E+03  0.00000000000E+00 0. -1.
<mgrwt>
<rscale>  1 0.12661028E+03</rscale>
<asrwt>0</asrwt>
<pdfrwt beam="1">  1       21 0.12796753E-02 0.12661028E+03</pdfrwt>
<pdfrwt beam="2">  1        1 0.20907848E+00 0.12661028E+03</pdfrwt>
<totfact> 0.25321258E+05</totfact>
</mgrwt>
</event>
<event>
 6    2  0.1181843E-002  0.1807948E+03  0.7546771E-02  0.1167036E+00
          1   -1    0    0  503    0 -0.00000000000E+00  0.00000000000E+00  0.77963938708E+03  0.77963938708E+03  0.00000000000E+00 0. -1.
         21   -1    0    0  502  503  0.00000000000E+00 -0.00000000000E+00 -0.34352943296E+02  0.34352943296E+02  0.00000000000E+00 0.  1.
         25    2    1    2    0    0 -0.13061482536E+03 -0.14932485799E+01  0.30319345331E+03  0.35300569866E+03  0.12499716301E+03 0.  0.
          5    1    3    3  501    0 -0.91772777005E+02  0.24013443695E+02  0.28937365698E+03  0.30452587974E+03  0.10000000000E+00 0.  1.
         -5    1    3    3    0  501 -0.38842048358E+02 -0.25506692275E+02  0.13819796324E+02  0.48479818913E+02  0.10000000000E+00 0.  1.
          1    1    1    2  502    0  0.13061482536E+03  0.14932485799E+01  0.44209299048E+03  0.46098663172E+03  0.00000000000E+00 0. -1.
<mgrwt>
<rscale>  1 0.18079478E+03</rscale>
<asrwt>0</asrwt>
<pdfrwt beam="1">  1       21 0.52850688E-02 0.18079478E+03</pdfrwt>
<pdfrwt beam="2">  1        1 0.11994451E+00 0.18079478E+03</pdfrwt>
<totfact> 0.65579894E+04</totfact>
</mgrwt>
</event>
<event>
 6    2  0.1181843E-002  0.1517619E+03  0.7546771E-02  0.1198325E+00
         21   -1    0    0  502  503  0.00000000000E+00  0.00000000000E+00  0.39366847557E+02  0.39366847557E+02  0.00000000000E+00 0. -1.
          1   -1    0    0  503    0 -0.00000000000E+00 -0.00000000000E+00 -0.36229290248E+03  0.36229290248E+03  0.00000000000E+00 0. -1.
         25    2    1    2    0    0  0.64693669081E+01 -0.85821041562E+02 -0.18782795218E+03  0.24147672582E+03  0.12499826242E+03 0.  0.
          5    1    3    3  501    0 -0.13203410934E+02 -0.21750084559E+02  0.13838841041E+02  0.28964111586E+02  0.10000000000E+00 0. -1.
         -5    1    3    3    0  501  0.19672777842E+02 -0.64070957004E+02 -0.20166679323E+03  0.21251261424E+03  0.10000000000E+00 0. -1.
          1    1    1    2  502    0 -0.64693669081E+01  0.85821041562E+02 -0.13509810273E+03  0.16018302421E+03  0.00000000000E+00 0. -1.
<mgrwt>
<rscale>  1 0.15176188E+03</rscale>
<asrwt>0</asrwt>
<pdfrwt beam="1">  1       21 0.60564383E-02 0.15176188E+03</pdfrwt>
<pdfrwt beam="2">  1        1 0.55737368E-01 0.15176188E+03</pdfrwt>
<totfact> 0.14559795E+05</totfact>
</mgrwt>
</event>
<event>
 6    2  0.1181843E-002  0.1296834E+03  0.7546771E-02  0.1227926E+00
         21   -1    0    0  502  503  0.00000000000E+00  0.00000000000E+00  0.38155312704E+02  0.38155312704E+02  0.00000000000E+00 0.  1.
          1   -1    0    0  503    0 -0.00000000000E+00 -0.00000000000E+00 -0.22481552942E+03  0.22481552942E+03  0.00000000000E+00 0.  1.
         25    2    1    2    0    0 -0.28292386873E+02 -0.19691710755E+02 -0.83589334411E+02  0.15428860159E+03  0.12501829117E+03 0.  0.
          5    1    3    3  501    0  0.12462683442E+02  0.39368542661E+02  0.35033434425E+01  0.41442539077E+02  0.10000000000E+00 0. -1.
         -5    1    3    3    0  501 -0.40755070315E+02 -0.59060253416E+02 -0.87092677854E+02  0.11284606252E+03  0.10000000000E+00 0. -1.
          1    1    1    2  502    0  0.28292386873E+02  0.19691710755E+02 -0.10307088230E+03  0.10868224053E+03  0.00000000000E+00 0.  1.
<mgrwt>
<rscale>  1 0.12968344E+03</rscale>
<asrwt>0</asrwt>
<pdfrwt beam="1">  1       21 0.58700482E-02 0.12968344E+03</pdfrwt>
<pdfrwt beam="2">  1        1 0.34587004E-01 0.12968344E+03</pdfrwt>
<totfact> 0.27540134E+05</totfact>
</mgrwt>
</event>
<event>
 6    2  0.1181843E-002  0.1466190E+03  0.7546771E-02  0.1204690E+00
         21   -1    0    0  502  503  0.00000000000E+00  0.00000000000E+00  0.47393102503E+03  0.47393102503E+03  0.00000000000E+00 0. -1.
          1   -1    0    0  503    0 -0.00000000000E+00 -0.00000000000E+00 -0.32468261147E+03  0.32468261147E+03  0.00000000000E+00 0. -1.
         25    2    1    2    0    0  0.76495958442E+02  0.43637664916E+01  0.45779239240E+03  0.48069845757E+03  0.12500583371E+03 0.  0.
          5    1    3    3  501    0  0.10889417431E+03 -0.93372647250E+00  0.29105687851E+03  0.31076185347E+03  0.10000000000E+00 0. -1.
         -5    1    3    3    0  501 -0.32398215870E+02  0.52974929641E+01  0.16673551389E+03  0.16993660410E+03  0.10000000000E+00 0. -1.
          1    1    1    2  502    0 -0.76495958442E+02 -0.43637664916E+01 -0.30854397884E+03  0.31791517893E+03  0.00000000000E+00 0. -1.
<mgrwt>
<rscale>  1 0.14661900E+03</rscale>
<asrwt>0</asrwt>
<pdfrwt beam="1">  1       21 0.72912465E-01 0.14661900E+03</pdfrwt>
<pdfrwt beam="2">  1        1 0.49951171E-01 0.14661900E+03</pdfrwt>
<totfact> 0.15029501E+03</totfact>
</mgrwt>
</event>
<event>
 6    2  0.1181843E-002  0.1846307E+03  0.7546771E-02  0.1163395E+00
          4   -1    0    0  503    0 -0.00000000000E+00  0.00000000000E+00  0.21245450114E+03  0.21245450114E+03  0.00000000000E+00 0.  1.
         21   -1    0    0  502  503  0.00000000000E+00 -0.00000000000E+00 -0.13440475622E+03  0.13440475622E+03  0.00000000000E+00 0. -1.
         25    2    1    2    0    0 -0.11669308136E+03 -0.69618445560E+02  0.98796651810E+02  0.20940221919E+03  0.12499803116E+03 0.  0.
          5    1    3    3  501    0 -0.94907806919E+02 -0.57603110522E+02  0.12904940822E+03  0.17023328087E+03  0.10000000000E+00 0.  1.
         -5    1    3    3    0  501 -0.21785274437E+02 -0.12015335038E+02 -0.30252756408E+02  0.39168938314E+02  0.10000000000E+00 0.  1.
          4    1    1    2  502    0  0.11669308136E+03  0.69618445560E+02 -0.20746906884E+02  0.13745703817E+03  0.00000000000E+00 0.  1.
<mgrwt>
<rscale>  1 0.18463074E+03</rscale>
<asrwt>0</asrwt>
<pdfrwt beam="1">  1       21 0.20677655E-01 0.18463074E+03</pdfrwt>
<pdfrwt beam="2">  1        4 0.32685308E-01 0.18463074E+03</pdfrwt>
<totfact> 0.82081155E+03</totfact>
</mgrwt>
</event>
<event>
 6    2  0.1181843E-002  0.1287622E+03  0.7546771E-02  0.1229304E+00
         21   -1    0    0  502  503  0.00000000000E+00  0.00000000000E+00  0.35263283189E+03  0.35263283189E+03  0.00000000000E+00 0.  1.
          2   -1    0    0  503    0 -0.00000000000E+00 -0.00000000000E+00 -0.37934520348E+02  0.37934520348E+02  0.00000000000E+00 0.  1.
         25    2    1    2    0    0  0.79264358678E+01  0.29883223548E+02  0.33132332436E+03  0.35546426853E+03  0.12499546192E+03 0.  0.
          5    1    3    3  501    0  0.62086391772E+02 -0.54966998242E+00  0.11879448335E+03  0.13404164075E+03  0.10000000000E+00 0.  1.
         -5    1    3    3    0  501 -0.54159955904E+02  0.30432893530E+02  0.21252884101E+03  0.22142262778E+03  0.10000000000E+00 0.  1.
          2    1    1    2  502    0 -0.79264358678E+01 -0.29883223548E+02 -0.16625012813E+02  0.35103083714E+02  0.00000000000E+00 0.  1.
<mgrwt>
<rscale>  1 0.12876219E+03</rscale>
<asrwt>0</asrwt>
<pdfrwt beam="1">  1       21 0.54251203E-01 0.12876219E+03</pdfrwt>
<pdfrwt beam="2">  1        2 0.58360803E-02 0.12876219E+03</pdfrwt>
<totfact> 0.49118084E+04</totfact>
</mgrwt>
</event>
<event>
 6    2  0.1181843E-002  0.1313431E+03  0.7546771E-02  0.1225476E+00
         21   -1    0    0  502  503  0.00000000000E+00  0.00000000000E+00  0.25962169158E+03  0.25962169158E+03  0.00000000000E+00 0. -1.
          2   -1    0    0  503    0 -0.00000000000E+00 -0.00000000000E+00 -0.11945226306E+03  0.11945226306E+03  0.00000000000E+00 0. -1.
         25    2    1    2    0    0  0.38891335549E+02  0.10652949127E+02  0.23878983420E+03  0.27252816297E+03  0.12499997355E+03 0.  0.
          5    1    3    3  501    0 -0.42373853368E+02  0.14061867862E+02  0.50406798606E+02  0.67335985347E+02  0.10000000000E+00 0.  1.
         -5    1    3    3    0  501  0.81265188917E+02 -0.34089187350E+01  0.18838303559E+03  0.20519217762E+03  0.10000000000E+00 0.  1.
          2    1    1    2  502    0 -0.38891335549E+02 -0.10652949127E+02 -0.98620405680E+02  0.10654579167E+03  0.00000000000E+00 0. -1.
<mgrwt>
<rscale>  1 0.13134312E+03</rscale>
<asrwt>0</asrwt>
<pdfrwt beam="1">  1       21 0.39941799E-01 0.13134312E+03</pdfrwt>
<pdfrwt beam="2">  1        2 0.18377271E-01 0.13134312E+03</pdfrwt>
<totfact> 0.22694588E+04</totfact>
</mgrwt>
</event>
<event>
 6    2  0.1181843E-002  0.1275240E+03  0.7546771E-02  0.1231177E+00
          2   -1    0    0  503    0 -0.00000000000E+00  0.00000000000E+00  0.23985458909E+04  0.23985458909E+04  0.00000000000E+00 0.  1.
         21   -1    0    0  502  503  0.00000000000E+00 -0.00000000000E+00 -0.70553621962E+01  0.70553621962E+01  0.00000000000E+00 0.  1.
         25    2    1    2    0    0  0.44095988591E+01 -0.24868252373E+02  0.57654006905E+03  0.59047507414E+03  0.12499794967E+03 0.  0.
          5    1    3    3  501    0 -0.45703553856E+02 -0.46835425648E+02  0.40965773232E+03  0.41485158742E+03  0.10000000000E+00 0.  1.
         -5    1    3    3    0  501  0.50113152715E+02  0.21967173275E+02  0.16688233673E+03  0.17562348672E+03  0.10000000000E+00 0.  1.
          2    1    1    2  502    0 -0.44095988591E+01  0.24868252373E+02  0.18149504596E+04  0.18151261789E+04  0.00000000000E+00 0.  1.
<mgrwt>
<rscale>  1 0.12752397E+03</rscale>
<asrwt>0</asrwt>
<pdfrwt beam="1">  1       21 0.10854422E-02 0.12752397E+03</pdfrwt>
<pdfrwt beam="2">  1        2 0.36900641E+00 0.12752397E+03</pdfrwt>
<totfact> 0.19715868E+05</totfact>
</mgrwt>
</event>
<event>
 6    2  0.1181843E-002  0.1314478E+03  0.7546771E-02  0.1225323E+00
          2   -1    0    0  503    0 -0.00000000000E+00  0.00000000000E+00  0.26223741406E+04  0.26223741406E+04  0.00000000000E+00 0. -1.
         21   -1    0    0  502  503  0.00000000000E+00 -0.00000000000E+00 -0.34557974002E+01  0.34557974002E+01  0.00000000000E+00 0. -1.
         25    2    1    2    0    0 -0.40659754817E+02 -0.20596266785E+01  0.13808420024E+04  0.13870844099E+04  0.12498426657E+03 0.  0.
          5    1    3    3  501    0 -0.36749402135E+01 -0.58736339453E+01  0.13106932539E+01  0.70521399661E+01  0.10000000000E+00 0.  1.
         -5    1    3    3    0  501 -0.36984814604E+02  0.38140072668E+01  0.13795313091E+04  0.13800322699E+04  0.10000000000E+00 0.  1.
          2    1    1    2  502    0  0.40659754817E+02  0.20596266785E+01  0.12380763408E+04  0.12387455281E+04  0.00000000000E+00 0. -1.
<mgrwt>
<rscale>  1 0.13144780E+03</rscale>
<asrwt>0</asrwt>
<pdfrwt beam="1">  1       21 0.53166323E-03 0.13144780E+03</pdfrwt>
<pdfrwt beam="2">  1        2 0.40344059E+00 0.13144780E+03</pdfrwt>
<totfact> 0.45689231E+05</totfact>
</mgrwt>
</event>
<event>
 6    2  0.1181843E-002  0.1274141E+03  0.7546771E-02  0.1231344E+00
         21   -1    0    0  502  503  0.00000000000E+00  0.00000000000E+00  0.32364589935E+02  0.32364589935E+02  0.00000000000E+00 0.  1.
          2   -1    0    0  503    0 -0.00000000000E+00 -0.00000000000E+00 -0.79325296373E+03  0.79325296373E+03  0.00000000000E+00 0.  1.
         25    2    1    2    0    0 -0.24154774589E+02  0.50667141104E+01 -0.94156799480E+02  0.15842933666E+03  0.12500090839E+03 0.  0.
          5    1    3    3  501    0 -0.56089282379E+02  0.46062297841E+02 -0.38028508888E+02  0.81938515781E+02  0.10000000000E+00 0.  1.
         -5    1    3    3    0  501  0.31934507790E+02 -0.40995583731E+02 -0.56128290592E+02  0.76490820874E+02  0.10000000000E+00 0.  1.
          2    1    1    2  502    0  0.24154774589E+02 -0.50667141104E+01 -0.66673157431E+03  0.66718821701E+03  0.00000000000E+00 0.  1.
<mgrwt>
<rscale>  1 0.12741410E+03</rscale>
<asrwt>0</asrwt>
<pdfrwt beam="1">  1       21 0.49791678E-02 0.12741410E+03</pdfrwt>
<pdfrwt beam="2">  1        2 0.12203891E+00 0.12741410E+03</pdfrwt>
<totfact> 0.12212381E+05</totfact>
</mgrwt>
</event>
<event>
 6    2  0.1181843E-002  0.1274022E+03  0.7546771E-02  0.1231362E+00
          1   -1    0    0  503    0 -0.00000000000E+00  0.00000000000E+00  0.88844918660E+02  0.88844918660E+02  0.00000000000E+00 0. -1.
         21   -1    0    0  502  503  0.00000000000E+00 -0.00000000000E+00 -0.72500570527E+02  0.72500570527E+02  0.00000000000E+00 0. -1.
         25    2    1    2    0    0 -0.23750189733E+02  0.67588583597E+01 -0.66885241216E+01  0.12757765119E+03  0.12498626744E+03 0.  0.
          5    1    3    3  501    0  0.36927496678E+02  0.17432691297E+02 -0.40319694686E+02  0.57386640574E+02  0.10000000000E+00 0. -1.
         -5    1    3    3    0  501 -0.60677686411E+02 -0.10673832937E+02  0.33631170565E+02  0.70191010616E+02  0.10000000000E+00 0. -1.
          1    1    1    2  502    0  0.23750189733E+02 -0.67588583597E+01  0.23032872255E+02  0.33767837997E+02  0.00000000000E+00 0. -1.
<mgrwt>
<rscale>  1 0.12740220E+03</rscale>
<asrwt>0</asrwt>
<pdfrwt beam="1">  1       21 0.11153934E-01 0.12740220E+03</pdfrwt>
<pdfrwt beam="2">  1        1 0.13668449E-01 0.12740220E+03</pdfrwt>
<totfact> 0.29377769E+05</totfact>
</mgrwt>
</event>
<event>
 6    2  0.1181843E-002  0.1267185E+03  0.7546771E-02  0.1232408E+00
          4   -1    0    0  503    0 -0.00000000000E+00  0.00000000000E+00  0.48823092611E+03  0.48823092611E+03  0.00000000000E+00 0.  1.
         21   -1    0    0  502  503  0.00000000000E+00 -0.00000000000E+00 -0.96561409030E+02  0.96561409030E+02  0.00000000000E+00 0. -1.
         25    2    1    2    0    0  0.14585674279E+02  0.14823680286E+02 -0.54641271641E+02  0.13799729989E+03  0.12500041128E+03 0.  0.
          5    1    3    3  501    0 -0.11587168642E+02 -0.39974237656E+02  0.16225020842E+02  0.44670610637E+02  0.10000000000E+00 0.  1.
         -5    1    3    3    0  501  0.26172842921E+02  0.54797917942E+02 -0.70866292483E+02  0.93326689257E+02  0.10000000000E+00 0.  1.
          4    1    1    2  502    0 -0.14585674279E+02 -0.14823680286E+02  0.44631078872E+03  0.44679503524E+03  0.00000000000E+00 0.  1.
<mgrwt>
<rscale>  1 0.12671853E+03</rscale>
<asrwt>0</asrwt>
<pdfrwt beam="1">  1       21 0.14855602E-01 0.12671853E+03</pdfrwt>
<pdfrwt beam="2">  1        4 0.75112449E-01 0.12671853E+03</pdfrwt>
<totfact> 0.26875298E+03</totfact>
</mgrwt>
</event>
<event>
 6    2  0.1181843E-002  0.1299786E+03  0.7546771E-02  0.1227487E+00
          1   -1    0    0  503    0 -0.00000000000E+00  0.00000000000E+00  0.14074990071E+04  0.14074990071E+04  0.00000000000E+00 0.  1.
         21   -1    0    0  502  503  0.00000000000E+00 -0.00000000000E+00 -0.76835192228E+01  0.76835192228E+01  0.00000000000E+00 0.  1.
         25    2    1    2    0    0 -0.12206401079E+01  0.35597640096E+02  0.57120263511E+03  0.58580448121E+03  0.12500303159E+03 0.  0.
          5    1    3    3  501    0  0.40117836372E+02  0.58319402420E+02  0.45366842069E+03  0.45915753225E+03  0.10000000000E+00 0.  1.
         -5    1    3    3    0  501 -0.41338476480E+02 -0.22721762324E+02  0.11753421442E+03  0.12664694895E+03  0.10000000000E+00 0.  1.
          1    1    1    2  502    0  0.12206401079E+01 -0.35597640096E+02  0.82861285279E+03  0.82937804513E+03  0.00000000000E+00 0.  1.
<mgrwt>
<rscale>  1 0.12997861E+03</rscale>
<asrwt>0</asrwt>
<pdfrwt beam="1">  1       21 0.11820810E-02 0.12997861E+03</pdfrwt>
<pdfrwt beam="2">  1        1 0.21653810E+00 0.12997861E+03</pdfrwt>
<totfact> 0.26703448E+05</totfact>
</mgrwt>
</event>
<event>
 6    2  0.1181843E-002  0.1401696E+03  0.7546771E-02  0.1213101E+00
          2   -1    0    0  503    0 -0.00000000000E+00  0.00000000000E+00  0.17884665492E+04  0.17884665492E+04  0.00000000000E+00 0. -1.
         21   -1    0    0  502  503  0.00000000000E+00 -0.00000000000E+00 -0.10838122744E+02  0.10838122744E+02  0.00000000000E+00 0.  1.
         25    2    1    2    0    0 -0.63243579983E+02 -0.47695386448E+01  0.47795949412E+03  0.49808915076E+03  0.12500010068E+03 0.  0.
          5    1    3    3  501    0  0.10338383867E+02  0.37143861404E+02  0.28188400973E+03  0.28450861773E+03  0.10000000000E+00 0.  1.
         -5    1    3    3    0  501 -0.73581963850E+02 -0.41913400049E+02  0.19607548439E+03  0.21358053302E+03  0.10000000000E+00 0.  1.
          2    1    1    2  502    0  0.63243579983E+02  0.47695386448E+01  0.12996689323E+04  0.13012155212E+04  0.00000000000E+00 0. -1.
<mgrwt>
<rscale>  1 0.14016963E+03</rscale>
<asrwt>0</asrwt>
<pdfrwt beam="1">  1       21 0.16674049E-02 0.14016963E+03</pdfrwt>
<pdfrwt beam="2">  1        2 0.27514847E+00 0.14016963E+03</pdfrwt>
<totfact> 0.20526083E+05</totfact>
</mgrwt>
</event>
<event>
 6    2  0.1181843E-002  0.1303551E+03  0.7546771E-02  0.1226930E+00
         21   -1    0    0  502  503  0.00000000000E+00  0.00000000000E+00  0.10189710412E+03  0.10189710412E+03  0.00000000000E+00 0. -1.
          4   -1    0    0  503    0 -0.00000000000E+00 -0.00000000000E+00 -0.73039461579E+02  0.73039461579E+02  0.00000000000E+00 0. -1.
         25    2    1    2    0    0 -0.19032073567E+02  0.31755762424E+02  0.39861607958E+02  0.13631357350E+03  0.12498717638E+03 0.  0.
          5    1    3    3  501    0 -0.59836104787E+02  0.50261072276E+02  0.28452941028E+01  0.78196166920E+02  0.10000000000E+00 0. -1.
         -5    1    3    3    0  501  0.40804031219E+02 -0.18505309853E+02  0.37016313855E+02  0.58117406583E+02  0.10000000000E+00 0. -1.
          4    1    1    2  502    0  0.19032073567E+02 -0.31755762424E+02 -0.11003965416E+02  0.38622992197E+02  0.00000000000E+00 0. -1.
<mgrwt>
<rscale>  1 0.13035506E+03</rscale>
<asrwt>0</asrwt>
<pdfrwt beam="1">  1       21 0.15676478E-01 0.13035506E+03</pdfrwt>
<pdfrwt beam="2">  1        4 0.11236840E-01 0.13035506E+03</pdfrwt>
<totfact> 0.90380045E+04</totfact>
</mgrwt>
</event>
<event>
 6    2  0.1181843E-002  0.1285122E+03  0.7546771E-02  0.1229680E+00
          2   -1    0    0  503    0 -0.00000000000E+00  0.00000000000E+00  0.59874550202E+03  0.59874550202E+03  0.00000000000E+00 0.  1.
         21   -1    0    0  502  503  0.00000000000E+00 -0.00000000000E+00 -0.60795835395E+03  0.60795835395E+03  0.00000000000E+00 0. -1.
         25    2    1    2    0    0  0.30138135685E+02 -0.49637637779E+00 -0.60077902450E+03  0.61437025897E+03  0.12492727967E+03 0.  0.
          5    1    3    3  501    0 -0.33736573240E+01 -0.59675265555E+02 -0.24855313349E+03  0.25563878628E+03  0.10000000000E+00 0. -1.
         -5    1    3    3    0  501  0.33511793009E+02  0.59178889178E+02 -0.35222589101E+03  0.35873147268E+03  0.10000000000E+00 0. -1.
          2    1    1    2  502    0 -0.30138135685E+02  0.49637637779E+00  0.59156617257E+03  0.59233359700E+03  0.00000000000E+00 0.  1.
<mgrwt>
<rscale>  1 0.12851217E+03</rscale>
<asrwt>0</asrwt>
<pdfrwt beam="1">  1       21 0.93532054E-01 0.12851217E+03</pdfrwt>
<pdfrwt beam="2">  1        2 0.92114693E-01 0.12851217E+03</pdfrwt>
<totfact> 0.64032594E+02</totfact>
</mgrwt>
</event>
<event>
 6    2  0.1181843E-002  0.1335703E+03  0.7546771E-02  0.1222252E+00
         21   -1    0    0  502  503  0.00000000000E+00  0.00000000000E+00  0.92528556893E+02  0.92528556893E+02  0.00000000000E+00 0.  1.
          2   -1    0    0  503    0 -0.00000000000E+00 -0.00000000000E+00 -0.88354774712E+02  0.88354774712E+02  0.00000000000E+00 0.  1.
         25    2    1    2    0    0 -0.45382090781E+02  0.12425671238E+02  0.69322416537E+01  0.13375011011E+03  0.12500841776E+03 0.  0.
          5    1    3    3  501    0  0.30997230802E+02 -0.18270028866E+02 -0.26723080381E+02  0.44819139854E+02  0.10000000000E+00 0. -1.
         -5    1    3    3    0  501 -0.76379321583E+02  0.30695700104E+02  0.33655322035E+02  0.88930970261E+02  0.10000000000E+00 0. -1.
          2    1    1    2  502    0  0.45382090781E+02 -0.12425671238E+02 -0.27584594730E+01  0.47133221490E+02  0.00000000000E+00 0.  1.
<mgrwt>
<rscale>  1 0.13357034E+03</rscale>
<asrwt>0</asrwt>
<pdfrwt beam="1">  1       21 0.14235163E-01 0.13357034E+03</pdfrwt>
<pdfrwt beam="2">  1        2 0.13593042E-01 0.13357034E+03</pdfrwt>
<totfact> 0.22597800E+05</totfact>
</mgrwt>
</event>
<event>
 6    2  0.1181843E-002  0.1265513E+03  0.7546771E-02  0.1232665E+00
          1   -1    0    0  503    0 -0.00000000000E+00  0.00000000000E+00  0.49119176544E+03  0.49119176544E+03  0.00000000000E+00 0. -1.
         21   -1    0    0  502  503  0.00000000000E+00 -0.00000000000E+00 -0.22633817370E+02  0.22633817370E+02  0.00000000000E+00 0.  1.
         25    2    1    2    0    0 -0.19564250723E+02  0.29121469249E+01  0.15706091818E+03  0.20170118432E+03  0.12499598085E+03 0.  0.
          5    1    3    3  501    0 -0.51522789422E+02 -0.13577919253E+02  0.15694066894E+03  0.16573877425E+03  0.10000000000E+00 0.  1.
         -5    1    3    3    0  501  0.31958538699E+02  0.16490066178E+02  0.12024924314E+00  0.35962410072E+02  0.10000000000E+00 0.  1.
          1    1    1    2  502    0  0.19564250723E+02 -0.29121469249E+01  0.31149702988E+03  0.31212439849E+03  0.00000000000E+00 0. -1.
<mgrwt>
<rscale>  1 0.12655132E+03</rscale>
<asrwt>0</asrwt>
<pdfrwt beam="1">  1       21 0.34821261E-02 0.12655132E+03</pdfrwt>
<pdfrwt beam="2">  1        1 0.75567956E-01 0.12655132E+03</pdfrwt>
<totfact> 0.24796205E+05</totfact>
</mgrwt>
</event>
<event>
 6    2  0.1181843E-002  0.1296785E+03  0.7546771E-02  0.1227934E+00
          3   -1    0    0  503    0 -0.00000000000E+00  0.00000000000E+00  0.16025600057E+04  0.16025600057E+04  0.00000000000E+00 0. -1.
         21   -1    0    0  502  503  0.00000000000E+00 -0.00000000000E+00 -0.73746798794E+01  0.73746798794E+01  0.00000000000E+00 0. -1.
         25    2    1    2    0    0  0.27324091170E+02 -0.21005645509E+02  0.58669750925E+03  0.60085811798E+03  0.12501466908E+03 0.  0.
          5    1    3    3  501    0 -0.15585728371E+02  0.98312247076E+01  0.85737888690E+01  0.20324560602E+02  0.10000000000E+00 0.  1.
         -5    1    3    3    0  501  0.42909819541E+02 -0.30836870217E+02  0.57812372038E+03  0.58053355738E+03  0.10000000000E+00 0.  1.
          3    1    1    2  502    0 -0.27324091170E+02  0.21005645509E+02  0.10084878166E+04  0.10090765676E+04  0.00000000000E+00 0. -1.
<mgrwt>
<rscale>  1 0.12967849E+03</rscale>
<asrwt>0</asrwt>
<pdfrwt beam="1">  1       21 0.11345674E-02 0.12967849E+03</pdfrwt>
<pdfrwt beam="2">  1        3 0.24654742E+00 0.12967849E+03</pdfrwt>
<totfact> 0.13027260E+04</totfact>
</mgrwt>
</event>
<event>
 6    2  0.1181843E-002  0.1323652E+03  0.7546771E-02  0.1223988E+00
          1   -1    0    0  503    0 -0.00000000000E+00  0.00000000000E+00  0.25020068161E+03  0.25020068161E+03  0.00000000000E+00 0.  1.
         21   -1    0    0  502  503  0.00000000000E+00 -0.00000000000E+00 -0.20575504547E+03  0.20575504547E+03  0.00000000000E+00 0.  1.
         25    2    1    2    0    0 -0.34557660683E+02 -0.26477100417E+02 -0.18217858575E+03  0.22518786384E+03  0.12500107261E+03 0.  0.
          5    1    3    3  501    0 -0.14297714234E+02 -0.68583738888E+02 -0.15742215830E+03  0.17230757324E+03  0.10000000000E+00 0. -1.
         -5    1    3    3    0  501 -0.20259946449E+02  0.42106638472E+02 -0.24756427454E+02  0.52880290598E+02  0.10000000000E+00 0. -1.
          1    1    1    2  502    0  0.34557660683E+02  0.26477100417E+02  0.22662422189E+03  0.23076786324E+03  0.00000000000E+00 0.  1.
<mgrwt>
<rscale>  1 0.13236517E+03</rscale>
<asrwt>0</asrwt>
<pdfrwt beam="1">  1       21 0.31654622E-01 0.13236517E+03</pdfrwt>
<pdfrwt beam="2">  1        1 0.38492412E-01 0.13236517E+03</pdfrwt>
<totfact> 0.11647516E+04</totfact>
</mgrwt>
</event>
<event>
 6    2  0.1181843E-002  0.1302379E+03  0.7546771E-02  0.1227103E+00
         21   -1    0    0  502  503  0.00000000000E+00  0.00000000000E+00  0.59719180323E+02  0.59719180323E+02  0.00000000000E+00 0. -1.
          1   -1    0    0  503    0 -0.00000000000E+00 -0.00000000000E+00 -0.16077107397E+03  0.16077107397E+03  0.00000000000E+00 0. -1.
         25    2    1    2    0    0  0.34318969818E+02  0.12624619872E+02 -0.20254844811E+02  0.13180352577E+03  0.12499895179E+03 0.  0.
          5    1    3    3  501    0  0.13058577788E+02  0.68729218123E+02 -0.65846642466E+01  0.70268055907E+02  0.10000000000E+00 0. -1.
         -5    1    3    3    0  501  0.21260392030E+02 -0.56104598251E+02 -0.13670180564E+02  0.61535469859E+02  0.10000000000E+00 0. -1.
          1    1    1    2  502    0 -0.34318969818E+02 -0.12624619872E+02 -0.80797048839E+02  0.88686728531E+02  0.00000000000E+00 0. -1.
<mgrwt>
<rscale>  1 0.13023790E+03</rscale>
<asrwt>0</asrwt>
<pdfrwt beam="1">  1       21 0.91875661E-02 0.13023790E+03</pdfrwt>
<pdfrwt beam="2">  1        1 0.24734012E-01 0.13023790E+03</pdfrwt>
<totfact> 0.19381392E+05</totfact>
</mgrwt>
</event>
<event>
 6    2  0.1181843E-002  0.2157825E+03  0.7546771E-02  0.1137067E+00
         21   -1    0    0  502  503  0.00000000000E+00  0.00000000000E+00  0.47894901126E+02  0.47894901126E+02  0.00000000000E+00 0. -1.
          2   -1    0    0  503    0 -0.00000000000E+00 -0.00000000000E+00 -0.81677457877E+03  0.81677457877E+03  0.00000000000E+00 0. -1.
         25    2    1    2    0    0  0.16857209126E+03 -0.50205354026E+02 -0.36257579690E+03  0.42192805307E+03  0.12499978377E+03 0.  0.
          5    1    3    3  501    0  0.42436520064E+02  0.36553381388E+02 -0.14876908805E+03  0.15896307585E+03  0.10000000000E+00 0. -1.
         -5    1    3    3    0  501  0.12613557119E+03 -0.86758735414E+02 -0.21380670885E+03  0.26296497721E+03  0.10000000000E+00 0. -1.
          2    1    1    2  502    0 -0.16857209126E+03  0.50205354026E+02 -0.40630388075E+03  0.44274142683E+03  0.00000000000E+00 0. -1.
<mgrwt>
<rscale>  1 0.21578247E+03</rscale>
<asrwt>0</asrwt>
<pdfrwt beam="1">  1       21 0.73684471E-02 0.21578247E+03</pdfrwt>
<pdfrwt beam="2">  1        2 0.12565761E+00 0.21578247E+03</pdfrwt>
<totfact> 0.60392467E+04</totfact>
</mgrwt>
</event>
<event>
 6    2  0.1181843E-002  0.1368273E+03  0.7546771E-02  0.1217663E+00
         21   -1    0    0  502  503  0.00000000000E+00  0.00000000000E+00  0.62783014701E+01  0.62783014701E+01  0.00000000000E+00 0.  1.
          3   -1    0    0  503    0 -0.00000000000E+00 -0.00000000000E+00 -0.14937863794E+04  0.14937863794E+04  0.00000000000E+00 0.  1.
         25    2    1    2    0    0  0.53410195233E+02  0.15640571711E+02 -0.11293462177E+04  0.11376047595E+04  0.12499773232E+03 0.  0.
          5    1    3    3  501    0  0.89835388605E+02 -0.31454704601E+01 -0.60274199721E+03  0.60940808678E+03  0.10000000000E+00 0. -1.
         -5    1    3    3    0  501 -0.36425193371E+02  0.18786042171E+02 -0.52660422044E+03  0.52819667273E+03  0.10000000000E+00 0. -1.
          3    1    1    2  502    0 -0.53410195233E+02 -0.15640571711E+02 -0.35816186031E+03  0.36245992140E+03  0.00000000000E+00 0.  1.
<mgrwt>
<rscale>  1 0.13682730E+03</rscale>
<asrwt>0</asrwt>
<pdfrwt beam="1">  1       21 0.96589153E-03 0.13682730E+03</pdfrwt>
<pdfrwt beam="2">  1        3 0.22981353E+00 0.13682730E+03</pdfrwt>
<totfact> 0.20813748E+04</totfact>
</mgrwt>
</event>
<event>
 6    2  0.1181843E-002  0.1493064E+03  0.7546771E-02  0.1201328E+00
         21   -1    0    0  502  503  0.00000000000E+00  0.00000000000E+00  0.39107206444E+02  0.39107206444E+02  0.00000000000E+00 0. -1.
          2   -1    0    0  503    0 -0.00000000000E+00 -0.00000000000E+00 -0.63764792362E+03  0.63764792362E+03  0.00000000000E+00 0. -1.
         25    2    1    2    0    0  0.81623247700E+02  0.22298656616E+01 -0.12071057213E+03  0.19199851651E+03  0.12500024501E+03 0.  0.
          5    1    3    3  501    0  0.11154337437E+03  0.80866354288E+01 -0.67372608074E+02  0.13056184878E+03  0.10000000000E+00 0.  1.
         -5    1    3    3    0  501 -0.29920126673E+02 -0.58567697672E+01 -0.53337964053E+02  0.61436667728E+02  0.10000000000E+00 0.  1.
          2    1    1    2  502    0 -0.81623247700E+02 -0.22298656616E+01 -0.47783014505E+03  0.48475661356E+03  0.00000000000E+00 0. -1.
<mgrwt>
<rscale>  1 0.14930636E+03</rscale>
<asrwt>0</asrwt>
<pdfrwt beam="1">  1       21 0.60164935E-02 0.14930636E+03</pdfrwt>
<pdfrwt beam="2">  1        2 0.98099677E-01 0.14930636E+03</pdfrwt>
<totfact> 0.11554657E+05</totfact>
</mgrwt>
</event>
<event>
 6    2  0.1181843E-002  0.1263011E+03  0.7546771E-02  0.1233050E+00
         21   -1    0    0  502  503  0.00000000000E+00  0.00000000000E+00  0.43869361745E+02  0.43869361745E+02  0.00000000000E+00 0. -1.
          2   -1    0    0  503    0 -0.00000000000E+00 -0.00000000000E+00 -0.39336947526E+03  0.39336947526E+03  0.00000000000E+00 0. -1.
         25    2    1    2    0    0  0.56943263345E+01 -0.17176037233E+02 -0.47873244685E+02  0.13506966318E+03  0.12499809898E+03 0.  0.
          5    1    3    3  501    0 -0.39740628211E+02 -0.31693647822E+02 -0.66639126616E+02  0.83812815481E+02  0.10000000000E+00 0. -1.
         -5    1    3    3    0  501  0.45434954545E+02  0.14517610588E+02  0.18765881931E+02  0.51256847702E+02  0.10000000000E+00 0. -1.
          2    1    1    2  502    0 -0.56943263345E+01  0.17176037233E+02 -0.30162686883E+03  0.30216917383E+03  0.00000000000E+00 0. -1.
<mgrwt>
<rscale>  1 0.12630109E+03</rscale>
<asrwt>0</asrwt>
<pdfrwt beam="1">  1       21 0.67491325E-02 0.12630109E+03</pdfrwt>
<pdfrwt beam="2">  1        2 0.60518381E-01 0.12630109E+03</pdfrwt>
<totfact> 0.16100070E+05</totfact>
</mgrwt>
</event>
<event>
 6    2  0.1181843E-002  0.1279028E+03  0.7546771E-02  0.1230601E+00
         21   -1    0    0  502  503  0.00000000000E+00  0.00000000000E+00  0.21427838313E+02  0.21427838313E+02  0.00000000000E+00 0. -1.
          2   -1    0    0  503    0 -0.00000000000E+00 -0.00000000000E+00 -0.17445526248E+04  0.17445526248E+04  0.00000000000E+00 0. -1.
         25    2    1    2    0    0  0.64932889263E+01  0.26257047683E+02 -0.17060799165E+03  0.21322807023E+03  0.12501011065E+03 0.  0.
          5    1    3    3  501    0  0.61252772760E+01  0.65199169951E+02 -0.39541760447E+02  0.76498441836E+02  0.10000000000E+00 0. -1.
         -5    1    3    3    0  501  0.36801165029E+00 -0.38942122268E+02 -0.13106623120E+03  0.13672962839E+03  0.10000000000E+00 0. -1.
          2    1    1    2  502    0 -0.64932889263E+01 -0.26257047683E+02 -0.15525167948E+04  0.15527523928E+04  0.00000000000E+00 0. -1.
<mgrwt>
<rscale>  1 0.12790279E+03</rscale>
<asrwt>0</asrwt>
<pdfrwt beam="1">  1       21 0.32965908E-02 0.12790279E+03</pdfrwt>
<pdfrwt beam="2">  1        2 0.26839269E+00 0.12790279E+03</pdfrwt>
<totfact> 0.71426090E+04</totfact>
</mgrwt>
</event>
<event>
 6    2  0.1181843E-002  0.1291617E+03  0.7546771E-02  0.1228705E+00
          2   -1    0    0  503    0 -0.00000000000E+00  0.00000000000E+00  0.34994657902E+04  0.34994657902E+04  0.00000000000E+00 0. -1.
         21   -1    0    0  502  503  0.00000000000E+00 -0.00000000000E+00 -0.24483619055E+01  0.24483619055E+01  0.00000000000E+00 0. -1.
         25    2    1    2    0    0 -0.24076237789E+02  0.21816172658E+02  0.18180159469E+04  0.18225983435E+04  0.12500851097E+03 0.  0.
          5    1    3    3  501    0  0.33248567440E+01 -0.49267585852E+02  0.51664004391E+03  0.51899450350E+03  0.10000000000E+00 0. -1.
         -5    1    3    3    0  501 -0.27401094533E+02  0.71083758510E+02  0.13013759030E+04  0.13036038400E+04  0.10000000000E+00 0. -1.
          2    1    1    2  502    0  0.24076237789E+02 -0.21816172658E+02  0.16790014813E+04  0.16793158086E+04  0.00000000000E+00 0. -1.
<mgrwt>
<rscale>  1 0.12916168E+03</rscale>
<asrwt>0</asrwt>
<pdfrwt beam="1">  1       21 0.37667386E-03 0.12916168E+03</pdfrwt>
<pdfrwt beam="2">  1        2 0.53837535E+00 0.12916168E+03</pdfrwt>
<totfact> 0.23716971E+05</totfact>
</mgrwt>
</event>
<event>
 6    2  0.1181843E-002  0.1283142E+03  0.7546771E-02  0.1229979E+00
          2   -1    0    0  503    0 -0.00000000000E+00  0.00000000000E+00  0.85482326991E+03  0.85482326991E+03  0.00000000000E+00 0.  1.
         21   -1    0    0  502  503  0.00000000000E+00 -0.00000000000E+00 -0.45173349619E+02  0.45173349619E+02  0.00000000000E+00 0.  1.
         25    2    1    2    0    0 -0.27248885022E+02 -0.98994203319E+01  0.46779350947E+02  0.13657536895E+03  0.12499609383E+03 0.  0.
          5    1    3    3  501    0  0.18164842071E+02  0.27627837295E+02 -0.26626232829E+02  0.42452622484E+02  0.10000000000E+00 0. -1.
         -5    1    3    3    0  501 -0.45413727093E+02 -0.37527257627E+02  0.73405583777E+02  0.94122746470E+02  0.10000000000E+00 0. -1.
          2    1    1    2  502    0  0.27248885022E+02  0.98994203319E+01  0.76287056934E+03  0.76342125057E+03  0.00000000000E+00 0.  1.
<mgrwt>
<rscale>  1 0.12831416E+03</rscale>
<asrwt>0</asrwt>
<pdfrwt beam="1">  1       21 0.69497467E-02 0.12831416E+03</pdfrwt>
<pdfrwt beam="2">  1        2 0.13151126E+00 0.12831416E+03</pdfrwt>
<totfact> 0.63216688E+04</totfact>
</mgrwt>
</event>
<event>
 6    2  0.1181843E-002  0.1279728E+03  0.7546771E-02  0.1230495E+00
         21   -1    0    0  502  503  0.00000000000E+00  0.00000000000E+00  0.28229849830E+02  0.28229849830E+02  0.00000000000E+00 0.  1.
          2   -1    0    0  503    0 -0.00000000000E+00 -0.00000000000E+00 -0.75997005879E+03  0.75997005879E+03  0.00000000000E+00 0.  1.
         25    2    1    2    0    0 -0.13858293376E+02  0.23674941717E+02 -0.11870319370E+03  0.17454940773E+03  0.12499796952E+03 0.  0.
          5    1    3    3  501    0 -0.16996486073E+02  0.60116528761E+02 -0.12276634286E+03  0.13774782216E+03  0.10000000000E+00 0. -1.
         -5    1    3    3    0  501  0.31381926971E+01 -0.36441587044E+02  0.40631491646E+01  0.36801585575E+02  0.10000000000E+00 0. -1.
          2    1    1    2  502    0  0.13858293376E+02 -0.23674941717E+02 -0.61303701526E+03  0.61365050088E+03  0.00000000000E+00 0.  1.
<mgrwt>
<rscale>  1 0.12797284E+03</rscale>
<asrwt>0</asrwt>
<pdfrwt beam="1">  1       21 0.43430534E-02 0.12797284E+03</pdfrwt>
<pdfrwt beam="2">  1        2 0.11691848E+00 0.12797284E+03</pdfrwt>
<totfact> 0.16181048E+05</totfact>
</mgrwt>
</event>
<event>
 6    2  0.1181843E-002  0.1413133E+03  0.7546771E-02  0.1211573E+00
          2   -1    0    0  503    0 -0.00000000000E+00  0.00000000000E+00  0.18869874283E+04  0.18869874283E+04  0.00000000000E+00 0. -1.
         21   -1    0    0  502  503  0.00000000000E+00 -0.00000000000E+00 -0.79735514048E+01  0.79735514048E+01  0.00000000000E+00 0. -1.
         25    2    1    2    0    0 -0.20510203064E+01 -0.65878716149E+02  0.70083637146E+03  0.71494129926E+03  0.12500091959E+03 0.  0.
          5    1    3    3  501    0 -0.47661666435E+02 -0.37183345919E+02  0.57343446894E+03  0.57661194562E+03  0.10000000000E+00 0.  1.
         -5    1    3    3    0  501  0.45610646129E+02 -0.28695370230E+02  0.12740190252E+03  0.13832935364E+03  0.10000000000E+00 0.  1.
          2    1    1    2  502    0  0.20510203064E+01  0.65878716149E+02  0.11781775054E+04  0.11800196804E+04  0.00000000000E+00 0. -1.
<mgrwt>
<rscale>  1 0.14131328E+03</rscale>
<asrwt>0</asrwt>
<pdfrwt beam="1">  1       21 0.12267017E-02 0.14131328E+03</pdfrwt>
<pdfrwt beam="2">  1        2 0.29030540E+00 0.14131328E+03</pdfrwt>
<totfact> 0.29846585E+05</totfact>
</mgrwt>
</event>
<event>
 6    2  0.1181843E-002  0.1372669E+03  0.7546771E-02  0.1217055E+00
          1   -1    0    0  503    0 -0.00000000000E+00  0.00000000000E+00  0.27857610728E+03  0.27857610728E+03  0.00000000000E+00 0.  1.
         21   -1    0    0  502  503  0.00000000000E+00 -0.00000000000E+00 -0.53767346790E+02  0.53767346790E+02  0.00000000000E+00 0.  1.
         25    2    1    2    0    0  0.16320381092E+02 -0.54323927038E+02  0.46025268264E+02  0.14477751638E+03  0.12499904017E+03 0.  0.
          5    1    3    3  501    0  0.27751186231E+02  0.30201445876E+02  0.43006648947E+02  0.59429264878E+02  0.10000000000E+00 0. -1.
         -5    1    3    3    0  501 -0.11430805139E+02 -0.84525372914E+02  0.30186193167E+01  0.85348251505E+02  0.10000000000E+00 0. -1.
          1    1    1    2  502    0 -0.16320381092E+02  0.54323927038E+02  0.17878349223E+03  0.18756593769E+03  0.00000000000E+00 0.  1.
<mgrwt>
<rscale>  1 0.13726691E+03</rscale>
<asrwt>0</asrwt>
<pdfrwt beam="1">  1       21 0.82718997E-02 0.13726691E+03</pdfrwt>
<pdfrwt beam="2">  1        1 0.42857862E-01 0.13726691E+03</pdfrwt>
<totfact> 0.11778518E+05</totfact>
</mgrwt>
</event>
<event>
 6    2  0.1181843E-002  0.1266800E+03  0.7546771E-02  0.1232467E+00
         21   -1    0    0  502  503  0.00000000000E+00  0.00000000000E+00  0.58479614509E+01  0.58479614509E+01  0.00000000000E+00 0.  1.
          1   -1    0    0  503    0 -0.00000000000E+00 -0.00000000000E+00 -0.20429521097E+04  0.20429521097E+04  0.00000000000E+00 0.  1.
         25    2    1    2    0    0  0.68315157104E+01  0.19482659329E+02 -0.68967912068E+03  0.70121688316E+03  0.12498633570E+03 0.  0.
          5    1    3    3  501    0 -0.20891356536E+02  0.42417894557E+01 -0.15649876823E+02  0.26445608336E+02  0.10000000000E+00 0. -1.
         -5    1    3    3    0  501  0.27722872246E+02  0.15240869874E+02 -0.67402924386E+03  0.67477127483E+03  0.10000000000E+00 0. -1.
          1    1    1    2  502    0 -0.68315157104E+01 -0.19482659329E+02 -0.13474250275E+04  0.13475831879E+04  0.00000000000E+00 0.  1.
<mgrwt>
<rscale>  1 0.12668002E+03</rscale>
<asrwt>0</asrwt>
<pdfrwt beam="1">  1       21 0.89968472E-03 0.12668002E+03</pdfrwt>
<pdfrwt beam="2">  1        1 0.31430090E+00 0.12668002E+03</pdfrwt>
<totfact> 0.16117655E+05</totfact>
</mgrwt>
</event>
<event>
 6    2  0.1181843E-002  0.1260693E+03  0.7546771E-02  0.1233408E+00
         21   -1    0    0  502  503  0.00000000000E+00  0.00000000000E+00  0.10838325591E+02  0.10838325591E+02  0.00000000000E+00 0. -1.
          2   -1    0    0  503    0 -0.00000000000E+00 -0.00000000000E+00 -0.15633776728E+04  0.15633776728E+04  0.00000000000E+00 0. -1.
         25    2    1    2    0    0 -0.15878752787E+02 -0.39779062825E+01 -0.35772724253E+03  0.37929176481E+03  0.12500201707E+03 0.  0.
          5    1    3    3  501    0 -0.49362285332E+02 -0.45342280757E+02 -0.25418508448E+03  0.26287378113E+03  0.10000000000E+00 0. -1.
         -5    1    3    3    0  501  0.33483532545E+02  0.41364374474E+02 -0.10354215806E+03  0.11641798367E+03  0.10000000000E+00 0. -1.
          2    1    1    2  502    0  0.15878752787E+02  0.39779062825E+01 -0.11948121046E+04  0.11949242336E+04  0.00000000000E+00 0. -1.
<mgrwt>
<rscale>  1 0.12606928E+03</rscale>
<asrwt>0</asrwt>
<pdfrwt beam="1">  1       21 0.16674356E-02 0.12606928E+03</pdfrwt>
<pdfrwt beam="2">  1        2 0.24051952E+00 0.12606928E+03</pdfrwt>
<totfact> 0.26740974E+05</totfact>
</mgrwt>
</event>
<event>
 6    2  0.1181843E-002  0.1299869E+03  0.7546771E-02  0.1227475E+00
         21   -1    0    0  502  503  0.00000000000E+00  0.00000000000E+00  0.14757315546E+03  0.14757315546E+03  0.00000000000E+00 0.  1.
          3   -1    0    0  503    0 -0.00000000000E+00 -0.00000000000E+00 -0.98157697493E+02  0.98157697493E+02  0.00000000000E+00 0.  1.
         25    2    1    2    0    0 -0.34301719455E+02  0.98257659084E+01  0.11338048087E+03  0.17248689218E+03  0.12499376343E+03 0.  0.
          5    1    3    3  501    0  0.86607433339E-01  0.45794188814E+00  0.13218703152E+03  0.13218789095E+03  0.10000000000E+00 0.  1.
         -5    1    3    3    0  501 -0.34388326889E+02  0.93678240203E+01 -0.18806550642E+02  0.40299001230E+02  0.10000000000E+00 0.  1.
          3    1    1    2  502    0  0.34301719455E+02 -0.98257659084E+01 -0.63965022912E+02  0.73243960771E+02  0.00000000000E+00 0.  1.
<mgrwt>
<rscale>  1 0.12998690E+03</rscale>
<asrwt>0</asrwt>
<pdfrwt beam="1">  1       21 0.22703562E-01 0.12998690E+03</pdfrwt>
<pdfrwt beam="2">  1        3 0.15101184E-01 0.12998690E+03</pdfrwt>
<totfact> 0.31957579E+04</totfact>
</mgrwt>
</event>
<event>
 6    2  0.1181843E-002  0.1374528E+03  0.7546771E-02  0.1216798E+00
         21   -1    0    0  502  503  0.00000000000E+00  0.00000000000E+00  0.16994846445E+02  0.16994846445E+02  0.00000000000E+00 0.  1.
          4   -1    0    0  503    0 -0.00000000000E+00 -0.00000000000E+00 -0.56870105142E+03  0.56870105142E+03  0.00000000000E+00 0.  1.
         25    2    1    2    0    0 -0.10718270280E+02  0.56141481160E+02 -0.34920053982E+03  0.37527895072E+03  0.12500610633E+03 0.  0.
          5    1    3    3  501    0  0.23361189346E+02 -0.31774427297E+02 -0.67031863064E+02  0.77773003437E+02  0.10000000000E+00 0. -1.
         -5    1    3    3    0  501 -0.34079459626E+02  0.87915908457E+02 -0.28216867675E+03  0.29750594728E+03  0.10000000000E+00 0. -1.
          4    1    1    2  502    0  0.10718270280E+02 -0.56141481160E+02 -0.20250566516E+03  0.21041694714E+03  0.00000000000E+00 0.  1.
<mgrwt>
<rscale>  1 0.13745281E+03</rscale>
<asrwt>0</asrwt>
<pdfrwt beam="1">  1       21 0.26145926E-02 0.13745281E+03</pdfrwt>
<pdfrwt beam="2">  1        4 0.87492440E-01 0.13745281E+03</pdfrwt>
<totfact> 0.37390455E+04</totfact>
</mgrwt>
</event>
<event>
 6    2  0.1181843E-002  0.1306479E+03  0.7546771E-02  0.1226497E+00
          1   -1    0    0  503    0 -0.00000000000E+00  0.00000000000E+00  0.11909350471E+04  0.11909350471E+04  0.00000000000E+00 0.  1.
         21   -1    0    0  502  503  0.00000000000E+00 -0.00000000000E+00 -0.45956585608E+02  0.45956585608E+02  0.00000000000E+00 0. -1.
         25    2    1    2    0    0  0.32710326404E+02 -0.19345052592E+02  0.47895262061E+02  0.13915043234E+03  0.12499876071E+03 0.  0.
          5    1    3    3  501    0  0.27334893242E+02 -0.71391867391E+02  0.39858238081E+02  0.86213016773E+02  0.10000000000E+00 0. -1.
         -5    1    3    3    0  501  0.53754331623E+01  0.52046814799E+02  0.80370239802E+01  0.52937415567E+02  0.10000000000E+00 0. -1.
          1    1    1    2  502    0 -0.32710326404E+02  0.19345052592E+02  0.10970831994E+04  0.10977412003E+04  0.00000000000E+00 0.  1.
<mgrwt>
<rscale>  1 0.13064795E+03</rscale>
<asrwt>0</asrwt>
<pdfrwt beam="1">  1       21 0.70702448E-02 0.13064795E+03</pdfrwt>
<pdfrwt beam="2">  1        1 0.18322075E+00 0.13064795E+03</pdfrwt>
<totfact> 0.19786845E+04</totfact>
</mgrwt>
</event>
<event>
 6    2  0.1181843E-002  0.1741327E+03  0.7546771E-02  0.1173605E+00
          2   -1    0    0  503    0 -0.00000000000E+00  0.00000000000E+00  0.18656753600E+03  0.18656753600E+03  0.00000000000E+00 0.  1.
         21   -1    0    0  502  503  0.00000000000E+00 -0.00000000000E+00 -0.19341413570E+03  0.19341413570E+03  0.00000000000E+00 0. -1.
         25    2    1    2    0    0 -0.87619520947E+02 -0.83787774242E+02 -0.12212515852E+03  0.21268935960E+03  0.12499855111E+03 0.  0.
          5    1    3    3  501    0 -0.72061340850E+02  0.14009204852E+02 -0.37524847350E+02  0.82445247494E+02  0.10000000000E+00 0. -1.
         -5    1    3    3    0  501 -0.15558180097E+02 -0.97796979094E+02 -0.84600311170E+02  0.13024411210E+03  0.10000000000E+00 0. -1.
          2    1    1    2  502    0  0.87619520947E+02  0.83787774242E+02  0.11527855882E+03  0.16729231210E+03  0.00000000000E+00 0.  1.
<mgrwt>
<rscale>  1 0.17413273E+03</rscale>
<asrwt>0</asrwt>
<pdfrwt beam="1">  1       21 0.29756021E-01 0.17413273E+03</pdfrwt>
<pdfrwt beam="2">  1        2 0.28702698E-01 0.17413273E+03</pdfrwt>
<totfact> 0.24575774E+04</totfact>
</mgrwt>
</event>
<event>
 6    2  0.1181843E-002  0.1269655E+03  0.7546771E-02  0.1232029E+00
          1   -1    0    0  503    0 -0.00000000000E+00  0.00000000000E+00  0.16329343140E+03  0.16329343140E+03  0.00000000000E+00 0. -1.
         21   -1    0    0  502  503  0.00000000000E+00 -0.00000000000E+00 -0.65012531938E+02  0.65012531938E+02  0.00000000000E+00 0. -1.
         25    2    1    2    0    0  0.19090253957E+02 -0.11472439945E+02  0.13502236654E+03  0.18534097669E+03  0.12499673396E+03 0.  0.
          5    1    3    3  501    0  0.37630388995E+02 -0.30403281613E+02  0.14809329761E+03  0.15579486675E+03  0.10000000000E+00 0.  1.
         -5    1    3    3    0  501 -0.18540135038E+02  0.18930841668E+02 -0.13070931072E+02  0.29546109939E+02  0.10000000000E+00 0.  1.
          1    1    1    2  502    0 -0.19090253957E+02  0.11472439945E+02 -0.36741467078E+02  0.42964986646E+02  0.00000000000E+00 0. -1.
<mgrwt>
<rscale>  1 0.12696550E+03</rscale>
<asrwt>0</asrwt>
<pdfrwt beam="1">  1       21 0.10001928E-01 0.12696550E+03</pdfrwt>
<pdfrwt beam="2">  1        1 0.25122066E-01 0.12696550E+03</pdfrwt>
<totfact> 0.16366976E+05</totfact>
</mgrwt>
</event>
<event>
 6    2  0.1181843E-002  0.1261188E+03  0.7546771E-02  0.1233331E+00
         21   -1    0    0  502  503  0.00000000000E+00  0.00000000000E+00  0.10860676850E+03  0.10860676850E+03  0.00000000000E+00 0. -1.
          2   -1    0    0  503    0 -0.00000000000E+00 -0.00000000000E+00 -0.91177730853E+02  0.91177730853E+02  0.00000000000E+00 0. -1.
         25    2    1    2    0    0  0.13844314605E+02 -0.93673602607E+01  0.70262201544E+02  0.14437009967E+03  0.12500614476E+03 0.  0.
          5    1    3    3  501    0  0.56582600395E+02 -0.38270616733E+02  0.61740583884E+02  0.92076818315E+02  0.10000000000E+00 0.  1.
         -5    1    3    3    0  501 -0.42738285790E+02  0.28903256473E+02  0.85216176592E+01  0.52293281351E+02  0.10000000000E+00 0.  1.
          2    1    1    2  502    0 -0.13844314605E+02  0.93673602607E+01 -0.52833163897E+02  0.55414399686E+02  0.00000000000E+00 0. -1.
<mgrwt>
<rscale>  1 0.12611879E+03</rscale>
<asrwt>0</asrwt>
<pdfrwt beam="1">  1       21 0.16708734E-01 0.12611879E+03</pdfrwt>
<pdfrwt beam="2">  1        2 0.14027343E-01 0.12611879E+03</pdfrwt>
<totfact> 0.16248349E+05</totfact>
</mgrwt>
</event>
<event>
 6    2  0.1181843E-002  0.1264490E+03  0.7546771E-02  0.1232822E+00
         21   -1    0    0  502  503  0.00000000000E+00  0.00000000000E+00  0.54454495687E+01  0.54454495687E+01  0.00000000000E+00 0. -1.
          2   -1    0    0  503    0 -0.00000000000E+00 -0.00000000000E+00 -0.10190740363E+04  0.10190740363E+04  0.00000000000E+00 0. -1.
         25    2    1    2    0    0 -0.18634045185E+02  0.41489409122E+01 -0.93953865886E+03  0.94800962532E+03  0.12499966736E+03 0.  0.
          5    1    3    3  501    0  0.45415584126E+02 -0.23460684175E+02 -0.26582445463E+03  0.27069471673E+03  0.10000000000E+00 0. -1.
         -5    1    3    3    0  501 -0.64049629311E+02  0.27609625087E+02 -0.67371420423E+03  0.67731490859E+03  0.10000000000E+00 0. -1.
          2    1    1    2  502    0  0.18634045185E+02 -0.41489409122E+01 -0.74089927895E+02  0.76509860581E+02  0.00000000000E+00 0. -1.
<mgrwt>
<rscale>  1 0.12644903E+03</rscale>
<asrwt>0</asrwt>
<pdfrwt beam="1">  1       21 0.83776074E-03 0.12644903E+03</pdfrwt>
<pdfrwt beam="2">  1        2 0.15678076E+00 0.12644903E+03</pdfrwt>
<totfact> 0.15713765E+06</totfact>
</mgrwt>
</event>
<event>
 6    2  0.1181843E-002  0.1282050E+03  0.7546771E-02  0.1230144E+00
         21   -1    0    0  502  503  0.00000000000E+00  0.00000000000E+00  0.66811411604E+01  0.66811411604E+01  0.00000000000E+00 0.  1.
          1   -1    0    0  503    0 -0.00000000000E+00 -0.00000000000E+00 -0.26748568483E+04  0.26748568483E+04  0.00000000000E+00 0. -1.
         25    2    1    2    0    0  0.20320484589E+02 -0.19982259582E+02 -0.61770443374E+03  0.63086867047E+03  0.12499719650E+03 0.  0.
          5    1    3    3  501    0 -0.26489222861E+02  0.55538472456E+01 -0.28675621045E+02  0.39431274254E+02  0.10000000000E+00 0.  1.
         -5    1    3    3    0  501  0.46809707449E+02 -0.25536106827E+02 -0.58902881269E+03  0.59143739622E+03  0.10000000000E+00 0.  1.
          1    1    1    2  502    0 -0.20320484589E+02  0.19982259582E+02 -0.20504712734E+04  0.20506693190E+04  0.00000000000E+00 0. -1.
<mgrwt>
<rscale>  1 0.12820496E+03</rscale>
<asrwt>0</asrwt>
<pdfrwt beam="1">  1       21 0.10278671E-02 0.12820496E+03</pdfrwt>
<pdfrwt beam="2">  1        1 0.41151677E+00 0.12820496E+03</pdfrwt>
<totfact> 0.51089862E+04</totfact>
</mgrwt>
</event>
<event>
 6    2  0.1181843E-002  0.1283389E+03  0.7546771E-02  0.1229942E+00
          2   -1    0    0  503    0 -0.00000000000E+00  0.00000000000E+00  0.58123226935E+03  0.58123226935E+03  0.00000000000E+00 0. -1.
         21   -1    0    0  502  503  0.00000000000E+00 -0.00000000000E+00 -0.12815722553E+02  0.12815722553E+02  0.00000000000E+00 0. -1.
         25    2    1    2    0    0 -0.14457280302E+02 -0.25231487259E+02  0.53294540599E+03  0.54818032646E+03  0.12500089459E+03 0.  0.
          5    1    3    3  501    0  0.49094648979E+02  0.11540149207E+02  0.14975871940E+03  0.15802260483E+03  0.10000000000E+00 0.  1.
         -5    1    3    3    0  501 -0.63551929281E+02 -0.36771636466E+02  0.38318668660E+03  0.39015772163E+03  0.10000000000E+00 0.  1.
          2    1    1    2  502    0  0.14457280302E+02  0.25231487259E+02  0.35471140803E+02  0.45867665440E+02  0.00000000000E+00 0. -1.
<mgrwt>
<rscale>  1 0.12833887E+03</rscale>
<asrwt>0</asrwt>
<pdfrwt beam="1">  1       21 0.19716501E-02 0.12833887E+03</pdfrwt>
<pdfrwt beam="2">  1        2 0.89420329E-01 0.12833887E+03</pdfrwt>
<totfact> 0.80739999E+05</totfact>
</mgrwt>
</event>
<event>
 6    2  0.1181843E-002  0.1284302E+03  0.7546771E-02  0.1229804E+00
          1   -1    0    0  503    0 -0.00000000000E+00  0.00000000000E+00  0.69575709673E+03  0.69575709673E+03  0.00000000000E+00 0.  1.
         21   -1    0    0  502  503  0.00000000000E+00 -0.00000000000E+00 -0.11479580855E+02  0.11479580855E+02  0.00000000000E+00 0.  1.
         25    2    1    2    0    0  0.27763080610E+02 -0.99472497443E+01  0.37152624608E+03  0.39309802479E+03  0.12499827656E+03 0.  0.
          5    1    3    3  501    0 -0.57805232477E+01 -0.82493016306E+01 -0.75173799915E+01  0.12569265227E+02  0.10000000000E+00 0. -1.
         -5    1    3    3    0  501  0.33543603857E+02 -0.16979481137E+01  0.37904362608E+03  0.38052875957E+03  0.10000000000E+00 0. -1.
          1    1    1    2  502    0 -0.27763080610E+02  0.99472497443E+01  0.31275126979E+03  0.31413865279E+03  0.00000000000E+00 0.  1.
<mgrwt>
<rscale>  1 0.12843016E+03</rscale>
<asrwt>0</asrwt>
<pdfrwt beam="1">  1       21 0.17660899E-02 0.12843016E+03</pdfrwt>
<pdfrwt beam="2">  1        1 0.10703952E+00 0.12843016E+03</pdfrwt>
<totfact> 0.46772353E+05</totfact>
</mgrwt>
</event>
<event>
 6    2  0.1181843E-002  0.1268633E+03  0.7546771E-02  0.1232186E+00
         21   -1    0    0  502  503  0.00000000000E+00  0.00000000000E+00  0.15059346095E+03  0.15059346095E+03  0.00000000000E+00 0.  1.
          1   -1    0    0  503    0 -0.00000000000E+00 -0.00000000000E+00 -0.11315293513E+03  0.11315293513E+03  0.00000000000E+00 0. -1.
         25    2    1    2    0    0  0.10965028153E+02 -0.18671953500E+02  0.12227188838E+03  0.17619507534E+03  0.12500166478E+03 0.  0.
          5    1    3    3  501    0 -0.45445861313E+01 -0.37387322307E+02  0.14072466545E+03  0.14567740593E+03  0.10000000000E+00 0. -1.
         -5    1    3    3    0  501  0.15509614285E+02  0.18715368807E+02 -0.18452777069E+02  0.30517669413E+02  0.10000000000E+00 0. -1.
          1    1    1    2  502    0 -0.10965028153E+02  0.18671953500E+02 -0.84831362562E+02  0.87551320744E+02  0.00000000000E+00 0. -1.
<mgrwt>
<rscale>  1 0.12686327E+03</rscale>
<asrwt>0</asrwt>
<pdfrwt beam="1">  1       21 0.23168225E-01 0.12686327E+03</pdfrwt>
<pdfrwt beam="2">  1        1 0.17408144E-01 0.12686327E+03</pdfrwt>
<totfact> 0.57083783E+04</totfact>
</mgrwt>
</event>
<event>
 6    2  0.1181843E-002  0.1286203E+03  0.7546771E-02  0.1229517E+00
          2   -1    0    0  503    0 -0.00000000000E+00  0.00000000000E+00  0.75997359117E+03  0.75997359117E+03  0.00000000000E+00 0. -1.
         21   -1    0    0  502  503  0.00000000000E+00 -0.00000000000E+00 -0.24204607198E+02  0.24204607198E+02  0.00000000000E+00 0.  1.
         25    2    1    2    0    0  0.30251063161E+02  0.24876543641E+01  0.14987534203E+03  0.19749883541E+03  0.12498742575E+03 0.  0.
          5    1    3    3  501    0  0.19822071106E+02  0.37663367583E+02  0.15474175481E+03  0.16048820655E+03  0.10000000000E+00 0.  1.
         -5    1    3    3    0  501  0.10428992055E+02 -0.35175713219E+02 -0.48664127775E+01  0.37010628866E+02  0.10000000000E+00 0.  1.
          2    1    1    2  502    0 -0.30251063161E+02 -0.24876543641E+01  0.58589364194E+03  0.58667936296E+03  0.00000000000E+00 0. -1.
<mgrwt>
<rscale>  1 0.12862026E+03</rscale>
<asrwt>0</asrwt>
<pdfrwt beam="1">  1       21 0.37237863E-02 0.12862026E+03</pdfrwt>
<pdfrwt beam="2">  1        2 0.11691900E+00 0.12862026E+03</pdfrwt>
<totfact> 0.20896519E+05</totfact>
</mgrwt>
</event>
<event>
 6    2  0.1181843E-002  0.2196853E+03  0.7546771E-02  0.1134118E+00
          2   -1    0    0  503    0 -0.00000000000E+00  0.00000000000E+00  0.80909846759E+03  0.80909846759E+03  0.00000000000E+00 0.  1.
         21   -1    0    0  502  503  0.00000000000E+00 -0.00000000000E+00 -0.98371851511E+02  0.98371851511E+02  0.00000000000E+00 0.  1.
         25    2    1    2    0    0  0.56452896484E+02  0.17161609861E+03  0.53831451832E+02  0.22618457022E+03  0.12499047873E+03 0.  0.
          5    1    3    3  501    0  0.86253800687E+02  0.67787860315E+02  0.12043137005E+02  0.11036285284E+03  0.10000000000E+00 0.  1.
         -5    1    3    3    0  501 -0.29800904203E+02  0.10382823830E+03  0.41788314828E+02  0.11582171737E+03  0.10000000000E+00 0.  1.
          2    1    1    2  502    0 -0.56452896484E+02 -0.17161609861E+03  0.65689516425E+03  0.68128574889E+03  0.00000000000E+00 0.  1.
<mgrwt>
<rscale>  1 0.21968531E+03</rscale>
<asrwt>0</asrwt>
<pdfrwt beam="1">  1       21 0.15134132E-01 0.21968531E+03</pdfrwt>
<pdfrwt beam="2">  1        2 0.12447668E+00 0.21968531E+03</pdfrwt>
<totfact> 0.16973163E+04</totfact>
</mgrwt>
</event>
<event>
 6    2  0.1181843E-002  0.1584335E+03  0.7546771E-02  0.1190477E+00
         21   -1    0    0  502  503  0.00000000000E+00  0.00000000000E+00  0.27204616293E+02  0.27204616293E+02  0.00000000000E+00 0.  1.
          2   -1    0    0  503    0 -0.00000000000E+00 -0.00000000000E+00 -0.35036384291E+04  0.35036384291E+04  0.00000000000E+00 0.  1.
         25    2    1    2    0    0  0.90826953388E+02 -0.35024908434E+02 -0.21050841027E+03  0.26346718477E+03  0.12499954792E+03 0.  0.
          5    1    3    3  501    0 -0.23682079175E+02 -0.26617827841E+02 -0.19525589013E+02  0.40627678488E+02  0.10000000000E+00 0.  1.
         -5    1    3    3    0  501  0.11450903256E+03 -0.84070805937E+01 -0.19098282126E+03  0.22283950628E+03  0.10000000000E+00 0.  1.
          2    1    1    2  502    0 -0.90826953388E+02  0.35024908434E+02 -0.32659254026E+04  0.32673758606E+04  0.00000000000E+00 0.  1.
<mgrwt>
<rscale>  1 0.15843348E+03</rscale>
<asrwt>0</asrwt>
<pdfrwt beam="1">  1       21 0.41853264E-02 0.15843348E+03</pdfrwt>
<pdfrwt beam="2">  1        2 0.53902119E+00 0.15843348E+03</pdfrwt>
<totfact> 0.49884437E+03</totfact>
</mgrwt>
</event>
<event>
 6    2  0.1181843E-002  0.1259835E+03  0.7546771E-02  0.1233540E+00
         21   -1    0    0  502  503  0.00000000000E+00  0.00000000000E+00  0.49095000788E+02  0.49095000788E+02  0.00000000000E+00 0. -1.
          2   -1    0    0  503    0 -0.00000000000E+00 -0.00000000000E+00 -0.13625996192E+03  0.13625996192E+03  0.00000000000E+00 0. -1.
         25    2    1    2    0    0 -0.11714518966E+02 -0.10440667627E+02 -0.34817519097E+02  0.13070615501E+03  0.12500240728E+03 0.  0.
          5    1    3    3  501    0  0.41217481039E+02  0.30987010665E+01 -0.58110827050E+02  0.71311716513E+02  0.10000000000E+00 0.  1.
         -5    1    3    3    0  501 -0.52932000005E+02 -0.13539368694E+02  0.23293307953E+02  0.59394438499E+02  0.10000000000E+00 0.  1.
          2    1    1    2  502    0  0.11714518966E+02  0.10440667627E+02 -0.52347442038E+02  0.54648807700E+02  0.00000000000E+00 0. -1.
<mgrwt>
<rscale>  1 0.12598349E+03</rscale>
<asrwt>0</asrwt>
<pdfrwt beam="1">  1       21 0.75530772E-02 0.12598349E+03</pdfrwt>
<pdfrwt beam="2">  1        2 0.20963071E-01 0.12598349E+03</pdfrwt>
<totfact> 0.41542361E+05</totfact>
</mgrwt>
</event>
<event>
 6    2  0.1181843E-002  0.1300558E+03  0.7546771E-02  0.1227373E+00
         21   -1    0    0  502  503  0.00000000000E+00  0.00000000000E+00  0.23599334372E+02  0.23599334372E+02  0.00000000000E+00 0. -1.
          1   -1    0    0  503    0 -0.00000000000E+00 -0.00000000000E+00 -0.71820602161E+03  0.71820602161E+03  0.00000000000E+00 0.  1.
         25    2    1    2    0    0  0.34715338562E+02 -0.90501679255E+01 -0.16087901977E+03  0.20687331984E+03  0.12500980437E+03 0.  0.
          5    1    3    3  501    0  0.48036544811E+02  0.22972088565E+01 -0.31694632604E+01  0.48195874339E+02  0.10000000000E+00 0.  1.
         -5    1    3    3    0  501 -0.13321206250E+02 -0.11347376782E+02 -0.15770955651E+03  0.15867744550E+03  0.10000000000E+00 0.  1.
          1    1    1    2  502    0 -0.34715338562E+02  0.90501679255E+01 -0.53372766747E+03  0.53493203614E+03  0.00000000000E+00 0.  1.
<mgrwt>
<rscale>  1 0.13005580E+03</rscale>
<asrwt>0</asrwt>
<pdfrwt beam="1">  1       21 0.36306672E-02 0.13005580E+03</pdfrwt>
<pdfrwt beam="2">  1        1 0.11049322E+00 0.13005580E+03</pdfrwt>
<totfact> 0.13824297E+05</totfact>
</mgrwt>
</event>
<event>
 6    2  0.1181843E-002  0.1303658E+03  0.7546771E-02  0.1226914E+00
         21   -1    0    0  502  503  0.00000000000E+00  0.00000000000E+00  0.13830490344E+03  0.13830490344E+03  0.00000000000E+00 0. -1.
          2   -1    0    0  503    0 -0.00000000000E+00 -0.00000000000E+00 -0.14387986378E+04  0.14387986378E+04  0.00000000000E+00 0. -1.
         25    2    1    2    0    0  0.29466532875E+02  0.22401048362E+02  0.10728691479E+03  0.16883636502E+03  0.12500061016E+03 0.  0.
          5    1    3    3  501    0  0.67880567508E+02  0.31811467665E+02  0.27617871617E+02  0.79890536066E+02  0.10000000000E+00 0. -1.
         -5    1    3    3    0  501 -0.38414034633E+02 -0.94104193031E+01  0.79669043170E+02  0.88945828951E+02  0.10000000000E+00 0. -1.
          2    1    1    2  502    0 -0.29466532875E+02 -0.22401048362E+02 -0.14077806491E+04  0.14082671762E+04  0.00000000000E+00 0. -1.
<mgrwt>
<rscale>  1 0.13036578E+03</rscale>
<asrwt>0</asrwt>
<pdfrwt beam="1">  1       21 0.21277676E-01 0.13036578E+03</pdfrwt>
<pdfrwt beam="2">  1        2 0.22135365E+00 0.13036578E+03</pdfrwt>
<totfact> 0.40208889E+03</totfact>
</mgrwt>
</event>
<event>
 6    2  0.1181843E-002  0.1427643E+03  0.7546771E-02  0.1209657E+00
         21   -1    0    0  502  503  0.00000000000E+00  0.00000000000E+00  0.36756196132E+02  0.36756196132E+02  0.00000000000E+00 0.  1.
          1   -1    0    0  503    0 -0.00000000000E+00 -0.00000000000E+00 -0.95832124728E+03  0.95832124728E+03  0.00000000000E+00 0.  1.
         25    2    1    2    0    0 -0.31266981531E+02  0.61467511998E+02 -0.10906900166E+03  0.17965993710E+03  0.12500306681E+03 0.  0.
          5    1    3    3  501    0 -0.49946010305E+02  0.33930885567E+02  0.52381616094E+01  0.60608227806E+02  0.10000000000E+00 0. -1.
         -5    1    3    3    0  501  0.18679028775E+02  0.27536626431E+02 -0.11430716327E+03  0.11905170930E+03  0.10000000000E+00 0. -1.
          1    1    1    2  502    0  0.31266981531E+02 -0.61467511998E+02 -0.81249604948E+03  0.81541750631E+03  0.00000000000E+00 0.  1.
<mgrwt>
<rscale>  1 0.14276430E+03</rscale>
<asrwt>0</asrwt>
<pdfrwt beam="1">  1       21 0.56548001E-02 0.14276430E+03</pdfrwt>
<pdfrwt beam="2">  1        1 0.14743402E+00 0.14276430E+03</pdfrwt>
<totfact> 0.42325093E+04</totfact>
</mgrwt>
</event>
<event>
 6    2  0.1181843E-002  0.1281953E+03  0.7546771E-02  0.1230158E+00
          4   -1    0    0  503    0 -0.00000000000E+00  0.00000000000E+00  0.50158626058E+03  0.50158626058E+03  0.00000000000E+00 0. -1.
         21   -1    0    0  502  503  0.00000000000E+00 -0.00000000000E+00 -0.16193043668E+02  0.16193043668E+02  0.00000000000E+00 0. -1.
         25    2    1    2    0    0  0.28284452630E+02  0.27311677690E+01  0.46616111114E+03  0.48346686583E+03  0.12500623694E+03 0.  0.
          5    1    3    3  501    0  0.88210550116E+01  0.41605933775E+02  0.41118133440E+03  0.41337508935E+03  0.10000000000E+00 0.  1.
         -5    1    3    3    0  501  0.19463397619E+02 -0.38874766006E+02  0.54979776743E+02  0.70091776477E+02  0.10000000000E+00 0.  1.
          4    1    1    2  502    0 -0.28284452630E+02 -0.27311677690E+01  0.19232105766E+02  0.34312438418E+02  0.00000000000E+00 0. -1.
<mgrwt>
<rscale>  1 0.12819528E+03</rscale>
<asrwt>0</asrwt>
<pdfrwt beam="1">  1       21 0.24912379E-02 0.12819528E+03</pdfrwt>
<pdfrwt beam="2">  1        4 0.77167105E-01 0.12819528E+03</pdfrwt>
<totfact> 0.52991907E+04</totfact>
</mgrwt>
</event>
<event>
 6    2  0.1181843E-002  0.1313284E+03  0.7546771E-02  0.1225498E+00
          2   -1    0    0  503    0 -0.00000000000E+00  0.00000000000E+00  0.22411536423E+04  0.22411536423E+04  0.00000000000E+00 0.  1.
         21   -1    0    0  502  503  0.00000000000E+00 -0.00000000000E+00 -0.36100881901E+01  0.36100881901E+01  0.00000000000E+00 0.  1.
         25    2    1    2    0    0 -0.10788809104E+02  0.38799925815E+02  0.19495101701E+04  0.19539286175E+04  0.12500122522E+03 0.  0.
          5    1    3    3  501    0  0.55708704546E+02  0.40283753873E+01  0.91134979607E+03  0.91305977261E+03  0.10000000000E+00 0.  1.
         -5    1    3    3    0  501 -0.66497513650E+02  0.34771550428E+02  0.10381603741E+04  0.10408688449E+04  0.10000000000E+00 0.  1.
          2    1    1    2  502    0  0.10788809104E+02 -0.38799925815E+02  0.28803338395E+03  0.29083511294E+03  0.00000000000E+00 0.  1.
<mgrwt>
<rscale>  1 0.13132836E+03</rscale>
<asrwt>0</asrwt>
<pdfrwt beam="1">  1       21 0.55539998E-03 0.13132836E+03</pdfrwt>
<pdfrwt beam="2">  1        2 0.34479176E+00 0.13132836E+03</pdfrwt>
<totfact> 0.67957756E+05</totfact>
</mgrwt>
</event>
<event>
 6    2  0.1181843E-002  0.1328222E+03  0.7546771E-02  0.1223327E+00
          3   -1    0    0  503    0 -0.00000000000E+00  0.00000000000E+00  0.59135115778E+02  0.59135115778E+02  0.00000000000E+00 0. -1.
         21   -1    0    0  502  503  0.00000000000E+00 -0.00000000000E+00 -0.33100517408E+03  0.33100517408E+03  0.00000000000E+00 0.  1.
         25    2    1    2    0    0  0.42308523581E+02  0.15078072602E+02 -0.30609588894E+03  0.33367112196E+03  0.12499745982E+03 0.  0.
          5    1    3    3  501    0  0.35074150147E+02  0.54800083964E+02 -0.75940461818E+02  0.10000104476E+03  0.10000000000E+00 0.  1.
         -5    1    3    3    0  501  0.72343734337E+01 -0.39722011362E+02 -0.23015542712E+03  0.23367007720E+03  0.10000000000E+00 0.  1.
          3    1    1    2  502    0 -0.42308523581E+02 -0.15078072602E+02  0.34225830635E+02  0.56469167903E+02  0.00000000000E+00 0. -1.
<mgrwt>
<rscale>  1 0.13282215E+03</rscale>
<asrwt>0</asrwt>
<pdfrwt beam="1">  1       21 0.50923873E-01 0.13282215E+03</pdfrwt>
<pdfrwt beam="2">  1        3 0.90977102E-02 0.13282215E+03</pdfrwt>
<totfact> 0.15306551E+04</totfact>
</mgrwt>
</event>
<event>
 6    2  0.1181843E-002  0.1921214E+03  0.7546771E-02  0.1156562E+00
         21   -1    0    0  502  503  0.00000000000E+00  0.00000000000E+00  0.61453671952E+02  0.61453671952E+02  0.00000000000E+00 0.  1.
          2   -1    0    0  503    0 -0.00000000000E+00 -0.00000000000E+00 -0.97623337044E+03  0.97623337044E+03  0.00000000000E+00 0.  1.
         25    2    1    2    0    0  0.13475483958E+03  0.55920514062E+02 -0.11331071651E+03  0.22304693796E+03  0.12499858949E+03 0.  0.
          5    1    3    3  501    0  0.11472662398E+03  0.77616994992E+02 -0.40250255978E+02  0.14424524002E+03  0.10000000000E+00 0. -1.
         -5    1    3    3    0  501  0.20028215597E+02 -0.21696480930E+02 -0.73060460534E+02  0.78801697940E+02  0.10000000000E+00 0. -1.
          2    1    1    2  502    0 -0.13475483958E+03 -0.55920514062E+02 -0.80146898198E+03  0.81464010443E+03  0.00000000000E+00 0.  1.
<mgrwt>
<rscale>  1 0.19212136E+03</rscale>
<asrwt>0</asrwt>
<pdfrwt beam="1">  1       21 0.94544111E-02 0.19212136E+03</pdfrwt>
<pdfrwt beam="2">  1        2 0.15018975E+00 0.19212136E+03</pdfrwt>
<totfact> 0.30930365E+04</totfact>
</mgrwt>
</event>
<event>
 6    2  0.1181843E-002  0.1265503E+03  0.7546771E-02  0.1232666E+00
         21   -1    0    0  502  503  0.00000000000E+00  0.00000000000E+00  0.97937407877E+02  0.97937407877E+02  0.00000000000E+00 0.  1.
          1   -1    0    0  503    0 -0.00000000000E+00 -0.00000000000E+00 -0.54063179764E+03  0.54063179764E+03  0.00000000000E+00 0.  1.
         25    2    1    2    0    0  0.17684446146E+02 -0.87146808740E+01  0.56780947654E+02  0.13870492595E+03  0.12500518057E+03 0.  0.
          5    1    3    3  501    0  0.50045525254E+02 -0.49766331468E+02  0.15906486892E+02  0.72348245804E+02  0.10000000000E+00 0.  1.
         -5    1    3    3    0  501 -0.32361079108E+02  0.41051650593E+02  0.40874460762E+02  0.66356680147E+02  0.10000000000E+00 0.  1.
          1    1    1    2  502    0 -0.17684446146E+02  0.87146808740E+01 -0.49947533742E+03  0.49986427957E+03  0.00000000000E+00 0.  1.
<mgrwt>
<rscale>  1 0.12655031E+03</rscale>
<asrwt>0</asrwt>
<pdfrwt beam="1">  1       21 0.15067293E-01 0.12655031E+03</pdfrwt>
<pdfrwt beam="2">  1        1 0.83174124E-01 0.12655031E+03</pdfrwt>
<totfact> 0.17670935E+04</totfact>
</mgrwt>
</event>
<event>
 6    2  0.1181843E-002  0.1259712E+03  0.7546771E-02  0.1233559E+00
          3   -1    0    0  503    0 -0.00000000000E+00  0.00000000000E+00  0.23111346186E+03  0.23111346186E+03  0.00000000000E+00 0. -1.
         21   -1    0    0  502  503  0.00000000000E+00 -0.00000000000E+00 -0.29389718120E+02  0.29389718120E+02  0.00000000000E+00 0. -1.
         25    2    1    2    0    0  0.15469061951E+02 -0.20150533397E+01  0.10932053127E+03  0.16679242290E+03  0.12500152584E+03 0.  0.
          5    1    3    3  501    0  0.53971069804E+02 -0.40592185713E+02  0.39565153125E+02  0.78268852416E+02  0.10000000000E+00 0.  1.
         -5    1    3    3    0  501 -0.38502007853E+02  0.38577132373E+02  0.69755378140E+02  0.88523570479E+02  0.10000000000E+00 0.  1.
          3    1    1    2  502    0 -0.15469061951E+02  0.20150533397E+01  0.92403212470E+02  0.93710757080E+02  0.00000000000E+00 0. -1.
<mgrwt>
<rscale>  1 0.12597116E+03</rscale>
<asrwt>0</asrwt>
<pdfrwt beam="1">  1       21 0.45214952E-02 0.12597116E+03</pdfrwt>
<pdfrwt beam="2">  1        3 0.35555916E-01 0.12597116E+03</pdfrwt>
<totfact> 0.11701731E+05</totfact>
</mgrwt>
</event>
<event>
 6    2  0.1181843E-002  0.1313291E+03  0.7546771E-02  0.1225497E+00
         21   -1    0    0  502  503  0.00000000000E+00  0.00000000000E+00  0.47679784580E+02  0.47679784580E+02  0.00000000000E+00 0.  1.
          1   -1    0    0  503    0 -0.00000000000E+00 -0.00000000000E+00 -0.29092661038E+03  0.29092661038E+03  0.00000000000E+00 0. -1.
         25    2    1    2    0    0  0.34667685880E+02  0.20377018497E+02 -0.48891600225E+02  0.14013467144E+03  0.12502106319E+03 0.  0.
          5    1    3    3  501    0 -0.10357778299E+02 -0.29844283722E+02  0.24853624523E+02  0.40195490967E+02  0.10000000000E+00 0. -1.
         -5    1    3    3    0  501  0.45025464179E+02  0.50221302219E+02 -0.73745224748E+02  0.99939180476E+02  0.10000000000E+00 0. -1.
          1    1    1    2  502    0 -0.34667685880E+02 -0.20377018497E+02 -0.19435522558E+03  0.19847172352E+03  0.00000000000E+00 0. -1.
<mgrwt>
<rscale>  1 0.13132912E+03</rscale>
<asrwt>0</asrwt>
<pdfrwt beam="1">  1       21 0.73353515E-02 0.13132912E+03</pdfrwt>
<pdfrwt beam="2">  1        1 0.44757940E-01 0.13132912E+03</pdfrwt>
<totfact> 0.13708568E+05</totfact>
</mgrwt>
</event>
<event>
 6    2  0.1181843E-002  0.1723692E+03  0.7546771E-02  0.1175399E+00
          2   -1    0    0  503    0 -0.00000000000E+00  0.00000000000E+00  0.20214279296E+04  0.20214279296E+04  0.00000000000E+00 0. -1.
         21   -1    0    0  502  503  0.00000000000E+00 -0.00000000000E+00 -0.10803910139E+02  0.10803910139E+02  0.00000000000E+00 0. -1.
         25    2    1    2    0    0  0.11148177391E+03 -0.40714282021E+02  0.10112446835E+04  0.10258298843E+04  0.12500121213E+03 0.  0.
          5    1    3    3  501    0 -0.17449630011E+02 -0.35261126393E+02  0.15498932656E+03  0.15990477782E+03  0.10000000000E+00 0.  1.
         -5    1    3    3    0  501  0.12893140392E+03 -0.54531556277E+01  0.85625535694E+03  0.86592510653E+03  0.10000000000E+00 0.  1.
          2    1    1    2  502    0 -0.11148177391E+03  0.40714282021E+02  0.99937933592E+03  0.10064019554E+04  0.00000000000E+00 0. -1.
<mgrwt>
<rscale>  1 0.17236920E+03</rscale>
<asrwt>0</asrwt>
<pdfrwt beam="1">  1       21 0.16621416E-02 0.17236920E+03</pdfrwt>
<pdfrwt beam="2">  1        2 0.31098861E+00 0.17236920E+03</pdfrwt>
<totfact> 0.15640406E+05</totfact>
</mgrwt>
</event>
<event>
 6    2  0.1181843E-002  0.1306580E+03  0.7546771E-02  0.1226483E+00
          1   -1    0    0  503    0 -0.00000000000E+00  0.00000000000E+00  0.53594380996E+03  0.53594380996E+03  0.00000000000E+00 0.  1.
         21   -1    0    0  502  503  0.00000000000E+00 -0.00000000000E+00 -0.37858948751E+02  0.37858948751E+02  0.00000000000E+00 0.  1.
         25    2    1    2    0    0  0.15131290477E+02 -0.34857947262E+02  0.78345549187E+02  0.15234680313E+03  0.12500996323E+03 0.  0.
          5    1    3    3  501    0  0.61783242725E+02 -0.56289667367E+01  0.72990061658E+01  0.62467110059E+02  0.10000000000E+00 0.  1.
         -5    1    3    3    0  501 -0.46651952248E+02 -0.29228980526E+02  0.71046543021E+02  0.89879693070E+02  0.10000000000E+00 0.  1.
          1    1    1    2  502    0 -0.15131290477E+02  0.34857947262E+02  0.41973931202E+03  0.42145595558E+03  0.00000000000E+00 0.  1.
<mgrwt>
<rscale>  1 0.13065804E+03</rscale>
<asrwt>0</asrwt>
<pdfrwt beam="1">  1       21 0.58244540E-02 0.13065804E+03</pdfrwt>
<pdfrwt beam="2">  1        1 0.82452889E-01 0.13065804E+03</pdfrwt>
<totfact> 0.93771268E+04</totfact>
</mgrwt>
</event>
<event>
 6    2  0.1181843E-002  0.1282870E+03  0.7546771E-02  0.1230020E+00
          2   -1    0    0  503    0 -0.00000000000E+00  0.00000000000E+00  0.30307853967E+03  0.30307853967E+03  0.00000000000E+00 0. -1.
         21   -1    0    0  502  503  0.00000000000E+00 -0.00000000000E+00 -0.32001543012E+02  0.32001543012E+02  0.00000000000E+00 0. -1.
         25    2    1    2    0    0  0.17526179089E+01 -0.28794686288E+02  0.10292700620E+03  0.16447344471E+03  0.12500135912E+03 0.  0.
          5    1    3    3  501    0 -0.16168654338E+02 -0.68823514492E+02  0.24879247903E+02  0.74947238151E+02  0.10000000000E+00 0.  1.
         -5    1    3    3    0  501  0.17921272247E+02  0.40028828205E+02  0.78047758297E+02  0.89526206563E+02  0.10000000000E+00 0.  1.
          2    1    1    2  502    0 -0.17526179089E+01  0.28794686288E+02  0.16814999045E+03  0.17060663797E+03  0.00000000000E+00 0. -1.
<mgrwt>
<rscale>  1 0.12828697E+03</rscale>
<asrwt>0</asrwt>
<pdfrwt beam="1">  1       21 0.49233145E-02 0.12828697E+03</pdfrwt>
<pdfrwt beam="2">  1        2 0.46627466E-01 0.12828697E+03</pdfrwt>
<totfact> 0.36221201E+05</totfact>
</mgrwt>
</event>
<event>
 6    2  0.1181843E-002  0.1562421E+03  0.7546771E-02  0.1193006E+00
         21   -1    0    0  502  503  0.00000000000E+00  0.00000000000E+00  0.81240461089E+01  0.81240461089E+01  0.00000000000E+00 0.  1.
          1   -1    0    0  503    0 -0.00000000000E+00 -0.00000000000E+00 -0.19809623121E+04  0.19809623121E+04  0.00000000000E+00 0.  1.
         25    2    1    2    0    0 -0.28501676982E+02 -0.89299783673E+02 -0.10609590676E+04  0.10724018599E+04  0.12499923628E+03 0.  0.
          5    1    3    3  501    0 -0.66575448205E+02 -0.21418068851E+02 -0.33114562374E+03  0.33845008214E+03  0.10000000000E+00 0. -1.
         -5    1    3    3    0  501  0.38073771223E+02 -0.67881714822E+02 -0.72981344382E+03  0.73395177774E+03  0.10000000000E+00 0. -1.
          1    1    1    2  502    0  0.28501676982E+02  0.89299783673E+02 -0.91187919840E+03  0.91668449831E+03  0.00000000000E+00 0.  1.
<mgrwt>
<rscale>  1 0.15624214E+03</rscale>
<asrwt>0</asrwt>
<pdfrwt beam="1">  1       21 0.12498515E-02 0.15624214E+03</pdfrwt>
<pdfrwt beam="2">  1        1 0.30476385E+00 0.15624214E+03</pdfrwt>
<totfact> 0.10483784E+05</totfact>
</mgrwt>
</event>
<event>
 6    2  0.1181843E-002  0.1322494E+03  0.7546771E-02  0.1224156E+00
         21   -1    0    0  502  503  0.00000000000E+00  0.00000000000E+00  0.63650103492E+02  0.63650103492E+02  0.00000000000E+00 0.  1.
          1   -1    0    0  503    0 -0.00000000000E+00 -0.00000000000E+00 -0.16740543212E+03  0.16740543212E+03  0.00000000000E+00 0.  1.
         25    2    1    2    0    0 -0.39222532116E+02  0.18163936465E+02 -0.15975727937E+02  0.13321079170E+03  0.12498622136E+03 0.  0.
          5    1    3    3  501    0  0.29836959024E+02 -0.33649592156E+02 -0.13040064327E+02  0.46825126307E+02  0.10000000000E+00 0.  1.
         -5    1    3    3    0  501 -0.69059491140E+02  0.51813528621E+02 -0.29356636101E+01  0.86385665394E+02  0.10000000000E+00 0.  1.
          1    1    1    2  502    0  0.39222532116E+02 -0.18163936465E+02 -0.87779600687E+02  0.97844743907E+02  0.00000000000E+00 0.  1.
<mgrwt>
<rscale>  1 0.13224935E+03</rscale>
<asrwt>0</asrwt>
<pdfrwt beam="1">  1       21 0.97923236E-02 0.13224935E+03</pdfrwt>
<pdfrwt beam="2">  1        1 0.25754682E-01 0.13224935E+03</pdfrwt>
<totfact> 0.16498827E+05</totfact>
</mgrwt>
</event>
<event>
 6    2  0.1181843E-002  0.1268075E+03  0.7546771E-02  0.1232271E+00
          2   -1    0    0  503    0 -0.00000000000E+00  0.00000000000E+00  0.10544487435E+04  0.10544487435E+04  0.00000000000E+00 0.  1.
         21   -1    0    0  502  503  0.00000000000E+00 -0.00000000000E+00 -0.12487187697E+03  0.12487187697E+03  0.00000000000E+00 0. -1.
         25    2    1    2    0    0 -0.20429240399E+02 -0.61246732643E+01 -0.92538654384E+02  0.15698261199E+03  0.12500108970E+03 0.  0.
          5    1    3    3  501    0 -0.33557835557E+01  0.10080997096E+02  0.30196005513E+02  0.32010881504E+02  0.10000000000E+00 0.  1.
         -5    1    3    3    0  501 -0.17073456843E+02 -0.16205670361E+02 -0.12273465990E+03  0.12497173049E+03  0.10000000000E+00 0.  1.
          2    1    1    2  502    0  0.20429240399E+02  0.61246732643E+01  0.10221155210E+04  0.10223380085E+04  0.00000000000E+00 0.  1.
<mgrwt>
<rscale>  1 0.12680748E+03</rscale>
<asrwt>0</asrwt>
<pdfrwt beam="1">  1       21 0.19211059E-01 0.12680748E+03</pdfrwt>
<pdfrwt beam="2">  1        2 0.16222288E+00 0.12680748E+03</pdfrwt>
<totfact> 0.79010246E+03</totfact>
</mgrwt>
</event>
<event>
 6    2  0.1181843E-002  0.1417519E+03  0.7546771E-02  0.1210991E+00
          1   -1    0    0  503    0 -0.00000000000E+00  0.00000000000E+00  0.27607654940E+03  0.27607654940E+03  0.00000000000E+00 0. -1.
         21   -1    0    0  502  503  0.00000000000E+00 -0.00000000000E+00 -0.43423132963E+02  0.43423132963E+02  0.00000000000E+00 0. -1.
         25    2    1    2    0    0 -0.66649848454E+02 -0.52627899082E+01  0.10857670607E+03  0.17855668214E+03  0.12499475341E+03 0.  0.
          5    1    3    3  501    0 -0.58941154218E+02 -0.45684329890E+02  0.11484437543E+03  0.13693194742E+03  0.10000000000E+00 0. -1.
         -5    1    3    3    0  501 -0.77086942359E+01  0.40421539981E+02 -0.62676693534E+01  0.41624734719E+02  0.10000000000E+00 0. -1.
          1    1    1    2  502    0  0.66649848454E+02  0.52627899082E+01  0.12407671036E+03  0.14094300022E+03  0.00000000000E+00 0. -1.
<mgrwt>
<rscale>  1 0.14175185E+03</rscale>
<asrwt>0</asrwt>
<pdfrwt beam="1">  1       21 0.66804822E-02 0.14175185E+03</pdfrwt>
<pdfrwt beam="2">  1        1 0.42473314E-01 0.14175185E+03</pdfrwt>
<totfact> 0.17222879E+05</totfact>
</mgrwt>
</event>
<event>
 6    2  0.1181843E-002  0.1269587E+03  0.7546771E-02  0.1232040E+00
         21   -1    0    0  502  503  0.00000000000E+00  0.00000000000E+00  0.52135877793E+02  0.52135877793E+02  0.00000000000E+00 0.  1.
          2   -1    0    0  503    0 -0.00000000000E+00 -0.00000000000E+00 -0.18283291160E+03  0.18283291160E+03  0.00000000000E+00 0.  1.
         25    2    1    2    0    0  0.14059644376E+02 -0.17198416688E+02 -0.28148259746E+02  0.13004162324E+03  0.12500016044E+03 0.  0.
          5    1    3    3  501    0  0.43175450341E+02  0.42058861669E+02 -0.68273144924E+01  0.60660444939E+02  0.10000000000E+00 0.  1.
         -5    1    3    3    0  501 -0.29115805966E+02 -0.59257278357E+02 -0.21320945254E+02  0.69381178296E+02  0.10000000000E+00 0.  1.
          2    1    1    2  502    0 -0.14059644376E+02  0.17198416688E+02 -0.10254877406E+03  0.10492716615E+03  0.00000000000E+00 0.  1.
<mgrwt>
<rscale>  1 0.12695865E+03</rscale>
<asrwt>0</asrwt>
<pdfrwt beam="1">  1       21 0.80209043E-02 0.12695865E+03</pdfrwt>
<pdfrwt beam="2">  1        2 0.28128140E-01 0.12695865E+03</pdfrwt>
<totfact> 0.27090488E+05</totfact>
</mgrwt>
</event>
<event>
 6    2  0.1181843E-002  0.1331214E+03  0.7546771E-02  0.1222896E+00
         21   -1    0    0  502  503  0.00000000000E+00  0.00000000000E+00  0.31765318966E+03  0.31765318966E+03  0.00000000000E+00 0.  1.
          3   -1    0    0  503    0 -0.00000000000E+00 -0.00000000000E+00 -0.18874750171E+03  0.18874750171E+03  0.00000000000E+00 0. -1.
         25    2    1    2    0    0 -0.32073184336E+02  0.32757111382E+02  0.30056462534E+03  0.32872540247E+03  0.12497831302E+03 0.  0.
          5    1    3    3  501    0  0.19943801927E+02  0.17184542060E+02  0.32882135680E+01  0.26530851279E+02  0.10000000000E+00 0. -1.
         -5    1    3    3    0  501 -0.52016986263E+02  0.15572569322E+02  0.29727641177E+03  0.30219455119E+03  0.10000000000E+00 0. -1.
          3    1    1    2  502    0  0.32073184336E+02 -0.32757111382E+02 -0.17165893739E+03  0.17767528890E+03  0.00000000000E+00 0. -1.
<mgrwt>
<rscale>  1 0.13312136E+03</rscale>
<asrwt>0</asrwt>
<pdfrwt beam="1">  1       21 0.48869722E-01 0.13312136E+03</pdfrwt>
<pdfrwt beam="2">  1        3 0.29038077E-01 0.13312136E+03</pdfrwt>
<totfact> 0.22421111E+03</totfact>
</mgrwt>
</event>
<event>
 6    2  0.1181843E-002  0.1270037E+03  0.7546771E-02  0.1231971E+00
         21   -1    0    0  502  503  0.00000000000E+00  0.00000000000E+00  0.38472997696E+01  0.38472997696E+01  0.00000000000E+00 0.  1.
          1   -1    0    0  503    0 -0.00000000000E+00 -0.00000000000E+00 -0.18429553214E+04  0.18429553214E+04  0.00000000000E+00 0.  1.
         25    2    1    2    0    0  0.21593468096E+02 -0.62532451684E+01 -0.10926805410E+04  0.11000366841E+04  0.12499824290E+03 0.  0.
          5    1    3    3  501    0  0.87866362603E+01  0.58329127172E+02 -0.41612708791E+03  0.42028711062E+03  0.10000000000E+00 0.  1.
         -5    1    3    3    0  501  0.12806831835E+02 -0.64582372341E+02 -0.67655345305E+03  0.67974957344E+03  0.10000000000E+00 0.  1.
          1    1    1    2  502    0 -0.21593468096E+02  0.62532451684E+01 -0.74642748068E+03  0.74676593713E+03  0.00000000000E+00 0.  1.
<mgrwt>
<rscale>  1 0.12700371E+03</rscale>
<asrwt>0</asrwt>
<pdfrwt beam="1">  1       21 0.59189267E-03 0.12700371E+03</pdfrwt>
<pdfrwt beam="2">  1        1 0.28353140E+00 0.12700371E+03</pdfrwt>
<totfact> 0.41483514E+05</totfact>
</mgrwt>
</event>
<event>
 6    2  0.1181843E-002  0.1283633E+03  0.7546771E-02  0.1229905E+00
         21   -1    0    0  502  503  0.00000000000E+00  0.00000000000E+00  0.16902774786E+02  0.16902774786E+02  0.00000000000E+00 0. -1.
          2   -1    0    0  503    0 -0.00000000000E+00 -0.00000000000E+00 -0.20806124585E+04  0.20806124585E+04  0.00000000000E+00 0. -1.
         25    2    1    2    0    0 -0.22645161906E+02 -0.18422596686E+02 -0.22860314337E+03  0.26217651527E+03  0.12499973030E+03 0.  0.
          5    1    3    3  501    0 -0.26355450232E+02 -0.50189719096E+02 -0.36486507264E+02  0.67415820637E+02  0.10000000000E+00 0. -1.
         -5    1    3    3    0  501  0.37102883263E+01  0.31767122410E+02 -0.19211663610E+03  0.19476069463E+03  0.10000000000E+00 0. -1.
          2    1    1    2  502    0  0.22645161906E+02  0.18422596686E+02 -0.18351065404E+04  0.18353387180E+04  0.00000000000E+00 0. -1.
<mgrwt>
<rscale>  1 0.12836327E+03</rscale>
<asrwt>0</asrwt>
<pdfrwt beam="1">  1       21 0.26004268E-02 0.12836327E+03</pdfrwt>
<pdfrwt beam="2">  1        2 0.32009424E+00 0.12836327E+03</pdfrwt>
<totfact> 0.70985266E+04</totfact>
</mgrwt>
</event>
<event>
 6    2  0.1181843E-002  0.1298445E+03  0.7546771E-02  0.1227687E+00
          2   -1    0    0  503    0 -0.00000000000E+00  0.00000000000E+00  0.38070223521E+03  0.38070223521E+03  0.00000000000E+00 0.  1.
         21   -1    0    0  502  503  0.00000000000E+00 -0.00000000000E+00 -0.13735925830E+03  0.13735925830E+03  0.00000000000E+00 0.  1.
         25    2    1    2    0    0 -0.25121012819E+02 -0.24581305155E+02 -0.10559271420E+03  0.16736016421E+03  0.12499718967E+03 0.  0.
          5    1    3    3  501    0  0.43706629279E+02  0.19287877881E+02 -0.32350755062E+02  0.57696386622E+02  0.10000000000E+00 0.  1.
         -5    1    3    3    0  501 -0.68827642098E+02 -0.43869183036E+02 -0.73241959135E+02  0.10966377759E+03  0.10000000000E+00 0.  1.
          2    1    1    2  502    0  0.25121012819E+02  0.24581305155E+02  0.34893569110E+03  0.35070132930E+03  0.00000000000E+00 0.  1.
<mgrwt>
<rscale>  1 0.12984454E+03</rscale>
<asrwt>0</asrwt>
<pdfrwt beam="1">  1       21 0.21132194E-01 0.12984454E+03</pdfrwt>
<pdfrwt beam="2">  1        2 0.58569574E-01 0.12984454E+03</pdfrwt>
<totfact> 0.22002535E+04</totfact>
</mgrwt>
</event>
<event>
 6    2  0.1181843E-002  0.1575205E+03  0.7546771E-02  0.1191525E+00
          2   -1    0    0  503    0 -0.00000000000E+00  0.00000000000E+00  0.79808726217E+03  0.79808726217E+03  0.00000000000E+00 0.  1.
         21   -1    0    0  502  503  0.00000000000E+00 -0.00000000000E+00 -0.15379821636E+03  0.15379821636E+03  0.00000000000E+00 0.  1.
         25    2    1    2    0    0 -0.58023612604E+02 -0.76273873222E+02 -0.10962008595E+03  0.19190954318E+03  0.12501306398E+03 0.  0.
          5    1    3    3  501    0  0.25660548921E+02  0.11339380249E+02 -0.48928606772E+02  0.56400920879E+02  0.10000000000E+00 0. -1.
         -5    1    3    3    0  501 -0.83684161525E+02 -0.87613253471E+02 -0.60691479182E+02  0.13550862231E+03  0.10000000000E+00 0. -1.
          2    1    1    2  502    0  0.58023612604E+02  0.76273873222E+02  0.75390913176E+03  0.75997593535E+03  0.00000000000E+00 0.  1.
<mgrwt>
<rscale>  1 0.15752051E+03</rscale>
<asrwt>0</asrwt>
<pdfrwt beam="1">  1       21 0.23661265E-01 0.15752051E+03</pdfrwt>
<pdfrwt beam="2">  1        2 0.12278265E+00 0.15752051E+03</pdfrwt>
<totfact> 0.76586745E+03</totfact>
</mgrwt>
</event>
<event>
 6    2  0.1181843E-002  0.1852837E+03  0.7546771E-02  0.1162785E+00
         21   -1    0    0  502  503  0.00000000000E+00  0.00000000000E+00  0.47583683408E+02  0.47583683408E+02  0.00000000000E+00 0.  1.
          2   -1    0    0  503    0 -0.00000000000E+00 -0.00000000000E+00 -0.73818726708E+03  0.73818726708E+03  0.00000000000E+00 0.  1.
         25    2    1    2    0    0  0.13334215224E+03 -0.30411583617E+02 -0.18436001623E+03  0.26137840329E+03  0.12500024055E+03 0.  0.
          5    1    3    3  501    0  0.10926200110E+03 -0.53289238602E+02 -0.65751971383E+02  0.13820730652E+03  0.10000000000E+00 0. -1.
         -5    1    3    3    0  501  0.24080151147E+02  0.22877654985E+02 -0.11860804485E+03  0.12317109677E+03  0.10000000000E+00 0. -1.
          2    1    1    2  502    0 -0.13334215224E+03  0.30411583617E+02 -0.50624356744E+03  0.52439254720E+03  0.00000000000E+00 0.  1.
<mgrwt>
<rscale>  1 0.18528371E+03</rscale>
<asrwt>0</asrwt>
<pdfrwt beam="1">  1       21 0.73205670E-02 0.18528371E+03</pdfrwt>
<pdfrwt beam="2">  1        2 0.11356727E+00 0.18528371E+03</pdfrwt>
<totfact> 0.69436202E+04</totfact>
</mgrwt>
</event>
<event>
 6    2  0.1181843E-002  0.1265869E+03  0.7546771E-02  0.1232610E+00
          3   -1    0    0  503    0 -0.00000000000E+00  0.00000000000E+00  0.61652608159E+02  0.61652608159E+02  0.00000000000E+00 0.  1.
         21   -1    0    0  502  503  0.00000000000E+00 -0.00000000000E+00 -0.87720619916E+02  0.87720619916E+02  0.00000000000E+00 0.  1.
         25    2    1    2    0    0  0.17348941686E+02 -0.98897031781E+01 -0.26789057523E+02  0.12939043764E+03  0.12500175896E+03 0.  0.
          5    1    3    3  501    0 -0.27185492960E+02  0.42625357914E+02 -0.32812514133E+02  0.60271413195E+02  0.10000000000E+00 0. -1.
         -5    1    3    3    0  501  0.44534434646E+02 -0.52515061092E+02  0.60234566095E+01  0.69119024445E+02  0.10000000000E+00 0. -1.
          3    1    1    2  502    0 -0.17348941686E+02  0.98897031781E+01  0.72104576642E+00  0.19982790435E+02  0.00000000000E+00 0.  1.
<mgrwt>
<rscale>  1 0.12658685E+03</rscale>
<asrwt>0</asrwt>
<pdfrwt beam="1">  1       21 0.13495480E-01 0.12658685E+03</pdfrwt>
<pdfrwt beam="2">  1        3 0.94850166E-02 0.12658685E+03</pdfrwt>
<totfact> 0.17964339E+05</totfact>
</mgrwt>
</event>
<event>
 6    2  0.1181843E-002  0.1322972E+03  0.7546771E-02  0.1224086E+00
          2   -1    0    0  503    0 -0.00000000000E+00  0.00000000000E+00  0.20673994187E+04  0.20673994187E+04  0.00000000000E+00 0. -1.
         21   -1    0    0  502  503  0.00000000000E+00 -0.00000000000E+00 -0.37188854712E+02  0.37188854712E+02  0.00000000000E+00 0. -1.
         25    2    1    2    0    0 -0.18964752395E+02 -0.38957819858E+02  0.81478704847E+02  0.15537478270E+03  0.12500068077E+03 0.  0.
          5    1    3    3  501    0 -0.54166693391E+02 -0.13646499051E+01 -0.53224334603E+01  0.54444754019E+02  0.10000000000E+00 0. -1.
         -5    1    3    3    0  501  0.35201940997E+02 -0.37593169953E+02  0.86801138308E+02  0.10093002868E+03  0.10000000000E+00 0. -1.
          2    1    1    2  502    0  0.18964752395E+02  0.38957819858E+02  0.19487318591E+04  0.19492134907E+04  0.00000000000E+00 0. -1.
<mgrwt>
<rscale>  1 0.13229718E+03</rscale>
<asrwt>0</asrwt>
<pdfrwt beam="1">  1       21 0.57213639E-02 0.13229718E+03</pdfrwt>
<pdfrwt beam="2">  1        2 0.31806136E+00 0.13229718E+03</pdfrwt>
<totfact> 0.19456310E+04</totfact>
</mgrwt>
</event>
<event>
 6    2  0.1181843E-002  0.1483557E+03  0.7546771E-02  0.1202508E+00
         21   -1    0    0  502  503  0.00000000000E+00  0.00000000000E+00  0.45765632897E+02  0.45765632897E+02  0.00000000000E+00 0.  1.
          1   -1    0    0  503    0 -0.00000000000E+00 -0.00000000000E+00 -0.52227004675E+03  0.52227004675E+03  0.00000000000E+00 0.  1.
         25    2    1    2    0    0  0.28893892435E+02 -0.74594834726E+02 -0.46391090487E+03  0.48705517053E+03  0.12494064628E+03 0.  0.
          5    1    3    3  501    0 -0.38269677853E+02 -0.71500879941E+02 -0.24941471033E+03  0.26226828211E+03  0.10000000000E+00 0.  1.
         -5    1    3    3    0  501  0.67163570288E+02 -0.30939547852E+01 -0.21449619455E+03  0.22478688842E+03  0.10000000000E+00 0.  1.
          1    1    1    2  502    0 -0.28893892435E+02  0.74594834726E+02 -0.12593508977E+02  0.80980509113E+02  0.00000000000E+00 0.  1.
<mgrwt>
<rscale>  1 0.14835569E+03</rscale>
<asrwt>0</asrwt>
<pdfrwt beam="1">  1       21 0.70408668E-02 0.14835569E+03</pdfrwt>
<pdfrwt beam="2">  1        1 0.80349236E-01 0.14835569E+03</pdfrwt>
<totfact> 0.70388748E+04</totfact>
</mgrwt>
</event>
<event>
 6    2  0.1181843E-002  0.1386250E+03  0.7546771E-02  0.1215191E+00
          2   -1    0    0  503    0 -0.00000000000E+00  0.00000000000E+00  0.13027281185E+04  0.13027281185E+04  0.00000000000E+00 0.  1.
         21   -1    0    0  502  503  0.00000000000E+00 -0.00000000000E+00 -0.79138214021E+02  0.79138214021E+02  0.00000000000E+00 0.  1.
         25    2    1    2    0    0  0.59299940915E+02  0.87414604772E+01 -0.17147833739E+02  0.13968155111E+03  0.12499596552E+03 0.  0.
          5    1    3    3  501    0  0.54216925481E+02  0.48572482529E+02 -0.49573368764E+02  0.88069801625E+02  0.10000000000E+00 0. -1.
         -5    1    3    3    0  501  0.50830154343E+01 -0.39831022052E+02  0.32425535025E+02  0.51611749489E+02  0.10000000000E+00 0. -1.
          2    1    1    2  502    0 -0.59299940915E+02 -0.87414604772E+01  0.12407377382E+04  0.12421847814E+04  0.00000000000E+00 0.  1.
<mgrwt>
<rscale>  1 0.13862499E+03</rscale>
<asrwt>0</asrwt>
<pdfrwt beam="1">  1       21 0.12175111E-01 0.13862499E+03</pdfrwt>
<pdfrwt beam="2">  1        2 0.20041970E+00 0.13862499E+03</pdfrwt>
<totfact> 0.13038466E+04</totfact>
</mgrwt>
</event>
<event>
 6    2  0.1181843E-002  0.1323719E+03  0.7546771E-02  0.1223978E+00
          2   -1    0    0  503    0 -0.00000000000E+00  0.00000000000E+00  0.46842951368E+03  0.46842951368E+03  0.00000000000E+00 0.  1.
         21   -1    0    0  502  503  0.00000000000E+00 -0.00000000000E+00 -0.17150781255E+02  0.17150781255E+02  0.00000000000E+00 0.  1.
         25    2    1    2    0    0 -0.34242464162E+02 -0.26921817528E+02  0.29486359866E+03  0.32321335038E+03  0.12499998978E+03 0.  0.
          5    1    3    3  501    0  0.33962438626E+02 -0.36052643185E+02  0.19986122420E+03  0.20590716174E+03  0.10000000000E+00 0. -1.
         -5    1    3    3    0  501 -0.68204902787E+02  0.91308256579E+01  0.95002374453E+02  0.11730618864E+03  0.10000000000E+00 0. -1.
          2    1    1    2  502    0  0.34242464162E+02  0.26921817528E+02  0.15641513377E+03  0.16236694456E+03  0.00000000000E+00 0.  1.
<mgrwt>
<rscale>  1 0.13237193E+03</rscale>
<asrwt>0</asrwt>
<pdfrwt beam="1">  1       21 0.26385821E-02 0.13237193E+03</pdfrwt>
<pdfrwt beam="2">  1        2 0.72066069E-01 0.13237193E+03</pdfrwt>
<totfact> 0.64024542E+05</totfact>
</mgrwt>
</event>
<event>
 6    2  0.1181843E-002  0.1606531E+03  0.7546771E-02  0.1187961E+00
         21   -1    0    0  502  503  0.00000000000E+00  0.00000000000E+00  0.26424832230E+02  0.26424832230E+02  0.00000000000E+00 0. -1.
          2   -1    0    0  503    0 -0.00000000000E+00 -0.00000000000E+00 -0.18278507228E+04  0.18278507228E+04  0.00000000000E+00 0. -1.
         25    2    1    2    0    0  0.29764865251E+02  0.96436554122E+02 -0.23537011128E+03  0.28497104028E+03  0.12499379320E+03 0.  0.
          5    1    3    3  501    0  0.66183022913E+02  0.90286150210E+02 -0.21595380557E+03  0.24324439887E+03  0.10000000000E+00 0. -1.
         -5    1    3    3    0  501 -0.36418157663E+02  0.61504039119E+01 -0.19416305712E+02  0.41726641409E+02  0.10000000000E+00 0. -1.
          2    1    1    2  502    0 -0.29764865251E+02 -0.96436554122E+02 -0.15660557793E+04  0.15693045148E+04  0.00000000000E+00 0. -1.
<mgrwt>
<rscale>  1 0.16065306E+03</rscale>
<asrwt>0</asrwt>
<pdfrwt beam="1">  1       21 0.40653581E-02 0.16065306E+03</pdfrwt>
<pdfrwt beam="2">  1        2 0.28120785E+00 0.16065306E+03</pdfrwt>
<totfact> 0.45468166E+04</totfact>
</mgrwt>
</event>
<event>
 6    2  0.1181843E-002  0.1263692E+03  0.7546771E-02  0.1232945E+00
         21   -1    0    0  502  503  0.00000000000E+00  0.00000000000E+00  0.17608903246E+03  0.17608903246E+03  0.00000000000E+00 0. -1.
          1   -1    0    0  503    0 -0.00000000000E+00 -0.00000000000E+00 -0.36067438050E+03  0.36067438050E+03  0.00000000000E+00 0. -1.
         25    2    1    2    0    0 -0.13850992042E+02 -0.12383870944E+02  0.15312873099E+03  0.19853862171E+03  0.12499586320E+03 0.  0.
          5    1    3    3  501    0  0.17018952717E+02 -0.59189557054E+02  0.11586395122E+03  0.13121552350E+03  0.10000000000E+00 0.  1.
         -5    1    3    3    0  501 -0.30869944759E+02  0.46805686110E+02  0.37264779767E+02  0.67323098211E+02  0.10000000000E+00 0.  1.
          1    1    1    2  502    0  0.13850992042E+02  0.12383870944E+02 -0.33771407903E+03  0.33822479125E+03  0.00000000000E+00 0. -1.
<mgrwt>
<rscale>  1 0.12636921E+03</rscale>
<asrwt>0</asrwt>
<pdfrwt beam="1">  1       21 0.27090621E-01 0.12636921E+03</pdfrwt>
<pdfrwt beam="2">  1        1 0.55488366E-01 0.12636921E+03</pdfrwt>
<totfact> 0.10005233E+04</totfact>
</mgrwt>
</event>
<event>
 6    2  0.1181843E-002  0.1361923E+03  0.7546771E-02  0.1218546E+00
          1   -1    0    0  503    0 -0.00000000000E+00  0.00000000000E+00  0.15357726152E+04  0.15357726152E+04  0.00000000000E+00 0. -1.
         21   -1    0    0  502  503  0.00000000000E+00 -0.00000000000E+00 -0.62536539857E+01  0.62536539857E+01  0.00000000000E+00 0. -1.
         25    2    1    2    0    0 -0.46605024544E+02  0.27451371025E+02  0.90784612496E+03  0.91800485816E+03  0.12499090733E+03 0.  0.
          5    1    3    3  501    0 -0.50775254869E+02  0.72228531176E+02  0.68499567963E+03  0.69066213037E+03  0.10000000000E+00 0.  1.
         -5    1    3    3    0  501  0.41702303248E+01 -0.44777160151E+02  0.22285044533E+03  0.22734272778E+03  0.10000000000E+00 0.  1.
          1    1    1    2  502    0  0.46605024544E+02 -0.27451371025E+02  0.62167283629E+03  0.62402141107E+03  0.00000000000E+00 0. -1.
<mgrwt>
<rscale>  1 0.13619226E+03</rscale>
<asrwt>0</asrwt>
<pdfrwt beam="1">  1       21 0.96210183E-03 0.13619226E+03</pdfrwt>
<pdfrwt beam="2">  1        1 0.23627241E+00 0.13619226E+03</pdfrwt>
<totfact> 0.30548946E+05</totfact>
</mgrwt>
</event>
<event>
 6    2  0.1181843E-002  0.1263637E+03  0.7546771E-02  0.1232953E+00
         21   -1    0    0  502  503  0.00000000000E+00  0.00000000000E+00  0.36524148621E+02  0.36524148621E+02  0.00000000000E+00 0. -1.
          1   -1    0    0  503    0 -0.00000000000E+00 -0.00000000000E+00 -0.53914594125E+03  0.53914594125E+03  0.00000000000E+00 0. -1.
         25    2    1    2    0    0  0.18360103408E+02  0.26558690302E+01 -0.73575439345E+02  0.14622286342E+03  0.12499453378E+03 0.  0.
          5    1    3    3  501    0  0.11256377646E+02 -0.60857103756E+02 -0.43108485830E+02  0.75423104324E+02  0.10000000000E+00 0. -1.
         -5    1    3    3    0  501  0.71037257623E+01  0.63512972787E+02 -0.30466953515E+02  0.70799759098E+02  0.10000000000E+00 0. -1.
          1    1    1    2  502    0 -0.18360103408E+02 -0.26558690302E+01 -0.42904635328E+03  0.42944722645E+03  0.00000000000E+00 0. -1.
<mgrwt>
<rscale>  1 0.12636368E+03</rscale>
<asrwt>0</asrwt>
<pdfrwt beam="1">  1       21 0.56190999E-02 0.12636368E+03</pdfrwt>
<pdfrwt beam="2">  1        1 0.82945527E-01 0.12636368E+03</pdfrwt>
<totfact> 0.98768891E+04</totfact>
</mgrwt>
</event>
<event>
 6    2  0.1181843E-002  0.1289927E+03  0.7546771E-02  0.1228958E+00
         21   -1    0    0  502  503  0.00000000000E+00  0.00000000000E+00  0.17262854294E+01  0.17262854294E+01  0.00000000000E+00 0.  1.
          2   -1    0    0  503    0 -0.00000000000E+00 -0.00000000000E+00 -0.46786014871E+04  0.46786014871E+04  0.00000000000E+00 0.  1.
         25    2    1    2    0    0 -0.14666774419E+02 -0.28288374777E+02 -0.25907839058E+04  0.25939931299E+04  0.12499505944E+03 0.  0.
          5    1    3    3  501    0 -0.54832803845E+02 -0.38140416305E+02 -0.22025753118E+04  0.22035878339E+04  0.10000000000E+00 0. -1.
         -5    1    3    3    0  501  0.40166029425E+02  0.98520415274E+01 -0.38820859406E+03  0.39040529600E+03  0.10000000000E+00 0. -1.
          2    1    1    2  502    0  0.14666774419E+02  0.28288374777E+02 -0.20860912959E+04  0.20863346427E+04  0.00000000000E+00 0.  1.
<mgrwt>
<rscale>  1 0.12899268E+03</rscale>
<asrwt>0</asrwt>
<pdfrwt beam="1">  1       21 0.26558445E-03 0.12899268E+03</pdfrwt>
<pdfrwt beam="2">  1        2 0.71977922E+00 0.12899268E+03</pdfrwt>
<totfact> 0.47825043E+04</totfact>
</mgrwt>
</event>
<event>
 6    2  0.1181843E-002  0.1278515E+03  0.7546771E-02  0.1230679E+00
          2   -1    0    0  503    0 -0.00000000000E+00  0.00000000000E+00  0.30223684805E+03  0.30223684805E+03  0.00000000000E+00 0. -1.
         21   -1    0    0  502  503  0.00000000000E+00 -0.00000000000E+00 -0.40473919675E+02  0.40473919675E+02  0.00000000000E+00 0. -1.
         25    2    1    2    0    0  0.26654299923E+02 -0.24415776646E+00  0.63661932928E+02  0.14282451078E+03  0.12504194440E+03 0.  0.
          5    1    3    3  501    0  0.22388596745E+02  0.32857134737E+02  0.91241771480E+02  0.99528445332E+02  0.10000000000E+00 0. -1.
         -5    1    3    3    0  501  0.42657031783E+01 -0.33101292504E+02 -0.27579838552E+02  0.43296065451E+02  0.10000000000E+00 0. -1.
          2    1    1    2  502    0 -0.26654299923E+02  0.24415776646E+00  0.19810099544E+03  0.19988625694E+03  0.00000000000E+00 0. -1.
<mgrwt>
<rscale>  1 0.12785147E+03</rscale>
<asrwt>0</asrwt>
<pdfrwt beam="1">  1       21 0.62267571E-02 0.12785147E+03</pdfrwt>
<pdfrwt beam="2">  1        2 0.46497975E-01 0.12785147E+03</pdfrwt>
<totfact> 0.24431890E+05</totfact>
</mgrwt>
</event>
<event>
 6    2  0.1181843E-002  0.1633841E+03  0.7546771E-02  0.1184928E+00
          2   -1    0    0  503    0 -0.00000000000E+00  0.00000000000E+00  0.21108368747E+04  0.21108368747E+04  0.00000000000E+00 0. -1.
         21   -1    0    0  502  503  0.00000000000E+00 -0.00000000000E+00 -0.86416501468E+01  0.86416501468E+01  0.00000000000E+00 0. -1.
         25    2    1    2    0    0  0.71416435140E+02  0.77259295174E+02  0.13859772055E+04  0.13955741411E+04  0.12500025368E+03 0.  0.
          5    1    3    3  501    0  0.55196805686E+01  0.11281283276E+01 -0.30229413266E+00  0.56427766964E+01  0.10000000000E+00 0.  1.
         -5    1    3    3    0  501  0.65896754572E+02  0.76131166847E+02  0.13862794996E+04  0.13899313644E+04  0.10000000000E+00 0.  1.
          2    1    1    2  502    0 -0.71416435140E+02 -0.77259295174E+02  0.71621801907E+03  0.72390438370E+03  0.00000000000E+00 0. -1.
<mgrwt>
<rscale>  1 0.16338412E+03</rscale>
<asrwt>0</asrwt>
<pdfrwt beam="1">  1       21 0.13294863E-02 0.16338412E+03</pdfrwt>
<pdfrwt beam="2">  1        2 0.32474372E+00 0.16338412E+03</pdfrwt>
<totfact> 0.20138754E+05</totfact>
</mgrwt>
</event>
<event>
 6    2  0.1181843E-002  0.1408463E+03  0.7546771E-02  0.1212195E+00
          2   -1    0    0  503    0 -0.00000000000E+00  0.00000000000E+00  0.33732722464E+03  0.33732722464E+03  0.00000000000E+00 0.  1.
         21   -1    0    0  502  503  0.00000000000E+00 -0.00000000000E+00 -0.54223375422E+02  0.54223375422E+02  0.00000000000E+00 0. -1.
         25    2    1    2    0    0 -0.62425955680E+02 -0.17747510660E+02  0.49804855513E+02  0.14939281154E+03  0.12500285769E+03 0.  0.
          5    1    3    3  501    0 -0.97273831256E+02 -0.11800620457E+02  0.56937743125E+02  0.11332859075E+03  0.10000000000E+00 0.  1.
         -5    1    3    3    0  501  0.34847875576E+02 -0.59468902034E+01 -0.71328876119E+01  0.36064220786E+02  0.10000000000E+00 0.  1.
          2    1    1    2  502    0  0.62425955680E+02  0.17747510660E+02  0.23329899370E+03  0.24215778852E+03  0.00000000000E+00 0.  1.
<mgrwt>
<rscale>  1 0.14084633E+03</rscale>
<asrwt>0</asrwt>
<pdfrwt beam="1">  1       21 0.83420580E-02 0.14084633E+03</pdfrwt>
<pdfrwt beam="2">  1        2 0.51896495E-01 0.14084633E+03</pdfrwt>
<totfact> 0.13225251E+05</totfact>
</mgrwt>
</event>
<event>
 6    2  0.1181843E-002  0.1287868E+03  0.7546771E-02  0.1229267E+00
          2   -1    0    0  503    0 -0.00000000000E+00  0.00000000000E+00  0.12637643866E+04  0.12637643866E+04  0.00000000000E+00 0. -1.
         21   -1    0    0  502  503  0.00000000000E+00 -0.00000000000E+00 -0.11314873678E+02  0.11314873678E+02  0.00000000000E+00 0. -1.
         25    2    1    2    0    0 -0.48585212082E+01 -0.30609606398E+02  0.36439064576E+03  0.38647974150E+03  0.12500197854E+03 0.  0.
          5    1    3    3  501    0  0.15734666469E+02 -0.71285252838E+02  0.29152546276E+03  0.30052665844E+03  0.10000000000E+00 0. -1.
         -5    1    3    3    0  501 -0.20593187677E+02  0.40675646440E+02  0.72865183009E+02  0.85953083057E+02  0.10000000000E+00 0. -1.
          2    1    1    2  502    0  0.48585212082E+01  0.30609606398E+02  0.88805886711E+03  0.88859951873E+03  0.00000000000E+00 0. -1.
<mgrwt>
<rscale>  1 0.12878683E+03</rscale>
<asrwt>0</asrwt>
<pdfrwt beam="1">  1       21 0.17407508E-02 0.12878683E+03</pdfrwt>
<pdfrwt beam="2">  1        2 0.19442518E+00 0.12878683E+03</pdfrwt>
<totfact> 0.35917283E+05</totfact>
</mgrwt>
</event>
<event>
 6    2  0.1181843E-002  0.1317072E+03  0.7546771E-02  0.1224944E+00
          1   -1    0    0  503    0 -0.00000000000E+00  0.00000000000E+00  0.71752930075E+03  0.71752930075E+03  0.00000000000E+00 0. -1.
         21   -1    0    0  502  503  0.00000000000E+00 -0.00000000000E+00 -0.38107625244E+02  0.38107625244E+02  0.00000000000E+00 0.  1.
         25    2    1    2    0    0  0.36245429416E+02 -0.20198521886E+02  0.78586919727E+02  0.15337110828E+03  0.12500032585E+03 0.  0.
          5    1    3    3  501    0  0.27264640666E+02 -0.71095750048E+02  0.28223048807E+02  0.81206630206E+02  0.10000000000E+00 0. -1.
         -5    1    3    3    0  501  0.89807887499E+01  0.50897228161E+02  0.50363870920E+02  0.72164478070E+02  0.10000000000E+00 0. -1.
          1    1    1    2  502    0 -0.36245429416E+02  0.20198521886E+02  0.60083475578E+03  0.60226581772E+03  0.00000000000E+00 0. -1.
<mgrwt>
<rscale>  1 0.13170722E+03</rscale>
<asrwt>0</asrwt>
<pdfrwt beam="1">  1       21 0.58627121E-02 0.13170722E+03</pdfrwt>
<pdfrwt beam="2">  1        1 0.11038911E+00 0.13170722E+03</pdfrwt>
<totfact> 0.62093247E+04</totfact>
</mgrwt>
</event>
<event>
 6    2  0.1181843E-002  0.1545210E+03  0.7546771E-02  0.1195025E+00
          4   -1    0    0  503    0 -0.00000000000E+00  0.00000000000E+00  0.22614198108E+03  0.22614198108E+03  0.00000000000E+00 0.  1.
         21   -1    0    0  502  503  0.00000000000E+00 -0.00000000000E+00 -0.55186916467E+03  0.55186916467E+03  0.00000000000E+00 0. -1.
         25    2    1    2    0    0 -0.10433831729E+02 -0.90237421713E+02 -0.53127263999E+03  0.55328777854E+03  0.12500036305E+03 0.  0.
          5    1    3    3  501    0 -0.28902233860E+02 -0.26614019558E+02 -0.43294489820E+03  0.43472398143E+03  0.10000000000E+00 0.  1.
         -5    1    3    3    0  501  0.18468402132E+02 -0.63623402155E+02 -0.98327741789E+02  0.11856379711E+03  0.10000000000E+00 0.  1.
          4    1    1    2  502    0  0.10433831729E+02  0.90237421713E+02  0.20554545640E+03  0.22472336721E+03  0.00000000000E+00 0.  1.
<mgrwt>
<rscale>  1 0.15452103E+03</rscale>
<asrwt>0</asrwt>
<pdfrwt beam="1">  1       21 0.84902949E-01 0.15452103E+03</pdfrwt>
<pdfrwt beam="2">  1        4 0.34791074E-01 0.15452103E+03</pdfrwt>
<totfact> 0.40538793E+02</totfact>
</mgrwt>
</event>
<event>
 6    2  0.1181843E-002  0.1287281E+03  0.7546771E-02  0.1229355E+00
          1   -1    0    0  503    0 -0.00000000000E+00  0.00000000000E+00  0.12177848835E+03  0.12177848835E+03  0.00000000000E+00 0.  1.
         21   -1    0    0  502  503  0.00000000000E+00 -0.00000000000E+00 -0.12082475596E+04  0.12082475596E+04  0.00000000000E+00 0.  1.
         25    2    1    2    0    0 -0.11726308546E+01 -0.30724030853E+02 -0.12028161524E+04  0.12096849310E+04  0.12500237910E+03 0.  0.
          5    1    3    3  501    0 -0.50177651335E+02 -0.51140702271E+02 -0.53748814755E+03  0.54224227692E+03  0.10000000000E+00 0. -1.
         -5    1    3    3    0  501  0.49005020480E+02  0.20416671418E+02 -0.66532800481E+03  0.66744265408E+03  0.10000000000E+00 0. -1.
          1    1    1    2  502    0  0.11726308546E+01  0.30724030853E+02  0.11634708113E+03  0.12034111692E+03  0.00000000000E+00 0.  1.
<mgrwt>
<rscale>  1 0.12872815E+03</rscale>
<asrwt>0</asrwt>
<pdfrwt beam="1">  1       21 0.18588423E+00 0.12872815E+03</pdfrwt>
<pdfrwt beam="2">  1        1 0.18735153E-01 0.12872815E+03</pdfrwt>
<totfact> 0.52288720E+02</totfact>
</mgrwt>
</event>
<event>
 6    2  0.1181843E-002  0.1263862E+03  0.7546771E-02  0.1232919E+00
          2   -1    0    0  503    0 -0.00000000000E+00  0.00000000000E+00  0.53188324186E+03  0.53188324186E+03  0.00000000000E+00 0.  1.
         21   -1    0    0  502  503  0.00000000000E+00 -0.00000000000E+00 -0.19456662242E+03  0.19456662242E+03  0.00000000000E+00 0. -1.
         25    2    1    2    0    0  0.18440901056E+02  0.60947419231E+00 -0.17385817424E+03  0.21494218303E+03  0.12503215188E+03 0.  0.
          5    1    3    3  501    0  0.90374729021E+01 -0.16520270487E+01  0.19387624776E+02  0.21454489140E+02  0.10000000000E+00 0. -1.
         -5    1    3    3    0  501  0.94034281535E+01  0.22615012410E+01 -0.19324579901E+03  0.19348769389E+03  0.10000000000E+00 0. -1.
          2    1    1    2  502    0 -0.18440901056E+02 -0.60947419231E+00  0.51117479367E+03  0.51150768125E+03  0.00000000000E+00 0.  1.
<mgrwt>
<rscale>  1 0.12638622E+03</rscale>
<asrwt>0</asrwt>
<pdfrwt beam="1">  1       21 0.29933327E-01 0.12638622E+03</pdfrwt>
<pdfrwt beam="2">  1        2 0.81828190E-01 0.12638622E+03</pdfrwt>
<totfact> 0.79379255E+03</totfact>
</mgrwt>
</event>
<event>
 6    2  0.1181843E-002  0.1267737E+03  0.7546771E-02  0.1232323E+00
          2   -1    0    0  503    0 -0.00000000000E+00  0.00000000000E+00  0.34529649805E+02  0.34529649805E+02  0.00000000000E+00 0.  1.
         21   -1    0    0  502  503  0.00000000000E+00 -0.00000000000E+00 -0.27651915954E+03  0.27651915954E+03  0.00000000000E+00 0. -1.
         25    2    1    2    0    0  0.20907980156E+02  0.22581800859E+01 -0.25607518082E+03  0.28573776153E+03  0.12501730728E+03 0.  0.
          5    1    3    3  501    0 -0.11744751961E+02  0.51538623228E+02 -0.55554145937E+02  0.76684040150E+02  0.10000000000E+00 0. -1.
         -5    1    3    3    0  501  0.32652732117E+02 -0.49280443142E+02 -0.20052103489E+03  0.20905372138E+03  0.10000000000E+00 0. -1.
          2    1    1    2  502    0 -0.20907980156E+02 -0.22581800859E+01  0.14085671088E+02  0.25311047815E+02  0.00000000000E+00 0.  1.
<mgrwt>
<rscale>  1 0.12677370E+03</rscale>
<asrwt>0</asrwt>
<pdfrwt beam="1">  1       21 0.42541409E-01 0.12677370E+03</pdfrwt>
<pdfrwt beam="2">  1        2 0.53122539E-02 0.12677370E+03</pdfrwt>
<totfact> 0.91287224E+04</totfact>
</mgrwt>
</event>
<event>
 6    2  0.1181843E-002  0.1259826E+03  0.7546771E-02  0.1233542E+00
          1   -1    0    0  503    0 -0.00000000000E+00  0.00000000000E+00  0.41160143059E+03  0.41160143059E+03  0.00000000000E+00 0.  1.
         21   -1    0    0  502  503  0.00000000000E+00 -0.00000000000E+00 -0.36263951380E+02  0.36263951380E+02  0.00000000000E+00 0. -1.
         25    2    1    2    0    0  0.11771532813E+01  0.15565928347E+02  0.73968379739E+02  0.14609225870E+03  0.12501177158E+03 0.  0.
          5    1    3    3  501    0  0.21831163933E+02  0.50530654178E+02  0.87425568542E+02  0.10331111637E+03  0.10000000000E+00 0. -1.
         -5    1    3    3    0  501 -0.20654010651E+02 -0.34964725830E+02 -0.13457188802E+02  0.42781142327E+02  0.10000000000E+00 0. -1.
          1    1    1    2  502    0 -0.11771532813E+01 -0.15565928347E+02  0.30136909947E+03  0.30177312328E+03  0.00000000000E+00 0.  1.
<mgrwt>
<rscale>  1 0.12598265E+03</rscale>
<asrwt>0</asrwt>
<pdfrwt beam="1">  1       21 0.55790698E-02 0.12598265E+03</pdfrwt>
<pdfrwt beam="2">  1        1 0.63323293E-01 0.12598265E+03</pdfrwt>
<totfact> 0.14152419E+05</totfact>
</mgrwt>
</event>
<event>
 6    2  0.1181843E-002  0.1415992E+03  0.7546771E-02  0.1211193E+00
         21   -1    0    0  502  503  0.00000000000E+00  0.00000000000E+00  0.47590718268E+02  0.47590718268E+02  0.00000000000E+00 0.  1.
          1   -1    0    0  503    0 -0.00000000000E+00 -0.00000000000E+00 -0.26097579769E+03  0.26097579769E+03  0.00000000000E+00 0. -1.
         25    2    1    2    0    0 -0.57658538623E+02  0.33181398276E+02 -0.88252873450E+02  0.16684996351E+03  0.12499931353E+03 0.  0.
          5    1    3    3  501    0 -0.71298918623E+02 -0.47652489411E+01 -0.18287129861E+01  0.71481449240E+02  0.10000000000E+00 0. -1.
         -5    1    3    3    0  501  0.13640380000E+02  0.37946647217E+02 -0.86424160464E+02  0.95368514267E+02  0.10000000000E+00 0. -1.
          1    1    1    2  502    0  0.57658538623E+02 -0.33181398276E+02 -0.12513220598E+03  0.14171655246E+03  0.00000000000E+00 0. -1.
<mgrwt>
<rscale>  1 0.14159923E+03</rscale>
<asrwt>0</asrwt>
<pdfrwt beam="1">  1       21 0.73216491E-02 0.14159923E+03</pdfrwt>
<pdfrwt beam="2">  1        1 0.40150122E-01 0.14159923E+03</pdfrwt>
<totfact> 0.15778360E+05</totfact>
</mgrwt>
</event>
<event>
 6    2  0.1181843E-002  0.1276202E+03  0.7546771E-02  0.1231030E+00
         21   -1    0    0  502  503  0.00000000000E+00  0.00000000000E+00  0.38289851028E+01  0.38289851028E+01  0.00000000000E+00 0. -1.
          2   -1    0    0  503    0 -0.00000000000E+00 -0.00000000000E+00 -0.15888701714E+04  0.15888701714E+04  0.00000000000E+00 0. -1.
         25    2    1    2    0    0  0.16937658452E+02  0.19363060588E+02 -0.11906894227E+04  0.11975091695E+04  0.12500038910E+03 0.  0.
          5    1    3    3  501    0 -0.36184883635E+01  0.71019003572E+02 -0.59623907645E+03  0.60046468557E+03  0.10000000000E+00 0. -1.
         -5    1    3    3    0  501  0.20556146816E+02 -0.51655942984E+02 -0.59445034628E+03  0.59704448395E+03  0.10000000000E+00 0. -1.
          2    1    1    2  502    0 -0.16937658452E+02 -0.19363060588E+02 -0.39435176352E+03  0.39518998695E+03  0.00000000000E+00 0. -1.
<mgrwt>
<rscale>  1 0.12762018E+03</rscale>
<asrwt>0</asrwt>
<pdfrwt beam="1">  1       21 0.58907586E-03 0.12762018E+03</pdfrwt>
<pdfrwt beam="2">  1        2 0.24444106E+00 0.12762018E+03</pdfrwt>
<totfact> 0.13369548E+06</totfact>
</mgrwt>
</event>
<event>
 6    2  0.1181843E-002  0.1339763E+03  0.7546771E-02  0.1221672E+00
          1   -1    0    0  503    0 -0.00000000000E+00  0.00000000000E+00  0.13512941216E+04  0.13512941216E+04  0.00000000000E+00 0.  1.
         21   -1    0    0  502  503  0.00000000000E+00 -0.00000000000E+00 -0.99179233686E+01  0.99179233686E+01  0.00000000000E+00 0.  1.
         25    2    1    2    0    0 -0.12744969903E+02 -0.46491870710E+02  0.47603281128E+03  0.49452692011E+03  0.12500283598E+03 0.  0.
          5    1    3    3  501    0 -0.69066422287E+02 -0.21449669559E+02  0.26100785337E+03  0.27084196229E+03  0.10000000000E+00 0. -1.
         -5    1    3    3    0  501  0.56321452384E+02 -0.25042201151E+02  0.21502495790E+03  0.22368495783E+03  0.10000000000E+00 0. -1.
          1    1    1    2  502    0  0.12744969903E+02  0.46491870710E+02  0.86534338693E+03  0.86668512483E+03  0.00000000000E+00 0.  1.
<mgrwt>
<rscale>  1 0.13397626E+03</rscale>
<asrwt>0</asrwt>
<pdfrwt beam="1">  1       21 0.15258354E-02 0.13397626E+03</pdfrwt>
<pdfrwt beam="2">  1        1 0.20789126E+00 0.13397626E+03</pdfrwt>
<totfact> 0.19381745E+05</totfact>
</mgrwt>
</event>
<event>
 6    2  0.1181843E-002  0.1352687E+03  0.7546771E-02  0.1219841E+00
         21   -1    0    0  502  503  0.00000000000E+00  0.00000000000E+00  0.19299513444E+02  0.19299513444E+02  0.00000000000E+00 0.  1.
          2   -1    0    0  503    0 -0.00000000000E+00 -0.00000000000E+00 -0.50519306538E+03  0.50519306538E+03  0.00000000000E+00 0.  1.
         25    2    1    2    0    0  0.27713597221E+02  0.43646154444E+02 -0.26378328608E+03  0.29644433729E+03  0.12499837130E+03 0.  0.
          5    1    3    3  501    0  0.47162921813E+02  0.54109572859E+01 -0.24643954935E+02  0.53487888046E+02  0.10000000000E+00 0.  1.
         -5    1    3    3    0  501 -0.19449324593E+02  0.38235197158E+02 -0.23913933114E+03  0.24295644924E+03  0.10000000000E+00 0.  1.
          2    1    1    2  502    0 -0.27713597221E+02 -0.43646154444E+02 -0.22211026586E+03  0.22804824154E+03  0.00000000000E+00 0.  1.
<mgrwt>
<rscale>  1 0.13526871E+03</rscale>
<asrwt>0</asrwt>
<pdfrwt beam="1">  1       21 0.29691560E-02 0.13526871E+03</pdfrwt>
<pdfrwt beam="2">  1        2 0.77722008E-01 0.13526871E+03</pdfrwt>
<totfact> 0.48663807E+05</totfact>
</mgrwt>
</event>
<event>
 6    2  0.1181843E-002  0.1733289E+03  0.7546771E-02  0.1174420E+00
          2   -1    0    0  503    0 -0.00000000000E+00  0.00000000000E+00  0.27791104643E+04  0.27791104643E+04  0.00000000000E+00 0.  1.
         21   -1    0    0  502  503  0.00000000000E+00 -0.00000000000E+00 -0.10115747612E+02  0.10115747612E+02  0.00000000000E+00 0. -1.
         25    2    1    2    0    0 -0.10669504672E+03 -0.55078891956E+02  0.91014563601E+03  0.92650309184E+03  0.12500153239E+03 0.  0.
          5    1    3    3  501    0 -0.59955535682E+02 -0.61865020256E+02  0.24542138565E+03  0.26010308249E+03  0.10000000000E+00 0.  1.
         -5    1    3    3    0  501 -0.46739511034E+02  0.67861283005E+01  0.66472425037E+03  0.66640000934E+03  0.10000000000E+00 0.  1.
          2    1    1    2  502    0  0.10669504672E+03  0.55078891956E+02  0.18588490807E+04  0.18627231201E+04  0.00000000000E+00 0.  1.
<mgrwt>
<rscale>  1 0.17332888E+03</rscale>
<asrwt>0</asrwt>
<pdfrwt beam="1">  1       21 0.15562711E-02 0.17332888E+03</pdfrwt>
<pdfrwt beam="2">  1        2 0.42755485E+00 0.17332888E+03</pdfrwt>
<totfact> 0.68373594E+04</totfact>
</mgrwt>
</event>
<event>
 6    2  0.1181843E-002  0.1283613E+03  0.7546771E-02  0.1229908E+00
          1   -1    0    0  503    0 -0.00000000000E+00  0.00000000000E+00  0.65965193178E+02  0.65965193178E+02  0.00000000000E+00 0.  1.
         21   -1    0    0  502  503  0.00000000000E+00 -0.00000000000E+00 -0.15751051280E+03  0.15751051280E+03  0.00000000000E+00 0. -1.
         25    2    1    2    0    0 -0.19706402959E+02  0.21513307118E+02 -0.12494312506E+03  0.17912958880E+03  0.12500184153E+03 0.  0.
          5    1    3    3  501    0 -0.60283304126E+02  0.46581951479E+02 -0.98726177279E+02  0.12470293918E+03  0.10000000000E+00 0. -1.
         -5    1    3    3    0  501  0.40576901166E+02 -0.25068644362E+02 -0.26216947780E+02  0.54426649624E+02  0.10000000000E+00 0. -1.
          1    1    1    2  502    0  0.19706402959E+02 -0.21513307118E+02  0.33397805435E+02  0.44346117176E+02  0.00000000000E+00 0.  1.
<mgrwt>
<rscale>  1 0.12836131E+03</rscale>
<asrwt>0</asrwt>
<pdfrwt beam="1">  1       21 0.24232387E-01 0.12836131E+03</pdfrwt>
<pdfrwt beam="2">  1        1 0.10148491E-01 0.12836131E+03</pdfrwt>
<totfact> 0.10594110E+05</totfact>
</mgrwt>
</event>
<event>
 6    2  0.1181843E-002  0.1260066E+03  0.7546771E-02  0.1233504E+00
          2   -1    0    0  503    0 -0.00000000000E+00  0.00000000000E+00  0.51976543898E+03  0.51976543898E+03  0.00000000000E+00 0. -1.
         21   -1    0    0  502  503  0.00000000000E+00 -0.00000000000E+00 -0.21680654689E+02  0.21680654689E+02  0.00000000000E+00 0. -1.
         25    2    1    2    0    0 -0.11043048831E+02  0.11224582567E+02  0.16316552280E+03  0.20615688731E+03  0.12501893526E+03 0.  0.
          5    1    3    3  501    0  0.15804243566E+02 -0.52771474294E+02  0.56569814090E+02  0.78960474162E+02  0.10000000000E+00 0.  1.
         -5    1    3    3    0  501 -0.26847292397E+02  0.63996056861E+02  0.10659570871E+03  0.12719641315E+03  0.10000000000E+00 0.  1.
          2    1    1    2  502    0  0.11043048831E+02 -0.11224582567E+02  0.33491926149E+03  0.33528920635E+03  0.00000000000E+00 0. -1.
<mgrwt>
<rscale>  1 0.12600664E+03</rscale>
<asrwt>0</asrwt>
<pdfrwt beam="1">  1       21 0.33354857E-02 0.12600664E+03</pdfrwt>
<pdfrwt beam="2">  1        2 0.79963904E-01 0.12600664E+03</pdfrwt>
<totfact> 0.38784305E+05</totfact>
</mgrwt>
</event>
<event>
 6    2  0.1181843E-002  0.1500566E+03  0.7546771E-02  0.1200403E+00
          3   -1    0    0  503    0 -0.00000000000E+00  0.00000000000E+00  0.35836528898E+03  0.35836528898E+03  0.00000000000E+00 0. -1.
         21   -1    0    0  502  503  0.00000000000E+00 -0.00000000000E+00 -0.57999781841E+03  0.57999781841E+03  0.00000000000E+00 0.  1.
         25    2    1    2    0    0  0.33522570543E+02 -0.75956042966E+02 -0.56526499860E+03  0.58484315453E+03  0.12499565415E+03 0.  0.
          5    1    3    3  501    0  0.39372491342E+02  0.10156623355E+02 -0.61426799852E+02  0.73665540197E+02  0.10000000000E+00 0. -1.
         -5    1    3    3    0  501 -0.58499207992E+01 -0.86112666321E+02 -0.50383819875E+03  0.51117761433E+03  0.10000000000E+00 0. -1.
          3    1    1    2  502    0 -0.33522570543E+02  0.75956042966E+02  0.34363246917E+03  0.35351995285E+03  0.00000000000E+00 0. -1.
<mgrwt>
<rscale>  1 0.15005665E+03</rscale>
<asrwt>0</asrwt>
<pdfrwt beam="1">  1       21 0.89230433E-01 0.15005665E+03</pdfrwt>
<pdfrwt beam="2">  1        3 0.55133121E-01 0.15005665E+03</pdfrwt>
<totfact> 0.17599743E+02</totfact>
</mgrwt>
</event>
<event>
 6    2  0.1181843E-002  0.1262211E+03  0.7546771E-02  0.1233173E+00
         21   -1    0    0  502  503  0.00000000000E+00  0.00000000000E+00  0.20419799078E+02  0.20419799078E+02  0.00000000000E+00 0. -1.
          2   -1    0    0  503    0 -0.00000000000E+00 -0.00000000000E+00 -0.44924369677E+03  0.44924369677E+03  0.00000000000E+00 0. -1.
         25    2    1    2    0    0  0.39788123799E+01 -0.16890546168E+02 -0.17783707745E+03  0.21807751565E+03  0.12502261882E+03 0.  0.
          5    1    3    3  501    0  0.12734868143E+02  0.45515897253E+02 -0.13184711788E+03  0.14006265120E+03  0.10000000000E+00 0. -1.
         -5    1    3    3    0  501 -0.87560557633E+01 -0.62406443420E+02 -0.45989959571E+02  0.78014864444E+02  0.10000000000E+00 0. -1.
          2    1    1    2  502    0 -0.39788123799E+01  0.16890546168E+02 -0.25098682024E+03  0.25158598020E+03  0.00000000000E+00 0. -1.
<mgrwt>
<rscale>  1 0.12622114E+03</rscale>
<asrwt>0</asrwt>
<pdfrwt beam="1">  1       21 0.31415079E-02 0.12622114E+03</pdfrwt>
<pdfrwt beam="2">  1        2 0.69114408E-01 0.12622114E+03</pdfrwt>
<totfact> 0.50176180E+05</totfact>
</mgrwt>
</event>
<event>
 6    2  0.1181843E-002  0.1278196E+03  0.7546771E-02  0.1230727E+00
          1   -1    0    0  503    0 -0.00000000000E+00  0.00000000000E+00  0.97233064755E+03  0.97233064755E+03  0.00000000000E+00 0. -1.
         21   -1    0    0  502  503  0.00000000000E+00 -0.00000000000E+00 -0.51515859733E+02  0.51515859733E+02  0.00000000000E+00 0. -1.
         25    2    1    2    0    0 -0.13041145150E+01 -0.26688962259E+02  0.28278500188E+02  0.13091032470E+03  0.12499535239E+03 0.  0.
          5    1    3    3  501    0  0.14475165326E+02  0.10603776002E+02  0.70299595152E+02  0.72553522005E+02  0.10000000000E+00 0.  1.
         -5    1    3    3    0  501 -0.15779279841E+02 -0.37292738262E+02 -0.42021094965E+02  0.58356802700E+02  0.10000000000E+00 0.  1.
          1    1    1    2  502    0  0.13041145150E+01  0.26688962259E+02  0.89253628763E+03  0.89293618258E+03  0.00000000000E+00 0. -1.
<mgrwt>
<rscale>  1 0.12781956E+03</rscale>
<asrwt>0</asrwt>
<pdfrwt beam="1">  1       21 0.79255176E-02 0.12781956E+03</pdfrwt>
<pdfrwt beam="2">  1        1 0.14958932E+00 0.12781956E+03</pdfrwt>
<totfact> 0.23251719E+04</totfact>
</mgrwt>
</event>
<event>
 6    2  0.1181843E-002  0.1389622E+03  0.7546771E-02  0.1214732E+00
          2   -1    0    0  503    0 -0.00000000000E+00  0.00000000000E+00  0.38570246587E+03  0.38570246587E+03  0.00000000000E+00 0.  1.
         21   -1    0    0  502  503  0.00000000000E+00 -0.00000000000E+00 -0.34697029628E+02  0.34697029628E+02  0.00000000000E+00 0.  1.
         25    2    1    2    0    0  0.78745486395E+01  0.60194657466E+02  0.12679414368E+03  0.18811495228E+03  0.12500030039E+03 0.  0.
          5    1    3    3  501    0  0.20348519215E+02 -0.35902976168E+02  0.47334988840E+02  0.62798862254E+02  0.10000000000E+00 0.  1.
         -5    1    3    3    0  501 -0.12473970576E+02  0.96097633634E+02  0.79459154836E+02  0.12531609003E+03  0.10000000000E+00 0.  1.
          2    1    1    2  502    0 -0.78745486395E+01 -0.60194657466E+02  0.22421129257E+03  0.23228454322E+03  0.00000000000E+00 0.  1.
<mgrwt>
<rscale>  1 0.13896215E+03</rscale>
<asrwt>0</asrwt>
<pdfrwt beam="1">  1       21 0.53380048E-02 0.13896215E+03</pdfrwt>
<pdfrwt beam="2">  1        2 0.59338838E-01 0.13896215E+03</pdfrwt>
<totfact> 0.24585601E+05</totfact>
</mgrwt>
</event>
<event>
 6    2  0.1181843E-002  0.1821460E+03  0.7546771E-02  0.1165742E+00
          1   -1    0    0  503    0 -0.00000000000E+00  0.00000000000E+00  0.63332466657E+02  0.63332466657E+02  0.00000000000E+00 0. -1.
         21   -1    0    0  502  503  0.00000000000E+00 -0.00000000000E+00 -0.58738791216E+03  0.58738791216E+03  0.00000000000E+00 0.  1.
         25    2    1    2    0    0 -0.94221335450E+02 -0.93138328680E+02 -0.47621703529E+03  0.50986257174E+03  0.12499907614E+03 0.  0.
          5    1    3    3  501    0 -0.83854700798E+02 -0.11088298219E+01 -0.16397476765E+03  0.18417539134E+03  0.10000000000E+00 0. -1.
         -5    1    3    3    0  501 -0.10366634652E+02 -0.92029498858E+02 -0.31224226764E+03  0.32568718040E+03  0.10000000000E+00 0. -1.
          1    1    1    2  502    0  0.94221335450E+02  0.93138328680E+02 -0.47838410210E+02  0.14085780708E+03  0.00000000000E+00 0. -1.
<mgrwt>
<rscale>  1 0.18214603E+03</rscale>
<asrwt>0</asrwt>
<pdfrwt beam="1">  1       21 0.90367369E-01 0.18214603E+03</pdfrwt>
<pdfrwt beam="2">  1        1 0.97434566E-02 0.18214603E+03</pdfrwt>
<totfact> 0.73666574E+03</totfact>
</mgrwt>
</event>
<event>
 6    2  0.1181843E-002  0.1266444E+03  0.7546771E-02  0.1232521E+00
         21   -1    0    0  502  503  0.00000000000E+00  0.00000000000E+00  0.76738151632E+01  0.76738151632E+01  0.00000000000E+00 0.  1.
          2   -1    0    0  503    0 -0.00000000000E+00 -0.00000000000E+00 -0.12318614146E+04  0.12318614146E+04  0.00000000000E+00 0. -1.
         25    2    1    2    0    0 -0.11054863925E+02  0.17224405194E+02 -0.52539874719E+03  0.54044671593E+03  0.12497967458E+03 0.  0.
          5    1    3    3  501    0 -0.14597637894E+02  0.71118873816E+02 -0.29525146018E+03  0.30404673980E+03  0.10000000000E+00 0. -1.
         -5    1    3    3    0  501  0.35427739692E+01 -0.53894468622E+02 -0.23014728702E+03  0.23639997614E+03  0.10000000000E+00 0. -1.
          2    1    1    2  502    0  0.11054863925E+02 -0.17224405194E+02 -0.69878885225E+03  0.69908851384E+03  0.00000000000E+00 0. -1.
<mgrwt>
<rscale>  1 0.12664442E+03</rscale>
<asrwt>0</asrwt>
<pdfrwt beam="1">  1       21 0.11805874E-02 0.12664442E+03</pdfrwt>
<pdfrwt beam="2">  1        2 0.18951707E+00 0.12664442E+03</pdfrwt>
<totfact> 0.69374972E+05</totfact>
</mgrwt>
</event>
<event>
 6    2  0.1181843E-002  0.1293052E+03  0.7546771E-02  0.1228490E+00
          1   -1    0    0  503    0 -0.00000000000E+00  0.00000000000E+00  0.37320103760E+03  0.37320103760E+03  0.00000000000E+00 0.  1.
         21   -1    0    0  502  503  0.00000000000E+00 -0.00000000000E+00 -0.19629701710E+02  0.19629701710E+02  0.00000000000E+00 0.  1.
         25    2    1    2    0    0 -0.30865255734E+02  0.11352576049E+02  0.21922758804E+03  0.25452026400E+03  0.12505312645E+03 0.  0.
          5    1    3    3  501    0  0.30905526405E+02 -0.17625297518E+02  0.13975511786E+02  0.38224698883E+02  0.10000000000E+00 0.  1.
         -5    1    3    3    0  501 -0.61770782139E+02  0.28977873567E+02  0.20525207625E+03  0.21629556511E+03  0.10000000000E+00 0.  1.
          1    1    1    2  502    0  0.30865255734E+02 -0.11352576049E+02  0.13434374785E+03  0.13831047531E+03  0.00000000000E+00 0.  1.
<mgrwt>
<rscale>  1 0.12930518E+03</rscale>
<asrwt>0</asrwt>
<pdfrwt beam="1">  1       21 0.30199544E-02 0.12930518E+03</pdfrwt>
<pdfrwt beam="2">  1        1 0.57415539E-01 0.12930518E+03</pdfrwt>
<totfact> 0.44487893E+05</totfact>
</mgrwt>
</event>
<event>
 6    2  0.1181843E-002  0.1307055E+03  0.7546771E-02  0.1226413E+00
          2   -1    0    0  503    0 -0.00000000000E+00  0.00000000000E+00  0.41007979824E+03  0.41007979824E+03  0.00000000000E+00 0. -1.
         21   -1    0    0  502  503  0.00000000000E+00 -0.00000000000E+00 -0.18349572263E+02  0.18349572263E+02  0.00000000000E+00 0. -1.
         25    2    1    2    0    0 -0.25851964409E+02  0.28117223565E+02  0.25613283315E+03  0.28755511712E+03  0.12500005936E+03 0.  0.
          5    1    3    3  501    0  0.36680593283E+02 -0.28408742014E+02  0.93079859993E+02  0.10400188884E+03  0.10000000000E+00 0. -1.
         -5    1    3    3    0  501 -0.62532557691E+02  0.56525965578E+02  0.16305297316E+03  0.18355322828E+03  0.10000000000E+00 0. -1.
          2    1    1    2  502    0  0.25851964409E+02 -0.28117223565E+02  0.13559739282E+03  0.14087425338E+03  0.00000000000E+00 0. -1.
<mgrwt>
<rscale>  1 0.13070546E+03</rscale>
<asrwt>0</asrwt>
<pdfrwt beam="1">  1       21 0.28230114E-02 0.13070546E+03</pdfrwt>
<pdfrwt beam="2">  1        2 0.63089193E-01 0.13070546E+03</pdfrwt>
<totfact> 0.66105709E+05</totfact>
</mgrwt>
</event>
<event>
 6    2  0.1181843E-002  0.1278014E+03  0.7546771E-02  0.1230755E+00
         21   -1    0    0  502  503  0.00000000000E+00  0.00000000000E+00  0.24612098553E+01  0.24612098553E+01  0.00000000000E+00 0. -1.
          1   -1    0    0  503    0 -0.00000000000E+00 -0.00000000000E+00 -0.24851410124E+04  0.24851410124E+04  0.00000000000E+00 0. -1.
         25    2    1    2    0    0  0.98069177005E+01  0.24755157506E+02 -0.18833522711E+04  0.18876834916E+04  0.12499677555E+03 0.  0.
          5    1    3    3  501    0 -0.54180895860E+02  0.31812801813E+02 -0.83935887612E+03  0.84170716805E+03  0.10000000000E+00 0. -1.
         -5    1    3    3    0  501  0.63987813561E+02 -0.70576443071E+01 -0.10439933950E+04  0.10459763235E+04  0.10000000000E+00 0. -1.
          1    1    1    2  502    0 -0.98069177005E+01 -0.24755157506E+02 -0.59932753146E+03  0.59991873068E+03  0.00000000000E+00 0. -1.
<mgrwt>
<rscale>  1 0.12780136E+03</rscale>
<asrwt>0</asrwt>
<pdfrwt beam="1">  1       21 0.37864877E-03 0.12780136E+03</pdfrwt>
<pdfrwt beam="2">  1        1 0.38232827E+00 0.12780136E+03</pdfrwt>
<totfact> 0.32118329E+05</totfact>
</mgrwt>
</event>
<event>
 6    2  0.1181843E-002  0.1267523E+03  0.7546771E-02  0.1232356E+00
         21   -1    0    0  502  503  0.00000000000E+00  0.00000000000E+00  0.47299582928E+02  0.47299582928E+02  0.00000000000E+00 0. -1.
          2   -1    0    0  503    0 -0.00000000000E+00 -0.00000000000E+00 -0.23420618698E+03  0.23420618698E+03  0.00000000000E+00 0. -1.
         25    2    1    2    0    0  0.20970645416E+02  0.18311420630E+01 -0.39732457457E+02  0.13283381399E+03  0.12499213140E+03 0.  0.
          5    1    3    3  501    0  0.55140870212E+02  0.41152159578E+02 -0.42141962742E+02  0.80684390246E+02  0.10000000000E+00 0.  1.
         -5    1    3    3    0  501 -0.34170224796E+02 -0.39321017516E+02  0.24095052854E+01  0.52149423743E+02  0.10000000000E+00 0.  1.
          2    1    1    2  502    0 -0.20970645416E+02 -0.18311420630E+01 -0.14717414660E+03  0.14867195592E+03  0.00000000000E+00 0. -1.
<mgrwt>
<rscale>  1 0.12675233E+03</rscale>
<asrwt>0</asrwt>
<pdfrwt beam="1">  1       21 0.72768591E-02 0.12675233E+03</pdfrwt>
<pdfrwt beam="2">  1        2 0.36031720E-01 0.12675233E+03</pdfrwt>
<totfact> 0.24530547E+05</totfact>
</mgrwt>
</event>
<event>
 6    2  0.1181843E-002  0.1324185E+03  0.7546771E-02  0.1223911E+00
          2   -1    0    0  503    0 -0.00000000000E+00  0.00000000000E+00  0.40447426858E+03  0.40447426858E+03  0.00000000000E+00 0.  1.
         21   -1    0    0  502  503  0.00000000000E+00 -0.00000000000E+00 -0.83817822017E+02  0.83817822017E+02  0.00000000000E+00 0.  1.
         25    2    1    2    0    0  0.31685219817E+02  0.30117689210E+02 -0.29295435450E+02  0.13562036210E+03  0.12499452676E+03 0.  0.
          5    1    3    3  501    0  0.78341395062E+02  0.15941401533E+02 -0.33489460802E+02  0.86677889036E+02  0.10000000000E+00 0. -1.
         -5    1    3    3    0  501 -0.46656175245E+02  0.14176287677E+02  0.41940253515E+01  0.48942473062E+02  0.10000000000E+00 0. -1.
          2    1    1    2  502    0 -0.31685219817E+02 -0.30117689210E+02  0.34995188201E+03  0.35267172850E+03  0.00000000000E+00 0.  1.
<mgrwt>
<rscale>  1 0.13241850E+03</rscale>
<asrwt>0</asrwt>
<pdfrwt beam="1">  1       21 0.12895050E-01 0.13241850E+03</pdfrwt>
<pdfrwt beam="2">  1        2 0.62226810E-01 0.13241850E+03</pdfrwt>
<totfact> 0.50656012E+04</totfact>
</mgrwt>
</event>
<event>
 6    2  0.1181843E-002  0.1299998E+03  0.7546771E-02  0.1227456E+00
         21   -1    0    0  502  503  0.00000000000E+00  0.00000000000E+00  0.50718955656E+03  0.50718955656E+03  0.00000000000E+00 0. -1.
          1   -1    0    0  503    0 -0.00000000000E+00 -0.00000000000E+00 -0.15474693760E+02  0.15474693760E+02  0.00000000000E+00 0. -1.
         25    2    1    2    0    0  0.21492503454E+02 -0.28391435318E+02  0.44690332219E+03  0.46542723890E+03  0.12502773302E+03 0.  0.
          5    1    3    3  501    0  0.30757733508E+02 -0.74751917905E+02  0.24209328518E+03  0.25523137764E+03  0.10000000000E+00 0. -1.
         -5    1    3    3    0  501 -0.92652300541E+01  0.46360482587E+02  0.20481003701E+03  0.21019586127E+03  0.10000000000E+00 0. -1.
          1    1    1    2  502    0 -0.21492503454E+02  0.28391435318E+02  0.44811540614E+02  0.57237011420E+02  0.00000000000E+00 0. -1.
<mgrwt>
<rscale>  1 0.12999975E+03</rscale>
<asrwt>0</asrwt>
<pdfrwt beam="1">  1       21 0.78029150E-01 0.12999975E+03</pdfrwt>
<pdfrwt beam="2">  1        1 0.23807225E-02 0.12999975E+03</pdfrwt>
<totfact> 0.70935857E+04</totfact>
</mgrwt>
</event>
<event>
 6    2  0.1181843E-002  0.1338280E+03  0.7546771E-02  0.1221884E+00
         21   -1    0    0  502  503  0.00000000000E+00  0.00000000000E+00  0.45890159020E+02  0.45890159020E+02  0.00000000000E+00 0. -1.
          2   -1    0    0  503    0 -0.00000000000E+00 -0.00000000000E+00 -0.62720691648E+03  0.62720691648E+03  0.00000000000E+00 0. -1.
         25    2    1    2    0    0  0.66573910428E+01  0.47310752293E+02 -0.55118278198E+02  0.14473406798E+03  0.12500919048E+03 0.  0.
          5    1    3    3  501    0 -0.21927983460E+02  0.70187424566E+01  0.35040302471E+02  0.41927699693E+02  0.10000000000E+00 0.  1.
         -5    1    3    3    0  501  0.28585374503E+02  0.40292009836E+02 -0.90158580669E+02  0.10280636829E+03  0.10000000000E+00 0.  1.
          2    1    1    2  502    0 -0.66573910428E+01 -0.47310752293E+02 -0.52619847926E+03  0.52836300752E+03  0.00000000000E+00 0. -1.
<mgrwt>
<rscale>  1 0.13382797E+03</rscale>
<asrwt>0</asrwt>
<pdfrwt beam="1">  1       21 0.70600252E-02 0.13382797E+03</pdfrwt>
<pdfrwt beam="2">  1        2 0.96493362E-01 0.13382797E+03</pdfrwt>
<totfact> 0.89434567E+04</totfact>
</mgrwt>
</event>
<event>
 6    2  0.1181843E-002  0.1275956E+03  0.7546771E-02  0.1231068E+00
         21   -1    0    0  502  503  0.00000000000E+00  0.00000000000E+00  0.84579170470E+02  0.84579170470E+02  0.00000000000E+00 0.  1.
          1   -1    0    0  503    0 -0.00000000000E+00 -0.00000000000E+00 -0.39855316608E+03  0.39855316608E+03  0.00000000000E+00 0. -1.
         25    2    1    2    0    0 -0.25837129131E+02  0.84700817991E+00  0.35706530699E+02  0.13249756197E+03  0.12494948151E+03 0.  0.
          5    1    3    3  501    0 -0.34812850669E+02  0.48812917572E+02 -0.15331584492E+02  0.61884594017E+02  0.10000000000E+00 0. -1.
         -5    1    3    3    0  501  0.89757215381E+01 -0.47965909392E+02  0.51038115191E+02  0.70612967953E+02  0.10000000000E+00 0. -1.
          1    1    1    2  502    0  0.25837129131E+02 -0.84700817991E+00 -0.34968052631E+03  0.35063477458E+03  0.00000000000E+00 0. -1.
<mgrwt>
<rscale>  1 0.12759564E+03</rscale>
<asrwt>0</asrwt>
<pdfrwt beam="1">  1       21 0.13012180E-01 0.12759564E+03</pdfrwt>
<pdfrwt beam="2">  1        1 0.61315870E-01 0.12759564E+03</pdfrwt>
<totfact> 0.34012515E+04</totfact>
</mgrwt>
</event>
<event>
 6    2  0.1181843E-002  0.1289011E+03  0.7546771E-02  0.1229096E+00
          2   -1    0    0  503    0 -0.00000000000E+00  0.00000000000E+00  0.13806509322E+03  0.13806509322E+03  0.00000000000E+00 0. -1.
         21   -1    0    0  502  503  0.00000000000E+00 -0.00000000000E+00 -0.10059168914E+04  0.10059168914E+04  0.00000000000E+00 0.  1.
         25    2    1    2    0    0 -0.30423906353E+02 -0.80322867028E+01 -0.99993159891E+03  0.10082056779E+04  0.12500141879E+03 0.  0.
          5    1    3    3  501    0  0.27217142204E+02  0.26135474485E+02 -0.69385372258E+03  0.69487900688E+03  0.10000000000E+00 0. -1.
         -5    1    3    3    0  501 -0.57641048557E+02 -0.34167761188E+02 -0.30607787633E+03  0.31332667100E+03  0.10000000000E+00 0. -1.
          2    1    1    2  502    0  0.30423906353E+02  0.80322867028E+01  0.13207980073E+03  0.13577630673E+03  0.00000000000E+00 0. -1.
<mgrwt>
<rscale>  1 0.12890107E+03</rscale>
<asrwt>0</asrwt>
<pdfrwt beam="1">  1       21 0.15475644E+00 0.12890107E+03</pdfrwt>
<pdfrwt beam="2">  1        2 0.21240784E-01 0.12890107E+03</pdfrwt>
<totfact> 0.91183284E+02</totfact>
</mgrwt>
</event>
<event>
 6    2  0.1181843E-002  0.1307788E+03  0.7546771E-02  0.1226305E+00
         21   -1    0    0  502  503  0.00000000000E+00  0.00000000000E+00  0.14839001826E+02  0.14839001826E+02  0.00000000000E+00 0.  1.
          1   -1    0    0  503    0 -0.00000000000E+00 -0.00000000000E+00 -0.65422792832E+03  0.65422792832E+03  0.00000000000E+00 0.  1.
         25    2    1    2    0    0 -0.12151063139E+01 -0.38169524607E+02 -0.29653500564E+03  0.32409272802E+03  0.12507876594E+03 0.  0.
          5    1    3    3  501    0  0.52328730906E+02  0.44545003680E+01 -0.19273140369E+03  0.19975871100E+03  0.10000000000E+00 0. -1.
         -5    1    3    3    0  501 -0.53543837219E+02 -0.42624024975E+02 -0.10380360195E+03  0.12433401701E+03  0.10000000000E+00 0. -1.
          1    1    1    2  502    0  0.12151063139E+01  0.38169524607E+02 -0.34285392085E+03  0.34497420213E+03  0.00000000000E+00 0.  1.
<mgrwt>
<rscale>  1 0.13077877E+03</rscale>
<asrwt>0</asrwt>
<pdfrwt beam="1">  1       21 0.22829238E-02 0.13077877E+03</pdfrwt>
<pdfrwt beam="2">  1        1 0.10065043E+00 0.13077877E+03</pdfrwt>
<totfact> 0.33741539E+05</totfact>
</mgrwt>
</event>
<event>
 6    2  0.1181843E-002  0.1298885E+03  0.7546771E-02  0.1227621E+00
          1   -1    0    0  503    0 -0.00000000000E+00  0.00000000000E+00  0.68371043661E+03  0.68371043661E+03  0.00000000000E+00 0.  1.
         21   -1    0    0  502  503  0.00000000000E+00 -0.00000000000E+00 -0.47323219910E+02  0.47323219910E+02  0.00000000000E+00 0.  1.
         25    2    1    2    0    0 -0.57726121932E+01  0.34828419418E+02  0.43328004591E+02  0.13692460010E+03  0.12499875312E+03 0.  0.
          5    1    3    3  501    0  0.45623504583E+01 -0.41455078378E+02  0.43056850204E+02  0.59943647824E+02  0.10000000000E+00 0.  1.
         -5    1    3    3    0  501 -0.10334962652E+02  0.76283497795E+02  0.27115438669E+00  0.76980952278E+02  0.10000000000E+00 0.  1.
          1    1    1    2  502    0  0.57726121932E+01 -0.34828419418E+02  0.59305921211E+03  0.59410905642E+03  0.00000000000E+00 0.  1.
<mgrwt>
<rscale>  1 0.12988853E+03</rscale>
<asrwt>0</asrwt>
<pdfrwt beam="1">  1       21 0.72804959E-02 0.12988853E+03</pdfrwt>
<pdfrwt beam="2">  1        1 0.10518621E+00 0.12988853E+03</pdfrwt>
<totfact> 0.45983197E+04</totfact>
</mgrwt>
</event>
<event>
 6    2  0.1181843E-002  0.2259440E+03  0.7546771E-02  0.1129528E+00
         21   -1    0    0  502  503  0.00000000000E+00  0.00000000000E+00  0.20384424406E+02  0.20384424406E+02  0.00000000000E+00 0.  1.
          2   -1    0    0  503    0 -0.00000000000E+00 -0.00000000000E+00 -0.21209814094E+04  0.21209814094E+04  0.00000000000E+00 0. -1.
         25    2    1    2    0    0 -0.16180743428E+03 -0.96145410054E+02 -0.10488893066E+04  0.10729489552E+04  0.12500038936E+03 0.  0.
          5    1    3    3  501    0 -0.25705126936E+02  0.12684336536E+02 -0.40130587639E+03  0.40232830173E+03  0.10000000000E+00 0.  1.
         -5    1    3    3    0  501 -0.13610230734E+03 -0.10882974659E+03 -0.64758343017E+03  0.67062065345E+03  0.10000000000E+00 0.  1.
          2    1    1    2  502    0  0.16180743428E+03  0.96145410054E+02 -0.10517076785E+04  0.10684168787E+04  0.00000000000E+00 0. -1.
<mgrwt>
<rscale>  1 0.22594398E+03</rscale>
<asrwt>0</asrwt>
<pdfrwt beam="1">  1       21 0.31360655E-02 0.22594398E+03</pdfrwt>
<pdfrwt beam="2">  1        2 0.32630482E+00 0.22594398E+03</pdfrwt>
<totfact> 0.48587376E+04</totfact>
</mgrwt>
</event>
<event>
 6    2  0.1181843E-002  0.1271630E+03  0.7546771E-02  0.1231727E+00
         21   -1    0    0  502  503  0.00000000000E+00  0.00000000000E+00  0.19399718453E+02  0.19399718453E+02  0.00000000000E+00 0. -1.
          2   -1    0    0  503    0 -0.00000000000E+00 -0.00000000000E+00 -0.10240719454E+04  0.10240719454E+04  0.00000000000E+00 0. -1.
         25    2    1    2    0    0 -0.23262154997E+02  0.57935198980E+00 -0.19095347810E+03  0.22942027375E+03  0.12501586981E+03 0.  0.
          5    1    3    3  501    0  0.20186313230E+02 -0.31472130078E+00  0.10898722797E+02  0.22942939000E+02  0.10000000000E+00 0.  1.
         -5    1    3    3    0  501 -0.43448468228E+02  0.89407329058E+00 -0.20185220090E+03  0.20647733475E+03  0.10000000000E+00 0.  1.
          2    1    1    2  502    0  0.23262154997E+02 -0.57935198980E+00 -0.81371874884E+03  0.81405139010E+03  0.00000000000E+00 0. -1.
<mgrwt>
<rscale>  1 0.12716301E+03</rscale>
<asrwt>0</asrwt>
<pdfrwt beam="1">  1       21 0.29845719E-02 0.12716301E+03</pdfrwt>
<pdfrwt beam="2">  1        2 0.15754954E+00 0.12716301E+03</pdfrwt>
<totfact> 0.20437289E+05</totfact>
</mgrwt>
</event>
<event>
 6    2  0.1181843E-002  0.1276525E+03  0.7546771E-02  0.1230981E+00
          1   -1    0    0  503    0 -0.00000000000E+00  0.00000000000E+00  0.88550466587E+03  0.88550466587E+03  0.00000000000E+00 0.  1.
         21   -1    0    0  502  503  0.00000000000E+00 -0.00000000000E+00 -0.10107029243E+02  0.10107029243E+02  0.00000000000E+00 0.  1.
         25    2    1    2    0    0  0.25827719569E+02 -0.17664516294E+01  0.40813022222E+03  0.42762769110E+03  0.12499988981E+03 0.  0.
          5    1    3    3  501    0  0.59254696761E+02  0.37651819499E+02  0.29518820569E+03  0.30342192633E+03  0.10000000000E+00 0. -1.
         -5    1    3    3    0  501 -0.33426977192E+02 -0.39418271128E+02  0.11294201654E+03  0.12420576477E+03  0.10000000000E+00 0. -1.
          1    1    1    2  502    0 -0.25827719569E+02  0.17664516294E+01  0.46726741440E+03  0.46798400401E+03  0.00000000000E+00 0.  1.
<mgrwt>
<rscale>  1 0.12765251E+03</rscale>
<asrwt>0</asrwt>
<pdfrwt beam="1">  1       21 0.15549283E-02 0.12765251E+03</pdfrwt>
<pdfrwt beam="2">  1        1 0.13623143E+00 0.12765251E+03</pdfrwt>
<totfact> 0.39996088E+05</totfact>
</mgrwt>
</event>
<event>
 6    2  0.1181843E-002  0.1316273E+03  0.7546771E-02  0.1225061E+00
          4   -1    0    0  503    0 -0.00000000000E+00  0.00000000000E+00  0.26072459720E+03  0.26072459720E+03  0.00000000000E+00 0. -1.
         21   -1    0    0  502  503  0.00000000000E+00 -0.00000000000E+00 -0.15184746263E+03  0.15184746263E+03  0.00000000000E+00 0. -1.
         25    2    1    2    0    0  0.94336275934E+01  0.40163201068E+02 -0.12113824907E+03  0.17888604663E+03  0.12499466486E+03 0.  0.
          5    1    3    3  501    0  0.22066770555E+02  0.40835060586E+02  0.97156137639E+01  0.47422016897E+02  0.10000000000E+00 0. -1.
         -5    1    3    3    0  501 -0.12633142961E+02 -0.67185951782E+00 -0.13085386283E+03  0.13146402974E+03  0.10000000000E+00 0. -1.
          4    1    1    2  502    0 -0.94336275934E+01 -0.40163201068E+02  0.23001538364E+03  0.23368601319E+03  0.00000000000E+00 0. -1.
<mgrwt>
<rscale>  1 0.13162729E+03</rscale>
<asrwt>0</asrwt>
<pdfrwt beam="1">  1       21 0.23361148E-01 0.13162729E+03</pdfrwt>
<pdfrwt beam="2">  1        4 0.40111476E-01 0.13162729E+03</pdfrwt>
<totfact> 0.42943390E+03</totfact>
</mgrwt>
</event>
<event>
 6    2  0.1181843E-002  0.1280697E+03  0.7546771E-02  0.1230348E+00
          2   -1    0    0  503    0 -0.00000000000E+00  0.00000000000E+00  0.81845632198E+03  0.81845632198E+03  0.00000000000E+00 0. -1.
         21   -1    0    0  502  503  0.00000000000E+00 -0.00000000000E+00 -0.10944076744E+02  0.10944076744E+02  0.00000000000E+00 0. -1.
         25    2    1    2    0    0  0.98708970749E+01  0.26039343068E+02  0.38037682326E+03  0.40135816867E+03  0.12500547945E+03 0.  0.
          5    1    3    3  501    0 -0.25358070413E+02  0.40952166272E+02  0.52466970929E+02  0.71224326574E+02  0.10000000000E+00 0. -1.
         -5    1    3    3    0  501  0.35228967488E+02 -0.14912823204E+02  0.32790985233E+03  0.33013384210E+03  0.10000000000E+00 0. -1.
          2    1    1    2  502    0 -0.98708970749E+01 -0.26039343068E+02  0.42713542197E+03  0.42804223004E+03  0.00000000000E+00 0. -1.
<mgrwt>
<rscale>  1 0.12806971E+03</rscale>
<asrwt>0</asrwt>
<pdfrwt beam="1">  1       21 0.16837048E-02 0.12806971E+03</pdfrwt>
<pdfrwt beam="2">  1        2 0.12591631E+00 0.12806971E+03</pdfrwt>
<totfact> 0.69421547E+05</totfact>
</mgrwt>
</event>
<event>
 6    2  0.1181843E-002  0.1274019E+03  0.7546771E-02  0.1231363E+00
          1   -1    0    0  503    0 -0.00000000000E+00  0.00000000000E+00  0.48650946979E+02  0.48650946979E+02  0.00000000000E+00 0. -1.
         21   -1    0    0  502  503  0.00000000000E+00 -0.00000000000E+00 -0.17560945077E+04  0.17560945077E+04  0.00000000000E+00 0. -1.
         25    2    1    2    0    0 -0.24563412390E+02  0.14676511329E+01 -0.17505125143E+04  0.17551425315E+04  0.12500291105E+03 0.  0.
          5    1    3    3  501    0  0.48778952568E+02 -0.97187947899E+01 -0.51210752028E+03  0.51451721401E+03  0.10000000000E+00 0.  1.
         -5    1    3    3    0  501 -0.73342364957E+02  0.11186445923E+02 -0.12384049940E+04  0.12406253175E+04  0.10000000000E+00 0.  1.
          1    1    1    2  502    0  0.24563412390E+02 -0.14676511329E+01  0.43068953589E+02  0.49602923214E+02  0.00000000000E+00 0. -1.
<mgrwt>
<rscale>  1 0.12740190E+03</rscale>
<asrwt>0</asrwt>
<pdfrwt beam="1">  1       21 0.27016844E+00 0.12740190E+03</pdfrwt>
<pdfrwt beam="2">  1        1 0.74847594E-02 0.12740190E+03</pdfrwt>
<totfact> 0.54667299E+02</totfact>
</mgrwt>
</event>
<event>
 6    2  0.1181843E-002  0.1283060E+03  0.7546771E-02  0.1229991E+00
         21   -1    0    0  502  503  0.00000000000E+00  0.00000000000E+00  0.30100970625E+02  0.30100970625E+02  0.00000000000E+00 0. -1.
          4   -1    0    0  503    0 -0.00000000000E+00 -0.00000000000E+00 -0.21083939505E+03  0.21083939505E+03  0.00000000000E+00 0. -1.
         25    2    1    2    0    0 -0.27963667436E+02  0.76322375068E+01 -0.16099610124E+03  0.20586933674E+03  0.12498888530E+03 0.  0.
          5    1    3    3  501    0 -0.76561345788E+02  0.93367428279E+01 -0.78115131305E+02  0.10977612753E+03  0.10000000000E+00 0. -1.
         -5    1    3    3    0  501  0.48597678353E+02 -0.17045053211E+01 -0.82880969937E+02  0.96093209216E+02  0.10000000000E+00 0. -1.
          4    1    1    2  502    0  0.27963667436E+02 -0.76322375068E+01 -0.19742323180E+02  0.35071028932E+02  0.00000000000E+00 0. -1.
<mgrwt>
<rscale>  1 0.12830604E+03</rscale>
<asrwt>0</asrwt>
<pdfrwt beam="1">  1       21 0.46309187E-02 0.12830604E+03</pdfrwt>
<pdfrwt beam="2">  1        4 0.32436829E-01 0.12830604E+03</pdfrwt>
<totfact> 0.11171215E+05</totfact>
</mgrwt>
</event>
<event>
 6    2  0.1181843E-002  0.1260852E+03  0.7546771E-02  0.1233383E+00
          4   -1    0    0  503    0 -0.00000000000E+00  0.00000000000E+00  0.10968819031E+03  0.10968819031E+03  0.00000000000E+00 0.  1.
         21   -1    0    0  502  503  0.00000000000E+00 -0.00000000000E+00 -0.10619426213E+03  0.10619426213E+03  0.00000000000E+00 0. -1.
         25    2    1    2    0    0  0.78315382675E+01  0.14558609806E+02 -0.67481086532E+02  0.14300763633E+03  0.12499680355E+03 0.  0.
          5    1    3    3  501    0  0.52220348116E+02  0.47050416196E+02 -0.29895961832E+02  0.76383800347E+02  0.10000000000E+00 0.  1.
         -5    1    3    3    0  501 -0.44388809848E+02 -0.32491806391E+02 -0.37585124700E+02  0.66623835982E+02  0.10000000000E+00 0.  1.
          4    1    1    2  502    0 -0.78315382675E+01 -0.14558609806E+02  0.70975014710E+02  0.72874816118E+02  0.00000000000E+00 0.  1.
<mgrwt>
<rscale>  1 0.12608524E+03</rscale>
<asrwt>0</asrwt>
<pdfrwt beam="1">  1       21 0.16337579E-01 0.12608524E+03</pdfrwt>
<pdfrwt beam="2">  1        4 0.16875106E-01 0.12608524E+03</pdfrwt>
<totfact> 0.41315600E+04</totfact>
</mgrwt>
</event>
<event>
 6    2  0.1181843E-002  0.1359611E+03  0.7546771E-02  0.1218869E+00
          2   -1    0    0  503    0 -0.00000000000E+00  0.00000000000E+00  0.28481145128E+04  0.28481145128E+04  0.00000000000E+00 0. -1.
         21   -1    0    0  502  503  0.00000000000E+00 -0.00000000000E+00 -0.34372843280E+01  0.34372843280E+01  0.00000000000E+00 0.  1.
         25    2    1    2    0    0  0.21932297004E+02  0.48791855947E+02  0.16155447570E+04  0.16212557745E+04  0.12499501443E+03 0.  0.
          5    1    3    3  501    0 -0.47316287889E+02  0.14976228433E+02  0.36778827848E+03  0.37112174054E+03  0.10000000000E+00 0. -1.
         -5    1    3    3    0  501  0.69248584893E+02  0.33815627514E+02  0.12477564785E+04  0.12501340340E+04  0.10000000000E+00 0. -1.
          2    1    1    2  502    0 -0.21932297004E+02 -0.48791855947E+02  0.12291324715E+04  0.12302960226E+04  0.00000000000E+00 0. -1.
<mgrwt>
<rscale>  1 0.13596111E+03</rscale>
<asrwt>0</asrwt>
<pdfrwt beam="1">  1       21 0.52881525E-03 0.13596111E+03</pdfrwt>
<pdfrwt beam="2">  1        2 0.43816958E+00 0.13596111E+03</pdfrwt>
<totfact> 0.34577043E+05</totfact>
</mgrwt>
</event>
<event>
 6    2  0.1181843E-002  0.1411862E+03  0.7546771E-02  0.1211742E+00
          1   -1    0    0  503    0 -0.00000000000E+00  0.00000000000E+00  0.29525340964E+04  0.29525340964E+04  0.00000000000E+00 0. -1.
         21   -1    0    0  502  503  0.00000000000E+00 -0.00000000000E+00 -0.69241775816E+01  0.69241775816E+01  0.00000000000E+00 0. -1.
         25    2    1    2    0    0  0.53972006490E+02  0.37338198154E+02  0.76863121171E+03  0.78149054931E+03  0.12500568192E+03 0.  0.
          5    1    3    3  501    0  0.30571547725E+02 -0.43020430501E+02  0.20527443102E+03  0.21195041637E+03  0.10000000000E+00 0. -1.
         -5    1    3    3    0  501  0.23400458766E+02  0.80358628655E+02  0.56335678069E+03  0.56954013293E+03  0.10000000000E+00 0. -1.
          1    1    1    2  502    0 -0.53972006490E+02 -0.37338198154E+02  0.21769787071E+04  0.21779677246E+04  0.00000000000E+00 0. -1.
<mgrwt>
<rscale>  1 0.14118619E+03</rscale>
<asrwt>0</asrwt>
<pdfrwt beam="1">  1       21 0.10652604E-02 0.14118619E+03</pdfrwt>
<pdfrwt beam="2">  1        1 0.45423501E+00 0.14118619E+03</pdfrwt>
<totfact> 0.31294791E+04</totfact>
</mgrwt>
</event>
<event>
 6    2  0.1181843E-002  0.1298225E+03  0.7546771E-02  0.1227719E+00
          2   -1    0    0  503    0 -0.00000000000E+00  0.00000000000E+00  0.10927936831E+04  0.10927936831E+04  0.00000000000E+00 0. -1.
         21   -1    0    0  502  503  0.00000000000E+00 -0.00000000000E+00 -0.37417573789E+02  0.37417573789E+02  0.00000000000E+00 0.  1.
         25    2    1    2    0    0  0.68029169660E+01 -0.34377424991E+02  0.76454204598E+02  0.15066228795E+03  0.12500317028E+03 0.  0.
          5    1    3    3  501    0  0.18967177304E+02  0.84503838018E+01 -0.29303774030E+02  0.35914954736E+02  0.10000000000E+00 0. -1.
         -5    1    3    3    0  501 -0.12164260338E+02 -0.42827808792E+02  0.10575797863E+03  0.11474733321E+03  0.10000000000E+00 0. -1.
          2    1    1    2  502    0 -0.68029169660E+01  0.34377424991E+02  0.97892190472E+03  0.97954896895E+03  0.00000000000E+00 0. -1.
<mgrwt>
<rscale>  1 0.12982249E+03</rscale>
<asrwt>0</asrwt>
<pdfrwt beam="1">  1       21 0.57565506E-02 0.12982249E+03</pdfrwt>
<pdfrwt beam="2">  1        2 0.16812208E+00 0.12982249E+03</pdfrwt>
<totfact> 0.62488720E+04</totfact>
</mgrwt>
</event>
<event>
 6    2  0.1181843E-002  0.1613309E+03  0.7546771E-02  0.1187202E+00
          2   -1    0    0  503    0 -0.00000000000E+00  0.00000000000E+00  0.34969250206E+03  0.34969250206E+03  0.00000000000E+00 0.  1.
         21   -1    0    0  502  503  0.00000000000E+00 -0.00000000000E+00 -0.17666753408E+03  0.17666753408E+03  0.00000000000E+00 0.  1.
         25    2    1    2    0    0  0.10176103471E+03 -0.68538761036E+01 -0.12964526931E+03  0.20696755604E+03  0.12500155838E+03 0.  0.
          5    1    3    3  501    0  0.10800455901E+03  0.19015153104E+02 -0.14049523244E+03  0.17822873268E+03  0.10000000000E+00 0.  1.
         -5    1    3    3    0  501 -0.62435243057E+01 -0.25869029208E+02  0.10849963132E+02  0.28738823356E+02  0.10000000000E+00 0.  1.
          2    1    1    2  502    0 -0.10176103471E+03  0.68538761036E+01  0.30267023729E+03  0.31939248009E+03  0.00000000000E+00 0.  1.
<mgrwt>
<rscale>  1 0.16133094E+03</rscale>
<asrwt>0</asrwt>
<pdfrwt beam="1">  1       21 0.27179621E-01 0.16133094E+03</pdfrwt>
<pdfrwt beam="2">  1        2 0.53798847E-01 0.16133094E+03</pdfrwt>
<totfact> 0.14925563E+04</totfact>
</mgrwt>
</event>
<event>
 6    2  0.1181843E-002  0.1271905E+03  0.7546771E-02  0.1231685E+00
         21   -1    0    0  502  503  0.00000000000E+00  0.00000000000E+00  0.50723520256E+02  0.50723520256E+02  0.00000000000E+00 0. -1.
          4   -1    0    0  503    0 -0.00000000000E+00 -0.00000000000E+00 -0.14705332463E+03  0.14705332463E+03  0.00000000000E+00 0. -1.
         25    2    1    2    0    0  0.23123539397E+02 -0.41297907478E+01 -0.34724640174E+02  0.13184544492E+03  0.12500266983E+03 0.  0.
          5    1    3    3  501    0  0.70036829247E+02  0.21107917374E+00 -0.45494671424E+02  0.83516328543E+02  0.10000000000E+00 0. -1.
         -5    1    3    3    0  501 -0.46913289850E+02 -0.43408699216E+01  0.10770031250E+02  0.48329116373E+02  0.10000000000E+00 0. -1.
          4    1    1    2  502    0 -0.23123539397E+02  0.41297907478E+01 -0.61605164204E+02  0.65931399974E+02  0.00000000000E+00 0. -1.
<mgrwt>
<rscale>  1 0.12719049E+03</rscale>
<asrwt>0</asrwt>
<pdfrwt beam="1">  1       21 0.78036186E-02 0.12719049E+03</pdfrwt>
<pdfrwt beam="2">  1        4 0.22623588E-01 0.12719049E+03</pdfrwt>
<totfact> 0.90101323E+04</totfact>
</mgrwt>
</event>
<event>
 6    2  0.1181843E-002  0.1270439E+03  0.7546771E-02  0.1231909E+00
         21   -1    0    0  502  503  0.00000000000E+00  0.00000000000E+00  0.10022208959E+03  0.10022208959E+03  0.00000000000E+00 0. -1.
          2   -1    0    0  503    0 -0.00000000000E+00 -0.00000000000E+00 -0.80969104134E+02  0.80969104134E+02  0.00000000000E+00 0. -1.
         25    2    1    2    0    0 -0.28929880921E+01  0.22511598633E+02  0.55329032622E+02  0.13856933746E+03  0.12500007192E+03 0.  0.
          5    1    3    3  501    0 -0.37138746173E+01 -0.52178431915E+02  0.21106578639E+02  0.56408149089E+02  0.10000000000E+00 0.  1.
         -5    1    3    3    0  501  0.82088652518E+00  0.74690030548E+02  0.34222453983E+02  0.82161188371E+02  0.10000000000E+00 0.  1.
          2    1    1    2  502    0  0.28929880921E+01 -0.22511598633E+02 -0.36076047161E+02  0.42621856270E+02  0.00000000000E+00 0. -1.
<mgrwt>
<rscale>  1 0.12704393E+03</rscale>
<asrwt>0</asrwt>
<pdfrwt beam="1">  1       21 0.15418783E-01 0.12704393E+03</pdfrwt>
<pdfrwt beam="2">  1        2 0.12456785E-01 0.12704393E+03</pdfrwt>
<totfact> 0.21645449E+05</totfact>
</mgrwt>
</event>
<event>
 6    2  0.1181843E-002  0.1306834E+03  0.7546771E-02  0.1226445E+00
         21   -1    0    0  502  503  0.00000000000E+00  0.00000000000E+00  0.17943242022E+03  0.17943242022E+03  0.00000000000E+00 0. -1.
          2   -1    0    0  503    0 -0.00000000000E+00 -0.00000000000E+00 -0.18051194369E+03  0.18051194369E+03  0.00000000000E+00 0. -1.
         25    2    1    2    0    0  0.37597336321E+02 -0.63211956887E+01  0.15300226087E+03  0.20121593711E+03  0.12499857720E+03 0.  0.
          5    1    3    3  501    0  0.24313520996E+01 -0.14312057507E+02 -0.19877755015E+02  0.24614662451E+02  0.10000000000E+00 0. -1.
         -5    1    3    3    0  501  0.35165984221E+02  0.79908618187E+01  0.17288001588E+03  0.17660127466E+03  0.10000000000E+00 0. -1.
          2    1    1    2  502    0 -0.37597336321E+02  0.63211956887E+01 -0.15408178433E+03  0.15872842681E+03  0.00000000000E+00 0. -1.
<mgrwt>
<rscale>  1 0.13068344E+03</rscale>
<asrwt>0</asrwt>
<pdfrwt beam="1">  1       21 0.27604988E-01 0.13068344E+03</pdfrwt>
<pdfrwt beam="2">  1        2 0.27771068E-01 0.13068344E+03</pdfrwt>
<totfact> 0.29479599E+04</totfact>
</mgrwt>
</event>
<event>
 6    2  0.1181843E-002  0.1259051E+03  0.7546771E-02  0.1233662E+00
          1   -1    0    0  503    0 -0.00000000000E+00  0.00000000000E+00  0.29575066785E+03  0.29575066785E+03  0.00000000000E+00 0. -1.
         21   -1    0    0  502  503  0.00000000000E+00 -0.00000000000E+00 -0.27660200530E+02  0.27660200530E+02  0.00000000000E+00 0. -1.
         25    2    1    2    0    0  0.14782062988E+02  0.26930097585E+01  0.11795917073E+03  0.17252956435E+03  0.12500529161E+03 0.  0.
          5    1    3    3  501    0 -0.29185121094E+02 -0.11465685457E+01  0.12452916883E+03  0.12790859941E+03  0.10000000000E+00 0.  1.
         -5    1    3    3    0  501  0.43967184082E+02  0.38395783042E+01 -0.65699981040E+01  0.44620964946E+02  0.10000000000E+00 0.  1.
          1    1    1    2  502    0 -0.14782062988E+02 -0.26930097585E+01  0.15013129659E+03  0.15088130402E+03  0.00000000000E+00 0. -1.
<mgrwt>
<rscale>  1 0.12590506E+03</rscale>
<asrwt>0</asrwt>
<pdfrwt beam="1">  1       21 0.42554157E-02 0.12590506E+03</pdfrwt>
<pdfrwt beam="2">  1        1 0.45500101E-01 0.12590506E+03</pdfrwt>
<totfact> 0.33630716E+05</totfact>
</mgrwt>
</event>
<event>
 6    2  0.1181843E-002  0.1262932E+03  0.7546771E-02  0.1233062E+00
          2   -1    0    0  503    0 -0.00000000000E+00  0.00000000000E+00  0.74873943618E+03  0.74873943618E+03  0.00000000000E+00 0.  1.
         21   -1    0    0  502  503  0.00000000000E+00 -0.00000000000E+00 -0.79841722873E+02  0.79841722873E+02  0.00000000000E+00 0.  1.
         25    2    1    2    0    0 -0.12930022394E+02  0.12263691116E+02 -0.29714440543E+02  0.12974174609E+03  0.12502955292E+03 0.  0.
          5    1    3    3  501    0  0.32673548112E+02 -0.99069773882E+01  0.34085995153E+02  0.48244937691E+02  0.10000000000E+00 0. -1.
         -5    1    3    3    0  501 -0.45603570507E+02  0.22170668504E+02 -0.63800435695E+02  0.81496808403E+02  0.10000000000E+00 0. -1.
          2    1    1    2  502    0  0.12930022394E+02 -0.12263691116E+02  0.69861215385E+03  0.69883941296E+03  0.00000000000E+00 0.  1.
<mgrwt>
<rscale>  1 0.12629320E+03</rscale>
<asrwt>0</asrwt>
<pdfrwt beam="1">  1       21 0.12283342E-01 0.12629320E+03</pdfrwt>
<pdfrwt beam="2">  1        2 0.11519068E+00 0.12629320E+03</pdfrwt>
<totfact> 0.27659330E+04</totfact>
</mgrwt>
</event>
<event>
 6    2  0.1181843E-002  0.1428179E+03  0.7546771E-02  0.1209587E+00
         21   -1    0    0  502  503  0.00000000000E+00  0.00000000000E+00  0.59896477145E+01  0.59896477145E+01  0.00000000000E+00 0. -1.
          2   -1    0    0  503    0 -0.00000000000E+00 -0.00000000000E+00 -0.20078980470E+04  0.20078980470E+04  0.00000000000E+00 0.  1.
         25    2    1    2    0    0 -0.49641310583E+02 -0.48037773498E+02 -0.10812430461E+04  0.10906344359E+04  0.12500024232E+03 0.  0.
          5    1    3    3  501    0 -0.75511035955E+02 -0.11967794378E+01 -0.38493041565E+03  0.39226876465E+03  0.10000000000E+00 0.  1.
         -5    1    3    3    0  501  0.25869725372E+02 -0.46840994060E+02 -0.69631263049E+03  0.69836567126E+03  0.10000000000E+00 0.  1.
          2    1    1    2  502    0  0.49641310583E+02  0.48037773498E+02 -0.92066535313E+03  0.92325325878E+03  0.00000000000E+00 0.  1.
<mgrwt>
<rscale>  1 0.14281788E+03</rscale>
<asrwt>0</asrwt>
<pdfrwt beam="1">  1       21 0.92148356E-03 0.14281788E+03</pdfrwt>
<pdfrwt beam="2">  1        2 0.30890763E+00 0.14281788E+03</pdfrwt>
<totfact> 0.40702114E+05</totfact>
</mgrwt>
</event>
<event>
 6    2  0.1181843E-002  0.1393052E+03  0.7546771E-02  0.1214267E+00
         21   -1    0    0  502  503  0.00000000000E+00  0.00000000000E+00  0.35775397025E+02  0.35775397025E+02  0.00000000000E+00 0.  1.
          2   -1    0    0  503    0 -0.00000000000E+00 -0.00000000000E+00 -0.43594513299E+03  0.43594513299E+03  0.00000000000E+00 0. -1.
         25    2    1    2    0    0  0.57943754636E+02  0.20558852706E+02 -0.11690178919E+03  0.18185698488E+03  0.12500315800E+03 0.  0.
          5    1    3    3  501    0  0.80936921509E+02  0.44313559760E+02 -0.11672977618E+03  0.14879626168E+03  0.10000000000E+00 0.  1.
         -5    1    3    3    0  501 -0.22993166873E+02 -0.23754707054E+02 -0.17201300280E+00  0.33060723201E+02  0.10000000000E+00 0.  1.
          2    1    1    2  502    0 -0.57943754636E+02 -0.20558852706E+02 -0.28326794678E+03  0.28986354514E+03  0.00000000000E+00 0. -1.
<mgrwt>
<rscale>  1 0.13930519E+03</rscale>
<asrwt>0</asrwt>
<pdfrwt beam="1">  1       21 0.55039072E-02 0.13930519E+03</pdfrwt>
<pdfrwt beam="2">  1        2 0.67068483E-01 0.13930519E+03</pdfrwt>
<totfact> 0.20476261E+05</totfact>
</mgrwt>
</event>
<event>
 6    2  0.1181843E-002  0.1281780E+03  0.7546771E-02  0.1230185E+00
         21   -1    0    0  502  503  0.00000000000E+00  0.00000000000E+00  0.41677053479E+03  0.41677053479E+03  0.00000000000E+00 0. -1.
          3   -1    0    0  503    0 -0.00000000000E+00 -0.00000000000E+00 -0.35674747757E+02  0.35674747757E+02  0.00000000000E+00 0. -1.
         25    2    1    2    0    0  0.13259571060E+02 -0.25065681143E+02  0.82339595387E+02  0.15234635445E+03  0.12500199259E+03 0.  0.
          5    1    3    3  501    0  0.58665714227E+02  0.21700841672E+02  0.33993046051E+02  0.71190798105E+02  0.10000000000E+00 0. -1.
         -5    1    3    3    0  501 -0.45406143167E+02 -0.46766522815E+02  0.48346549336E+02  0.81155556349E+02  0.10000000000E+00 0. -1.
          3    1    1    2  502    0 -0.13259571060E+02  0.25065681143E+02  0.29875619165E+03  0.30009892809E+03  0.00000000000E+00 0. -1.
<mgrwt>
<rscale>  1 0.12817801E+03</rscale>
<asrwt>0</asrwt>
<pdfrwt beam="1">  1       21 0.64118540E-01 0.12817801E+03</pdfrwt>
<pdfrwt beam="2">  1        3 0.54884230E-02 0.12817801E+03</pdfrwt>
<totfact> 0.21230849E+04</totfact>
</mgrwt>
</event>
<event>
 6    2  0.1181843E-002  0.1819548E+03  0.7546771E-02  0.1165925E+00
         21   -1    0    0  502  503  0.00000000000E+00  0.00000000000E+00  0.10258491942E+03  0.10258491942E+03  0.00000000000E+00 0. -1.
          2   -1    0    0  503    0 -0.00000000000E+00 -0.00000000000E+00 -0.27703469732E+03  0.27703469732E+03  0.00000000000E+00 0. -1.
         25    2    1    2    0    0 -0.12732084297E+03  0.35665938829E+02 -0.31084700243E+02  0.18459089645E+03  0.12499953686E+03 0.  0.
          5    1    3    3  501    0  0.39915530898E+01  0.24006362966E+02 -0.45879396718E+02  0.51934256538E+02  0.10000000000E+00 0.  1.
         -5    1    3    3    0  501 -0.13131239606E+03  0.11659575862E+02  0.14794696475E+02  0.13265663991E+03  0.10000000000E+00 0.  1.
          2    1    1    2  502    0  0.12732084297E+03 -0.35665938829E+02 -0.14336507766E+03  0.19502872029E+03  0.00000000000E+00 0. -1.
<mgrwt>
<rscale>  1 0.18195478E+03</rscale>
<asrwt>0</asrwt>
<pdfrwt beam="1">  1       21 0.15782296E-01 0.18195478E+03</pdfrwt>
<pdfrwt beam="2">  1        2 0.42620722E-01 0.18195478E+03</pdfrwt>
<totfact> 0.52797606E+04</totfact>
</mgrwt>
</event>
<event>
 6    2  0.1181843E-002  0.1619971E+03  0.7546771E-02  0.1186460E+00
          1   -1    0    0  503    0 -0.00000000000E+00  0.00000000000E+00  0.15495395098E+03  0.15495395098E+03  0.00000000000E+00 0. -1.
         21   -1    0    0  502  503  0.00000000000E+00 -0.00000000000E+00 -0.11357368955E+03  0.11357368955E+03  0.00000000000E+00 0. -1.
         25    2    1    2    0    0  0.82410748172E+02 -0.61870089296E+02  0.19351905854E+02  0.16314885797E+03  0.12499445681E+03 0.  0.
          5    1    3    3  501    0  0.15356657847E+02 -0.79369823363E+02  0.40868957527E+02  0.90585194653E+02  0.10000000000E+00 0.  1.
         -5    1    3    3    0  501  0.67054090325E+02  0.17499734067E+02 -0.21517051673E+02  0.72563663320E+02  0.10000000000E+00 0.  1.
          1    1    1    2  502    0 -0.82410748172E+02  0.61870089296E+02  0.22028355578E+02  0.10537878256E+03  0.00000000000E+00 0. -1.
<mgrwt>
<rscale>  1 0.16199708E+03</rscale>
<asrwt>0</asrwt>
<pdfrwt beam="1">  1       21 0.17472875E-01 0.16199708E+03</pdfrwt>
<pdfrwt beam="2">  1        1 0.23839069E-01 0.16199708E+03</pdfrwt>
<totfact> 0.64961213E+04</totfact>
</mgrwt>
</event>
<event>
 6    2  0.1181843E-002  0.1275149E+03  0.7546771E-02  0.1231191E+00
         21   -1    0    0  502  503  0.00000000000E+00  0.00000000000E+00  0.20882903245E+03  0.20882903245E+03  0.00000000000E+00 0. -1.
          2   -1    0    0  503    0 -0.00000000000E+00 -0.00000000000E+00 -0.36501740026E+03  0.36501740026E+03  0.00000000000E+00 0.  1.
         25    2    1    2    0    0  0.12229538891E+02 -0.22036962952E+02  0.18886076276E+03  0.22787809331E+03  0.12499939338E+03 0.  0.
          5    1    3    3  501    0 -0.78888335557E+01 -0.58525647524E+02  0.35380637123E+02  0.68842462159E+02  0.10000000000E+00 0. -1.
         -5    1    3    3    0  501  0.20118372447E+02  0.36488684572E+02  0.15348012563E+03  0.15903563115E+03  0.10000000000E+00 0. -1.
          2    1    1    2  502    0 -0.12229538891E+02  0.22036962952E+02 -0.34504913057E+03  0.34596833940E+03  0.00000000000E+00 0.  1.
<mgrwt>
<rscale>  1 0.12751485E+03</rscale>
<asrwt>0</asrwt>
<pdfrwt beam="1">  1       21 0.32127544E-01 0.12751485E+03</pdfrwt>
<pdfrwt beam="2">  1        2 0.56156523E-01 0.12751485E+03</pdfrwt>
<totfact> 0.10387173E+04</totfact>
</mgrwt>
</event>
<event>
 6    2  0.1181843E-002  0.1263325E+03  0.7546771E-02  0.1233001E+00
          2   -1    0    0  503    0 -0.00000000000E+00  0.00000000000E+00  0.14378689246E+04  0.14378689246E+04  0.00000000000E+00 0.  1.
         21   -1    0    0  502  503  0.00000000000E+00 -0.00000000000E+00 -0.13875075170E+02  0.13875075170E+02  0.00000000000E+00 0.  1.
         25    2    1    2    0    0  0.16723513107E+02  0.70746198504E+01  0.27525555805E+03  0.30286220071E+03  0.12502065526E+03 0.  0.
          5    1    3    3  501    0  0.43498671942E+02  0.34570055763E+02  0.51239971040E+02  0.75582854195E+02  0.10000000000E+00 0.  1.
         -5    1    3    3    0  501 -0.26775158835E+02 -0.27495435912E+02  0.22401558701E+03  0.22727934651E+03  0.10000000000E+00 0.  1.
          2    1    1    2  502    0 -0.16723513107E+02 -0.70746198504E+01  0.11487382913E+04  0.11488817990E+04  0.00000000000E+00 0.  1.
<mgrwt>
<rscale>  1 0.12633246E+03</rscale>
<asrwt>0</asrwt>
<pdfrwt beam="1">  1       21 0.21346281E-02 0.12633246E+03</pdfrwt>
<pdfrwt beam="2">  1        2 0.22121049E+00 0.12633246E+03</pdfrwt>
<totfact> 0.20879848E+05</totfact>
</mgrwt>
</event>
<event>
 6    2  0.1181843E-002  0.1295923E+03  0.7546771E-02  0.1228062E+00
          2   -1    0    0  503    0 -0.00000000000E+00  0.00000000000E+00  0.18625477718E+04  0.18625477718E+04  0.00000000000E+00 0.  1.
         21   -1    0    0  502  503  0.00000000000E+00 -0.00000000000E+00 -0.11332480338E+02  0.11332480338E+02  0.00000000000E+00 0.  1.
         25    2    1    2    0    0  0.11798957350E+02  0.32099066389E+02  0.36590006321E+03  0.38817136654E+03  0.12499835234E+03 0.  0.
          5    1    3    3  501    0  0.47522660886E+02 -0.31241369148E+02  0.16031935545E+03  0.17010800151E+03  0.10000000000E+00 0. -1.
         -5    1    3    3    0  501 -0.35723703537E+02  0.63340435538E+02  0.20558070776E+03  0.21806336503E+03  0.10000000000E+00 0. -1.
          2    1    1    2  502    0 -0.11798957350E+02 -0.32099066389E+02  0.14853152283E+04  0.14857088856E+04  0.00000000000E+00 0.  1.
<mgrwt>
<rscale>  1 0.12959226E+03</rscale>
<asrwt>0</asrwt>
<pdfrwt beam="1">  1       21 0.17434600E-02 0.12959226E+03</pdfrwt>
<pdfrwt beam="2">  1        2 0.28654557E+00 0.12959226E+03</pdfrwt>
<totfact> 0.17510581E+05</totfact>
</mgrwt>
</event>
<event>
 6    2  0.1181843E-002  0.1264219E+03  0.7546771E-02  0.1232864E+00
          2   -1    0    0  503    0 -0.00000000000E+00  0.00000000000E+00  0.45362465572E+03  0.45362465572E+03  0.00000000000E+00 0.  1.
         21   -1    0    0  502  503  0.00000000000E+00 -0.00000000000E+00 -0.13309002957E+02  0.13309002957E+02  0.00000000000E+00 0.  1.
         25    2    1    2    0    0 -0.11855443682E+02 -0.14735800579E+02  0.30291872290E+03  0.32824115095E+03  0.12499922052E+03 0.  0.
          5    1    3    3  501    0 -0.47547630346E+02 -0.50078772607E+02  0.22649443081E+03  0.23678766396E+03  0.10000000000E+00 0. -1.
         -5    1    3    3    0  501  0.35692186664E+02  0.35342972028E+02  0.76424292093E+02  0.91453486989E+02  0.10000000000E+00 0. -1.
          2    1    1    2  502    0  0.11855443682E+02  0.14735800579E+02  0.13739692986E+03  0.13869250773E+03  0.00000000000E+00 0.  1.
<mgrwt>
<rscale>  1 0.12642191E+03</rscale>
<asrwt>0</asrwt>
<pdfrwt beam="1">  1       21 0.20475393E-02 0.12642191E+03</pdfrwt>
<pdfrwt beam="2">  1        2 0.69788397E-01 0.12642191E+03</pdfrwt>
<totfact> 0.99689444E+05</totfact>
</mgrwt>
</event>
<event>
 6    2  0.1181843E-002  0.1279592E+03  0.7546771E-02  0.1230516E+00
          3   -1    0    0  503    0 -0.00000000000E+00  0.00000000000E+00  0.12454992583E+03  0.12454992583E+03  0.00000000000E+00 0. -1.
         21   -1    0    0  502  503  0.00000000000E+00 -0.00000000000E+00 -0.12239627007E+03  0.12239627007E+03  0.00000000000E+00 0.  1.
         25    2    1    2    0    0 -0.27291290101E+02  0.36935821251E+00 -0.86323762450E+02  0.15435459546E+03  0.12501439211E+03 0.  0.
          5    1    3    3  501    0  0.17491804524E+01  0.54412894168E+02 -0.73849417852E+02  0.91747311683E+02  0.10000000000E+00 0. -1.
         -5    1    3    3    0  501 -0.29040470553E+02 -0.54043535956E+02 -0.12474344598E+02  0.62607283775E+02  0.10000000000E+00 0. -1.
          3    1    1    2  502    0  0.27291290101E+02 -0.36935821251E+00  0.88477418203E+02  0.92591600443E+02  0.00000000000E+00 0. -1.
<mgrwt>
<rscale>  1 0.12795917E+03</rscale>
<asrwt>0</asrwt>
<pdfrwt beam="1">  1       21 0.18830195E-01 0.12795917E+03</pdfrwt>
<pdfrwt beam="2">  1        3 0.19161527E-01 0.12795917E+03</pdfrwt>
<totfact> 0.29912018E+04</totfact>
</mgrwt>
</event>
<event>
 6    2  0.1181843E-002  0.1274452E+03  0.7546771E-02  0.1231297E+00
         21   -1    0    0  502  503  0.00000000000E+00  0.00000000000E+00  0.10567511627E+02  0.10567511627E+02  0.00000000000E+00 0. -1.
          2   -1    0    0  503    0 -0.00000000000E+00 -0.00000000000E+00 -0.93452230999E+03  0.93452230999E+03  0.00000000000E+00 0.  1.
         25    2    1    2    0    0 -0.16252343310E+02  0.18818424124E+02 -0.38467595915E+03  0.40523804736E+03  0.12499603885E+03 0.  0.
          5    1    3    3  501    0 -0.39801890807E+02  0.63147718108E+02 -0.26847461873E+03  0.27865831356E+03  0.10000000000E+00 0.  1.
         -5    1    3    3    0  501  0.23549547497E+02 -0.44329293985E+02 -0.11620134042E+03  0.12657973380E+03  0.10000000000E+00 0.  1.
          2    1    1    2  502    0  0.16252343310E+02 -0.18818424124E+02 -0.53927883921E+03  0.53985177425E+03  0.00000000000E+00 0.  1.
<mgrwt>
<rscale>  1 0.12744521E+03</rscale>
<asrwt>0</asrwt>
<pdfrwt beam="1">  1       21 0.16257706E-02 0.12744521E+03</pdfrwt>
<pdfrwt beam="2">  1        2 0.14377270E+00 0.12744521E+03</pdfrwt>
<totfact> 0.61884808E+05</totfact>
</mgrwt>
</event>
<event>
 6    2  0.1181843E-002  0.1469945E+03  0.7546771E-02  0.1204216E+00
         21   -1    0    0  502  503  0.00000000000E+00  0.00000000000E+00  0.19745743254E+02  0.19745743254E+02  0.00000000000E+00 0.  1.
          2   -1    0    0  503    0 -0.00000000000E+00 -0.00000000000E+00 -0.22699725033E+04  0.22699725033E+04  0.00000000000E+00 0.  1.
         25    2    1    2    0    0 -0.62720738794E+02  0.45249032667E+02 -0.26542531815E+03  0.30341058414E+03  0.12500406801E+03 0.  0.
          5    1    3    3  501    0  0.29991414883E+02  0.45168243160E+02 -0.93668401140E+02  0.10822862158E+03  0.10000000000E+00 0. -1.
         -5    1    3    3    0  501 -0.92712153677E+02  0.80789506731E-01 -0.17175691701E+03  0.19518196256E+03  0.10000000000E+00 0. -1.
          2    1    1    2  502    0  0.62720738794E+02 -0.45249032667E+02 -0.19848014419E+04  0.19863076624E+04  0.00000000000E+00 0.  1.
<mgrwt>
<rscale>  1 0.14699450E+03</rscale>
<asrwt>0</asrwt>
<pdfrwt beam="1">  1       21 0.30378073E-02 0.14699450E+03</pdfrwt>
<pdfrwt beam="2">  1        2 0.34922647E+00 0.14699450E+03</pdfrwt>
<totfact> 0.43715770E+04</totfact>
</mgrwt>
</event>
<event>
 6    2  0.1181843E-002  0.1261287E+03  0.7546771E-02  0.1233316E+00
         21   -1    0    0  502  503  0.00000000000E+00  0.00000000000E+00  0.43626669878E+02  0.43626669878E+02  0.00000000000E+00 0.  1.
          1   -1    0    0  503    0 -0.00000000000E+00 -0.00000000000E+00 -0.61715684828E+03  0.61715684828E+03  0.00000000000E+00 0.  1.
         25    2    1    2    0    0 -0.16158263178E+02 -0.44036886791E+01 -0.47948720134E+02  0.13493529745E+03  0.12501189061E+03 0.  0.
          5    1    3    3  501    0  0.47889112068E+02 -0.22312524290E+01 -0.51994675318E+02  0.70723417645E+02  0.10000000000E+00 0. -1.
         -5    1    3    3    0  501 -0.64047375246E+02 -0.21724362502E+01  0.40459551836E+01  0.64211879808E+02  0.10000000000E+00 0. -1.
          1    1    1    2  502    0  0.16158263178E+02  0.44036886791E+01 -0.52558145826E+03  0.52584822070E+03  0.00000000000E+00 0.  1.
<mgrwt>
<rscale>  1 0.12612872E+03</rscale>
<asrwt>0</asrwt>
<pdfrwt beam="1">  1       21 0.67117957E-02 0.12612872E+03</pdfrwt>
<pdfrwt beam="2">  1        1 0.94947203E-01 0.12612872E+03</pdfrwt>
<totfact> 0.60921462E+04</totfact>
</mgrwt>
</event>
<event>
 6    2  0.1181843E-002  0.1414225E+03  0.7546771E-02  0.1211428E+00
          2   -1    0    0  503    0 -0.00000000000E+00  0.00000000000E+00  0.69599578319E+03  0.69599578319E+03  0.00000000000E+00 0.  1.
         21   -1    0    0  502  503  0.00000000000E+00 -0.00000000000E+00 -0.15713206207E+02  0.15713206207E+02  0.00000000000E+00 0.  1.
         25    2    1    2    0    0 -0.59978991797E+02 -0.27894361549E+02  0.50240407843E+03  0.52192928788E+03  0.12499899461E+03 0.  0.
          5    1    3    3  501    0 -0.44729756005E+02 -0.42398695572E+02  0.49616509317E+03  0.49997820966E+03  0.10000000000E+00 0. -1.
         -5    1    3    3    0  501 -0.15249235792E+02  0.14504334023E+02  0.62389852679E+01  0.21951078216E+02  0.10000000000E+00 0. -1.
          2    1    1    2  502    0  0.59978991797E+02  0.27894361549E+02  0.17787849855E+03  0.18977970152E+03  0.00000000000E+00 0.  1.
<mgrwt>
<rscale>  1 0.14142250E+03</rscale>
<asrwt>0</asrwt>
<pdfrwt beam="1">  1       21 0.24174169E-02 0.14142250E+03</pdfrwt>
<pdfrwt beam="2">  1        2 0.10707625E+00 0.14142250E+03</pdfrwt>
<totfact> 0.47412474E+05</totfact>
</mgrwt>
</event>
<event>
 6    2  0.1181843E-002  0.1984743E+03  0.7546771E-02  0.1151033E+00
          2   -1    0    0  503    0 -0.00000000000E+00  0.00000000000E+00  0.13603605041E+04  0.13603605041E+04  0.00000000000E+00 0.  1.
         21   -1    0    0  502  503  0.00000000000E+00 -0.00000000000E+00 -0.42277271201E+02  0.42277271201E+02  0.00000000000E+00 0. -1.
         25    2    1    2    0    0  0.15084628475E+03 -0.31835595046E+02  0.23046966860E+03  0.30415183002E+03  0.12499584322E+03 0.  0.
          5    1    3    3  501    0  0.11316220989E+03 -0.39645292389E+02  0.69386025771E+02  0.13853470875E+03  0.10000000000E+00 0.  1.
         -5    1    3    3    0  501  0.37684074865E+02  0.78096973428E+01  0.16108364283E+03  0.16561712127E+03  0.10000000000E+00 0.  1.
          2    1    1    2  502    0 -0.15084628475E+03  0.31835595046E+02  0.10876135643E+04  0.10984859453E+04  0.00000000000E+00 0.  1.
<mgrwt>
<rscale>  1 0.19847435E+03</rscale>
<asrwt>0</asrwt>
<pdfrwt beam="1">  1       21 0.65041966E-02 0.19847435E+03</pdfrwt>
<pdfrwt beam="2">  1        2 0.20928620E+00 0.19847435E+03</pdfrwt>
<totfact> 0.35735439E+04</totfact>
</mgrwt>
</event>
<event>
 6    2  0.1181843E-002  0.1273081E+03  0.7546771E-02  0.1231506E+00
         21   -1    0    0  502  503  0.00000000000E+00  0.00000000000E+00  0.20353884236E+02  0.20353884236E+02  0.00000000000E+00 0. -1.
          1   -1    0    0  503    0 -0.00000000000E+00 -0.00000000000E+00 -0.15398408383E+04  0.15398408383E+04  0.00000000000E+00 0.  1.
         25    2    1    2    0    0  0.24098191597E+02  0.11370188334E+01 -0.17989210351E+03  0.22038265389E+03  0.12500131832E+03 0.  0.
          5    1    3    3  501    0  0.70859403252E+02  0.23007005234E+02 -0.91208377926E+02  0.11776822799E+03  0.10000000000E+00 0.  1.
         -5    1    3    3    0  501 -0.46761211655E+02 -0.21869986401E+02 -0.88683725580E+02  0.10261442590E+03  0.10000000000E+00 0.  1.
          1    1    1    2  502    0 -0.24098191597E+02 -0.11370188334E+01 -0.13395948506E+04  0.13398120687E+04  0.00000000000E+00 0.  1.
<mgrwt>
<rscale>  1 0.12730807E+03</rscale>
<asrwt>0</asrwt>
<pdfrwt beam="1">  1       21 0.31313652E-02 0.12730807E+03</pdfrwt>
<pdfrwt beam="2">  1        1 0.23689871E+00 0.12730807E+03</pdfrwt>
<totfact> 0.45568028E+04</totfact>
</mgrwt>
</event>
<event>
 6    2  0.1181843E-002  0.1292738E+03  0.7546771E-02  0.1228537E+00
          1   -1    0    0  503    0 -0.00000000000E+00  0.00000000000E+00  0.33732630916E+03  0.33732630916E+03  0.00000000000E+00 0.  1.
         21   -1    0    0  502  503  0.00000000000E+00 -0.00000000000E+00 -0.28608811985E+02  0.28608811985E+02  0.00000000000E+00 0.  1.
         25    2    1    2    0    0  0.19863664104E+02 -0.26325480455E+02  0.12689682816E+03  0.18114780623E+03  0.12499650648E+03 0.  0.
          5    1    3    3  501    0  0.29138119695E+02 -0.20425733251E+02  0.15074507451E+03  0.15488811473E+03  0.10000000000E+00 0. -1.
         -5    1    3    3    0  501 -0.92744555906E+01 -0.58997472040E+01 -0.23848246347E+02  0.26259691495E+02  0.10000000000E+00 0. -1.
          1    1    1    2  502    0 -0.19863664104E+02  0.26325480455E+02  0.18182066901E+03  0.18478731491E+03  0.00000000000E+00 0.  1.
<mgrwt>
<rscale>  1 0.12927383E+03</rscale>
<asrwt>0</asrwt>
<pdfrwt beam="1">  1       21 0.44013559E-02 0.12927383E+03</pdfrwt>
<pdfrwt beam="2">  1        1 0.51896352E-01 0.12927383E+03</pdfrwt>
<totfact> 0.27059549E+05</totfact>
</mgrwt>
</event>
<event>
 6    2  0.1181843E-002  0.1298389E+03  0.7546771E-02  0.1227695E+00
         21   -1    0    0  502  503  0.00000000000E+00  0.00000000000E+00  0.22823357472E+02  0.22823357472E+02  0.00000000000E+00 0.  1.
          1   -1    0    0  503    0 -0.00000000000E+00 -0.00000000000E+00 -0.65174443735E+03  0.65174443735E+03  0.00000000000E+00 0.  1.
         25    2    1    2    0    0 -0.15154655174E+02  0.31663177039E+02 -0.16806608764E+03  0.21237785094E+03  0.12500368555E+03 0.  0.
          5    1    3    3  501    0  0.42974439388E+02  0.50935336959E+02 -0.69130880685E+02  0.96022391431E+02  0.10000000000E+00 0.  1.
         -5    1    3    3    0  501 -0.58129094562E+02 -0.19272159920E+02 -0.98935206955E+02  0.11635545951E+03  0.10000000000E+00 0.  1.
          1    1    1    2  502    0  0.15154655174E+02 -0.31663177039E+02 -0.46085499224E+03  0.46218994388E+03  0.00000000000E+00 0.  1.
<mgrwt>
<rscale>  1 0.12983891E+03</rscale>
<asrwt>0</asrwt>
<pdfrwt beam="1">  1       21 0.35112859E-02 0.12983891E+03</pdfrwt>
<pdfrwt beam="2">  1        1 0.10026837E+00 0.12983891E+03</pdfrwt>
<totfact> 0.16762301E+05</totfact>
</mgrwt>
</event>
<event>
 6    2  0.1181843E-002  0.1462748E+03  0.7546771E-02  0.1205127E+00
         21   -1    0    0  502  503  0.00000000000E+00  0.00000000000E+00  0.24672526618E+03  0.24672526618E+03  0.00000000000E+00 0. -1.
          1   -1    0    0  503    0 -0.00000000000E+00 -0.00000000000E+00 -0.47671211535E+03  0.47671211535E+03  0.00000000000E+00 0.  1.
         25    2    1    2    0    0  0.20253679994E+02  0.73225674979E+02  0.22158917802E+03  0.26551476868E+03  0.12499647012E+03 0.  0.
          5    1    3    3  501    0  0.50224645886E+02 -0.15218187699E+02  0.70349957014E+02  0.87768073598E+02  0.10000000000E+00 0. -1.
         -5    1    3    3    0  501 -0.29970965892E+02  0.88443862678E+02  0.15123922101E+03  0.17774669508E+03  0.10000000000E+00 0. -1.
          1    1    1    2  502    0 -0.20253679994E+02 -0.73225674979E+02 -0.45157602719E+03  0.45792261286E+03  0.00000000000E+00 0.  1.
<mgrwt>
<rscale>  1 0.14627484E+03</rscale>
<asrwt>0</asrwt>
<pdfrwt beam="1">  1       21 0.37957733E-01 0.14627484E+03</pdfrwt>
<pdfrwt beam="2">  1        1 0.73340326E-01 0.14627484E+03</pdfrwt>
<totfact> 0.36196488E+03</totfact>
</mgrwt>
</event>
<event>
 6    2  0.1181843E-002  0.1260887E+03  0.7546771E-02  0.1233378E+00
          1   -1    0    0  503    0 -0.00000000000E+00  0.00000000000E+00  0.57482472295E+03  0.57482472295E+03  0.00000000000E+00 0.  1.
         21   -1    0    0  502  503  0.00000000000E+00 -0.00000000000E+00 -0.14732212387E+02  0.14732212387E+02  0.00000000000E+00 0.  1.
         25    2    1    2    0    0  0.49761660530E+01 -0.15758246957E+02  0.25950496473E+03  0.28851548090E+03  0.12500108570E+03 0.  0.
          5    1    3    3  501    0  0.24928643881E+02  0.22130788423E+02  0.23850226977E+03  0.24082058004E+03  0.10000000000E+00 0.  1.
         -5    1    3    3    0  501 -0.19952477828E+02 -0.37889035380E+02  0.21002694956E+02  0.47694900869E+02  0.10000000000E+00 0.  1.
          1    1    1    2  502    0 -0.49761660530E+01  0.15758246957E+02  0.30058754583E+03  0.30104145443E+03  0.00000000000E+00 0.  1.
<mgrwt>
<rscale>  1 0.12608868E+03</rscale>
<asrwt>0</asrwt>
<pdfrwt beam="1">  1       21 0.22664947E-02 0.12608868E+03</pdfrwt>
<pdfrwt beam="2">  1        1 0.88434556E-01 0.12608868E+03</pdfrwt>
<totfact> 0.40661356E+05</totfact>
</mgrwt>
</event>
<event>
 6    2  0.1181843E-002  0.1293953E+03  0.7546771E-02  0.1228356E+00
          2   -1    0    0  503    0 -0.00000000000E+00  0.00000000000E+00  0.24068235378E+04  0.24068235378E+04  0.00000000000E+00 0. -1.
         21   -1    0    0  502  503  0.00000000000E+00 -0.00000000000E+00 -0.12184651449E+03  0.12184651449E+03  0.00000000000E+00 0. -1.
         25    2    1    2    0    0  0.33483565228E+01 -0.33272515409E+02 -0.87342455007E+02  0.15611489404E+03  0.12499953568E+03 0.  0.
          5    1    3    3  501    0 -0.88279284786E+01  0.46913770199E+02 -0.25495244863E+02  0.54118866083E+02  0.10000000000E+00 0.  1.
         -5    1    3    3    0  501  0.12176285001E+02 -0.80186285608E+02 -0.61847210144E+02  0.10199602796E+03  0.10000000000E+00 0.  1.
          2    1    1    2  502    0 -0.33483565228E+01  0.33272515409E+02  0.23723194783E+04  0.23725551582E+04  0.00000000000E+00 0. -1.
<mgrwt>
<rscale>  1 0.12939535E+03</rscale>
<asrwt>0</asrwt>
<pdfrwt beam="1">  1       21 0.18745619E-01 0.12939535E+03</pdfrwt>
<pdfrwt beam="2">  1        2 0.37028051E+00 0.12939535E+03</pdfrwt>
<totfact> 0.16139979E+03</totfact>
</mgrwt>
</event>
<event>
 6    2  0.1181843E-002  0.2340242E+03  0.7546771E-02  0.1123839E+00
         21   -1    0    0  502  503  0.00000000000E+00  0.00000000000E+00  0.29703680945E+02  0.29703680945E+02  0.00000000000E+00 0. -1.
          2   -1    0    0  503    0 -0.00000000000E+00 -0.00000000000E+00 -0.15706974543E+04  0.15706974543E+04  0.00000000000E+00 0. -1.
         25    2    1    2    0    0 -0.37598316205E+02  0.19423817308E+03 -0.85455404343E+03  0.88601916173E+03  0.12500096219E+03 0.  0.
          5    1    3    3  501    0  0.33248093913E+02  0.10588643062E+02 -0.89863859156E+02  0.96400613552E+02  0.10000000000E+00 0. -1.
         -5    1    3    3    0  501 -0.70846410118E+02  0.18364953002E+03 -0.76469018428E+03  0.78961854818E+03  0.10000000000E+00 0. -1.
          2    1    1    2  502    0  0.37598316205E+02 -0.19423817308E+03 -0.68643972989E+03  0.71438197348E+03  0.00000000000E+00 0. -1.
<mgrwt>
<rscale>  1 0.23402423E+03</rscale>
<asrwt>0</asrwt>
<pdfrwt beam="1">  1       21 0.45697966E-02 0.23402423E+03</pdfrwt>
<pdfrwt beam="2">  1        2 0.24164578E+00 0.23402423E+03</pdfrwt>
<totfact> 0.50061349E+04</totfact>
</mgrwt>
</event>
<event>
 6    2  0.1181843E-002  0.1411503E+03  0.7546771E-02  0.1211789E+00
         21   -1    0    0  502  503  0.00000000000E+00  0.00000000000E+00  0.95424982666E+02  0.95424982666E+02  0.00000000000E+00 0. -1.
          3   -1    0    0  503    0 -0.00000000000E+00 -0.00000000000E+00 -0.96005616291E+03  0.96005616291E+03  0.00000000000E+00 0.  1.
         25    2    1    2    0    0 -0.65246433723E+02  0.63158337547E+01  0.41388461753E+02  0.14709324465E+03  0.12500572381E+03 0.  0.
          5    1    3    3  501    0 -0.21029835560E+02  0.45543935670E+02 -0.26780674887E+02  0.56865794705E+02  0.10000000000E+00 0. -1.
         -5    1    3    3    0  501 -0.44216598163E+02 -0.39228101915E+02  0.68169136639E+02  0.90227449943E+02  0.10000000000E+00 0. -1.
          3    1    1    2  502    0  0.65246433723E+02 -0.63158337547E+01 -0.90601964199E+03  0.90838790092E+03  0.00000000000E+00 0.  1.
<mgrwt>
<rscale>  1 0.14115034E+03</rscale>
<asrwt>0</asrwt>
<pdfrwt beam="1">  1       21 0.14680767E-01 0.14115034E+03</pdfrwt>
<pdfrwt beam="2">  1        3 0.14770095E+00 0.14115034E+03</pdfrwt>
<totfact> 0.72393004E+02</totfact>
</mgrwt>
</event>
<event>
 6    2  0.1181843E-002  0.1269359E+03  0.7546771E-02  0.1232074E+00
          1   -1    0    0  503    0 -0.00000000000E+00  0.00000000000E+00  0.79426526102E+03  0.79426526102E+03  0.00000000000E+00 0.  1.
         21   -1    0    0  502  503  0.00000000000E+00 -0.00000000000E+00 -0.67041447250E+02  0.67041447250E+02  0.00000000000E+00 0.  1.
         25    2    1    2    0    0 -0.20585828595E+02 -0.80459509989E+01 -0.66406600920E+01  0.12710947342E+03  0.12499682476E+03 0.  0.
          5    1    3    3  501    0 -0.37841565530E+02 -0.58938014570E+02 -0.17706265508E+02  0.72243999622E+02  0.10000000000E+00 0. -1.
         -5    1    3    3    0  501  0.17255736936E+02  0.50892063571E+02  0.11065605416E+02  0.54865473797E+02  0.10000000000E+00 0. -1.
          1    1    1    2  502    0  0.20585828595E+02  0.80459509989E+01  0.73386447386E+03  0.73419723485E+03  0.00000000000E+00 0.  1.
<mgrwt>
<rscale>  1 0.12693589E+03</rscale>
<asrwt>0</asrwt>
<pdfrwt beam="1">  1       21 0.10314069E-01 0.12693589E+03</pdfrwt>
<pdfrwt beam="2">  1        1 0.12219465E+00 0.12693589E+03</pdfrwt>
<totfact> 0.20224044E+04</totfact>
</mgrwt>
</event>
<event>
 6    2  0.1181843E-002  0.1396552E+03  0.7546771E-02  0.1213794E+00
          4   -1    0    0  503    0 -0.00000000000E+00  0.00000000000E+00  0.13999737894E+02  0.13999737894E+02  0.00000000000E+00 0.  1.
         21   -1    0    0  502  503  0.00000000000E+00 -0.00000000000E+00 -0.83475261544E+03  0.83475261544E+03  0.00000000000E+00 0.  1.
         25    2    1    2    0    0 -0.76529296288E+01  0.61804166915E+02 -0.68915227851E+03  0.70316032042E+03  0.12500100345E+03 0.  0.
          5    1    3    3  501    0 -0.36235181596E+02  0.25260382960E+02 -0.73422531692E+02  0.85685199963E+02  0.10000000000E+00 0. -1.
         -5    1    3    3    0  501  0.28582251967E+02  0.36543783955E+02 -0.61572974681E+03  0.61747512046E+03  0.10000000000E+00 0. -1.
          4    1    1    2  502    0  0.76529296288E+01 -0.61804166915E+02 -0.13160059904E+03  0.14559203291E+03  0.00000000000E+00 0.  1.
<mgrwt>
<rscale>  1 0.13965519E+03</rscale>
<asrwt>0</asrwt>
<pdfrwt beam="1">  1       21 0.12842353E+00 0.13965519E+03</pdfrwt>
<pdfrwt beam="2">  1        4 0.21538050E-02 0.13965519E+03</pdfrwt>
<totfact> 0.16760172E+04</totfact>
</mgrwt>
</event>
<event>
 6    2  0.1181843E-002  0.1459336E+03  0.7546771E-02  0.1205561E+00
          2   -1    0    0  503    0 -0.00000000000E+00  0.00000000000E+00  0.42509668494E+03  0.42509668494E+03  0.00000000000E+00 0. -1.
         21   -1    0    0  502  503  0.00000000000E+00 -0.00000000000E+00 -0.31695661486E+02  0.31695661486E+02  0.00000000000E+00 0. -1.
         25    2    1    2    0    0  0.48026349444E+02 -0.57952299106E+02  0.31978779455E+03  0.35151221210E+03  0.12502640723E+03 0.  0.
          5    1    3    3  501    0  0.60331098493E+02 -0.87369132990E+02  0.28591105272E+03  0.30498909310E+03  0.10000000000E+00 0.  1.
         -5    1    3    3    0  501 -0.12304749049E+02  0.29416833884E+02  0.33876741832E+02  0.46523119006E+02  0.10000000000E+00 0.  1.
          2    1    1    2  502    0 -0.48026349444E+02  0.57952299106E+02  0.73613228907E+02  0.10528013432E+03  0.00000000000E+00 0. -1.
<mgrwt>
<rscale>  1 0.14593355E+03</rscale>
<asrwt>0</asrwt>
<pdfrwt beam="1">  1       21 0.48762559E-02 0.14593355E+03</pdfrwt>
<pdfrwt beam="2">  1        2 0.65399486E-01 0.14593355E+03</pdfrwt>
<totfact> 0.25861240E+05</totfact>
</mgrwt>
</event>
<event>
 6    2  0.1181843E-002  0.1770552E+03  0.7546771E-02  0.1170684E+00
         21   -1    0    0  502  503  0.00000000000E+00  0.00000000000E+00  0.29784090473E+02  0.29784090473E+02  0.00000000000E+00 0.  1.
          2   -1    0    0  503    0 -0.00000000000E+00 -0.00000000000E+00 -0.21155865966E+04  0.21155865966E+04  0.00000000000E+00 0.  1.
         25    2    1    2    0    0 -0.27572693100E+02 -0.12232496096E+03 -0.25592083454E+03  0.31119769047E+03  0.12499951808E+03 0.  0.
          5    1    3    3  501    0 -0.50845358572E+02 -0.58617203522E+02 -0.22238522732E+03  0.23553434222E+03  0.10000000000E+00 0. -1.
         -5    1    3    3    0  501  0.23272665473E+02 -0.63707757436E+02 -0.33535607226E+02  0.75663348246E+02  0.10000000000E+00 0. -1.
          2    1    1    2  502    0  0.27572693100E+02  0.12232496096E+03 -0.18298816716E+04  0.18341729966E+04  0.00000000000E+00 0.  1.
<mgrwt>
<rscale>  1 0.17705516E+03</rscale>
<asrwt>0</asrwt>
<pdfrwt beam="1">  1       21 0.45821692E-02 0.17705516E+03</pdfrwt>
<pdfrwt beam="2">  1        2 0.32547476E+00 0.17705516E+03</pdfrwt>
<totfact> 0.26288249E+04</totfact>
</mgrwt>
</event>
<event>
 6    2  0.1181843E-002  0.1273858E+03  0.7546771E-02  0.1231387E+00
         21   -1    0    0  502  503  0.00000000000E+00  0.00000000000E+00  0.86080496162E+03  0.86080496162E+03  0.00000000000E+00 0. -1.
          2   -1    0    0  503    0 -0.00000000000E+00 -0.00000000000E+00 -0.11004209883E+02  0.11004209883E+02  0.00000000000E+00 0. -1.
         25    2    1    2    0    0 -0.74216051174E+01 -0.23452496803E+02  0.83136750417E+03  0.84107019877E+03  0.12498820922E+03 0.  0.
          5    1    3    3  501    0 -0.23872254626E+02 -0.24002538799E+02  0.82082613033E+03  0.82152392092E+03  0.10000000000E+00 0.  1.
         -5    1    3    3    0  501  0.16450649508E+02  0.55004199589E+00  0.10541373838E+02  0.19546277851E+02  0.10000000000E+00 0.  1.
          2    1    1    2  502    0  0.74216051174E+01  0.23452496803E+02  0.18433247573E+02  0.30738972737E+02  0.00000000000E+00 0. -1.
<mgrwt>
<rscale>  1 0.12738584E+03</rscale>
<asrwt>0</asrwt>
<pdfrwt beam="1">  1       21 0.13243148E+00 0.12738584E+03</pdfrwt>
<pdfrwt beam="2">  1        2 0.16929560E-02 0.12738584E+03</pdfrwt>
<totfact> 0.33785404E+04</totfact>
</mgrwt>
</event>
<event>
 6    2  0.1181843E-002  0.1263073E+03  0.7546771E-02  0.1233040E+00
         21   -1    0    0  502  503  0.00000000000E+00  0.00000000000E+00  0.42470046022E+02  0.42470046022E+02  0.00000000000E+00 0. -1.
          2   -1    0    0  503    0 -0.00000000000E+00 -0.00000000000E+00 -0.69677450338E+03  0.69677450338E+03  0.00000000000E+00 0.  1.
         25    2    1    2    0    0  0.10322763211E+02 -0.14884260917E+02 -0.51878604464E+02  0.13654644181E+03  0.12500176201E+03 0.  0.
          5    1    3    3  501    0 -0.44732828614E+02  0.98356244287E+01  0.13324459755E+02  0.47700279784E+02  0.10000000000E+00 0. -1.
         -5    1    3    3    0  501  0.55055591825E+02 -0.24719885346E+02 -0.65203064218E+02  0.88846162023E+02  0.10000000000E+00 0. -1.
          2    1    1    2  502    0 -0.10322763211E+02  0.14884260917E+02 -0.60242585289E+03  0.60269810759E+03  0.00000000000E+00 0.  1.
<mgrwt>
<rscale>  1 0.12630733E+03</rscale>
<asrwt>0</asrwt>
<pdfrwt beam="1">  1       21 0.65338527E-02 0.12630733E+03</pdfrwt>
<pdfrwt beam="2">  1        2 0.10719609E+00 0.12630733E+03</pdfrwt>
<totfact> 0.90209738E+04</totfact>
</mgrwt>
</event>
<event>
 6    2  0.1181843E-002  0.1264726E+03  0.7546771E-02  0.1232786E+00
         21   -1    0    0  502  503  0.00000000000E+00  0.00000000000E+00  0.81763999181E+01  0.81763999181E+01  0.00000000000E+00 0. -1.
          2   -1    0    0  503    0 -0.00000000000E+00 -0.00000000000E+00 -0.11769876803E+04  0.11769876803E+04  0.00000000000E+00 0. -1.
         25    2    1    2    0    0  0.19216341835E+02  0.26605227399E-01 -0.11539802471E+04  0.11608900601E+04  0.12500421029E+03 0.  0.
          5    1    3    3  501    0 -0.12110123327E+02  0.52497017293E+02 -0.78828492153E+03  0.79012386334E+03  0.10000000000E+00 0.  1.
         -5    1    3    3    0  501  0.31326465161E+02 -0.52470412066E+02 -0.36569532552E+03  0.37076619678E+03  0.10000000000E+00 0.  1.
          2    1    1    2  502    0 -0.19216341835E+02 -0.26605227399E-01 -0.14831033282E+02  0.24274020054E+02  0.00000000000E+00 0. -1.
<mgrwt>
<rscale>  1 0.12647261E+03</rscale>
<asrwt>0</asrwt>
<pdfrwt beam="1">  1       21 0.12579070E-02 0.12647261E+03</pdfrwt>
<pdfrwt beam="2">  1        2 0.18107512E+00 0.12647261E+03</pdfrwt>
<totfact> 0.67257150E+05</totfact>
</mgrwt>
</event>
<event>
 6    2  0.1181843E-002  0.1338863E+03  0.7546771E-02  0.1221801E+00
         21   -1    0    0  502  503  0.00000000000E+00  0.00000000000E+00  0.48301501226E+03  0.48301501226E+03  0.00000000000E+00 0.  1.
          1   -1    0    0  503    0 -0.00000000000E+00 -0.00000000000E+00 -0.14232428012E+04  0.14232428012E+04  0.00000000000E+00 0. -1.
         25    2    1    2    0    0  0.15692214866E+02 -0.45317810642E+02  0.47332260701E+03  0.49189411502E+03  0.12500232205E+03 0.  0.
          5    1    3    3  501    0  0.14050489596E+02  0.26926603384E+02  0.32990066258E+03  0.33129581253E+03  0.10000000000E+00 0. -1.
         -5    1    3    3    0  501  0.16417252700E+01 -0.72244414026E+02  0.14342194442E+03  0.16059830249E+03  0.10000000000E+00 0. -1.
          1    1    1    2  502    0 -0.15692214866E+02  0.45317810642E+02 -0.14135503960E+04  0.14143636985E+04  0.00000000000E+00 0. -1.
<mgrwt>
<rscale>  1 0.13388626E+03</rscale>
<asrwt>0</asrwt>
<pdfrwt beam="1">  1       21 0.74310002E-01 0.13388626E+03</pdfrwt>
<pdfrwt beam="2">  1        1 0.21896043E+00 0.13388626E+03</pdfrwt>
<totfact> 0.15742733E+02</totfact>
</mgrwt>
</event>
<event>
 6    2  0.1181843E-002  0.1265278E+03  0.7546771E-02  0.1232701E+00
         21   -1    0    0  502  503  0.00000000000E+00  0.00000000000E+00  0.10853012422E+03  0.10853012422E+03  0.00000000000E+00 0. -1.
          1   -1    0    0  503    0 -0.00000000000E+00 -0.00000000000E+00 -0.17708893505E+03  0.17708893505E+03  0.00000000000E+00 0.  1.
         25    2    1    2    0    0  0.19560553826E+02 -0.10412557438E+01  0.70733010798E+02  0.14495665829E+03  0.12500229792E+03 0.  0.
          5    1    3    3  501    0 -0.63078961443E+01 -0.39223874518E+02  0.87329111075E+02  0.95941052356E+02  0.10000000000E+00 0. -1.
         -5    1    3    3    0  501  0.25868449970E+02  0.38182618774E+02 -0.16596100277E+02  0.49015605930E+02  0.10000000000E+00 0. -1.
          1    1    1    2  502    0 -0.19560553826E+02  0.10412557438E+01 -0.13929182163E+03  0.14066240099E+03  0.00000000000E+00 0.  1.
<mgrwt>
<rscale>  1 0.12652776E+03</rscale>
<asrwt>0</asrwt>
<pdfrwt beam="1">  1       21 0.16696942E-01 0.12652776E+03</pdfrwt>
<pdfrwt beam="2">  1        1 0.27244451E-01 0.12652776E+03</pdfrwt>
<totfact> 0.59345981E+04</totfact>
</mgrwt>
</event>
<event>
 6    2  0.1181843E-002  0.1261855E+03  0.7546771E-02  0.1233228E+00
         21   -1    0    0  502  503  0.00000000000E+00  0.00000000000E+00  0.23962922800E+02  0.23962922800E+02  0.00000000000E+00 0.  1.
          2   -1    0    0  503    0 -0.00000000000E+00 -0.00000000000E+00 -0.10978182945E+04  0.10978182945E+04  0.00000000000E+00 0. -1.
         25    2    1    2    0    0 -0.13578414483E+02  0.11082940723E+02 -0.14281215498E+03  0.19057303633E+03  0.12496225690E+03 0.  0.
          5    1    3    3  501    0  0.12827520457E+02 -0.51242545011E+02 -0.35319582466E+02  0.63543895111E+02  0.10000000000E+00 0.  1.
         -5    1    3    3    0  501 -0.26405934939E+02  0.62325485734E+02 -0.10749257252E+03  0.12702914122E+03  0.10000000000E+00 0.  1.
          2    1    1    2  502    0  0.13578414483E+02 -0.11082940723E+02 -0.93104321669E+03  0.93120818094E+03  0.00000000000E+00 0. -1.
<mgrwt>
<rscale>  1 0.12618546E+03</rscale>
<asrwt>0</asrwt>
<pdfrwt beam="1">  1       21 0.36866040E-02 0.12618546E+03</pdfrwt>
<pdfrwt beam="2">  1        2 0.16889510E+00 0.12618546E+03</pdfrwt>
<totfact> 0.13078017E+05</totfact>
</mgrwt>
</event>
<event>
 6    2  0.1181843E-002  0.1334464E+03  0.7546771E-02  0.1222430E+00
          2   -1    0    0  503    0 -0.00000000000E+00  0.00000000000E+00  0.19974076353E+04  0.19974076353E+04  0.00000000000E+00 0. -1.
         21   -1    0    0  502  503  0.00000000000E+00 -0.00000000000E+00 -0.43663722529E+01  0.43663722529E+01  0.00000000000E+00 0.  1.
         25    2    1    2    0    0  0.46363047250E+02 -0.61380281274E+01  0.12097738688E+04  0.12171116481E+04  0.12498296937E+03 0.  0.
          5    1    3    3  501    0  0.81451788378E+02  0.42359310780E+01  0.51903351240E+03  0.52540283015E+03  0.10000000000E+00 0. -1.
         -5    1    3    3    0  501 -0.35088741128E+02 -0.10373959205E+02  0.69074035645E+03  0.69170881793E+03  0.10000000000E+00 0. -1.
          2    1    1    2  502    0 -0.46363047250E+02  0.61380281274E+01  0.78326739425E+03  0.78466235951E+03  0.00000000000E+00 0. -1.
<mgrwt>
<rscale>  1 0.13344643E+03</rscale>
<asrwt>0</asrwt>
<pdfrwt beam="1">  1       21 0.67175117E-03 0.13344643E+03</pdfrwt>
<pdfrwt beam="2">  1        2 0.30729275E+00 0.13344643E+03</pdfrwt>
<totfact> 0.67528133E+05</totfact>
</mgrwt>
</event>
<event>
 6    2  0.1181843E-002  0.1259525E+03  0.7546771E-02  0.1233588E+00
         21   -1    0    0  502  503  0.00000000000E+00  0.00000000000E+00  0.20264679458E+01  0.20264679458E+01  0.00000000000E+00 0.  1.
          2   -1    0    0  503    0 -0.00000000000E+00 -0.00000000000E+00 -0.31282162332E+04  0.31282162332E+04  0.00000000000E+00 0.  1.
         25    2    1    2    0    0  0.18443294140E+00 -0.15579598594E+02 -0.20090410581E+04  0.20129853486E+04  0.12498512977E+03 0.  0.
          5    1    3    3  501    0 -0.33991104562E+02 -0.60553483586E+02 -0.10877482010E+04  0.10899625124E+04  0.10000000000E+00 0. -1.
         -5    1    3    3    0  501  0.34175537503E+02  0.44973884992E+02 -0.92129285711E+03  0.92302283625E+03  0.10000000000E+00 0. -1.
          2    1    1    2  502    0 -0.18443294140E+00  0.15579598594E+02 -0.11171487072E+04  0.11172573526E+04  0.00000000000E+00 0.  1.
<mgrwt>
<rscale>  1 0.12595253E+03</rscale>
<asrwt>0</asrwt>
<pdfrwt beam="1">  1       21 0.31176519E-03 0.12595253E+03</pdfrwt>
<pdfrwt beam="2">  1        2 0.48126265E+00 0.12595253E+03</pdfrwt>
<totfact> 0.53721021E+05</totfact>
</mgrwt>
</event>
<event>
 6    2  0.1181843E-002  0.1283767E+03  0.7546771E-02  0.1229884E+00
          2   -1    0    0  503    0 -0.00000000000E+00  0.00000000000E+00  0.18599409239E+04  0.18599409239E+04  0.00000000000E+00 0.  1.
         21   -1    0    0  502  503  0.00000000000E+00 -0.00000000000E+00 -0.79366518413E+01  0.79366518413E+01  0.00000000000E+00 0.  1.
         25    2    1    2    0    0 -0.28207787897E+02 -0.73717177795E+01  0.52201665185E+03  0.53757043398E+03  0.12502225864E+03 0.  0.
          5    1    3    3  501    0 -0.17893811189E+02  0.57894126103E+02  0.29362984904E+03  0.29981730531E+03  0.10000000000E+00 0.  1.
         -5    1    3    3    0  501 -0.10313976708E+02 -0.65265843882E+02  0.22838680281E+03  0.23775312867E+03  0.10000000000E+00 0.  1.
          2    1    1    2  502    0  0.28207787897E+02  0.73717177795E+01  0.13299876202E+04  0.13303071418E+04  0.00000000000E+00 0.  1.
<mgrwt>
<rscale>  1 0.12837674E+03</rscale>
<asrwt>0</asrwt>
<pdfrwt beam="1">  1       21 0.12210248E-02 0.12837674E+03</pdfrwt>
<pdfrwt beam="2">  1        2 0.28614441E+00 0.12837674E+03</pdfrwt>
<totfact> 0.31002521E+05</totfact>
</mgrwt>
</event>
<event>
 6    2  0.1181843E-002  0.1260176E+03  0.7546771E-02  0.1233487E+00
         21   -1    0    0  502  503  0.00000000000E+00  0.00000000000E+00  0.92184793121E+01  0.92184793121E+01  0.00000000000E+00 0.  1.
          2   -1    0    0  503    0 -0.00000000000E+00 -0.00000000000E+00 -0.10162408798E+04  0.10162408798E+04  0.00000000000E+00 0.  1.
         25    2    1    2    0    0  0.15997535045E+02 -0.70188536692E+00 -0.42678367953E+03  0.44499972480E+03  0.12499612868E+03 0.  0.
          5    1    3    3  501    0 -0.46187741952E+02  0.53058832345E+01 -0.79129239805E+02  0.91776394000E+02  0.10000000000E+00 0. -1.
         -5    1    3    3    0  501  0.62185276997E+02 -0.60077686015E+01 -0.34765443973E+03  0.35322333080E+03  0.10000000000E+00 0. -1.
          2    1    1    2  502    0 -0.15997535045E+02  0.70188536692E+00 -0.58023872092E+03  0.58045963427E+03  0.00000000000E+00 0.  1.
<mgrwt>
<rscale>  1 0.12601764E+03</rscale>
<asrwt>0</asrwt>
<pdfrwt beam="1">  1       21 0.14182286E-02 0.12601764E+03</pdfrwt>
<pdfrwt beam="2">  1        2 0.15634464E+00 0.12601764E+03</pdfrwt>
<totfact> 0.68667887E+05</totfact>
</mgrwt>
</event>
<event>
 6    2  0.1181843E-002  0.1354035E+03  0.7546771E-02  0.1219651E+00
         21   -1    0    0  502  503  0.00000000000E+00  0.00000000000E+00  0.96487788230E+03  0.96487788230E+03  0.00000000000E+00 0.  1.
          3   -1    0    0  503    0 -0.00000000000E+00 -0.00000000000E+00 -0.13216227887E+03  0.13216227887E+03  0.00000000000E+00 0. -1.
         25    2    1    2    0    0  0.47581946869E+02 -0.21099330174E+02  0.95478421856E+03  0.96433759826E+03  0.12499950406E+03 0.  0.
          5    1    3    3  501    0  0.83840906437E+02  0.13674344804E+02  0.62588562745E+03  0.63162418727E+03  0.10000000000E+00 0.  1.
         -5    1    3    3    0  501 -0.36258959568E+02 -0.34773674979E+02  0.32889859111E+03  0.33271341099E+03  0.10000000000E+00 0.  1.
          3    1    1    2  502    0 -0.47581946869E+02  0.21099330174E+02 -0.12206861513E+03  0.13270256290E+03  0.00000000000E+00 0. -1.
<mgrwt>
<rscale>  1 0.13540347E+03</rscale>
<asrwt>0</asrwt>
<pdfrwt beam="1">  1       21 0.14844275E+00 0.13540347E+03</pdfrwt>
<pdfrwt beam="2">  1        3 0.20332659E-01 0.13540347E+03</pdfrwt>
<totfact> 0.33678820E+02</totfact>
</mgrwt>
</event>
<event>
 6    2  0.1181843E-002  0.1259978E+03  0.7546771E-02  0.1233518E+00
          1   -1    0    0  503    0 -0.00000000000E+00  0.00000000000E+00  0.20459731336E+03  0.20459731336E+03  0.00000000000E+00 0.  1.
         21   -1    0    0  502  503  0.00000000000E+00 -0.00000000000E+00 -0.62611178745E+02  0.62611178745E+02  0.00000000000E+00 0. -1.
         25    2    1    2    0    0 -0.40337472845E+01 -0.15309524929E+02  0.16770219045E+01  0.12600898863E+03  0.12499920057E+03 0.  0.
          5    1    3    3  501    0 -0.13368501846E+02  0.54215176418E+02  0.15328980448E+01  0.55860200250E+02  0.10000000000E+00 0. -1.
         -5    1    3    3    0  501  0.93347545616E+01 -0.69524701347E+02  0.14412385969E+00  0.70148788384E+02  0.10000000000E+00 0. -1.
          1    1    1    2  502    0  0.40337472845E+01  0.15309524929E+02  0.14030911271E+03  0.14119950347E+03  0.00000000000E+00 0.  1.
<mgrwt>
<rscale>  1 0.12599783E+03</rscale>
<asrwt>0</asrwt>
<pdfrwt beam="1">  1       21 0.96324891E-02 0.12599783E+03</pdfrwt>
<pdfrwt beam="2">  1        1 0.31476510E-01 0.12599783E+03</pdfrwt>
<totfact> 0.13195582E+05</totfact>
</mgrwt>
</event>
<event>
 6    2  0.1181843E-002  0.1261561E+03  0.7546771E-02  0.1233273E+00
          4   -1    0    0  503    0 -0.00000000000E+00  0.00000000000E+00  0.23355299528E+03  0.23355299528E+03  0.00000000000E+00 0. -1.
         21   -1    0    0  502  503  0.00000000000E+00 -0.00000000000E+00 -0.21428701981E+03  0.21428701981E+03  0.00000000000E+00 0. -1.
         25    2    1    2    0    0  0.12837093038E+02  0.11239336238E+02 -0.19535124345E+03  0.23254564847E+03  0.12499702664E+03 0.  0.
          5    1    3    3  501    0  0.44534622345E+02  0.52927265470E+02 -0.14109148440E+03  0.15713511698E+03  0.10000000000E+00 0. -1.
         -5    1    3    3    0  501 -0.31697529307E+02 -0.41687929232E+02 -0.54259759049E+02  0.75410531492E+02  0.10000000000E+00 0. -1.
          4    1    1    2  502    0 -0.12837093038E+02 -0.11239336238E+02  0.21461721892E+03  0.21529436661E+03  0.00000000000E+00 0. -1.
<mgrwt>
<rscale>  1 0.12615613E+03</rscale>
<asrwt>0</asrwt>
<pdfrwt beam="1">  1       21 0.32967234E-01 0.12615613E+03</pdfrwt>
<pdfrwt beam="2">  1        4 0.35931230E-01 0.12615613E+03</pdfrwt>
<totfact> 0.27475652E+03</totfact>
</mgrwt>
</event>
<event>
 6    2  0.1181843E-002  0.1337010E+03  0.7546771E-02  0.1222065E+00
          2   -1    0    0  503    0 -0.00000000000E+00  0.00000000000E+00  0.52399236976E+03  0.52399236976E+03  0.00000000000E+00 0.  1.
         21   -1    0    0  502  503  0.00000000000E+00 -0.00000000000E+00 -0.22486213544E+03  0.22486213544E+03  0.00000000000E+00 0. -1.
         25    2    1    2    0    0  0.39242118263E+02 -0.26577624343E+02 -0.20377459956E+03  0.24372126942E+03  0.12501862173E+03 0.  0.
          5    1    3    3  501    0  0.10122642335E+02 -0.54099784688E+02 -0.19511399404E+03  0.20272823005E+03  0.10000000000E+00 0. -1.
         -5    1    3    3    0  501  0.29119475929E+02  0.27522160345E+02 -0.86606055221E+01  0.40993039366E+02  0.10000000000E+00 0. -1.
          2    1    1    2  502    0 -0.39242118263E+02  0.26577624343E+02  0.50290483388E+03  0.50513323579E+03  0.00000000000E+00 0.  1.
<mgrwt>
<rscale>  1 0.13370105E+03</rscale>
<asrwt>0</asrwt>
<pdfrwt beam="1">  1       21 0.34594175E-01 0.13370105E+03</pdfrwt>
<pdfrwt beam="2">  1        2 0.80614210E-01 0.13370105E+03</pdfrwt>
<totfact> 0.60750607E+03</totfact>
</mgrwt>
</event>
<event>
 6    2  0.1181843E-002  0.2142642E+03  0.7546771E-02  0.1138233E+00
          2   -1    0    0  503    0 -0.00000000000E+00  0.00000000000E+00  0.72714425316E+03  0.72714425316E+03  0.00000000000E+00 0. -1.
         21   -1    0    0  502  503  0.00000000000E+00 -0.00000000000E+00 -0.11346760882E+03  0.11346760882E+03  0.00000000000E+00 0. -1.
         25    2    1    2    0    0 -0.11525166545E+03 -0.13040465520E+03  0.12364224974E+02  0.21462069097E+03  0.12498338468E+03 0.  0.
          5    1    3    3  501    0 -0.11597383725E+03 -0.98101713389E+02 -0.36326710185E+02  0.15618424046E+03  0.10000000000E+00 0. -1.
         -5    1    3    3    0  501  0.72217179450E+00 -0.32302941810E+02  0.48690935159E+02  0.58436450511E+02  0.10000000000E+00 0. -1.
          2    1    1    2  502    0  0.11525166545E+03  0.13040465520E+03  0.60131241937E+03  0.62599117100E+03  0.00000000000E+00 0. -1.
<mgrwt>
<rscale>  1 0.21426425E+03</rscale>
<asrwt>0</asrwt>
<pdfrwt beam="1">  1       21 0.17456556E-01 0.21426425E+03</pdfrwt>
<pdfrwt beam="2">  1        2 0.11186834E+00 0.21426425E+03</pdfrwt>
<totfact> 0.14934782E+04</totfact>
</mgrwt>
</event>
<event>
 6    2  0.1181843E-002  0.1409767E+03  0.7546771E-02  0.1212021E+00
          1   -1    0    0  503    0 -0.00000000000E+00  0.00000000000E+00  0.35215743722E+03  0.35215743722E+03  0.00000000000E+00 0.  1.
         21   -1    0    0  502  503  0.00000000000E+00 -0.00000000000E+00 -0.90360476812E+02  0.90360476812E+02  0.00000000000E+00 0.  1.
         25    2    1    2    0    0  0.44749765446E+02  0.47395747617E+02 -0.29488846539E+02  0.14402784765E+03  0.12500212170E+03 0.  0.
          5    1    3    3  501    0  0.44207336431E+02 -0.34572786021E+02 -0.26345346961E+02  0.61997205051E+02  0.10000000000E+00 0.  1.
         -5    1    3    3    0  501  0.54242901523E+00  0.81968533637E+02 -0.31434995776E+01  0.82030642601E+02  0.10000000000E+00 0.  1.
          1    1    1    2  502    0 -0.44749765446E+02 -0.47395747617E+02  0.29128580695E+03  0.29849006638E+03  0.00000000000E+00 0.  1.
<mgrwt>
<rscale>  1 0.14097670E+03</rscale>
<asrwt>0</asrwt>
<pdfrwt beam="1">  1       21 0.13901612E-01 0.14097670E+03</pdfrwt>
<pdfrwt beam="2">  1        1 0.54178067E-01 0.14097670E+03</pdfrwt>
<totfact> 0.35298790E+04</totfact>
</mgrwt>
</event>
<event>
 6    2  0.1181843E-002  0.1432916E+03  0.7546771E-02  0.1208967E+00
          2   -1    0    0  503    0 -0.00000000000E+00  0.00000000000E+00  0.53402344707E+03  0.53402344707E+03  0.00000000000E+00 0. -1.
         21   -1    0    0  502  503  0.00000000000E+00 -0.00000000000E+00 -0.87882330073E+02  0.87882330073E+02  0.00000000000E+00 0.  1.
         25    2    1    2    0    0 -0.69540411224E+02 -0.85361855360E+01 -0.25109883894E+02  0.14547504650E+03  0.12499499042E+03 0.  0.
          5    1    3    3  501    0 -0.99305151997E+02  0.20569366171E+02 -0.13895123307E+02  0.10236061982E+03  0.10000000000E+00 0. -1.
         -5    1    3    3    0  501  0.29764740773E+02 -0.29105551707E+02 -0.11214760587E+02  0.43114426686E+02  0.10000000000E+00 0. -1.
          2    1    1    2  502    0  0.69540411224E+02  0.85361855360E+01  0.47125100089E+03  0.47643073063E+03  0.00000000000E+00 0. -1.
<mgrwt>
<rscale>  1 0.14329160E+03</rscale>
<asrwt>0</asrwt>
<pdfrwt beam="1">  1       21 0.13520359E-01 0.14329160E+03</pdfrwt>
<pdfrwt beam="2">  1        2 0.82157452E-01 0.14329160E+03</pdfrwt>
<totfact> 0.34404985E+04</totfact>
</mgrwt>
</event>
<event>
 6    2  0.1181843E-002  0.1262195E+03  0.7546771E-02  0.1233176E+00
         21   -1    0    0  502  503  0.00000000000E+00  0.00000000000E+00  0.28481244909E+03  0.28481244909E+03  0.00000000000E+00 0. -1.
          2   -1    0    0  503    0 -0.00000000000E+00 -0.00000000000E+00 -0.80287694595E+03  0.80287694595E+03  0.00000000000E+00 0. -1.
         25    2    1    2    0    0 -0.14824804405E+02 -0.92826489455E+01  0.27072664338E+03  0.29870434745E+03  0.12500171739E+03 0.  0.
          5    1    3    3  501    0 -0.13972391544E+02 -0.38090910891E+02  0.26650503959E+03  0.26957576179E+03  0.10000000000E+00 0.  1.
         -5    1    3    3    0  501 -0.85241286125E+00  0.28808261946E+02  0.42216037933E+01  0.29128585661E+02  0.10000000000E+00 0.  1.
          2    1    1    2  502    0  0.14824804405E+02  0.92826489455E+01 -0.78879114024E+03  0.78898504759E+03  0.00000000000E+00 0. -1.
<mgrwt>
<rscale>  1 0.12621954E+03</rscale>
<asrwt>0</asrwt>
<pdfrwt beam="1">  1       21 0.43817300E-01 0.12621954E+03</pdfrwt>
<pdfrwt beam="2">  1        2 0.12351953E+00 0.12621954E+03</pdfrwt>
<totfact> 0.23173741E+03</totfact>
</mgrwt>
</event>
<event>
 6    2  0.1181843E-002  0.1273341E+03  0.7546771E-02  0.1231466E+00
         21   -1    0    0  502  503  0.00000000000E+00  0.00000000000E+00  0.61316085069E+02  0.61316085069E+02  0.00000000000E+00 0. -1.
          1   -1    0    0  503    0 -0.00000000000E+00 -0.00000000000E+00 -0.31861082560E+03  0.31861082560E+03  0.00000000000E+00 0.  1.
         25    2    1    2    0    0 -0.15416889632E+02 -0.18694931841E+02 -0.60092854413E+01  0.12747580471E+03  0.12500715304E+03 0.  0.
          5    1    3    3  501    0  0.45076289417E+02  0.57206490403E+01  0.28539439070E+02  0.53657313346E+02  0.10000000000E+00 0. -1.
         -5    1    3    3    0  501 -0.60493179049E+02 -0.24415580881E+02 -0.34548724511E+02  0.73818491359E+02  0.10000000000E+00 0. -1.
          1    1    1    2  502    0  0.15416889632E+02  0.18694931841E+02 -0.25128545509E+03  0.25245110597E+03  0.00000000000E+00 0.  1.
<mgrwt>
<rscale>  1 0.12733409E+03</rscale>
<asrwt>0</asrwt>
<pdfrwt beam="1">  1       21 0.94332441E-02 0.12733409E+03</pdfrwt>
<pdfrwt beam="2">  1        1 0.49017049E-01 0.12733409E+03</pdfrwt>
<totfact> 0.79224747E+04</totfact>
</mgrwt>
</event>
<event>
 6    2  0.1181843E-002  0.1434402E+03  0.7546771E-02  0.1208774E+00
         21   -1    0    0  502  503  0.00000000000E+00  0.00000000000E+00  0.25426568854E+02  0.25426568854E+02  0.00000000000E+00 0.  1.
          2   -1    0    0  503    0 -0.00000000000E+00 -0.00000000000E+00 -0.47088781590E+03  0.47088781590E+03  0.00000000000E+00 0.  1.
         25    2    1    2    0    0  0.68597481212E+02 -0.15632582424E+02 -0.24545406443E+03  0.28429347739E+03  0.12500036591E+03 0.  0.
          5    1    3    3  501    0  0.90520360877E+02 -0.17180219496E+02 -0.95362344375E+02  0.13260121568E+03  0.10000000000E+00 0. -1.
         -5    1    3    3    0  501 -0.21922879665E+02  0.15476370711E+01 -0.15009172005E+03  0.15169226171E+03  0.10000000000E+00 0. -1.
          2    1    1    2  502    0 -0.68597481212E+02  0.15632582424E+02 -0.20000718262E+03  0.21202090737E+03  0.00000000000E+00 0.  1.
<mgrwt>
<rscale>  1 0.14344017E+03</rscale>
<asrwt>0</asrwt>
<pdfrwt beam="1">  1       21 0.39117800E-02 0.14344017E+03</pdfrwt>
<pdfrwt beam="2">  1        2 0.72444276E-01 0.14344017E+03</pdfrwt>
<totfact> 0.33438460E+05</totfact>
</mgrwt>
</event>
<event>
 6    2  0.1181843E-002  0.1649425E+03  0.7546771E-02  0.1183227E+00
          4   -1    0    0  503    0 -0.00000000000E+00  0.00000000000E+00  0.16730961092E+03  0.16730961092E+03  0.00000000000E+00 0. -1.
         21   -1    0    0  502  503  0.00000000000E+00 -0.00000000000E+00 -0.15469529373E+03  0.15469529373E+03  0.00000000000E+00 0.  1.
         25    2    1    2    0    0 -0.93539056623E+02  0.53193506723E+02 -0.76943079722E+02  0.18200622032E+03  0.12500768955E+03 0.  0.
          5    1    3    3  501    0 -0.15435352462E+02  0.27536840848E+02 -0.93027430264E+02  0.98237673482E+02  0.10000000000E+00 0.  1.
         -5    1    3    3    0  501 -0.78103704161E+02  0.25656665876E+02  0.16084350543E+02  0.83768546842E+02  0.10000000000E+00 0.  1.
          4    1    1    2  502    0  0.93539056623E+02 -0.53193506723E+02  0.89557396909E+02  0.13999868432E+03  0.00000000000E+00 0. -1.
<mgrwt>
<rscale>  1 0.16494250E+03</rscale>
<asrwt>0</asrwt>
<pdfrwt beam="1">  1       21 0.23799276E-01 0.16494250E+03</pdfrwt>
<pdfrwt beam="2">  1        4 0.25739940E-01 0.16494250E+03</pdfrwt>
<totfact> 0.98301565E+03</totfact>
</mgrwt>
</event>
<event>
 6    2  0.1181843E-002  0.1435595E+03  0.7546771E-02  0.1208618E+00
         21   -1    0    0  502  503  0.00000000000E+00  0.00000000000E+00  0.21207199677E+02  0.21207199677E+02  0.00000000000E+00 0. -1.
          1   -1    0    0  503    0 -0.00000000000E+00 -0.00000000000E+00 -0.55333522447E+03  0.55333522447E+03  0.00000000000E+00 0. -1.
         25    2    1    2    0    0 -0.23580030578E+01  0.70550802782E+02 -0.31363517155E+03  0.34492948272E+03  0.12500540495E+03 0.  0.
          5    1    3    3  501    0  0.33071704618E+02  0.29211582096E+02 -0.27413933036E+03  0.27766785306E+03  0.10000000000E+00 0. -1.
         -5    1    3    3    0  501 -0.35429707676E+02  0.41339220686E+02 -0.39495841190E+02  0.67261629658E+02  0.10000000000E+00 0. -1.
          1    1    1    2  502    0  0.23580030578E+01 -0.70550802782E+02 -0.21849285325E+03  0.22961294143E+03  0.00000000000E+00 0. -1.
<mgrwt>
<rscale>  1 0.14355949E+03</rscale>
<asrwt>0</asrwt>
<pdfrwt beam="1">  1       21 0.32626464E-02 0.14355949E+03</pdfrwt>
<pdfrwt beam="2">  1        1 0.85128489E-01 0.14355949E+03</pdfrwt>
<totfact> 0.23744854E+05</totfact>
</mgrwt>
</event>
<event>
 6    2  0.1181843E-002  0.1279946E+03  0.7546771E-02  0.1230462E+00
         21   -1    0    0  502  503  0.00000000000E+00  0.00000000000E+00  0.75392795929E+03  0.75392795929E+03  0.00000000000E+00 0.  1.
          2   -1    0    0  503    0 -0.00000000000E+00 -0.00000000000E+00 -0.19071652221E+02  0.19071652221E+02  0.00000000000E+00 0.  1.
         25    2    1    2    0    0  0.27246545220E+02  0.39351813662E+01  0.73439615549E+03  0.74546651110E+03  0.12499898434E+03 0.  0.
          5    1    3    3  501    0 -0.52540080622E+00  0.26632696480E+02  0.67868723724E+03  0.67920980011E+03  0.10000000000E+00 0. -1.
         -5    1    3    3    0  501  0.27771946026E+02 -0.22697515114E+02  0.55708918249E+02  0.66256710988E+02  0.10000000000E+00 0. -1.
          2    1    1    2  502    0 -0.27246545220E+02 -0.39351813662E+01  0.46015157463E+00  0.27533100412E+02  0.00000000000E+00 0.  1.
<mgrwt>
<rscale>  1 0.12799455E+03</rscale>
<asrwt>0</asrwt>
<pdfrwt beam="1">  1       21 0.11598889E+00 0.12799455E+03</pdfrwt>
<pdfrwt beam="2">  1        2 0.29341009E-02 0.12799455E+03</pdfrwt>
<totfact> 0.22192108E+04</totfact>
</mgrwt>
</event>
<event>
 6    2  0.1181843E-002  0.1303328E+03  0.7546771E-02  0.1226963E+00
          2   -1    0    0  503    0 -0.00000000000E+00  0.00000000000E+00  0.18446959726E+04  0.18446959726E+04  0.00000000000E+00 0.  1.
         21   -1    0    0  502  503  0.00000000000E+00 -0.00000000000E+00 -0.15817921391E+02  0.15817921391E+02  0.00000000000E+00 0.  1.
         25    2    1    2    0    0  0.35917505563E+02 -0.83898446167E+01  0.25659173832E+03  0.28779500417E+03  0.12500475012E+03 0.  0.
          5    1    3    3  501    0 -0.44621800808E+02  0.13593028936E+02  0.99749037002E+02  0.11011701016E+03  0.10000000000E+00 0.  1.
         -5    1    3    3    0  501  0.80539306371E+02 -0.21982873553E+02  0.15684270132E+03  0.17767799401E+03  0.10000000000E+00 0.  1.
          2    1    1    2  502    0 -0.35917505563E+02  0.83898446167E+01  0.15722863129E+04  0.15727188899E+04  0.00000000000E+00 0.  1.
<mgrwt>
<rscale>  1 0.13033282E+03</rscale>
<asrwt>0</asrwt>
<pdfrwt beam="1">  1       21 0.24335278E-02 0.13033282E+03</pdfrwt>
<pdfrwt beam="2">  1        2 0.28379921E+00 0.13033282E+03</pdfrwt>
<totfact> 0.10432457E+05</totfact>
</mgrwt>
</event>
<event>
 6    2  0.1181843E-002  0.1907711E+03  0.7546771E-02  0.1157768E+00
         21   -1    0    0  502  503  0.00000000000E+00  0.00000000000E+00  0.29855134369E+03  0.29855134369E+03  0.00000000000E+00 0. -1.
          1   -1    0    0  503    0 -0.00000000000E+00 -0.00000000000E+00 -0.48518869921E+03  0.48518869921E+03  0.00000000000E+00 0.  1.
         25    2    1    2    0    0  0.14227742825E+03  0.22982118992E+02  0.25541026865E+03  0.31879150122E+03  0.12499028576E+03 0.  0.
          5    1    3    3  501    0  0.92294854187E+02  0.34576175062E+02  0.24810498743E+03  0.26696431743E+03  0.10000000000E+00 0.  1.
         -5    1    3    3    0  501  0.49982574063E+02 -0.11594056070E+02  0.73052812181E+01  0.51827183792E+02  0.10000000000E+00 0.  1.
          1    1    1    2  502    0 -0.14227742825E+03 -0.22982118992E+02 -0.44204762416E+03  0.46494854168E+03  0.00000000000E+00 0.  1.
<mgrwt>
<rscale>  1 0.19077111E+03</rscale>
<asrwt>0</asrwt>
<pdfrwt beam="1">  1       21 0.45930977E-01 0.19077111E+03</pdfrwt>
<pdfrwt beam="2">  1        1 0.74644414E-01 0.19077111E+03</pdfrwt>
<totfact> 0.23607369E+03</totfact>
</mgrwt>
</event>
<event>
 6    2  0.1181843E-002  0.1289373E+03  0.7546771E-02  0.1229041E+00
          2   -1    0    0  503    0 -0.00000000000E+00  0.00000000000E+00  0.16413311687E+04  0.16413311687E+04  0.00000000000E+00 0.  1.
         21   -1    0    0  502  503  0.00000000000E+00 -0.00000000000E+00 -0.39269999558E+01  0.39269999558E+01  0.00000000000E+00 0.  1.
         25    2    1    2    0    0  0.50590086854E+01 -0.31214549014E+02  0.13080749447E+04  0.13144142788E+04  0.12499957499E+03 0.  0.
          5    1    3    3  501    0  0.46940951772E+02  0.15612832982E+02  0.91627118259E+03  0.91760563618E+03  0.10000000000E+00 0. -1.
         -5    1    3    3    0  501 -0.41881943087E+02 -0.46827381996E+02  0.39180376215E+03  0.39680864267E+03  0.10000000000E+00 0. -1.
          2    1    1    2  502    0 -0.50590086854E+01  0.31214549014E+02  0.32932922405E+03  0.33084388985E+03  0.00000000000E+00 0.  1.
<mgrwt>
<rscale>  1 0.12893733E+03</rscale>
<asrwt>0</asrwt>
<pdfrwt beam="1">  1       21 0.60415515E-03 0.12893733E+03</pdfrwt>
<pdfrwt beam="2">  1        2 0.25251194E+00 0.12893733E+03</pdfrwt>
<totfact> 0.12088425E+06</totfact>
</mgrwt>
</event>
<event>
 6    2  0.1181843E-002  0.1264076E+03  0.7546771E-02  0.1232886E+00
          2   -1    0    0  503    0 -0.00000000000E+00  0.00000000000E+00  0.16877701387E+03  0.16877701387E+03  0.00000000000E+00 0. -1.
         21   -1    0    0  502  503  0.00000000000E+00 -0.00000000000E+00 -0.21193579490E+03  0.21193579490E+03  0.00000000000E+00 0. -1.
         25    2    1    2    0    0  0.15360848333E+02 -0.10957020011E+02 -0.19244026508E+03  0.23024363109E+03  0.12499144805E+03 0.  0.
          5    1    3    3  501    0 -0.14163948925E+02 -0.14140246092E+02  0.12213479460E+02  0.23446600803E+02  0.10000000000E+00 0.  1.
         -5    1    3    3    0  501  0.29524797258E+02  0.31832260810E+01 -0.20465374454E+03  0.20679703029E+03  0.10000000000E+00 0.  1.
          2    1    1    2  502    0 -0.15360848333E+02  0.10957020011E+02  0.14928148405E+03  0.15046917767E+03  0.00000000000E+00 0. -1.
<mgrwt>
<rscale>  1 0.12640757E+03</rscale>
<asrwt>0</asrwt>
<pdfrwt beam="1">  1       21 0.32605507E-01 0.12640757E+03</pdfrwt>
<pdfrwt beam="2">  1        2 0.25965694E-01 0.12640757E+03</pdfrwt>
<totfact> 0.23012476E+04</totfact>
</mgrwt>
</event>
<event>
 6    2  0.1181843E-002  0.1312818E+03  0.7546771E-02  0.1225566E+00
         21   -1    0    0  502  503  0.00000000000E+00  0.00000000000E+00  0.18510078934E+02  0.18510078934E+02  0.00000000000E+00 0.  1.
          1   -1    0    0  503    0 -0.00000000000E+00 -0.00000000000E+00 -0.15122843672E+04  0.15122843672E+04  0.00000000000E+00 0. -1.
         25    2    1    2    0    0 -0.24198050659E+02 -0.32012766292E+02 -0.21862131587E+03  0.25501019091E+03  0.12499821941E+03 0.  0.
          5    1    3    3  501    0 -0.74213208232E+02 -0.17281530476E+02 -0.15528792526E+03  0.17297572461E+03  0.10000000000E+00 0. -1.
         -5    1    3    3    0  501  0.50015157574E+02 -0.14731235816E+02 -0.63333390612E+02  0.82034466306E+02  0.10000000000E+00 0. -1.
          1    1    1    2  502    0  0.24198050659E+02  0.32012766292E+02 -0.12751529724E+04  0.12757842552E+04  0.00000000000E+00 0. -1.
<mgrwt>
<rscale>  1 0.13128183E+03</rscale>
<asrwt>0</asrwt>
<pdfrwt beam="1">  1       21 0.28477040E-02 0.13128183E+03</pdfrwt>
<pdfrwt beam="2">  1        1 0.23265917E+00 0.13128183E+03</pdfrwt>
<totfact> 0.55445080E+04</totfact>
</mgrwt>
</event>
<event>
 6    2  0.1181843E-002  0.1944182E+03  0.7546771E-02  0.1154536E+00
         21   -1    0    0  502  503  0.00000000000E+00  0.00000000000E+00  0.40687553363E+03  0.40687553363E+03  0.00000000000E+00 0.  1.
          1   -1    0    0  503    0 -0.00000000000E+00 -0.00000000000E+00 -0.99773577268E+03  0.99773577268E+03  0.00000000000E+00 0.  1.
         25    2    1    2    0    0  0.34623630121E+02  0.14482367911E+03  0.37763123354E+03  0.42473966866E+03  0.12500297514E+03 0.  0.
          5    1    3    3  501    0  0.29711551678E+02  0.12797927492E+02  0.96491021146E+01  0.33759123549E+02  0.10000000000E+00 0. -1.
         -5    1    3    3    0  501  0.49120784436E+01  0.13202575162E+03  0.36798213143E+03  0.39098054511E+03  0.10000000000E+00 0. -1.
          1    1    1    2  502    0 -0.34623630121E+02 -0.14482367911E+03 -0.96849147259E+03  0.97987163765E+03  0.00000000000E+00 0.  1.
<mgrwt>
<rscale>  1 0.19441820E+03</rscale>
<asrwt>0</asrwt>
<pdfrwt beam="1">  1       21 0.62596236E-01 0.19441820E+03</pdfrwt>
<pdfrwt beam="2">  1        1 0.15349781E+00 0.19441820E+03</pdfrwt>
<totfact> 0.42624191E+02</totfact>
</mgrwt>
</event>
<event>
 6    2  0.1181843E-002  0.1266898E+03  0.7546771E-02  0.1232452E+00
          1   -1    0    0  503    0 -0.00000000000E+00  0.00000000000E+00  0.24223558218E+04  0.24223558218E+04  0.00000000000E+00 0. -1.
         21   -1    0    0  502  503  0.00000000000E+00 -0.00000000000E+00 -0.26035374150E+01  0.26035374150E+01  0.00000000000E+00 0. -1.
         25    2    1    2    0    0  0.76578137543E+01  0.19159646390E+02  0.22965051029E+04  0.22999969573E+04  0.12499832617E+03 0.  0.
          5    1    3    3  501    0  0.57830172856E+02 -0.21284327446E+02  0.12367262588E+04  0.12382605544E+04  0.10000000000E+00 0. -1.
         -5    1    3    3    0  501 -0.50172359101E+02  0.40443973836E+02  0.10597788442E+04  0.10617364029E+04  0.10000000000E+00 0. -1.
          1    1    1    2  502    0 -0.76578137543E+01 -0.19159646390E+02  0.12324718148E+03  0.12496240197E+03  0.00000000000E+00 0. -1.
<mgrwt>
<rscale>  1 0.12668984E+03</rscale>
<asrwt>0</asrwt>
<pdfrwt beam="1">  1       21 0.40054616E-03 0.12668984E+03</pdfrwt>
<pdfrwt beam="2">  1        1 0.37266832E+00 0.12668984E+03</pdfrwt>
<totfact> 0.32358234E+05</totfact>
</mgrwt>
</event>
<event>
 6    2  0.1181843E-002  0.1267361E+03  0.7546771E-02  0.1232381E+00
          2   -1    0    0  503    0 -0.00000000000E+00  0.00000000000E+00  0.22864585178E+04  0.22864585178E+04  0.00000000000E+00 0. -1.
         21   -1    0    0  502  503  0.00000000000E+00 -0.00000000000E+00 -0.31534934183E+01  0.31534934183E+01  0.00000000000E+00 0. -1.
         25    2    1    2    0    0 -0.12817012380E+02  0.16555669195E+02  0.22023428614E+04  0.22059864301E+04  0.12499473779E+03 0.  0.
          5    1    3    3  501    0  0.34601868396E+02 -0.38508611987E+02  0.11290953788E+04  0.11302816406E+04  0.10000000000E+00 0. -1.
         -5    1    3    3    0  501 -0.47418880776E+02  0.55064281182E+02  0.10732474826E+04  0.10757047895E+04  0.10000000000E+00 0. -1.
          2    1    1    2  502    0  0.12817012380E+02 -0.16555669195E+02  0.80962162987E+02  0.83625581160E+02  0.00000000000E+00 0. -1.
<mgrwt>
<rscale>  1 0.12673615E+03</rscale>
<asrwt>0</asrwt>
<pdfrwt beam="1">  1       21 0.48515466E-03 0.12673615E+03</pdfrwt>
<pdfrwt beam="2">  1        2 0.35176152E+00 0.12673615E+03</pdfrwt>
<totfact> 0.79281018E+05</totfact>
</mgrwt>
</event>
<event>
 6    2  0.1181843E-002  0.1260212E+03  0.7546771E-02  0.1233482E+00
         21   -1    0    0  502  503  0.00000000000E+00  0.00000000000E+00  0.27369108337E+02  0.27369108337E+02  0.00000000000E+00 0. -1.
          2   -1    0    0  503    0 -0.00000000000E+00 -0.00000000000E+00 -0.28083963884E+03  0.28083963884E+03  0.00000000000E+00 0. -1.
         25    2    1    2    0    0  0.44873055417E+01 -0.15431216091E+02 -0.12079850327E+03  0.17456696796E+03  0.12499235805E+03 0.  0.
          5    1    3    3  501    0 -0.35265927518E+00 -0.65326931329E+02 -0.32347467939E+02  0.72897880679E+02  0.10000000000E+00 0. -1.
         -5    1    3    3    0  501  0.48399648169E+01  0.49895715237E+02 -0.88451035331E+02  0.10166908729E+03  0.10000000000E+00 0. -1.
          2    1    1    2  502    0 -0.44873055417E+01  0.15431216091E+02 -0.13267202723E+03  0.13364177921E+03  0.00000000000E+00 0. -1.
<mgrwt>
<rscale>  1 0.12602122E+03</rscale>
<asrwt>0</asrwt>
<pdfrwt beam="1">  1       21 0.42106321E-02 0.12602122E+03</pdfrwt>
<pdfrwt beam="2">  1        2 0.43206098E-01 0.12602122E+03</pdfrwt>
<totfact> 0.50922381E+05</totfact>
</mgrwt>
</event>
<event>
 6    2  0.1181843E-002  0.1316556E+03  0.7546771E-02  0.1225020E+00
          1   -1    0    0  503    0 -0.00000000000E+00  0.00000000000E+00  0.23109070839E+02  0.23109070839E+02  0.00000000000E+00 0.  1.
         21   -1    0    0  502  503  0.00000000000E+00 -0.00000000000E+00 -0.34836498352E+03  0.34836498352E+03  0.00000000000E+00 0.  1.
         25    2    1    2    0    0 -0.61202187636E+01 -0.40875113151E+02 -0.19885899755E+03  0.23849130319E+03  0.12499987536E+03 0.  0.
          5    1    3    3  501    0 -0.57065818067E+02 -0.13816315564E+02 -0.15583182423E+03  0.16652617095E+03  0.10000000000E+00 0. -1.
         -5    1    3    3    0  501  0.50945599303E+02 -0.27058797587E+02 -0.43027173316E+02  0.71965132244E+02  0.10000000000E+00 0. -1.
          1    1    1    2  502    0  0.61202187636E+01  0.40875113151E+02 -0.12639691513E+03  0.13298275117E+03  0.00000000000E+00 0.  1.
<mgrwt>
<rscale>  1 0.13165561E+03</rscale>
<asrwt>0</asrwt>
<pdfrwt beam="1">  1       21 0.53594610E-01 0.13165561E+03</pdfrwt>
<pdfrwt beam="2">  1        1 0.35552419E-02 0.13165561E+03</pdfrwt>
<totfact> 0.91436123E+04</totfact>
</mgrwt>
</event>
<event>
 6    2  0.1181843E-002  0.1262388E+03  0.7546771E-02  0.1233146E+00
          1   -1    0    0  503    0 -0.00000000000E+00  0.00000000000E+00  0.68079822726E+03  0.68079822726E+03  0.00000000000E+00 0. -1.
         21   -1    0    0  502  503  0.00000000000E+00 -0.00000000000E+00 -0.95223353032E+01  0.95223353032E+01  0.00000000000E+00 0. -1.
         25    2    1    2    0    0 -0.35903274873E+01  0.17291908768E+02  0.65227901771E+03  0.66438252502E+03  0.12499728818E+03 0.  0.
          5    1    3    3  501    0  0.52322554688E+02 -0.10893709309E+02  0.43469414507E+03  0.43796727319E+03  0.10000000000E+00 0. -1.
         -5    1    3    3    0  501 -0.55912882175E+02  0.28185618077E+02  0.21758487264E+03  0.22641525183E+03  0.10000000000E+00 0. -1.
          1    1    1    2  502    0  0.35903274873E+01 -0.17291908768E+02  0.18996874255E+02  0.25938037546E+02  0.00000000000E+00 0. -1.
<mgrwt>
<rscale>  1 0.12623875E+03</rscale>
<asrwt>0</asrwt>
<pdfrwt beam="1">  1       21 0.14649752E-02 0.12623875E+03</pdfrwt>
<pdfrwt beam="2">  1        1 0.10473815E+00 0.12623875E+03</pdfrwt>
<totfact> 0.64985698E+05</totfact>
</mgrwt>
</event>
<event>
 6    2  0.1181843E-002  0.1477158E+03  0.7546771E-02  0.1203308E+00
          1   -1    0    0  503    0 -0.00000000000E+00  0.00000000000E+00  0.10423614488E+04  0.10423614488E+04  0.00000000000E+00 0.  1.
         21   -1    0    0  502  503  0.00000000000E+00 -0.00000000000E+00 -0.61040934770E+02  0.61040934770E+02  0.00000000000E+00 0. -1.
         25    2    1    2    0    0 -0.78614747423E+02 -0.39364616290E+01  0.32405772241E+02  0.15122857516E+03  0.12499669447E+03 0.  0.
          5    1    3    3  501    0 -0.67973632066E+02 -0.34378179168E+02  0.68771074434E+02  0.10262428825E+03  0.10000000000E+00 0. -1.
         -5    1    3    3    0  501 -0.10641115358E+02  0.30441717539E+02 -0.36365302192E+02  0.48604286913E+02  0.10000000000E+00 0. -1.
          1    1    1    2  502    0  0.78614747423E+02  0.39364616290E+01  0.94891474174E+03  0.95217380837E+03  0.00000000000E+00 0.  1.
<mgrwt>
<rscale>  1 0.14771577E+03</rscale>
<asrwt>0</asrwt>
<pdfrwt beam="1">  1       21 0.93909138E-02 0.14771577E+03</pdfrwt>
<pdfrwt beam="2">  1        1 0.16036329E+00 0.14771577E+03</pdfrwt>
<totfact> 0.15334650E+04</totfact>
</mgrwt>
</event>
<event>
 6    2  0.1181843E-002  0.1599142E+03  0.7546771E-02  0.1188794E+00
         21   -1    0    0  502  503  0.00000000000E+00  0.00000000000E+00  0.24431627202E+03  0.24431627202E+03  0.00000000000E+00 0. -1.
          2   -1    0    0  503    0 -0.00000000000E+00 -0.00000000000E+00 -0.13645899626E+04  0.13645899626E+04  0.00000000000E+00 0. -1.
         25    2    1    2    0    0 -0.44394459391E+02 -0.89317732287E+02  0.21608969729E+03  0.26882577816E+03  0.12499606556E+03 0.  0.
          5    1    3    3  501    0 -0.75749446784E+02 -0.64543293648E+02  0.82126838129E+02  0.12902962057E+03  0.10000000000E+00 0.  1.
         -5    1    3    3    0  501  0.31354987393E+02 -0.24774438639E+02  0.13396285916E+03  0.13979615760E+03  0.10000000000E+00 0.  1.
          2    1    1    2  502    0  0.44394459391E+02  0.89317732287E+02 -0.13363633879E+04  0.13400804565E+04  0.00000000000E+00 0. -1.
<mgrwt>
<rscale>  1 0.15991417E+03</rscale>
<asrwt>0</asrwt>
<pdfrwt beam="1">  1       21 0.37587119E-01 0.15991417E+03</pdfrwt>
<pdfrwt beam="2">  1        2 0.20993692E+00 0.15991417E+03</pdfrwt>
<totfact> 0.14453968E+03</totfact>
</mgrwt>
</event>
<event>
 6    2  0.1181843E-002  0.1261994E+03  0.7546771E-02  0.1233207E+00
          3   -1    0    0  503    0 -0.00000000000E+00  0.00000000000E+00  0.60490114246E+02  0.60490114246E+02  0.00000000000E+00 0.  1.
         21   -1    0    0  502  503  0.00000000000E+00 -0.00000000000E+00 -0.10993816617E+03  0.10993816617E+03  0.00000000000E+00 0.  1.
         25    2    1    2    0    0 -0.13006697211E+02  0.11292854431E+02 -0.69437484464E+02  0.14404115956E+03  0.12501835332E+03 0.  0.
          5    1    3    3  501    0  0.17760643554E+02  0.61687518127E+02 -0.20604380760E+02  0.67419143117E+02  0.10000000000E+00 0. -1.
         -5    1    3    3    0  501 -0.30767340764E+02 -0.50394663696E+02 -0.48833103703E+02  0.76622016445E+02  0.10000000000E+00 0. -1.
          3    1    1    2  502    0  0.13006697211E+02 -0.11292854431E+02  0.19989432542E+02  0.26387120852E+02  0.00000000000E+00 0.  1.
<mgrwt>
<rscale>  1 0.12619941E+03</rscale>
<asrwt>0</asrwt>
<pdfrwt beam="1">  1       21 0.16913564E-01 0.12619941E+03</pdfrwt>
<pdfrwt beam="2">  1        3 0.93061716E-02 0.12619941E+03</pdfrwt>
<totfact> 0.12332462E+05</totfact>
</mgrwt>
</event>
<event>
 6    2  0.1181843E-002  0.1260445E+03  0.7546771E-02  0.1233446E+00
         21   -1    0    0  502  503  0.00000000000E+00  0.00000000000E+00  0.11496963159E+02  0.11496963159E+02  0.00000000000E+00 0. -1.
          2   -1    0    0  503    0 -0.00000000000E+00 -0.00000000000E+00 -0.76521667292E+03  0.76521667292E+03  0.00000000000E+00 0. -1.
         25    2    1    2    0    0  0.14914744674E+02  0.62531206374E+01 -0.33892666227E+03  0.36160542926E+03  0.12500261174E+03 0.  0.
          5    1    3    3  501    0 -0.42140581798E+02 -0.89084255450E+01 -0.46925092157E+02  0.63695862926E+02  0.10000000000E+00 0. -1.
         -5    1    3    3    0  501  0.57055326471E+02  0.15161546182E+02 -0.29200157012E+03  0.29790956633E+03  0.10000000000E+00 0. -1.
          2    1    1    2  502    0 -0.14914744674E+02 -0.62531206374E+01 -0.41479304749E+03  0.41510820682E+03  0.00000000000E+00 0. -1.
<mgrwt>
<rscale>  1 0.12604445E+03</rscale>
<asrwt>0</asrwt>
<pdfrwt beam="1">  1       21 0.17687634E-02 0.12604445E+03</pdfrwt>
<pdfrwt beam="2">  1        2 0.11772565E+00 0.12604445E+03</pdfrwt>
<totfact> 0.69629245E+05</totfact>
</mgrwt>
</event>
<event>
 6    2  0.1181843E-002  0.1262403E+03  0.7546771E-02  0.1233144E+00
          2   -1    0    0  503    0 -0.00000000000E+00  0.00000000000E+00  0.33097598258E+02  0.33097598258E+02  0.00000000000E+00 0.  1.
         21   -1    0    0  502  503  0.00000000000E+00 -0.00000000000E+00 -0.17856816128E+03  0.17856816128E+03  0.00000000000E+00 0.  1.
         25    2    1    2    0    0  0.75779605553E+00  0.17656748107E+02 -0.14718793509E+03  0.19390951063E+03  0.12499710024E+03 0.  0.
          5    1    3    3  501    0  0.58189256739E+01  0.36214036195E+02 -0.16419012477E+03  0.16823710466E+03  0.10000000000E+00 0.  1.
         -5    1    3    3    0  501 -0.50611296183E+01 -0.18557288088E+02  0.17002189682E+02  0.25672405968E+02  0.10000000000E+00 0.  1.
          2    1    1    2  502    0 -0.75779605553E+00 -0.17656748107E+02  0.17173720624E+01  0.17756248911E+02  0.00000000000E+00 0.  1.
<mgrwt>
<rscale>  1 0.12624029E+03</rscale>
<asrwt>0</asrwt>
<pdfrwt beam="1">  1       21 0.27472025E-01 0.12624029E+03</pdfrwt>
<pdfrwt beam="2">  1        2 0.50919381E-02 0.12624029E+03</pdfrwt>
<totfact> 0.22714096E+05</totfact>
</mgrwt>
</event>
<event>
 6    2  0.1181843E-002  0.1260078E+03  0.7546771E-02  0.1233503E+00
         21   -1    0    0  502  503  0.00000000000E+00  0.00000000000E+00  0.61566398487E+01  0.61566398487E+01  0.00000000000E+00 0. -1.
          2   -1    0    0  503    0 -0.00000000000E+00 -0.00000000000E+00 -0.85407742781E+03  0.85407742781E+03  0.00000000000E+00 0. -1.
         25    2    1    2    0    0  0.25712339305E+00  0.15905816817E+02 -0.68122579059E+03  0.69278173632E+03  0.12499958119E+03 0.  0.
          5    1    3    3  501    0  0.48802508471E+02 -0.29197494431E+02 -0.24245071837E+03  0.24903120157E+03  0.10000000000E+00 0. -1.
         -5    1    3    3    0  501 -0.48545385077E+02  0.45103311248E+02 -0.43877507222E+03  0.44375053476E+03  0.10000000000E+00 0. -1.
          2    1    1    2  502    0 -0.25712339305E+00 -0.15905816817E+02 -0.16669499737E+03  0.16745233133E+03  0.00000000000E+00 0. -1.
<mgrwt>
<rscale>  1 0.12600776E+03</rscale>
<asrwt>0</asrwt>
<pdfrwt beam="1">  1       21 0.94717618E-03 0.12600776E+03</pdfrwt>
<pdfrwt beam="2">  1        2 0.13139641E+00 0.12600776E+03</pdfrwt>
<totfact> 0.16375737E+06</totfact>
</mgrwt>
</event>
<event>
 6    2  0.1181843E-002  0.1271337E+03  0.7546771E-02  0.1231772E+00
          1   -1    0    0  503    0 -0.00000000000E+00  0.00000000000E+00  0.12243913760E+04  0.12243913760E+04  0.00000000000E+00 0. -1.
         21   -1    0    0  502  503  0.00000000000E+00 -0.00000000000E+00 -0.19473927468E+02  0.19473927468E+02  0.00000000000E+00 0.  1.
         25    2    1    2    0    0 -0.39374977570E+01  0.22890923868E+02  0.18957886153E+03  0.22826107714E+03  0.12499390510E+03 0.  0.
          5    1    3    3  501    0 -0.43590571486E+01  0.94613569262E+01  0.20643902407E+03  0.20670171580E+03  0.10000000000E+00 0.  1.
         -5    1    3    3    0  501  0.42155939165E+00  0.13429566942E+02 -0.16860162541E+02  0.21559361342E+02  0.10000000000E+00 0.  1.
          1    1    1    2  502    0  0.39374977570E+01 -0.22890923868E+02  0.10153385870E+04  0.10156042263E+04  0.00000000000E+00 0. -1.
<mgrwt>
<rscale>  1 0.12713369E+03</rscale>
<asrwt>0</asrwt>
<pdfrwt beam="1">  1       21 0.29959898E-02 0.12713369E+03</pdfrwt>
<pdfrwt beam="2">  1        1 0.18836784E+00 0.12713369E+03</pdfrwt>
<totfact> 0.79033926E+04</totfact>
</mgrwt>
</event>
<event>
 6    2  0.1181843E-002  0.1372769E+03  0.7546771E-02  0.1217041E+00
          2   -1    0    0  503    0 -0.00000000000E+00  0.00000000000E+00  0.10244307819E+03  0.10244307819E+03  0.00000000000E+00 0. -1.
         21   -1    0    0  502  503  0.00000000000E+00 -0.00000000000E+00 -0.10740017441E+03  0.10740017441E+03  0.00000000000E+00 0. -1.
         25    2    1    2    0    0  0.35024305741E+01 -0.56470683660E+02  0.33657734585E+02  0.14134281252E+03  0.12507494722E+03 0.  0.
          5    1    3    3  501    0  0.10169466641E+02 -0.89111070470E+02  0.51631262807E+02  0.10348912132E+03  0.10000000000E+00 0.  1.
         -5    1    3    3    0  501 -0.66670360673E+01  0.32640386810E+02 -0.17973528222E+02  0.37853691204E+02  0.10000000000E+00 0.  1.
          2    1    1    2  502    0 -0.35024305741E+01  0.56470683660E+02 -0.38614830801E+02  0.68500440077E+02  0.00000000000E+00 0. -1.
<mgrwt>
<rscale>  1 0.13727690E+03</rscale>
<asrwt>0</asrwt>
<pdfrwt beam="1">  1       21 0.16523104E-01 0.13727690E+03</pdfrwt>
<pdfrwt beam="2">  1        2 0.15760474E-01 0.13727690E+03</pdfrwt>
<totfact> 0.14527011E+05</totfact>
</mgrwt>
</event>
<event>
 6    2  0.1181843E-002  0.1361085E+03  0.7546771E-02  0.1218663E+00
         21   -1    0    0  502  503  0.00000000000E+00  0.00000000000E+00  0.78592988715E+01  0.78592988715E+01  0.00000000000E+00 0. -1.
          1   -1    0    0  503    0 -0.00000000000E+00 -0.00000000000E+00 -0.13683949872E+04  0.13683949872E+04  0.00000000000E+00 0. -1.
         25    2    1    2    0    0 -0.51521969868E+02 -0.15688044044E+02 -0.67378002771E+03  0.68739002840E+03  0.12499958920E+03 0.  0.
          5    1    3    3  501    0  0.38208983789E+02 -0.25348306231E+02 -0.23012203715E+03  0.23464574374E+03  0.10000000000E+00 0.  1.
         -5    1    3    3    0  501 -0.89730953657E+02  0.96602621872E+01 -0.44365799056E+03  0.45274428467E+03  0.10000000000E+00 0.  1.
          1    1    1    2  502    0  0.51521969868E+02  0.15688044044E+02 -0.68675566065E+03  0.68886425770E+03  0.00000000000E+00 0. -1.
<mgrwt>
<rscale>  1 0.13610851E+03</rscale>
<asrwt>0</asrwt>
<pdfrwt beam="1">  1       21 0.12091241E-02 0.13610851E+03</pdfrwt>
<pdfrwt beam="2">  1        1 0.21052209E+00 0.13610851E+03</pdfrwt>
<totfact> 0.27365779E+05</totfact>
</mgrwt>
</event>
<event>
 6    2  0.1181843E-002  0.1265619E+03  0.7546771E-02  0.1232648E+00
          4   -1    0    0  503    0 -0.00000000000E+00  0.00000000000E+00  0.14573817387E+03  0.14573817387E+03  0.00000000000E+00 0.  1.
         21   -1    0    0  502  503  0.00000000000E+00 -0.00000000000E+00 -0.79107978673E+02  0.79107978673E+02  0.00000000000E+00 0. -1.
         25    2    1    2    0    0 -0.76407642055E+00  0.19775790948E+02 -0.26778618897E+02  0.12936383863E+03  0.12500497028E+03 0.  0.
          5    1    3    3  501    0  0.54465880042E+02  0.39244704140E+02 -0.67406577481E+01  0.67469440183E+02  0.10000000000E+00 0.  1.
         -5    1    3    3    0  501 -0.55229956462E+02 -0.19468913192E+02 -0.20037961149E+02  0.61894398443E+02  0.10000000000E+00 0.  1.
          4    1    1    2  502    0  0.76407642055E+00 -0.19775790948E+02  0.93408814098E+02  0.95482313921E+02  0.00000000000E+00 0.  1.
<mgrwt>
<rscale>  1 0.12656188E+03</rscale>
<asrwt>0</asrwt>
<pdfrwt beam="1">  1       21 0.12170458E-01 0.12656188E+03</pdfrwt>
<pdfrwt beam="2">  1        4 0.22421257E-01 0.12656188E+03</pdfrwt>
<totfact> 0.42128613E+04</totfact>
</mgrwt>
</event>
<event>
 6    2  0.1181843E-002  0.1259370E+03  0.7546771E-02  0.1233612E+00
          4   -1    0    0  503    0 -0.00000000000E+00  0.00000000000E+00  0.85338236532E+02  0.85338236532E+02  0.00000000000E+00 0. -1.
         21   -1    0    0  502  503  0.00000000000E+00 -0.00000000000E+00 -0.62322047311E+02  0.62322047311E+02  0.00000000000E+00 0. -1.
         25    2    1    2    0    0 -0.66964071685E+01  0.13770595670E+02  0.31957431694E+02  0.12992847652E+03  0.12500264155E+03 0.  0.
          5    1    3    3  501    0 -0.16678088276E+02 -0.44358646398E+02 -0.19894018643E+02  0.51396790917E+02  0.10000000000E+00 0.  1.
         -5    1    3    3    0  501  0.99816811077E+01  0.58129242068E+02  0.51851450337E+02  0.78531685600E+02  0.10000000000E+00 0.  1.
          4    1    1    2  502    0  0.66964071685E+01 -0.13770595670E+02 -0.89412424728E+01  0.17731807325E+02  0.00000000000E+00 0. -1.
<mgrwt>
<rscale>  1 0.12593701E+03</rscale>
<asrwt>0</asrwt>
<pdfrwt beam="1">  1       21 0.95880072E-02 0.12593701E+03</pdfrwt>
<pdfrwt beam="2">  1        4 0.13128960E-01 0.12593701E+03</pdfrwt>
<totfact> 0.16493187E+05</totfact>
</mgrwt>
</event>
<event>
 6    2  0.1181843E-002  0.1289106E+03  0.7546771E-02  0.1229081E+00
          2   -1    0    0  503    0 -0.00000000000E+00  0.00000000000E+00  0.16275629517E+04  0.16275629517E+04  0.00000000000E+00 0. -1.
         21   -1    0    0  502  503  0.00000000000E+00 -0.00000000000E+00 -0.95161395765E+01  0.95161395765E+01  0.00000000000E+00 0.  1.
         25    2    1    2    0    0 -0.21951483287E+02  0.22593631730E+02  0.43712008864E+03  0.45573228951E+03  0.12500243195E+03 0.  0.
          5    1    3    3  501    0 -0.42001951142E+02  0.60582240883E+02  0.17166416536E+03  0.18682335903E+03  0.10000000000E+00 0. -1.
         -5    1    3    3    0  501  0.20050467855E+02 -0.37988609153E+02  0.26545592328E+03  0.26890893048E+03  0.10000000000E+00 0. -1.
          2    1    1    2  502    0  0.21951483287E+02 -0.22593631730E+02  0.11809267235E+04  0.11813468018E+04  0.00000000000E+00 0. -1.
<mgrwt>
<rscale>  1 0.12891062E+03</rscale>
<asrwt>0</asrwt>
<pdfrwt beam="1">  1       21 0.14640228E-02 0.12891062E+03</pdfrwt>
<pdfrwt beam="2">  1        2 0.25039408E+00 0.12891062E+03</pdfrwt>
<totfact> 0.30527783E+05</totfact>
</mgrwt>
</event>
<event>
 6    2  0.1181843E-002  0.1296197E+03  0.7546771E-02  0.1228021E+00
          1   -1    0    0  503    0 -0.00000000000E+00  0.00000000000E+00  0.20490381163E+04  0.20490381163E+04  0.00000000000E+00 0.  1.
         21   -1    0    0  502  503  0.00000000000E+00 -0.00000000000E+00 -0.40208783497E+01  0.40208783497E+01  0.00000000000E+00 0. -1.
         25    2    1    2    0    0 -0.31468936020E+02  0.13591984535E+02  0.11317218556E+04  0.11391205441E+04  0.12500487815E+03 0.  0.
          5    1    3    3  501    0  0.22897492397E+02  0.55661378534E+02  0.47015475730E+03  0.47399155059E+03  0.10000000000E+00 0. -1.
         -5    1    3    3    0  501 -0.54366428417E+02 -0.42069393999E+02  0.66156709833E+03  0.66512899354E+03  0.10000000000E+00 0. -1.
          1    1    1    2  502    0  0.31468936020E+02 -0.13591984535E+02  0.91329538231E+03  0.91393845052E+03  0.00000000000E+00 0.  1.
<mgrwt>
<rscale>  1 0.12961966E+03</rscale>
<asrwt>0</asrwt>
<pdfrwt beam="1">  1       21 0.61859831E-03 0.12961966E+03</pdfrwt>
<pdfrwt beam="2">  1        1 0.31523580E+00 0.12961966E+03</pdfrwt>
<totfact> 0.28680549E+05</totfact>
</mgrwt>
</event>
<event>
 6    2  0.1181843E-002  0.1310544E+03  0.7546771E-02  0.1225900E+00
         21   -1    0    0  502  503  0.00000000000E+00  0.00000000000E+00  0.52162258700E+01  0.52162258700E+01  0.00000000000E+00 0. -1.
          2   -1    0    0  503    0 -0.00000000000E+00 -0.00000000000E+00 -0.13925507806E+04  0.13925507806E+04  0.00000000000E+00 0. -1.
         25    2    1    2    0    0  0.36134622919E+02  0.15645246280E+02 -0.10769810944E+04  0.10849255849E+04  0.12499904957E+03 0.  0.
          5    1    3    3  501    0  0.57428335445E+02  0.58700270810E+02 -0.61627233927E+03  0.62171966484E+03  0.10000000000E+00 0.  1.
         -5    1    3    3    0  501 -0.21293712526E+02 -0.43055024530E+02 -0.46070875512E+03  0.46320592006E+03  0.10000000000E+00 0.  1.
          2    1    1    2  502    0 -0.36134622919E+02 -0.15645246280E+02 -0.31035346032E+03  0.31284142155E+03  0.00000000000E+00 0. -1.
<mgrwt>
<rscale>  1 0.13105437E+03</rscale>
<asrwt>0</asrwt>
<pdfrwt beam="1">  1       21 0.80249610E-03 0.13105437E+03</pdfrwt>
<pdfrwt beam="2">  1        2 0.21423863E+00 0.13105437E+03</pdfrwt>
<totfact> 0.10464191E+06</totfact>
</mgrwt>
</event>
<event>
 6    2  0.1181843E-002  0.1280930E+03  0.7546771E-02  0.1230313E+00
         21   -1    0    0  502  503  0.00000000000E+00  0.00000000000E+00  0.45094435728E+01  0.45094435728E+01  0.00000000000E+00 0. -1.
          2   -1    0    0  503    0 -0.00000000000E+00 -0.00000000000E+00 -0.14465067098E+04  0.14465067098E+04  0.00000000000E+00 0. -1.
         25    2    1    2    0    0 -0.19785581907E+02 -0.19741717387E+02 -0.10057086568E+04  0.10138331764E+04  0.12500640987E+03 0.  0.
          5    1    3    3  501    0 -0.67319834246E+02  0.26816072220E+01 -0.38044997470E+03  0.38636944024E+03  0.10000000000E+00 0.  1.
         -5    1    3    3    0  501  0.47534252339E+02 -0.22423324609E+02 -0.62525868211E+03  0.62746373615E+03  0.10000000000E+00 0.  1.
          2    1    1    2  502    0  0.19785581907E+02  0.19741717387E+02 -0.43628860944E+03  0.43718297700E+03  0.00000000000E+00 0. -1.
<mgrwt>
<rscale>  1 0.12809296E+03</rscale>
<asrwt>0</asrwt>
<pdfrwt beam="1">  1       21 0.69375973E-03 0.12809296E+03</pdfrwt>
<pdfrwt beam="2">  1        2 0.22253976E+00 0.12809296E+03</pdfrwt>
<totfact> 0.12290625E+06</totfact>
</mgrwt>
</event>
<event>
 6    2  0.1181843E-002  0.1353759E+03  0.7546771E-02  0.1219690E+00
         21   -1    0    0  502  503  0.00000000000E+00  0.00000000000E+00  0.15102424100E+04  0.15102424100E+04  0.00000000000E+00 0. -1.
          2   -1    0    0  503    0 -0.00000000000E+00 -0.00000000000E+00 -0.16568906967E+02  0.16568906967E+02  0.00000000000E+00 0.  1.
         25    2    1    2    0    0  0.20077691633E+02 -0.47931514430E+02  0.14568362347E+04  0.14631125876E+04  0.12500434291E+03 0.  0.
          5    1    3    3  501    0  0.51104140916E+02 -0.60315179494E+02  0.13158484161E+04  0.13182210051E+04  0.10000000000E+00 0.  1.
         -5    1    3    3    0  501 -0.31026449283E+02  0.12383665065E+02  0.14098781853E+03  0.14489158254E+03  0.10000000000E+00 0.  1.
          2    1    1    2  502    0 -0.20077691633E+02  0.47931514430E+02  0.36837268400E+02  0.63698729344E+02  0.00000000000E+00 0.  1.
<mgrwt>
<rscale>  1 0.13537588E+03</rscale>
<asrwt>0</asrwt>
<pdfrwt beam="1">  1       21 0.23234488E+00 0.13537588E+03</pdfrwt>
<pdfrwt beam="2">  1        2 0.25490638E-02 0.13537588E+03</pdfrwt>
<totfact> 0.40762253E+03</totfact>
</mgrwt>
</event>
<event>
 6    2  0.1181843E-002  0.1292796E+03  0.7546771E-02  0.1228529E+00
          2   -1    0    0  503    0 -0.00000000000E+00  0.00000000000E+00  0.28115246711E+04  0.28115246711E+04  0.00000000000E+00 0. -1.
         21   -1    0    0  502  503  0.00000000000E+00 -0.00000000000E+00 -0.35161608620E+01  0.35161608620E+01  0.00000000000E+00 0. -1.
         25    2    1    2    0    0  0.32636752882E+02 -0.45703281092E+01  0.12467982105E+04  0.12534827493E+04  0.12500871783E+03 0.  0.
          5    1    3    3  501    0 -0.50393796582E+01 -0.60988377064E+02  0.62966455828E+03  0.63263136457E+03  0.10000000000E+00 0. -1.
         -5    1    3    3    0  501  0.37676132541E+02  0.56418048955E+02  0.61713365226E+03  0.62085138476E+03  0.10000000000E+00 0. -1.
          2    1    1    2  502    0 -0.32636752882E+02  0.45703281092E+01  0.15612102997E+04  0.15615580827E+04  0.00000000000E+00 0. -1.
<mgrwt>
<rscale>  1 0.12927964E+03</rscale>
<asrwt>0</asrwt>
<pdfrwt beam="1">  1       21 0.54095007E-03 0.12927964E+03</pdfrwt>
<pdfrwt beam="2">  1        2 0.43254046E+00 0.12927964E+03</pdfrwt>
<totfact> 0.35010823E+05</totfact>
</mgrwt>
</event>
<event>
 6    2  0.1181843E-002  0.1287829E+03  0.7546771E-02  0.1229273E+00
          2   -1    0    0  503    0 -0.00000000000E+00  0.00000000000E+00  0.32720774970E+04  0.32720774970E+04  0.00000000000E+00 0.  1.
         21   -1    0    0  502  503  0.00000000000E+00 -0.00000000000E+00 -0.38762554346E+01  0.38762554346E+01  0.00000000000E+00 0.  1.
         25    2    1    2    0    0 -0.27122490965E+02  0.15001750470E+02  0.10973138405E+04  0.11048450979E+04  0.12499737435E+03 0.  0.
          5    1    3    3  501    0 -0.25421123643E+02  0.54254597805E+02  0.26863999427E+03  0.27524035212E+03  0.10000000000E+00 0.  1.
         -5    1    3    3    0  501 -0.17013673219E+01 -0.39252847336E+02  0.82867384627E+03  0.82960474575E+03  0.10000000000E+00 0.  1.
          2    1    1    2  502    0  0.27122490965E+02 -0.15001750470E+02  0.21708874010E+04  0.21711086546E+04  0.00000000000E+00 0.  1.
<mgrwt>
<rscale>  1 0.12878286E+03</rscale>
<asrwt>0</asrwt>
<pdfrwt beam="1">  1       21 0.59634961E-03 0.12878286E+03</pdfrwt>
<pdfrwt beam="2">  1        2 0.50339433E+00 0.12878286E+03</pdfrwt>
<totfact> 0.16223836E+05</totfact>
</mgrwt>
</event>
<event>
 6    2  0.1181843E-002  0.1310836E+03  0.7546771E-02  0.1225857E+00
         21   -1    0    0  502  503  0.00000000000E+00  0.00000000000E+00  0.10854368344E+03  0.10854368344E+03  0.00000000000E+00 0. -1.
          1   -1    0    0  503    0 -0.00000000000E+00 -0.00000000000E+00 -0.54339534318E+03  0.54339534318E+03  0.00000000000E+00 0. -1.
         25    2    1    2    0    0  0.39382871945E+02 -0.23441190298E+01  0.67911099079E+02  0.14763069123E+03  0.12500559234E+03 0.  0.
          5    1    3    3  501    0 -0.13843187521E+02 -0.46669543493E+02  0.60967709033E+02  0.78017636950E+02  0.10000000000E+00 0.  1.
         -5    1    3    3    0  501  0.53226059467E+02  0.44325424463E+02  0.69433900462E+01  0.69613054275E+02  0.10000000000E+00 0.  1.
          1    1    1    2  502    0 -0.39382871945E+02  0.23441190298E+01 -0.50276275882E+03  0.50430833540E+03  0.00000000000E+00 0. -1.
<mgrwt>
<rscale>  1 0.13108357E+03</rscale>
<asrwt>0</asrwt>
<pdfrwt beam="1">  1       21 0.16699029E-01 0.13108357E+03</pdfrwt>
<pdfrwt beam="2">  1        1 0.83599282E-01 0.13108357E+03</pdfrwt>
<totfact> 0.14560181E+04</totfact>
</mgrwt>
</event>
<event>
 6    2  0.1181843E-002  0.1331821E+03  0.7546771E-02  0.1222809E+00
          2   -1    0    0  503    0 -0.00000000000E+00  0.00000000000E+00  0.94134830009E+03  0.94134830009E+03  0.00000000000E+00 0. -1.
         21   -1    0    0  502  503  0.00000000000E+00 -0.00000000000E+00 -0.90172452110E+01  0.90172452110E+01  0.00000000000E+00 0. -1.
         25    2    1    2    0    0  0.41416308715E+02 -0.19951970917E+02  0.58277293118E+03  0.59779743328E+03  0.12499636054E+03 0.  0.
          5    1    3    3  501    0 -0.41065318045E+02  0.14743115554E+02  0.20013440814E+03  0.20483532684E+03  0.10000000000E+00 0.  1.
         -5    1    3    3    0  501  0.82481626760E+02 -0.34695086470E+02  0.38263852304E+03  0.39296210644E+03  0.10000000000E+00 0.  1.
          2    1    1    2  502    0 -0.41416308715E+02  0.19951970917E+02  0.34955812370E+03  0.35256811202E+03  0.00000000000E+00 0. -1.
<mgrwt>
<rscale>  1 0.13318214E+03</rscale>
<asrwt>0</asrwt>
<pdfrwt beam="1">  1       21 0.13872692E-02 0.13318214E+03</pdfrwt>
<pdfrwt beam="2">  1        2 0.14482274E+00 0.13318214E+03</pdfrwt>
<totfact> 0.79173535E+05</totfact>
</mgrwt>
</event>
<event>
 6    2  0.1181843E-002  0.1267464E+03  0.7546771E-02  0.1232365E+00
         21   -1    0    0  502  503  0.00000000000E+00  0.00000000000E+00  0.12032425377E+03  0.12032425377E+03  0.00000000000E+00 0.  1.
          1   -1    0    0  503    0 -0.00000000000E+00 -0.00000000000E+00 -0.25180234434E+03  0.25180234434E+03  0.00000000000E+00 0. -1.
         25    2    1    2    0    0  0.87288977347E+01 -0.19025155289E+02  0.86304811972E+02  0.15334007469E+03  0.12500603084E+03 0.  0.
          5    1    3    3  501    0 -0.43677142293E+02 -0.37321490247E+01  0.88438313379E+02  0.98706468727E+02  0.10000000000E+00 0. -1.
         -5    1    3    3    0  501  0.52406040028E+02 -0.15293006264E+02 -0.21335014076E+01  0.54633605961E+02  0.10000000000E+00 0. -1.
          1    1    1    2  502    0 -0.87288977347E+01  0.19025155289E+02 -0.21778290254E+03  0.21878652342E+03  0.00000000000E+00 0. -1.
<mgrwt>
<rscale>  1 0.12674643E+03</rscale>
<asrwt>0</asrwt>
<pdfrwt beam="1">  1       21 0.18511424E-01 0.12674643E+03</pdfrwt>
<pdfrwt beam="2">  1        1 0.38738822E-01 0.12674643E+03</pdfrwt>
<totfact> 0.31787472E+04</totfact>
</mgrwt>
</event>
<event>
 6    2  0.1181843E-002  0.1301720E+03  0.7546771E-02  0.1227201E+00
         21   -1    0    0  502  503  0.00000000000E+00  0.00000000000E+00  0.93272056851E+03  0.93272056851E+03  0.00000000000E+00 0.  1.
          3   -1    0    0  503    0 -0.00000000000E+00 -0.00000000000E+00 -0.75623382954E+01  0.75623382954E+01  0.00000000000E+00 0.  1.
         25    2    1    2    0    0 -0.33379659588E+02 -0.14416519170E+02  0.76965479216E+03  0.78058520192E+03  0.12499088231E+03 0.  0.
          5    1    3    3  501    0 -0.67667820294E+02 -0.45055741279E+02  0.56566392046E+03  0.57147583907E+03  0.10000000000E+00 0.  1.
         -5    1    3    3    0  501  0.34288160706E+02  0.30639222108E+02  0.20399087170E+03  0.20910936285E+03  0.10000000000E+00 0.  1.
          3    1    1    2  502    0  0.33379659588E+02  0.14416519170E+02  0.15550343805E+03  0.15969770488E+03  0.00000000000E+00 0.  1.
<mgrwt>
<rscale>  1 0.13017203E+03</rscale>
<asrwt>0</asrwt>
<pdfrwt beam="1">  1       21 0.14349538E+00 0.13017203E+03</pdfrwt>
<pdfrwt beam="2">  1        3 0.11634374E-02 0.13017203E+03</pdfrwt>
<totfact> 0.35296940E+04</totfact>
</mgrwt>
</event>
<event>
 6    2  0.1181843E-002  0.1518833E+03  0.7546771E-02  0.1198178E+00
         21   -1    0    0  502  503  0.00000000000E+00  0.00000000000E+00  0.18130586388E+03  0.18130586388E+03  0.00000000000E+00 0. -1.
          2   -1    0    0  503    0 -0.00000000000E+00 -0.00000000000E+00 -0.12099817590E+04  0.12099817590E+04  0.00000000000E+00 0. -1.
         25    2    1    2    0    0  0.80450904469E+02 -0.31134976181E+02  0.14763799328E+03  0.21181481741E+03  0.12500721997E+03 0.  0.
          5    1    3    3  501    0 -0.12293439488E+02  0.31412213093E+02  0.11558112568E+02  0.35657478205E+02  0.10000000000E+00 0. -1.
         -5    1    3    3    0  501  0.92744343957E+02 -0.62547189274E+02  0.13607988071E+03  0.17615733921E+03  0.10000000000E+00 0. -1.
          2    1    1    2  502    0 -0.80450904469E+02  0.31134976181E+02 -0.11763138884E+04  0.11794728055E+04  0.00000000000E+00 0. -1.
<mgrwt>
<rscale>  1 0.15188331E+03</rscale>
<asrwt>0</asrwt>
<pdfrwt beam="1">  1       21 0.27893209E-01 0.15188331E+03</pdfrwt>
<pdfrwt beam="2">  1        2 0.18615104E+00 0.15188331E+03</pdfrwt>
<totfact> 0.31603166E+03</totfact>
</mgrwt>
</event>
<event>
 6    2  0.1181843E-002  0.1269720E+03  0.7546771E-02  0.1232019E+00
         21   -1    0    0  502  503  0.00000000000E+00  0.00000000000E+00  0.37175832898E+03  0.37175832898E+03  0.00000000000E+00 0. -1.
          1   -1    0    0  503    0 -0.00000000000E+00 -0.00000000000E+00 -0.11652914688E+03  0.11652914688E+03  0.00000000000E+00 0. -1.
         25    2    1    2    0    0 -0.19469918498E+02 -0.10825386844E+02  0.35970805154E+03  0.38146004079E+03  0.12500245459E+03 0.  0.
          5    1    3    3  501    0  0.35842965978E+02 -0.48009152794E+02  0.18562033162E+03  0.19505003069E+03  0.10000000000E+00 0.  1.
         -5    1    3    3    0  501 -0.55312884476E+02  0.37183765950E+02  0.17408771992E+03  0.18641001010E+03  0.10000000000E+00 0.  1.
          1    1    1    2  502    0  0.19469918498E+02  0.10825386844E+02 -0.10447886943E+03  0.10682743507E+03  0.00000000000E+00 0. -1.
<mgrwt>
<rscale>  1 0.12697197E+03</rscale>
<asrwt>0</asrwt>
<pdfrwt beam="1">  1       21 0.57193589E-01 0.12697197E+03</pdfrwt>
<pdfrwt beam="2">  1        1 0.17927561E-01 0.12697197E+03</pdfrwt>
<totfact> 0.91946143E+03</totfact>
</mgrwt>
</event>
<event>
 6    2  0.1181843E-002  0.1932845E+03  0.7546771E-02  0.1155532E+00
          1   -1    0    0  503    0 -0.00000000000E+00  0.00000000000E+00  0.14097884113E+03  0.14097884113E+03  0.00000000000E+00 0.  1.
         21   -1    0    0  502  503  0.00000000000E+00 -0.00000000000E+00 -0.20921230771E+03  0.20921230771E+03  0.00000000000E+00 0.  1.
         25    2    1    2    0    0 -0.47484676787E+02 -0.13957261135E+03 -0.16657742707E+02  0.19400099658E+03  0.12499439153E+03 0.  0.
          5    1    3    3  501    0 -0.57803463247E+02 -0.47025256659E+01 -0.35493264150E+01  0.58103027710E+02  0.10000000000E+00 0. -1.
         -5    1    3    3    0  501  0.10318786460E+02 -0.13487008568E+03 -0.13108416292E+02  0.13589796887E+03  0.10000000000E+00 0. -1.
          1    1    1    2  502    0  0.47484676787E+02  0.13957261135E+03 -0.51575723880E+02  0.15619015226E+03  0.00000000000E+00 0.  1.
<mgrwt>
<rscale>  1 0.19328452E+03</rscale>
<asrwt>0</asrwt>
<pdfrwt beam="1">  1       21 0.32186509E-01 0.19328452E+03</pdfrwt>
<pdfrwt beam="2">  1        1 0.21689053E-01 0.19328452E+03</pdfrwt>
<totfact> 0.22995401E+04</totfact>
</mgrwt>
</event>
<event>
 6    2  0.1181843E-002  0.1264117E+03  0.7546771E-02  0.1232879E+00
         21   -1    0    0  502  503  0.00000000000E+00  0.00000000000E+00  0.90106661777E+02  0.90106661777E+02  0.00000000000E+00 0.  1.
          3   -1    0    0  503    0 -0.00000000000E+00 -0.00000000000E+00 -0.16810384525E+03  0.16810384525E+03  0.00000000000E+00 0.  1.
         25    2    1    2    0    0  0.18524920372E+02  0.34026063941E+01  0.44695442684E+02  0.13408061168E+03  0.12500070971E+03 0.  0.
          5    1    3    3  501    0  0.64090872044E+02 -0.23289032664E+02  0.56882407626E+01  0.68427954849E+02  0.10000000000E+00 0.  1.
         -5    1    3    3    0  501 -0.45565951672E+02  0.26691639058E+02  0.39007201921E+02  0.65652656832E+02  0.10000000000E+00 0.  1.
          3    1    1    2  502    0 -0.18524920372E+02 -0.34026063941E+01 -0.12269262616E+03  0.12412989534E+03  0.00000000000E+00 0.  1.
<mgrwt>
<rscale>  1 0.12641174E+03</rscale>
<asrwt>0</asrwt>
<pdfrwt beam="1">  1       21 0.13862563E-01 0.12641174E+03</pdfrwt>
<pdfrwt beam="2">  1        3 0.25862130E-01 0.12641174E+03</pdfrwt>
<totfact> 0.30535341E+04</totfact>
</mgrwt>
</event>
<event>
 6    2  0.1181843E-002  0.2123200E+03  0.7546771E-02  0.1139742E+00
         21   -1    0    0  502  503  0.00000000000E+00  0.00000000000E+00  0.86880904505E+02  0.86880904505E+02  0.00000000000E+00 0.  1.
          1   -1    0    0  503    0 -0.00000000000E+00 -0.00000000000E+00 -0.43857361162E+03  0.43857361162E+03  0.00000000000E+00 0.  1.
         25    2    1    2    0    0 -0.15965577737E+03  0.62967859900E+02 -0.14654029755E+03  0.25798034956E+03  0.12499953331E+03 0.  0.
          5    1    3    3  501    0 -0.15230733622E+03  0.95499795544E+01 -0.13289240812E+03  0.20235891113E+03  0.10000000000E+00 0.  1.
         -5    1    3    3    0  501 -0.73484411484E+01  0.53417880346E+02 -0.13647889429E+02  0.55621438437E+02  0.10000000000E+00 0.  1.
          1    1    1    2  502    0  0.15965577737E+03 -0.62967859900E+02 -0.20515240956E+03  0.26747416656E+03  0.00000000000E+00 0.  1.
<mgrwt>
<rscale>  1 0.21232005E+03</rscale>
<asrwt>0</asrwt>
<pdfrwt beam="1">  1       21 0.13366293E-01 0.21232005E+03</pdfrwt>
<pdfrwt beam="2">  1        1 0.67472863E-01 0.21232005E+03</pdfrwt>
<totfact> 0.28568926E+04</totfact>
</mgrwt>
</event>
<event>
 6    2  0.1181843E-002  0.1264705E+03  0.7546771E-02  0.1232789E+00
         21   -1    0    0  502  503  0.00000000000E+00  0.00000000000E+00  0.12697080747E+04  0.12697080747E+04  0.00000000000E+00 0.  1.
          2   -1    0    0  503    0 -0.00000000000E+00 -0.00000000000E+00 -0.19899900692E+03  0.19899900692E+03  0.00000000000E+00 0. -1.
         25    2    1    2    0    0 -0.18494233245E+02  0.51154912321E+01  0.12660875903E+04  0.12723885344E+04  0.12500636506E+03 0.  0.
          5    1    3    3  501    0 -0.40436588161E+02 -0.18078501221E+02  0.11755815516E+04  0.11764157191E+04  0.10000000000E+00 0.  1.
         -5    1    3    3    0  501  0.21942354916E+02  0.23193992453E+02  0.90506038746E+02  0.95972815290E+02  0.10000000000E+00 0.  1.
          2    1    1    2  502    0  0.18494233245E+02 -0.51154912321E+01 -0.19537852251E+03  0.19631854720E+03  0.00000000000E+00 0. -1.
<mgrwt>
<rscale>  1 0.12647053E+03</rscale>
<asrwt>0</asrwt>
<pdfrwt beam="1">  1       21 0.19533970E+00 0.12647053E+03</pdfrwt>
<pdfrwt beam="2">  1        2 0.30615233E-01 0.12647053E+03</pdfrwt>
<totfact> 0.32375801E+02</totfact>
</mgrwt>
</event>
<event>
 6    2  0.1181843E-002  0.1267771E+03  0.7546771E-02  0.1232318E+00
         21   -1    0    0  502  503  0.00000000000E+00  0.00000000000E+00  0.81728382302E+02  0.81728382302E+02  0.00000000000E+00 0.  1.
          2   -1    0    0  503    0 -0.00000000000E+00 -0.00000000000E+00 -0.10807644698E+03  0.10807644698E+03  0.00000000000E+00 0.  1.
         25    2    1    2    0    0  0.21152621102E+02 -0.24489458998E+00  0.29431608140E+02  0.13014860368E+03  0.12499978452E+03 0.  0.
          5    1    3    3  501    0  0.54217699233E+02 -0.34695432447E+02 -0.13690243498E+02  0.65808545872E+02  0.10000000000E+00 0. -1.
         -5    1    3    3    0  501 -0.33065078131E+02  0.34450537857E+02  0.43121851639E+02  0.64340057811E+02  0.10000000000E+00 0. -1.
          2    1    1    2  502    0 -0.21152621102E+02  0.24489458998E+00 -0.55779672815E+02  0.59656225595E+02  0.00000000000E+00 0.  1.
<mgrwt>
<rscale>  1 0.12677713E+03</rscale>
<asrwt>0</asrwt>
<pdfrwt beam="1">  1       21 0.12573597E-01 0.12677713E+03</pdfrwt>
<pdfrwt beam="2">  1        2 0.16627146E-01 0.12677713E+03</pdfrwt>
<totfact> 0.22221072E+05</totfact>
</mgrwt>
</event>
<event>
 6    2  0.1181843E-002  0.1591265E+03  0.7546771E-02  0.1189686E+00
         21   -1    0    0  502  503  0.00000000000E+00  0.00000000000E+00  0.55708340466E+02  0.55708340466E+02  0.00000000000E+00 0.  1.
          2   -1    0    0  503    0 -0.00000000000E+00 -0.00000000000E+00 -0.18022008832E+04  0.18022008832E+04  0.00000000000E+00 0.  1.
         25    2    1    2    0    0  0.97956197872E+02 -0.10003011117E+02 -0.62373725389E+02  0.17091436064E+03  0.12500304045E+03 0.  0.
          5    1    3    3  501    0  0.85772936792E+02  0.48176445174E+02 -0.28151614233E+02  0.10232541199E+03  0.10000000000E+00 0.  1.
         -5    1    3    3    0  501  0.12183261080E+02 -0.58179456291E+02 -0.34222111156E+02  0.68588948650E+02  0.10000000000E+00 0.  1.
          2    1    1    2  502    0 -0.97956197872E+02  0.10003011117E+02 -0.16841188174E+04  0.16869948631E+04  0.00000000000E+00 0.  1.
<mgrwt>
<rscale>  1 0.15912648E+03</rscale>
<asrwt>0</asrwt>
<pdfrwt beam="1">  1       21 0.85705146E-02 0.15912648E+03</pdfrwt>
<pdfrwt beam="2">  1        2 0.27726165E+00 0.15912648E+03</pdfrwt>
<totfact> 0.13157477E+04</totfact>
</mgrwt>
</event>
<event>
 6    2  0.1181843E-002  0.1578647E+03  0.7546771E-02  0.1191129E+00
         21   -1    0    0  502  503  0.00000000000E+00  0.00000000000E+00  0.30107858217E+02  0.30107858217E+02  0.00000000000E+00 0. -1.
          2   -1    0    0  503    0 -0.00000000000E+00 -0.00000000000E+00 -0.55164075575E+03  0.55164075575E+03  0.00000000000E+00 0. -1.
         25    2    1    2    0    0 -0.36054658773E+02 -0.89400634905E+02 -0.36842575004E+03  0.40082263310E+03  0.12501535093E+03 0.  0.
          5    1    3    3  501    0 -0.95021864137E+00 -0.80358182102E+02 -0.92534922832E+02  0.12256044341E+03  0.10000000000E+00 0.  1.
         -5    1    3    3    0  501 -0.35104440132E+02 -0.90424528033E+01 -0.27589082721E+03  0.27826218969E+03  0.10000000000E+00 0.  1.
          2    1    1    2  502    0  0.36054658773E+02  0.89400634905E+02 -0.15310714749E+03  0.18092598087E+03  0.00000000000E+00 0. -1.
<mgrwt>
<rscale>  1 0.15786466E+03</rscale>
<asrwt>0</asrwt>
<pdfrwt beam="1">  1       21 0.46319781E-02 0.15786466E+03</pdfrwt>
<pdfrwt beam="2">  1        2 0.84867811E-01 0.15786466E+03</pdfrwt>
<totfact> 0.21250788E+05</totfact>
</mgrwt>
</event>
<event>
 6    2  0.1181843E-002  0.1336130E+03  0.7546771E-02  0.1222191E+00
         21   -1    0    0  502  503  0.00000000000E+00  0.00000000000E+00  0.17184272437E+02  0.17184272437E+02  0.00000000000E+00 0.  1.
          1   -1    0    0  503    0 -0.00000000000E+00 -0.00000000000E+00 -0.59305484548E+03  0.59305484548E+03  0.00000000000E+00 0.  1.
         25    2    1    2    0    0 -0.16853719768E+02  0.44109993489E+02 -0.52094125125E+03  0.53780314765E+03  0.12499079556E+03 0.  0.
          5    1    3    3  501    0  0.48967901138E+02  0.10056094872E+02 -0.31481614836E+03  0.31876040792E+03  0.10000000000E+00 0.  1.
         -5    1    3    3    0  501 -0.65821620906E+02  0.34053898618E+02 -0.20612510289E+03  0.21904273974E+03  0.10000000000E+00 0.  1.
          1    1    1    2  502    0  0.16853719768E+02 -0.44109993489E+02 -0.54929321790E+02  0.72435970263E+02  0.00000000000E+00 0.  1.
<mgrwt>
<rscale>  1 0.13361302E+03</rscale>
<asrwt>0</asrwt>
<pdfrwt beam="1">  1       21 0.26437340E-02 0.13361302E+03</pdfrwt>
<pdfrwt beam="2">  1        1 0.91239213E-01 0.13361302E+03</pdfrwt>
<totfact> 0.30447400E+05</totfact>
</mgrwt>
</event>
<event>
 6    2  0.1181843E-002  0.1435555E+03  0.7546771E-02  0.1208623E+00
         21   -1    0    0  502  503  0.00000000000E+00  0.00000000000E+00  0.19961111964E+03  0.19961111964E+03  0.00000000000E+00 0. -1.
          2   -1    0    0  503    0 -0.00000000000E+00 -0.00000000000E+00 -0.75159516891E+02  0.75159516891E+02  0.00000000000E+00 0.  1.
         25    2    1    2    0    0  0.12435955406E+02  0.69544605425E+02  0.14205805378E+03  0.20196203643E+03  0.12496826952E+03 0.  0.
          5    1    3    3  501    0 -0.22979848016E+02 -0.23707618546E+01 -0.13647884453E+02  0.26832232048E+02  0.10000000000E+00 0. -1.
         -5    1    3    3    0  501  0.35415803422E+02  0.71915367279E+02  0.15570593823E+03  0.17512980438E+03  0.10000000000E+00 0. -1.
          2    1    1    2  502    0 -0.12435955406E+02 -0.69544605425E+02 -0.17606451030E+02  0.72808600099E+02  0.00000000000E+00 0.  1.
<mgrwt>
<rscale>  1 0.14355547E+03</rscale>
<asrwt>0</asrwt>
<pdfrwt beam="1">  1       21 0.30709403E-01 0.14355547E+03</pdfrwt>
<pdfrwt beam="2">  1        2 0.11563003E-01 0.14355547E+03</pdfrwt>
<totfact> 0.65683571E+04</totfact>
</mgrwt>
</event>
<event>
 6    2  0.1181843E-002  0.2100721E+03  0.7546771E-02  0.1141509E+00
         21   -1    0    0  502  503  0.00000000000E+00  0.00000000000E+00  0.70713526404E+02  0.70713526404E+02  0.00000000000E+00 0. -1.
          1   -1    0    0  503    0 -0.00000000000E+00 -0.00000000000E+00 -0.11069062644E+04  0.11069062644E+04  0.00000000000E+00 0. -1.
         25    2    1    2    0    0 -0.15346440874E+03  0.70385897369E+02 -0.97603630547E+03  0.99838727235E+03  0.12499910676E+03 0.  0.
          5    1    3    3  501    0 -0.15059612551E+02  0.31151169707E+02 -0.47461189535E+02  0.58734673034E+02  0.10000000000E+00 0. -1.
         -5    1    3    3    0  501 -0.13840479619E+03  0.39234727662E+02 -0.92857511593E+03  0.93965259931E+03  0.10000000000E+00 0. -1.
          1    1    1    2  502    0  0.15346440874E+03 -0.70385897369E+02 -0.60156432522E+02  0.17923251845E+03  0.00000000000E+00 0. -1.
<mgrwt>
<rscale>  1 0.21007207E+03</rscale>
<asrwt>0</asrwt>
<pdfrwt beam="1">  1       21 0.10879004E-01 0.21007207E+03</pdfrwt>
<pdfrwt beam="2">  1        1 0.17029328E+00 0.21007207E+03</pdfrwt>
<totfact> 0.10451058E+04</totfact>
</mgrwt>
</event>
<event>
 6    2  0.1181843E-002  0.1740084E+03  0.7546771E-02  0.1173731E+00
          1   -1    0    0  503    0 -0.00000000000E+00  0.00000000000E+00  0.16936245701E+04  0.16936245701E+04  0.00000000000E+00 0. -1.
         21   -1    0    0  502  503  0.00000000000E+00 -0.00000000000E+00 -0.17695226395E+02  0.17695226395E+02  0.00000000000E+00 0. -1.
         25    2    1    2    0    0 -0.12073358507E+03  0.97408655119E+01  0.50492362094E+03  0.53406626145E+03  0.12492968268E+03 0.  0.
          5    1    3    3  501    0 -0.98922446304E+02 -0.45725104088E+02  0.38532884106E+03  0.40044320606E+03  0.10000000000E+00 0.  1.
         -5    1    3    3    0  501 -0.21811138764E+02  0.55465969600E+02  0.11959477987E+03  0.13362305538E+03  0.10000000000E+00 0.  1.
          1    1    1    2  502    0  0.12073358507E+03 -0.97408655119E+01  0.11710057228E+04  0.11772535351E+04  0.00000000000E+00 0. -1.
<mgrwt>
<rscale>  1 0.17400836E+03</rscale>
<asrwt>0</asrwt>
<pdfrwt beam="1">  1       21 0.27223438E-02 0.17400836E+03</pdfrwt>
<pdfrwt beam="2">  1        1 0.26055750E+00 0.17400836E+03</pdfrwt>
<totfact> 0.45328680E+04</totfact>
</mgrwt>
</event>
<event>
 6    2  0.1181843E-002  0.1409741E+03  0.7546771E-02  0.1212024E+00
          1   -1    0    0  503    0 -0.00000000000E+00  0.00000000000E+00  0.85450238686E+03  0.85450238686E+03  0.00000000000E+00 0.  1.
         21   -1    0    0  502  503  0.00000000000E+00 -0.00000000000E+00 -0.60921046656E+02  0.60921046656E+02  0.00000000000E+00 0. -1.
         25    2    1    2    0    0 -0.31128029355E+02 -0.57266816254E+02  0.23898280062E+02  0.14298543890E+03  0.12500106196E+03 0.  0.
          5    1    3    3  501    0  0.29871080784E+02 -0.28142791676E+02  0.54962160194E+02  0.68594075865E+02  0.10000000000E+00 0.  1.
         -5    1    3    3    0  501 -0.60999110139E+02 -0.29124024578E+02 -0.31063880133E+02  0.74391363036E+02  0.10000000000E+00 0.  1.
          1    1    1    2  502    0  0.31128029355E+02  0.57266816254E+02  0.76968306014E+03  0.77243799462E+03  0.00000000000E+00 0.  1.
<mgrwt>
<rscale>  1 0.14097414E+03</rscale>
<asrwt>0</asrwt>
<pdfrwt beam="1">  1       21 0.93724693E-02 0.14097414E+03</pdfrwt>
<pdfrwt beam="2">  1        1 0.13146190E+00 0.14097414E+03</pdfrwt>
<totfact> 0.21338392E+04</totfact>
</mgrwt>
</event>
<event>
 6    2  0.1181843E-002  0.1693665E+03  0.7546771E-02  0.1178510E+00
          1   -1    0    0  503    0 -0.00000000000E+00  0.00000000000E+00  0.51412435145E+03  0.51412435145E+03  0.00000000000E+00 0. -1.
         21   -1    0    0  502  503  0.00000000000E+00 -0.00000000000E+00 -0.15824894360E+03  0.15824894360E+03  0.00000000000E+00 0. -1.
         25    2    1    2    0    0 -0.10098005691E+03  0.53500773146E+02 -0.10384142760E+03  0.19866571286E+03  0.12500287501E+03 0.  0.
          5    1    3    3  501    0  0.74709870912E+01  0.12783548648E+02 -0.78758853197E+02  0.80138640624E+02  0.10000000000E+00 0.  1.
         -5    1    3    3    0  501 -0.10845104400E+03  0.40717224498E+02 -0.25082574404E+02  0.11852707224E+03  0.10000000000E+00 0.  1.
          1    1    1    2  502    0  0.10098005691E+03 -0.53500773146E+02  0.45971683545E+03  0.47370758218E+03  0.00000000000E+00 0. -1.
<mgrwt>
<rscale>  1 0.16936654E+03</rscale>
<asrwt>0</asrwt>
<pdfrwt beam="1">  1       21 0.24345992E-01 0.16936654E+03</pdfrwt>
<pdfrwt beam="2">  1        1 0.79096053E-01 0.16936654E+03</pdfrwt>
<totfact> 0.77107366E+03</totfact>
</mgrwt>
</event>
<event>
 6    2  0.1181843E-002  0.1546488E+03  0.7546771E-02  0.1194874E+00
          2   -1    0    0  503    0 -0.00000000000E+00  0.00000000000E+00  0.57646204715E+02  0.57646204715E+02  0.00000000000E+00 0. -1.
         21   -1    0    0  502  503  0.00000000000E+00 -0.00000000000E+00 -0.27639404498E+03  0.27639404498E+03  0.00000000000E+00 0.  1.
         25    2    1    2    0    0 -0.80177139201E+02  0.43135627978E+02 -0.17334449321E+03  0.23230274444E+03  0.12500878248E+03 0.  0.
          5    1    3    3  501    0 -0.11197572693E+03  0.26809182539E+02 -0.10823076230E+03  0.15802279455E+03  0.10000000000E+00 0.  1.
         -5    1    3    3    0  501  0.31798587729E+02  0.16326445438E+02 -0.65113730915E+02  0.74279949892E+02  0.10000000000E+00 0.  1.
          2    1    1    2  502    0  0.80177139201E+02 -0.43135627978E+02 -0.45403347050E+02  0.10173750525E+03  0.00000000000E+00 0. -1.
<mgrwt>
<rscale>  1 0.15464880E+03</rscale>
<asrwt>0</asrwt>
<pdfrwt beam="1">  1       21 0.42522160E-01 0.15464880E+03</pdfrwt>
<pdfrwt beam="2">  1        2 0.88686471E-02 0.15464880E+03</pdfrwt>
<totfact> 0.47824739E+04</totfact>
</mgrwt>
</event>
<event>
 6    2  0.1181843E-002  0.1369123E+03  0.7546771E-02  0.1217545E+00
          1   -1    0    0  503    0 -0.00000000000E+00  0.00000000000E+00  0.27802095594E+04  0.27802095594E+04  0.00000000000E+00 0. -1.
         21   -1    0    0  502  503  0.00000000000E+00 -0.00000000000E+00 -0.45556252390E+02  0.45556252390E+02  0.00000000000E+00 0.  1.
         25    2    1    2    0    0 -0.29819108637E+02 -0.47254125960E+02  0.58265291079E+02  0.14879458604E+03  0.12499141183E+03 0.  0.
          5    1    3    3  501    0  0.22928256219E+02 -0.41447938371E+02 -0.22275426670E+02  0.52343492067E+02  0.10000000000E+00 0.  1.
         -5    1    3    3    0  501 -0.52747364855E+02 -0.58061875887E+01  0.80540717749E+02  0.96451093975E+02  0.10000000000E+00 0.  1.
          1    1    1    2  502    0  0.29819108637E+02  0.47254125960E+02  0.26763880160E+04  0.26769712258E+04  0.00000000000E+00 0. -1.
<mgrwt>
<rscale>  1 0.13691232E+03</rscale>
<asrwt>0</asrwt>
<pdfrwt beam="1">  1       21 0.70086564E-02 0.13691232E+03</pdfrwt>
<pdfrwt beam="2">  1        1 0.42772441E+00 0.13691232E+03</pdfrwt>
<totfact> 0.18674124E+03</totfact>
</mgrwt>
</event>
<event>
 6    2  0.1181843E-002  0.1259558E+03  0.7546771E-02  0.1233583E+00
          2   -1    0    0  503    0 -0.00000000000E+00  0.00000000000E+00  0.14567010290E+03  0.14567010290E+03  0.00000000000E+00 0. -1.
         21   -1    0    0  502  503  0.00000000000E+00 -0.00000000000E+00 -0.16434293523E+03  0.16434293523E+03  0.00000000000E+00 0. -1.
         25    2    1    2    0    0  0.45188520551E+01 -0.14837281522E+02 -0.13964108083E+03  0.18805451202E+03  0.12499721232E+03 0.  0.
          5    1    3    3  501    0  0.33113177266E+01  0.37888907920E+02  0.79503851151E+00  0.38041769868E+02  0.10000000000E+00 0.  1.
         -5    1    3    3    0  501  0.12075343285E+01 -0.52726189442E+02 -0.14043611934E+03  0.15001274215E+03  0.10000000000E+00 0.  1.
          2    1    1    2  502    0 -0.45188520551E+01  0.14837281522E+02  0.12096824849E+03  0.12195852611E+03  0.00000000000E+00 0. -1.
<mgrwt>
<rscale>  1 0.12595582E+03</rscale>
<asrwt>0</asrwt>
<pdfrwt beam="1">  1       21 0.25283528E-01 0.12595582E+03</pdfrwt>
<pdfrwt beam="2">  1        2 0.22410785E-01 0.12595582E+03</pdfrwt>
<totfact> 0.44103728E+04</totfact>
</mgrwt>
</event>
<event>
 6    2  0.1181843E-002  0.1260659E+03  0.7546771E-02  0.1233413E+00
         21   -1    0    0  502  503  0.00000000000E+00  0.00000000000E+00  0.37723788950E+01  0.37723788950E+01  0.00000000000E+00 0.  1.
          2   -1    0    0  503    0 -0.00000000000E+00 -0.00000000000E+00 -0.14004522993E+04  0.14004522993E+04  0.00000000000E+00 0.  1.
         25    2    1    2    0    0  0.50013473934E+01  0.15566153035E+02 -0.13070691506E+04  0.13131345654E+04  0.12500121450E+03 0.  0.
          5    1    3    3  501    0  0.41629015448E+01  0.44164636917E+02 -0.12319940971E+04  0.12327924847E+04  0.10000000000E+00 0. -1.
         -5    1    3    3    0  501  0.83844584851E+00 -0.28598483882E+02 -0.75075053524E+02  0.80342080714E+02  0.10000000000E+00 0. -1.
          2    1    1    2  502    0 -0.50013473934E+01 -0.15566153035E+02 -0.89610769757E+02  0.91090112815E+02  0.00000000000E+00 0.  1.
<mgrwt>
<rscale>  1 0.12606594E+03</rscale>
<asrwt>0</asrwt>
<pdfrwt beam="1">  1       21 0.58036599E-03 0.12606594E+03</pdfrwt>
<pdfrwt beam="2">  1        2 0.21545420E+00 0.12606594E+03</pdfrwt>
<totfact> 0.17131086E+06</totfact>
</mgrwt>
</event>
<event>
 6    2  0.1181843E-002  0.1316128E+03  0.7546771E-02  0.1225082E+00
          2   -1    0    0  503    0 -0.00000000000E+00  0.00000000000E+00  0.17313535768E+03  0.17313535768E+03  0.00000000000E+00 0. -1.
         21   -1    0    0  502  503  0.00000000000E+00 -0.00000000000E+00 -0.25489096219E+03  0.25489096219E+03  0.00000000000E+00 0. -1.
         25    2    1    2    0    0 -0.39176565633E+02 -0.12792963546E+02 -0.23499543960E+03  0.26934137959E+03  0.12499383551E+03 0.  0.
          5    1    3    3  501    0  0.19649482234E+01 -0.65021892786E+02 -0.11169248524E+03  0.12925528547E+03  0.10000000000E+00 0. -1.
         -5    1    3    3    0  501 -0.41141513857E+02  0.52228929240E+02 -0.12330295436E+03  0.14008609412E+03  0.10000000000E+00 0. -1.
          2    1    1    2  502    0  0.39176565633E+02  0.12792963546E+02  0.15323983510E+03  0.15868494028E+03  0.00000000000E+00 0. -1.
<mgrwt>
<rscale>  1 0.13161277E+03</rscale>
<asrwt>0</asrwt>
<pdfrwt beam="1">  1       21 0.39213994E-01 0.13161277E+03</pdfrwt>
<pdfrwt beam="2">  1        2 0.26636209E-01 0.13161277E+03</pdfrwt>
<totfact> 0.15552622E+04</totfact>
</mgrwt>
</event>
<event>
 6    2  0.1181843E-002  0.1262869E+03  0.7546771E-02  0.1233072E+00
          2   -1    0    0  503    0 -0.00000000000E+00  0.00000000000E+00  0.11665972704E+04  0.11665972704E+04  0.00000000000E+00 0. -1.
         21   -1    0    0  502  503  0.00000000000E+00 -0.00000000000E+00 -0.93136177711E+01  0.93136177711E+01  0.00000000000E+00 0. -1.
         25    2    1    2    0    0  0.65449445311E+01  0.16690263439E+02  0.42398456301E+03  0.44239268388E+03  0.12500790329E+03 0.  0.
          5    1    3    3  501    0 -0.97361903331E+01 -0.53396157112E+01  0.41256477754E+03  0.41271419962E+03  0.10000000000E+00 0. -1.
         -5    1    3    3    0  501  0.16281134864E+02  0.22029879150E+02  0.11419785468E+02  0.29678484260E+02  0.10000000000E+00 0. -1.
          2    1    1    2  502    0 -0.65449445311E+01 -0.16690263439E+02  0.73329908960E+03  0.73351820427E+03  0.00000000000E+00 0. -1.
<mgrwt>
<rscale>  1 0.12628688E+03</rscale>
<asrwt>0</asrwt>
<pdfrwt beam="1">  1       21 0.14328652E-02 0.12628688E+03</pdfrwt>
<pdfrwt beam="2">  1        2 0.17947639E+00 0.12628688E+03</pdfrwt>
<totfact> 0.55406318E+05</totfact>
</mgrwt>
</event>
<event>
 6    2  0.1181843E-002  0.1339527E+03  0.7546771E-02  0.1221706E+00
         21   -1    0    0  502  503  0.00000000000E+00  0.00000000000E+00  0.11571077760E+03  0.11571077760E+03  0.00000000000E+00 0. -1.
          1   -1    0    0  503    0 -0.00000000000E+00 -0.00000000000E+00 -0.15943099182E+03  0.15943099182E+03  0.00000000000E+00 0.  1.
         25    2    1    2    0    0  0.43468391782E+02 -0.20737215156E+02  0.70363430337E+02  0.15130877247E+03  0.12499519639E+03 0.  0.
          5    1    3    3  501    0  0.24289462658E+02  0.35225956794E+02 -0.16797642175E+02  0.45967562594E+02  0.10000000000E+00 0. -1.
         -5    1    3    3    0  501  0.19178929125E+02 -0.55963171950E+02  0.87161072512E+02  0.10534120988E+03  0.10000000000E+00 0. -1.
          1    1    1    2  502    0 -0.43468391782E+02  0.20737215156E+02 -0.11408364456E+03  0.12383299694E+03  0.00000000000E+00 0.  1.
<mgrwt>
<rscale>  1 0.13395272E+03</rscale>
<asrwt>0</asrwt>
<pdfrwt beam="1">  1       21 0.17801658E-01 0.13395272E+03</pdfrwt>
<pdfrwt beam="2">  1        1 0.24527845E-01 0.13395272E+03</pdfrwt>
<totfact> 0.60305328E+04</totfact>
</mgrwt>
</event>
<event>
 6    2  0.1181843E-002  0.1267670E+03  0.7546771E-02  0.1232333E+00
          2   -1    0    0  503    0 -0.00000000000E+00  0.00000000000E+00  0.18252746049E+03  0.18252746049E+03  0.00000000000E+00 0.  1.
         21   -1    0    0  502  503  0.00000000000E+00 -0.00000000000E+00 -0.50057958169E+03  0.50057958169E+03  0.00000000000E+00 0. -1.
         25    2    1    2    0    0 -0.57621120577E+01  0.20240592905E+02 -0.49190922816E+03  0.50798086716E+03  0.12500795622E+03 0.  0.
          5    1    3    3  501    0 -0.34371230089E+02  0.61325698733E+02 -0.36190361359E+03  0.36866849379E+03  0.10000000000E+00 0.  1.
         -5    1    3    3    0  501  0.28609118031E+02 -0.41085105828E+02 -0.13000561457E+03  0.13931237338E+03  0.10000000000E+00 0.  1.
          2    1    1    2  502    0  0.57621120577E+01 -0.20240592905E+02  0.17385710696E+03  0.17512617502E+03  0.00000000000E+00 0.  1.
<mgrwt>
<rscale>  1 0.12676700E+03</rscale>
<asrwt>0</asrwt>
<pdfrwt beam="1">  1       21 0.77012243E-01 0.12676700E+03</pdfrwt>
<pdfrwt beam="2">  1        2 0.28081148E-01 0.12676700E+03</pdfrwt>
<totfact> 0.35680667E+03</totfact>
</mgrwt>
</event>
<event>
 6    2  0.1181843E-002  0.1386495E+03  0.7546771E-02  0.1215158E+00
         21   -1    0    0  502  503  0.00000000000E+00  0.00000000000E+00  0.88405546789E+01  0.88405546789E+01  0.00000000000E+00 0. -1.
          1   -1    0    0  503    0 -0.00000000000E+00 -0.00000000000E+00 -0.11938648211E+04  0.11938648211E+04  0.00000000000E+00 0. -1.
         25    2    1    2    0    0 -0.50534905095E+02  0.32282850205E+02 -0.66956130997E+03  0.68376605513E+03  0.12501084464E+03 0.  0.
          5    1    3    3  501    0 -0.84678256339E+02 -0.89017297641E+01 -0.40776534854E+03  0.41656000451E+03  0.10000000000E+00 0.  1.
         -5    1    3    3    0  501  0.34143351244E+02  0.41184579970E+02 -0.26179596144E+03  0.26720605062E+03  0.10000000000E+00 0.  1.
          1    1    1    2  502    0  0.50534905095E+02 -0.32282850205E+02 -0.51546295642E+03  0.51893932063E+03  0.00000000000E+00 0. -1.
<mgrwt>
<rscale>  1 0.13864945E+03</rscale>
<asrwt>0</asrwt>
<pdfrwt beam="1">  1       21 0.13600862E-02 0.13864945E+03</pdfrwt>
<pdfrwt beam="2">  1        1 0.18367140E+00 0.13864945E+03</pdfrwt>
<totfact> 0.29744908E+05</totfact>
</mgrwt>
</event>
<event>
 6    2  0.1181843E-002  0.1264499E+03  0.7546771E-02  0.1232821E+00
         21   -1    0    0  502  503  0.00000000000E+00  0.00000000000E+00  0.26724049906E+02  0.26724049906E+02  0.00000000000E+00 0. -1.
          2   -1    0    0  503    0 -0.00000000000E+00 -0.00000000000E+00 -0.39770460407E+03  0.39770460407E+03  0.00000000000E+00 0. -1.
         25    2    1    2    0    0  0.42685605952E+01 -0.18313293683E+02 -0.12525366288E+03  0.17798332042E+03  0.12504393206E+03 0.  0.
          5    1    3    3  501    0 -0.40119017231E+02  0.32907785625E+02 -0.26652841918E+02  0.58333882784E+02  0.10000000000E+00 0. -1.
         -5    1    3    3    0  501  0.44387577826E+02 -0.51221079307E+02 -0.98600820964E+02  0.11964943763E+03  0.10000000000E+00 0. -1.
          2    1    1    2  502    0 -0.42685605952E+01  0.18313293683E+02 -0.24572689128E+03  0.24644533356E+03  0.00000000000E+00 0. -1.
<mgrwt>
<rscale>  1 0.12644992E+03</rscale>
<asrwt>0</asrwt>
<pdfrwt beam="1">  1       21 0.41113925E-02 0.12644992E+03</pdfrwt>
<pdfrwt beam="2">  1        2 0.61185320E-01 0.12644992E+03</pdfrwt>
<totfact> 0.36659770E+05</totfact>
</mgrwt>
</event>
<event>
 6    2  0.1181843E-002  0.1262139E+03  0.7546771E-02  0.1233184E+00
         21   -1    0    0  502  503  0.00000000000E+00  0.00000000000E+00  0.20417475479E+02  0.20417475479E+02  0.00000000000E+00 0. -1.
          1   -1    0    0  503    0 -0.00000000000E+00 -0.00000000000E+00 -0.26613382463E+03  0.26613382463E+03  0.00000000000E+00 0. -1.
         25    2    1    2    0    0  0.63568280236E+01 -0.16260543376E+02 -0.23287397717E+03  0.26487778974E+03  0.12500055890E+03 0.  0.
          5    1    3    3  501    0 -0.90055998754E+01  0.53766817679E+02 -0.99386299632E+02  0.11335615584E+03  0.10000000000E+00 0.  1.
         -5    1    3    3    0  501  0.15362427899E+02 -0.70027361056E+02 -0.13348767753E+03  0.15152163390E+03  0.10000000000E+00 0.  1.
          1    1    1    2  502    0 -0.63568280236E+01  0.16260543376E+02 -0.12842371988E+02  0.21673510368E+02  0.00000000000E+00 0. -1.
<mgrwt>
<rscale>  1 0.12621392E+03</rscale>
<asrwt>0</asrwt>
<pdfrwt beam="1">  1       21 0.31411499E-02 0.12621392E+03</pdfrwt>
<pdfrwt beam="2">  1        1 0.40943668E-01 0.12621392E+03</pdfrwt>
<totfact> 0.63290064E+05</totfact>
</mgrwt>
</event>
<event>
 6    2  0.1181843E-002  0.1263437E+03  0.7546771E-02  0.1232984E+00
         21   -1    0    0  502  503  0.00000000000E+00  0.00000000000E+00  0.62641271277E+03  0.62641271277E+03  0.00000000000E+00 0. -1.
          1   -1    0    0  503    0 -0.00000000000E+00 -0.00000000000E+00 -0.13014721681E+02  0.13014721681E+02  0.00000000000E+00 0.  1.
         25    2    1    2    0    0 -0.15361749801E+02  0.10096732896E+02  0.60692848311E+03  0.61993944056E+03  0.12499919595E+03 0.  0.
          5    1    3    3  501    0  0.41423654654E+02 -0.20314101307E+02  0.41352324726E+03  0.41608901439E+03  0.10000000000E+00 0.  1.
         -5    1    3    3    0  501 -0.56785404454E+02  0.30410834203E+02  0.19340523585E+03  0.20385042617E+03  0.10000000000E+00 0.  1.
          1    1    1    2  502    0  0.15361749801E+02 -0.10096732896E+02  0.64695079800E+01  0.19487993884E+02  0.00000000000E+00 0.  1.
<mgrwt>
<rscale>  1 0.12634368E+03</rscale>
<asrwt>0</asrwt>
<pdfrwt beam="1">  1       21 0.96371163E-01 0.12634368E+03</pdfrwt>
<pdfrwt beam="2">  1        1 0.20022654E-02 0.12634368E+03</pdfrwt>
<totfact> 0.55837122E+04</totfact>
</mgrwt>
</event>
<event>
 6    2  0.1181843E-002  0.1367038E+03  0.7546771E-02  0.1217834E+00
          2   -1    0    0  503    0 -0.00000000000E+00  0.00000000000E+00  0.31419787847E+04  0.31419787847E+04  0.00000000000E+00 0. -1.
         21   -1    0    0  502  503  0.00000000000E+00 -0.00000000000E+00 -0.13006096345E+02  0.13006096345E+02  0.00000000000E+00 0.  1.
         25    2    1    2    0    0 -0.15546652927E+02  0.53118235027E+02  0.35427215331E+03  0.37973240524E+03  0.12499878265E+03 0.  0.
          5    1    3    3  501    0 -0.50245763922E+02  0.78849175467E+02  0.24414963854E+03  0.26144002231E+03  0.10000000000E+00 0. -1.
         -5    1    3    3    0  501  0.34699110994E+02 -0.25730940440E+02  0.11012251477E+03  0.11829238293E+03  0.10000000000E+00 0. -1.
          2    1    1    2  502    0  0.15546652927E+02 -0.53118235027E+02  0.27747005350E+04  0.27752524758E+04  0.00000000000E+00 0. -1.
<mgrwt>
<rscale>  1 0.13670384E+03</rscale>
<asrwt>0</asrwt>
<pdfrwt beam="1">  1       21 0.20009404E-02 0.13670384E+03</pdfrwt>
<pdfrwt beam="2">  1        2 0.48338075E+00 0.13670384E+03</pdfrwt>
<totfact> 0.28547003E+04</totfact>
</mgrwt>
</event>
<event>
 6    2  0.1181843E-002  0.1280136E+03  0.7546771E-02  0.1230433E+00
         21   -1    0    0  502  503  0.00000000000E+00  0.00000000000E+00  0.74210575059E+02  0.74210575059E+02  0.00000000000E+00 0.  1.
          2   -1    0    0  503    0 -0.00000000000E+00 -0.00000000000E+00 -0.56985208570E+03  0.56985208570E+03  0.00000000000E+00 0. -1.
         25    2    1    2    0    0  0.25140165044E+02  0.11431774244E+02  0.18356706307E+02  0.12932303688E+03  0.12499906336E+03 0.  0.
          5    1    3    3  501    0  0.56124042824E+02  0.34699046198E+02 -0.25554970495E+02  0.70760147731E+02  0.10000000000E+00 0. -1.
         -5    1    3    3    0  501 -0.30983877780E+02 -0.23267271954E+02  0.43911676802E+02  0.58562889154E+02  0.10000000000E+00 0. -1.
          2    1    1    2  502    0 -0.25140165044E+02 -0.11431774244E+02 -0.51399821695E+03  0.51473962388E+03  0.00000000000E+00 0. -1.
<mgrwt>
<rscale>  1 0.12801359E+03</rscale>
<asrwt>0</asrwt>
<pdfrwt beam="1">  1       21 0.11417012E-01 0.12801359E+03</pdfrwt>
<pdfrwt beam="2">  1        2 0.87669550E-01 0.12801359E+03</pdfrwt>
<totfact> 0.43230365E+04</totfact>
</mgrwt>
</event>
<event>
 6    2  0.1181843E-002  0.1266437E+03  0.7546771E-02  0.1232523E+00
          3   -1    0    0  503    0 -0.00000000000E+00  0.00000000000E+00  0.45696794742E+02  0.45696794742E+02  0.00000000000E+00 0. -1.
         21   -1    0    0  502  503  0.00000000000E+00 -0.00000000000E+00 -0.38704551435E+03  0.38704551435E+03  0.00000000000E+00 0. -1.
         25    2    1    2    0    0 -0.92109150662E+00 -0.20313486945E+02 -0.37367494130E+03  0.39455237887E+03  0.12500052705E+03 0.  0.
          5    1    3    3  501    0  0.44810331485E+02  0.32945778863E+02 -0.18781388154E+03  0.19587611966E+03  0.10000000000E+00 0.  1.
         -5    1    3    3    0  501 -0.45731422992E+02 -0.53259265808E+02 -0.18586105975E+03  0.19867625921E+03  0.10000000000E+00 0.  1.
          3    1    1    2  502    0  0.92109150662E+00  0.20313486945E+02  0.32326221687E+02  0.38189930217E+02  0.00000000000E+00 0. -1.
<mgrwt>
<rscale>  1 0.12664367E+03</rscale>
<asrwt>0</asrwt>
<pdfrwt beam="1">  1       21 0.59545463E-01 0.12664367E+03</pdfrwt>
<pdfrwt beam="2">  1        3 0.70302762E-02 0.12664367E+03</pdfrwt>
<totfact> 0.16721825E+04</totfact>
</mgrwt>
</event>
<event>
 6    2  0.1181843E-002  0.1264093E+03  0.7546771E-02  0.1232883E+00
          1   -1    0    0  503    0 -0.00000000000E+00  0.00000000000E+00  0.82370493483E+03  0.82370493483E+03  0.00000000000E+00 0.  1.
         21   -1    0    0  502  503  0.00000000000E+00 -0.00000000000E+00 -0.46158556811E+02  0.46158556811E+02  0.00000000000E+00 0. -1.
         25    2    1    2    0    0 -0.27616015352E+01  0.18497773894E+02  0.40728882193E+02  0.13280866584E+03  0.12501802188E+03 0.  0.
          5    1    3    3  501    0  0.23926626622E+02 -0.43276823742E+02 -0.75015157078E+01  0.50016494006E+02  0.10000000000E+00 0.  1.
         -5    1    3    3    0  501 -0.26688228157E+02  0.61774597636E+02  0.48230397900E+02  0.82792171833E+02  0.10000000000E+00 0.  1.
          1    1    1    2  502    0  0.27616015352E+01 -0.18497773894E+02  0.73681749583E+03  0.73705482581E+03  0.00000000000E+00 0.  1.
<mgrwt>
<rscale>  1 0.12640926E+03</rscale>
<asrwt>0</asrwt>
<pdfrwt beam="1">  1       21 0.71013170E-02 0.12640926E+03</pdfrwt>
<pdfrwt beam="2">  1        1 0.12672383E+00 0.12640926E+03</pdfrwt>
<totfact> 0.36526045E+04</totfact>
</mgrwt>
</event>
<event>
 6    2  0.1181843E-002  0.1271067E+03  0.7546771E-02  0.1231813E+00
          1   -1    0    0  503    0 -0.00000000000E+00  0.00000000000E+00  0.60018637522E+03  0.60018637522E+03  0.00000000000E+00 0. -1.
         21   -1    0    0  502  503  0.00000000000E+00 -0.00000000000E+00 -0.35492725657E+03  0.35492725657E+03  0.00000000000E+00 0. -1.
         25    2    1    2    0    0  0.18771063510E+02  0.13389857566E+02 -0.34331440587E+03  0.36608864515E+03  0.12499789487E+03 0.  0.
          5    1    3    3  501    0  0.23705411883E+02  0.67733057382E+02 -0.17469730659E+03  0.18886204633E+03  0.10000000000E+00 0.  1.
         -5    1    3    3    0  501 -0.49343483730E+01 -0.54343199816E+02 -0.16861709928E+03  0.17722659882E+03  0.10000000000E+00 0.  1.
          1    1    1    2  502    0 -0.18771063510E+02 -0.13389857566E+02  0.58857352452E+03  0.58902498663E+03  0.00000000000E+00 0. -1.
<mgrwt>
<rscale>  1 0.12710671E+03</rscale>
<asrwt>0</asrwt>
<pdfrwt beam="1">  1       21 0.54604193E-01 0.12710671E+03</pdfrwt>
<pdfrwt beam="2">  1        1 0.92336366E-01 0.12710671E+03</pdfrwt>
<totfact> 0.12843319E+03</totfact>
</mgrwt>
</event>
<event>
 6    2  0.1181843E-002  0.1262928E+03  0.7546771E-02  0.1233063E+00
         21   -1    0    0  502  503  0.00000000000E+00  0.00000000000E+00  0.20373937150E+03  0.20373937150E+03  0.00000000000E+00 0.  1.
          2   -1    0    0  503    0 -0.00000000000E+00 -0.00000000000E+00 -0.73765561390E+03  0.73765561390E+03  0.00000000000E+00 0.  1.
         25    2    1    2    0    0 -0.12083505394E+02  0.13345628117E+02  0.18404426494E+03  0.22320879297E+03  0.12500302760E+03 0.  0.
          5    1    3    3  501    0 -0.42653818691E+02  0.38036012060E+02  0.30627434810E+02  0.64839310803E+02  0.10000000000E+00 0.  1.
         -5    1    3    3    0  501  0.30570313297E+02 -0.24690383943E+02  0.15341683013E+03  0.15836948216E+03  0.10000000000E+00 0.  1.
          2    1    1    2  502    0  0.12083505394E+02 -0.13345628117E+02 -0.71796050734E+03  0.71818619243E+03  0.00000000000E+00 0.  1.
<mgrwt>
<rscale>  1 0.12629281E+03</rscale>
<asrwt>0</asrwt>
<pdfrwt beam="1">  1       21 0.31344519E-01 0.12629281E+03</pdfrwt>
<pdfrwt beam="2">  1        2 0.11348548E+00 0.12629281E+03</pdfrwt>
<totfact> 0.49864268E+03</totfact>
</mgrwt>
</event>
<event>
 6    2  0.1181843E-002  0.1821627E+03  0.7546771E-02  0.1165726E+00
         21   -1    0    0  502  503  0.00000000000E+00  0.00000000000E+00  0.21185334456E+03  0.21185334456E+03  0.00000000000E+00 0.  1.
          1   -1    0    0  503    0 -0.00000000000E+00 -0.00000000000E+00 -0.32698096854E+03  0.32698096854E+03  0.00000000000E+00 0. -1.
         25    2    1    2    0    0 -0.89928420942E+02  0.97316778320E+02  0.15420719424E+03  0.23866949081E+03  0.12500236339E+03 0.  0.
          5    1    3    3  501    0 -0.12552969134E+02 -0.29016197634E+02  0.43277814576E+02  0.53595671408E+02  0.10000000000E+00 0.  1.
         -5    1    3    3    0  501 -0.77375451807E+02  0.12633297595E+03  0.11092937967E+03  0.18507381941E+03  0.10000000000E+00 0.  1.
          1    1    1    2  502    0  0.89928420942E+02 -0.97316778320E+02 -0.26933481822E+03  0.30016482229E+03  0.00000000000E+00 0. -1.
<mgrwt>
<rscale>  1 0.18216275E+03</rscale>
<asrwt>0</asrwt>
<pdfrwt beam="1">  1       21 0.32592822E-01 0.18216275E+03</pdfrwt>
<pdfrwt beam="2">  1        1 0.50304764E-01 0.18216275E+03</pdfrwt>
<totfact> 0.78087501E+03</totfact>
</mgrwt>
</event>
<event>
 6    2  0.1181843E-002  0.1318451E+03  0.7546771E-02  0.1224743E+00
          1   -1    0    0  503    0 -0.00000000000E+00  0.00000000000E+00  0.27752030118E+02  0.27752030118E+02  0.00000000000E+00 0. -1.
         21   -1    0    0  502  503  0.00000000000E+00 -0.00000000000E+00 -0.91691957621E+03  0.91691957621E+03  0.00000000000E+00 0.  1.
         25    2    1    2    0    0 -0.38765543529E+02  0.15879220775E+02 -0.89292997614E+03  0.90261125804E+03  0.12501289473E+03 0.  0.
          5    1    3    3  501    0 -0.69546546719E+02 -0.12996711026E+02 -0.75652330568E+03  0.75982442623E+03  0.10000000000E+00 0.  1.
         -5    1    3    3    0  501  0.30781003190E+02  0.28875931801E+02 -0.13640667045E+03  0.14278683181E+03  0.10000000000E+00 0.  1.
          1    1    1    2  502    0  0.38765543529E+02 -0.15879220775E+02  0.37624300481E+01  0.42060348279E+02  0.00000000000E+00 0. -1.
<mgrwt>
<rscale>  1 0.13184514E+03</rscale>
<asrwt>0</asrwt>
<pdfrwt beam="1">  1       21 0.14106456E+00 0.13184514E+03</pdfrwt>
<pdfrwt beam="2">  1        1 0.42695428E-02 0.13184514E+03</pdfrwt>
<totfact> 0.77705042E+03</totfact>
</mgrwt>
</event>
<event>
 6    2  0.1181843E-002  0.1259211E+03  0.7546771E-02  0.1233637E+00
          3   -1    0    0  503    0 -0.00000000000E+00  0.00000000000E+00  0.92494630177E+02  0.92494630177E+02  0.00000000000E+00 0.  1.
         21   -1    0    0  502  503  0.00000000000E+00 -0.00000000000E+00 -0.81084157428E+03  0.81084157428E+03  0.00000000000E+00 0. -1.
         25    2    1    2    0    0 -0.15068172241E+02 -0.19374769284E+01 -0.80529014196E+03  0.81507566239E+03  0.12500127620E+03 0.  0.
          5    1    3    3  501    0 -0.34050012264E+02  0.55543477051E+02 -0.39238970289E+03  0.39776144875E+03  0.10000000000E+00 0.  1.
         -5    1    3    3    0  501  0.18981840023E+02 -0.57480953979E+02 -0.41290043907E+03  0.41731421364E+03  0.10000000000E+00 0.  1.
          3    1    1    2  502    0  0.15068172241E+02  0.19374769284E+01  0.86943197860E+02  0.88260542065E+02  0.00000000000E+00 0.  1.
<mgrwt>
<rscale>  1 0.12592110E+03</rscale>
<asrwt>0</asrwt>
<pdfrwt beam="1">  1       21 0.12474485E+00 0.12592110E+03</pdfrwt>
<pdfrwt beam="2">  1        3 0.14229943E-01 0.12592110E+03</pdfrwt>
<totfact> 0.97076515E+02</totfact>
</mgrwt>
</event>
<event>
 6    2  0.1181843E-002  0.1272315E+03  0.7546771E-02  0.1231623E+00
          2   -1    0    0  503    0 -0.00000000000E+00  0.00000000000E+00  0.13785501971E+03  0.13785501971E+03  0.00000000000E+00 0. -1.
         21   -1    0    0  502  503  0.00000000000E+00 -0.00000000000E+00 -0.18919922479E+03  0.18919922479E+03  0.00000000000E+00 0. -1.
         25    2    1    2    0    0 -0.13086513561E+02 -0.19765921813E+02 -0.16646418462E+03  0.20951889580E+03  0.12500357769E+03 0.  0.
          5    1    3    3  501    0  0.24551308297E+02 -0.36948856775E+02 -0.71683498847E+01  0.44937512126E+02  0.10000000000E+00 0.  1.
         -5    1    3    3    0  501 -0.37637821857E+02  0.17182934962E+02 -0.15929583474E+03  0.16458138368E+03  0.10000000000E+00 0.  1.
          2    1    1    2  502    0  0.13086513561E+02  0.19765921813E+02  0.11511997954E+03  0.11753534869E+03  0.00000000000E+00 0. -1.
<mgrwt>
<rscale>  1 0.12723145E+03</rscale>
<asrwt>0</asrwt>
<pdfrwt beam="1">  1       21 0.29107573E-01 0.12723145E+03</pdfrwt>
<pdfrwt beam="2">  1        2 0.21208465E-01 0.12723145E+03</pdfrwt>
<totfact> 0.35867721E+04</totfact>
</mgrwt>
</event>
<event>
 6    2  0.1181843E-002  0.1349097E+03  0.7546771E-02  0.1220347E+00
          1   -1    0    0  503    0 -0.00000000000E+00  0.00000000000E+00  0.22434773895E+03  0.22434773895E+03  0.00000000000E+00 0.  1.
         21   -1    0    0  502  503  0.00000000000E+00 -0.00000000000E+00 -0.53919871974E+02  0.53919871974E+02  0.00000000000E+00 0. -1.
         25    2    1    2    0    0  0.49904695299E+02  0.92325209540E+01  0.43789968939E+02  0.14183859907E+03  0.12499963500E+03 0.  0.
          5    1    3    3  501    0 -0.11062391233E+02 -0.48410331366E+02  0.26067515305E+02  0.56084418843E+02  0.10000000000E+00 0.  1.
         -5    1    3    3    0  501  0.60967086532E+02  0.57642852320E+02  0.17722453634E+02  0.85754180228E+02  0.10000000000E+00 0.  1.
          1    1    1    2  502    0 -0.49904695299E+02 -0.92325209540E+01  0.12663789804E+03  0.13642901185E+03  0.00000000000E+00 0.  1.
<mgrwt>
<rscale>  1 0.13490970E+03</rscale>
<asrwt>0</asrwt>
<pdfrwt beam="1">  1       21 0.82953650E-02 0.13490970E+03</pdfrwt>
<pdfrwt beam="2">  1        1 0.34515036E-01 0.13490970E+03</pdfrwt>
<totfact> 0.15308915E+05</totfact>
</mgrwt>
</event>
<event>
 6    2  0.1181843E-002  0.1263211E+03  0.7546771E-02  0.1233019E+00
         21   -1    0    0  502  503  0.00000000000E+00  0.00000000000E+00  0.16088906964E+02  0.16088906964E+02  0.00000000000E+00 0. -1.
          2   -1    0    0  503    0 -0.00000000000E+00 -0.00000000000E+00 -0.68153586806E+03  0.68153586806E+03  0.00000000000E+00 0.  1.
         25    2    1    2    0    0  0.13350412588E+02 -0.12410738006E+02 -0.23506379040E+03  0.26685577248E+03  0.12499903125E+03 0.  0.
          5    1    3    3  501    0 -0.21067157579E+02 -0.13060512090E+01 -0.22925830729E+03  0.23022795738E+03  0.10000000000E+00 0. -1.
         -5    1    3    3    0  501  0.34417570167E+02 -0.11104686797E+02 -0.58054831141E+01  0.36627815103E+02  0.10000000000E+00 0. -1.
          2    1    1    2  502    0 -0.13350412588E+02  0.12410738006E+02 -0.43038317070E+03  0.43076900254E+03  0.00000000000E+00 0.  1.
<mgrwt>
<rscale>  1 0.12632109E+03</rscale>
<asrwt>0</asrwt>
<pdfrwt beam="1">  1       21 0.24752159E-02 0.12632109E+03</pdfrwt>
<pdfrwt beam="2">  1        2 0.10485169E+00 0.12632109E+03</pdfrwt>
<totfact> 0.46473738E+05</totfact>
</mgrwt>
</event>
<event>
 6    2  0.1181843E-002  0.1310428E+03  0.7546771E-02  0.1225917E+00
         21   -1    0    0  502  503  0.00000000000E+00  0.00000000000E+00  0.40413784668E+03  0.40413784668E+03  0.00000000000E+00 0. -1.
          2   -1    0    0  503    0 -0.00000000000E+00 -0.00000000000E+00 -0.39362600948E+02  0.39362600948E+02  0.00000000000E+00 0. -1.
         25    2    1    2    0    0  0.18855518748E+02 -0.34545274505E+02  0.37949390068E+03  0.40148205426E+03  0.12499325049E+03 0.  0.
          5    1    3    3  501    0  0.52047466250E+02 -0.22603102057E+02  0.35256741320E+03  0.35710450826E+03  0.10000000000E+00 0.  1.
         -5    1    3    3    0  501 -0.33191947502E+02 -0.11942172448E+02  0.26926487472E+02  0.44377546004E+02  0.10000000000E+00 0.  1.
          2    1    1    2  502    0 -0.18855518748E+02  0.34545274505E+02 -0.14718654942E+02  0.42018393367E+02  0.00000000000E+00 0. -1.
<mgrwt>
<rscale>  1 0.13104281E+03</rscale>
<asrwt>0</asrwt>
<pdfrwt beam="1">  1       21 0.62175050E-01 0.13104281E+03</pdfrwt>
<pdfrwt beam="2">  1        2 0.60557851E-02 0.13104281E+03</pdfrwt>
<totfact> 0.35125902E+04</totfact>
</mgrwt>
</event>
<event>
 6    2  0.1181843E-002  0.1314587E+03  0.7546771E-02  0.1225307E+00
          2   -1    0    0  503    0 -0.00000000000E+00  0.00000000000E+00  0.46017889071E+03  0.46017889071E+03  0.00000000000E+00 0. -1.
         21   -1    0    0  502  503  0.00000000000E+00 -0.00000000000E+00 -0.12852271821E+03  0.12852271821E+03  0.00000000000E+00 0. -1.
         25    2    1    2    0    0  0.19589764922E+02  0.35651820849E+02 -0.93681123520E+02  0.16142344823E+03  0.12500626190E+03 0.  0.
          5    1    3    3  501    0 -0.23009368469E+02 -0.38469803158E+02 -0.22383311825E+02  0.50103686896E+02  0.10000000000E+00 0. -1.
         -5    1    3    3    0  501  0.42599133391E+02  0.74121624006E+02 -0.71297811695E+02  0.11131976133E+03  0.10000000000E+00 0. -1.
          2    1    1    2  502    0 -0.19589764922E+02 -0.35651820849E+02  0.42533729602E+03  0.42727816069E+03  0.00000000000E+00 0. -1.
<mgrwt>
<rscale>  1 0.13145865E+03</rscale>
<asrwt>0</asrwt>
<pdfrwt beam="1">  1       21 0.19772726E-01 0.13145865E+03</pdfrwt>
<pdfrwt beam="2">  1        2 0.70796752E-01 0.13145865E+03</pdfrwt>
<totfact> 0.20307070E+04</totfact>
</mgrwt>
</event>
<event>
 6    2  0.1181843E-002  0.1297425E+03  0.7546771E-02  0.1227838E+00
          2   -1    0    0  503    0 -0.00000000000E+00  0.00000000000E+00  0.24907601806E+04  0.24907601806E+04  0.00000000000E+00 0. -1.
         21   -1    0    0  502  503  0.00000000000E+00 -0.00000000000E+00 -0.43202538251E+02  0.43202538251E+02  0.00000000000E+00 0.  1.
         25    2    1    2    0    0 -0.34647012085E+02  0.28648097154E+01  0.54617430964E+02  0.14076998156E+03  0.12499800543E+03 0.  0.
          5    1    3    3  501    0 -0.24000928175E+02  0.60672012889E+02  0.79736609777E+01  0.65732236921E+02  0.10000000000E+00 0.  1.
         -5    1    3    3    0  501 -0.10646083910E+02 -0.57807203173E+02  0.46643769986E+02  0.75037744635E+02  0.10000000000E+00 0.  1.
          2    1    1    2  502    0  0.34647012085E+02 -0.28648097154E+01  0.23929402114E+04  0.23931927373E+04  0.00000000000E+00 0. -1.
<mgrwt>
<rscale>  1 0.12974253E+03</rscale>
<asrwt>0</asrwt>
<pdfrwt beam="1">  1       21 0.66465463E-02 0.12974253E+03</pdfrwt>
<pdfrwt beam="2">  1        2 0.38319376E+00 0.12974253E+03</pdfrwt>
<totfact> 0.90870066E+03</totfact>
</mgrwt>
</event>
<event>
 6    2  0.1181843E-002  0.1565371E+03  0.7546771E-02  0.1192663E+00
          2   -1    0    0  503    0 -0.00000000000E+00  0.00000000000E+00  0.24612032552E+03  0.24612032552E+03  0.00000000000E+00 0.  1.
         21   -1    0    0  502  503  0.00000000000E+00 -0.00000000000E+00 -0.28647921804E+03  0.28647921804E+03  0.00000000000E+00 0. -1.
         25    2    1    2    0    0  0.51569692772E+02 -0.78870537066E+02 -0.25441717445E+03  0.29871721654E+03  0.12499552780E+03 0.  0.
          5    1    3    3  501    0 -0.30166910029E+02 -0.11806755887E+01 -0.11761600697E+03  0.12142887446E+03  0.10000000000E+00 0. -1.
         -5    1    3    3    0  501  0.81736602800E+02 -0.77689861477E+02 -0.13680116748E+03  0.17728834208E+03  0.10000000000E+00 0. -1.
          2    1    1    2  502    0 -0.51569692772E+02  0.78870537066E+02  0.21405828193E+03  0.23388232702E+03  0.00000000000E+00 0.  1.
<mgrwt>
<rscale>  1 0.15653714E+03</rscale>
<asrwt>0</asrwt>
<pdfrwt beam="1">  1       21 0.44073726E-01 0.15653714E+03</pdfrwt>
<pdfrwt beam="2">  1        2 0.37864666E-01 0.15653714E+03</pdfrwt>
<totfact> 0.83658556E+03</totfact>
</mgrwt>
</event>
<event>
 6    2  0.1181843E-002  0.1291221E+03  0.7546771E-02  0.1228764E+00
         21   -1    0    0  502  503  0.00000000000E+00  0.00000000000E+00  0.42282913354E+01  0.42282913354E+01  0.00000000000E+00 0.  1.
          2   -1    0    0  503    0 -0.00000000000E+00 -0.00000000000E+00 -0.15442406697E+04  0.15442406697E+04  0.00000000000E+00 0.  1.
         25    2    1    2    0    0 -0.30507195392E+02  0.10820753923E+02 -0.12068385100E+04  0.12137263670E+04  0.12499890838E+03 0.  0.
          5    1    3    3  501    0  0.23130639710E+02 -0.45079644678E+02 -0.55220685473E+03  0.55452648383E+03  0.10000000000E+00 0. -1.
         -5    1    3    3    0  501 -0.53637835102E+02  0.55900398601E+02 -0.65463165526E+03  0.65919988318E+03  0.10000000000E+00 0. -1.
          2    1    1    2  502    0  0.30507195392E+02 -0.10820753923E+02 -0.33317386835E+03  0.33474259400E+03  0.00000000000E+00 0.  1.
<mgrwt>
<rscale>  1 0.12912205E+03</rscale>
<asrwt>0</asrwt>
<pdfrwt beam="1">  1       21 0.65050696E-03 0.12912205E+03</pdfrwt>
<pdfrwt beam="2">  1        2 0.23757527E+00 0.12912205E+03</pdfrwt>
<totfact> 0.12091692E+06</totfact>
</mgrwt>
</event>
<event>
 6    2  0.1181843E-002  0.1307481E+03  0.7546771E-02  0.1226350E+00
         21   -1    0    0  502  503  0.00000000000E+00  0.00000000000E+00  0.21913354824E+02  0.21913354824E+02  0.00000000000E+00 0. -1.
          1   -1    0    0  503    0 -0.00000000000E+00 -0.00000000000E+00 -0.19065176999E+04  0.19065176999E+04  0.00000000000E+00 0. -1.
         25    2    1    2    0    0 -0.18244421965E+02  0.33743595883E+02 -0.17526615850E+03  0.21866249574E+03  0.12499428600E+03 0.  0.
          5    1    3    3  501    0 -0.83043795209E+00  0.55492610296E+01  0.19913713342E+02  0.20689366936E+02  0.10000000000E+00 0.  1.
         -5    1    3    3    0  501 -0.17413984013E+02  0.28194334853E+02 -0.19517987184E+03  0.19797312880E+03  0.10000000000E+00 0.  1.
          1    1    1    2  502    0  0.18244421965E+02 -0.33743595883E+02 -0.17093381866E+04  0.17097685590E+04  0.00000000000E+00 0. -1.
<mgrwt>
<rscale>  1 0.13074808E+03</rscale>
<asrwt>0</asrwt>
<pdfrwt beam="1">  1       21 0.33712850E-02 0.13074808E+03</pdfrwt>
<pdfrwt beam="2">  1        1 0.29331044E+00 0.13074808E+03</pdfrwt>
<totfact> 0.23542133E+04</totfact>
</mgrwt>
</event>
<event>
 6    2  0.1181843E-002  0.1272469E+03  0.7546771E-02  0.1231599E+00
          2   -1    0    0  503    0 -0.00000000000E+00  0.00000000000E+00  0.46927250048E+03  0.46927250048E+03  0.00000000000E+00 0.  1.
         21   -1    0    0  502  503  0.00000000000E+00 -0.00000000000E+00 -0.13803023037E+02  0.13803023037E+02  0.00000000000E+00 0.  1.
         25    2    1    2    0    0  0.21155687391E+02 -0.10897619432E+02  0.30111814423E+03  0.32690044457E+03  0.12500177063E+03 0.  0.
          5    1    3    3  501    0  0.22828971131E+01  0.27899623474E+02  0.59789202775E+01  0.28624431818E+02  0.10000000000E+00 0.  1.
         -5    1    3    3    0  501  0.18872790278E+02 -0.38797242906E+02  0.29513922395E+03  0.29827601275E+03  0.10000000000E+00 0.  1.
          2    1    1    2  502    0 -0.21155687391E+02  0.10897619432E+02  0.15435133321E+03  0.15617507894E+03  0.00000000000E+00 0.  1.
<mgrwt>
<rscale>  1 0.12724686E+03</rscale>
<asrwt>0</asrwt>
<pdfrwt beam="1">  1       21 0.21235424E-02 0.12724686E+03</pdfrwt>
<pdfrwt beam="2">  1        2 0.72195757E-01 0.12724686E+03</pdfrwt>
<totfact> 0.90649837E+05</totfact>
</mgrwt>
</event>
<event>
 6    2  0.1181843E-002  0.1840004E+03  0.7546771E-02  0.1163987E+00
         21   -1    0    0  502  503  0.00000000000E+00  0.00000000000E+00  0.12614068643E+03  0.12614068643E+03  0.00000000000E+00 0.  1.
          1   -1    0    0  503    0 -0.00000000000E+00 -0.00000000000E+00 -0.85960348871E+03  0.85960348871E+03  0.00000000000E+00 0. -1.
         25    2    1    2    0    0  0.13363567033E+03  0.19334512003E+02  0.50046390915E+02  0.19068507573E+03  0.12499536440E+03 0.  0.
          5    1    3    3  501    0 -0.54672715559E+01  0.30412266271E+02  0.40326101595E+02  0.50803557630E+02  0.10000000000E+00 0.  1.
         -5    1    3    3    0  501  0.13910294189E+03 -0.11077754268E+02  0.97202893207E+01  0.13988151810E+03  0.10000000000E+00 0.  1.
          1    1    1    2  502    0 -0.13363567033E+03 -0.19334512003E+02 -0.78350919319E+03  0.79505909941E+03  0.00000000000E+00 0. -1.
<mgrwt>
<rscale>  1 0.18400043E+03</rscale>
<asrwt>0</asrwt>
<pdfrwt beam="1">  1       21 0.19406260E-01 0.18400043E+03</pdfrwt>
<pdfrwt beam="2">  1        1 0.13224669E+00 0.18400043E+03</pdfrwt>
<totfact> 0.56412733E+03</totfact>
</mgrwt>
</event>
<event>
 6    2  0.1181843E-002  0.1282674E+03  0.7546771E-02  0.1230050E+00
          2   -1    0    0  503    0 -0.00000000000E+00  0.00000000000E+00  0.20736776930E+04  0.20736776930E+04  0.00000000000E+00 0. -1.
         21   -1    0    0  502  503  0.00000000000E+00 -0.00000000000E+00 -0.52615342789E+02  0.52615342789E+02  0.00000000000E+00 0.  1.
         25    2    1    2    0    0 -0.15676605083E+02  0.24090242588E+02  0.25815811024E+02  0.13083949138E+03  0.12500568256E+03 0.  0.
          5    1    3    3  501    0  0.26108796180E+02  0.64834991824E+02  0.13238373004E+02  0.71137261140E+02  0.10000000000E+00 0.  1.
         -5    1    3    3    0  501 -0.41785401263E+02 -0.40744749236E+02  0.12577438020E+02  0.59702230244E+02  0.10000000000E+00 0.  1.
          2    1    1    2  502    0  0.15676605083E+02 -0.24090242588E+02  0.19952465392E+04  0.19954535444E+04  0.00000000000E+00 0. -1.
<mgrwt>
<rscale>  1 0.12826736E+03</rscale>
<asrwt>0</asrwt>
<pdfrwt beam="1">  1       21 0.80946698E-02 0.12826736E+03</pdfrwt>
<pdfrwt beam="2">  1        2 0.31902727E+00 0.12826736E+03</pdfrwt>
<totfact> 0.10696670E+04</totfact>
</mgrwt>
</event>
<event>
 6    2  0.1181843E-002  0.1478459E+03  0.7546771E-02  0.1203145E+00
          1   -1    0    0  503    0 -0.00000000000E+00  0.00000000000E+00  0.83780426593E+03  0.83780426593E+03  0.00000000000E+00 0. -1.
         21   -1    0    0  502  503  0.00000000000E+00 -0.00000000000E+00 -0.22213701091E+02  0.22213701091E+02  0.00000000000E+00 0. -1.
         25    2    1    2    0    0 -0.46310808980E+02  0.63956466600E+02  0.26210027491E+03  0.30092350121E+03  0.12499311512E+03 0.  0.
          5    1    3    3  501    0 -0.17554379391E+01  0.73036091615E+02  0.62298504780E+02  0.96012842572E+02  0.10000000000E+00 0. -1.
         -5    1    3    3    0  501 -0.44555371041E+02 -0.90796250158E+01  0.19980177013E+03  0.20491065864E+03  0.10000000000E+00 0. -1.
          1    1    1    2  502    0  0.46310808980E+02 -0.63956466600E+02  0.55349028993E+03  0.55909446580E+03  0.00000000000E+00 0. -1.
<mgrwt>
<rscale>  1 0.14784586E+03</rscale>
<asrwt>0</asrwt>
<pdfrwt beam="1">  1       21 0.34174931E-02 0.14784586E+03</pdfrwt>
<pdfrwt beam="2">  1        1 0.12889294E+00 0.14784586E+03</pdfrwt>
<totfact> 0.12184460E+05</totfact>
</mgrwt>
</event>
<event>
 6    2  0.1181843E-002  0.1288394E+03  0.7546771E-02  0.1229188E+00
          1   -1    0    0  503    0 -0.00000000000E+00  0.00000000000E+00  0.82666730912E+03  0.82666730912E+03  0.00000000000E+00 0.  1.
         21   -1    0    0  502  503  0.00000000000E+00 -0.00000000000E+00 -0.95717109288E+01  0.95717109288E+01  0.00000000000E+00 0.  1.
         25    2    1    2    0    0 -0.80771466250E+01  0.30176700574E+02  0.45769187740E+03  0.47548022519E+03  0.12499486528E+03 0.  0.
          5    1    3    3  501    0 -0.85788176889E+01  0.77251506138E+02  0.22423978720E+03  0.23732864024E+03  0.10000000000E+00 0.  1.
         -5    1    3    3    0  501  0.50167106396E+00 -0.47074805564E+02  0.23345209020E+03  0.23815158495E+03  0.10000000000E+00 0.  1.
          1    1    1    2  502    0  0.80771466250E+01 -0.30176700574E+02  0.35940372079E+03  0.36075879487E+03  0.00000000000E+00 0.  1.
<mgrwt>
<rscale>  1 0.12883940E+03</rscale>
<asrwt>0</asrwt>
<pdfrwt beam="1">  1       21 0.14725716E-02 0.12883940E+03</pdfrwt>
<pdfrwt beam="2">  1        1 0.12717953E+00 0.12883940E+03</pdfrwt>
<totfact> 0.48558359E+05</totfact>
</mgrwt>
</event>
<event>
 6    2  0.1181843E-002  0.1305163E+03  0.7546771E-02  0.1226692E+00
         21   -1    0    0  502  503  0.00000000000E+00  0.00000000000E+00  0.79903825191E+02  0.79903825191E+02  0.00000000000E+00 0.  1.
          2   -1    0    0  503    0 -0.00000000000E+00 -0.00000000000E+00 -0.76913069703E+03  0.76913069703E+03  0.00000000000E+00 0. -1.
         25    2    1    2    0    0 -0.19882693973E+02 -0.31842204635E+02  0.25784086721E+02  0.13303876918E+03  0.12500098984E+03 0.  0.
          5    1    3    3  501    0 -0.60008443184E+02  0.20814333470E+02  0.52863958106E+01  0.63735435292E+02  0.10000000000E+00 0. -1.
         -5    1    3    3    0  501  0.40125749211E+02 -0.52656538105E+02  0.20497690910E+02  0.69303333885E+02  0.10000000000E+00 0. -1.
          2    1    1    2  502    0  0.19882693973E+02  0.31842204635E+02 -0.71501095856E+03  0.71599575304E+03  0.00000000000E+00 0. -1.
<mgrwt>
<rscale>  1 0.13051626E+03</rscale>
<asrwt>0</asrwt>
<pdfrwt beam="1">  1       21 0.12292896E-01 0.13051626E+03</pdfrwt>
<pdfrwt beam="2">  1        2 0.11832780E+00 0.13051626E+03</pdfrwt>
<totfact> 0.26720491E+04</totfact>
</mgrwt>
</event>
<event>
 6    2  0.1181843E-002  0.1303603E+03  0.7546771E-02  0.1226922E+00
         21   -1    0    0  502  503  0.00000000000E+00  0.00000000000E+00  0.25595564804E+02  0.25595564804E+02  0.00000000000E+00 0. -1.
          3   -1    0    0  503    0 -0.00000000000E+00 -0.00000000000E+00 -0.28496893283E+03  0.28496893283E+03  0.00000000000E+00 0. -1.
         25    2    1    2    0    0 -0.36413456258E+02 -0.65052368464E+01 -0.22517750373E+03  0.26018975160E+03  0.12500216298E+03 0.  0.
          5    1    3    3  501    0  0.31342106636E+02  0.25708268511E+02 -0.14424592556E+03  0.14983370702E+03  0.10000000000E+00 0. -1.
         -5    1    3    3    0  501 -0.67755562894E+02 -0.32213505357E+02 -0.80931578166E+02  0.11035604458E+03  0.10000000000E+00 0. -1.
          3    1    1    2  502    0  0.36413456258E+02  0.65052368464E+01 -0.34195864300E+02  0.50374746037E+02  0.00000000000E+00 0. -1.
<mgrwt>
<rscale>  1 0.13036026E+03</rscale>
<asrwt>0</asrwt>
<pdfrwt beam="1">  1       21 0.39377792E-02 0.13036026E+03</pdfrwt>
<pdfrwt beam="2">  1        3 0.43841375E-01 0.13036026E+03</pdfrwt>
<totfact> 0.98944807E+04</totfact>
</mgrwt>
</event>
<event>
 6    2  0.1181843E-002  0.1387415E+03  0.7546771E-02  0.1215032E+00
          2   -1    0    0  503    0 -0.00000000000E+00  0.00000000000E+00  0.11915277057E+04  0.11915277057E+04  0.00000000000E+00 0. -1.
         21   -1    0    0  502  503  0.00000000000E+00 -0.00000000000E+00 -0.10118923237E+02  0.10118923237E+02  0.00000000000E+00 0. -1.
         25    2    1    2    0    0  0.71641207384E+01  0.59792341870E+02  0.54453097000E+03  0.56192809960E+03  0.12499105190E+03 0.  0.
          5    1    3    3  501    0 -0.34607446729E+01  0.83871516087E+02  0.20700388087E+03  0.22337641921E+03  0.10000000000E+00 0.  1.
         -5    1    3    3    0  501  0.10624865411E+02 -0.24079174218E+02  0.33752708913E+03  0.33855168038E+03  0.10000000000E+00 0.  1.
          2    1    1    2  502    0 -0.71641207384E+01 -0.59792341870E+02  0.63687781244E+03  0.63971852931E+03  0.00000000000E+00 0. -1.
<mgrwt>
<rscale>  1 0.13874153E+03</rscale>
<asrwt>0</asrwt>
<pdfrwt beam="1">  1       21 0.15567584E-02 0.13874153E+03</pdfrwt>
<pdfrwt beam="2">  1        2 0.18331184E+00 0.13874153E+03</pdfrwt>
<totfact> 0.47197414E+05</totfact>
</mgrwt>
</event>
<event>
 6    2  0.1181843E-002  0.1267475E+03  0.7546771E-02  0.1232363E+00
         21   -1    0    0  502  503  0.00000000000E+00  0.00000000000E+00  0.96113816148E+03  0.96113816148E+03  0.00000000000E+00 0. -1.
          2   -1    0    0  503    0 -0.00000000000E+00 -0.00000000000E+00 -0.77617886166E+03  0.77617886166E+03  0.00000000000E+00 0. -1.
         25    2    1    2    0    0 -0.19518308280E+02 -0.76573721375E+01  0.95681656699E+03  0.96517504099E+03  0.12500126865E+03 0.  0.
          5    1    3    3  501    0  0.39521179666E+02  0.50656338565E+01  0.12562947583E+03  0.13179665962E+03  0.10000000000E+00 0.  1.
         -5    1    3    3    0  501 -0.59039487946E+02 -0.12723005994E+02  0.83118709116E+03  0.83337838137E+03  0.10000000000E+00 0.  1.
          2    1    1    2  502    0  0.19518308280E+02  0.76573721375E+01 -0.77185726717E+03  0.77214198215E+03  0.00000000000E+00 0. -1.
<mgrwt>
<rscale>  1 0.12674745E+03</rscale>
<asrwt>0</asrwt>
<pdfrwt beam="1">  1       21 0.14786741E+00 0.12674745E+03</pdfrwt>
<pdfrwt beam="2">  1        2 0.11941213E+00 0.12674745E+03</pdfrwt>
<totfact> 0.15521026E+02</totfact>
</mgrwt>
</event>
<event>
 6    2  0.1181843E-002  0.1396758E+03  0.7546771E-02  0.1213766E+00
          1   -1    0    0  503    0 -0.00000000000E+00  0.00000000000E+00  0.57468333958E+02  0.57468333958E+02  0.00000000000E+00 0.  1.
         21   -1    0    0  502  503  0.00000000000E+00 -0.00000000000E+00 -0.17982735305E+03  0.17982735305E+03  0.00000000000E+00 0.  1.
         25    2    1    2    0    0  0.44528014635E+02  0.43621395328E+02 -0.96720300499E+02  0.16989454378E+03  0.12499507694E+03 0.  0.
          5    1    3    3  501    0  0.16559835427E+02  0.86725773107E+02 -0.61245780151E+02  0.10745530911E+03  0.10000000000E+00 0. -1.
         -5    1    3    3    0  501  0.27968179207E+02 -0.43104377779E+02 -0.35474520349E+02  0.62439234668E+02  0.10000000000E+00 0. -1.
          1    1    1    2  502    0 -0.44528014635E+02 -0.43621395328E+02 -0.25638718597E+02  0.67401143232E+02  0.00000000000E+00 0.  1.
<mgrwt>
<rscale>  1 0.13967584E+03</rscale>
<asrwt>0</asrwt>
<pdfrwt beam="1">  1       21 0.27665746E-01 0.13967584E+03</pdfrwt>
<pdfrwt beam="2">  1        1 0.88412825E-02 0.13967584E+03</pdfrwt>
<totfact> 0.99292017E+04</totfact>
</mgrwt>
</event>
<event>
 6    2  0.1181843E-002  0.1393683E+03  0.7546771E-02  0.1214181E+00
         21   -1    0    0  502  503  0.00000000000E+00  0.00000000000E+00  0.10299404684E+02  0.10299404684E+02  0.00000000000E+00 0.  1.
          2   -1    0    0  503    0 -0.00000000000E+00 -0.00000000000E+00 -0.38841234841E+04  0.38841234841E+04  0.00000000000E+00 0. -1.
         25    2    1    2    0    0 -0.61639966562E+02  0.54679653047E+00 -0.47460065071E+03  0.49464058652E+03  0.12499499079E+03 0.  0.
          5    1    3    3  501    0  0.11377974346E+01 -0.37286133761E+02 -0.33404619598E+03  0.33612262852E+03  0.10000000000E+00 0.  1.
         -5    1    3    3    0  501 -0.62777763997E+02  0.37832930291E+02 -0.14055445473E+03  0.15851795801E+03  0.10000000000E+00 0.  1.
          2    1    1    2  502    0  0.61639966562E+02 -0.54679653047E+00 -0.33992234287E+04  0.33997823023E+04  0.00000000000E+00 0. -1.
<mgrwt>
<rscale>  1 0.13936833E+03</rscale>
<asrwt>0</asrwt>
<pdfrwt beam="1">  1       21 0.15845221E-02 0.13936833E+03</pdfrwt>
<pdfrwt beam="2">  1        2 0.59755810E+00 0.13936833E+03</pdfrwt>
<totfact> 0.13594673E+04</totfact>
</mgrwt>
</event>
<event>
 6    2  0.1181843E-002  0.1548022E+03  0.7546771E-02  0.1194693E+00
          2   -1    0    0  503    0 -0.00000000000E+00  0.00000000000E+00  0.98604696355E+03  0.98604696355E+03  0.00000000000E+00 0.  1.
         21   -1    0    0  502  503  0.00000000000E+00 -0.00000000000E+00 -0.19391785926E+03  0.19391785926E+03  0.00000000000E+00 0. -1.
         25    2    1    2    0    0  0.90533635164E+02 -0.11990636944E+02 -0.16048809501E+03  0.22298016103E+03  0.12499443629E+03 0.  0.
          5    1    3    3  501    0  0.64213841650E+02  0.25793634523E+02 -0.16277665712E+03  0.17687560359E+03  0.10000000000E+00 0.  1.
         -5    1    3    3    0  501  0.26319793514E+02 -0.37784271467E+02  0.22885621074E+01  0.46104557448E+02  0.10000000000E+00 0.  1.
          2    1    1    2  502    0 -0.90533635164E+02  0.11990636944E+02  0.95261719930E+03  0.95698466178E+03  0.00000000000E+00 0.  1.
<mgrwt>
<rscale>  1 0.15480221E+03</rscale>
<asrwt>0</asrwt>
<pdfrwt beam="1">  1       21 0.29833517E-01 0.15480221E+03</pdfrwt>
<pdfrwt beam="2">  1        2 0.15169953E+00 0.15480221E+03</pdfrwt>
<totfact> 0.37323866E+03</totfact>
</mgrwt>
</event>
<event>
 6    2  0.1181843E-002  0.1443303E+03  0.7546771E-02  0.1207618E+00
          2   -1    0    0  503    0 -0.00000000000E+00  0.00000000000E+00  0.11885774122E+04  0.11885774122E+04  0.00000000000E+00 0. -1.
         21   -1    0    0  502  503  0.00000000000E+00 -0.00000000000E+00 -0.98915881951E+01  0.98915881951E+01  0.00000000000E+00 0.  1.
         25    2    1    2    0    0  0.21532231173E+02  0.68871782852E+02  0.81809809894E+03  0.83073204696E+03  0.12499709960E+03 0.  0.
          5    1    3    3  501    0 -0.43975477407E+01 -0.31226848550E+02  0.90802211531E+02  0.96122349719E+02  0.10000000000E+00 0. -1.
         -5    1    3    3    0  501  0.25929778913E+02  0.10009863140E+03  0.72729588741E+03  0.73460969724E+03  0.10000000000E+00 0. -1.
          2    1    1    2  502    0 -0.21532231173E+02 -0.68871782852E+02  0.36058772508E+03  0.36773695344E+03  0.00000000000E+00 0. -1.
<mgrwt>
<rscale>  1 0.14433030E+03</rscale>
<asrwt>0</asrwt>
<pdfrwt beam="1">  1       21 0.15217837E-02 0.14433030E+03</pdfrwt>
<pdfrwt beam="2">  1        2 0.18285795E+00 0.14433030E+03</pdfrwt>
<totfact> 0.49208511E+05</totfact>
</mgrwt>
</event>
<event>
 6    2  0.1181843E-002  0.1280014E+03  0.7546771E-02  0.1230452E+00
         21   -1    0    0  502  503  0.00000000000E+00  0.00000000000E+00  0.36531364215E+03  0.36531364215E+03  0.00000000000E+00 0.  1.
          2   -1    0    0  503    0 -0.00000000000E+00 -0.00000000000E+00 -0.24272755842E+02  0.24272755842E+02  0.00000000000E+00 0.  1.
         25    2    1    2    0    0  0.20777866386E+02  0.18084051985E+02  0.33853660909E+03  0.36192732946E+03  0.12500241376E+03 0.  0.
          5    1    3    3  501    0  0.43993577477E+02  0.63261438858E+02  0.19529608404E+03  0.20994764811E+03  0.10000000000E+00 0.  1.
         -5    1    3    3    0  501 -0.23215711090E+02 -0.45177386873E+02  0.14324052505E+03  0.15197968135E+03  0.10000000000E+00 0.  1.
          2    1    1    2  502    0 -0.20777866386E+02 -0.18084051985E+02  0.25042772181E+01  0.27659068533E+02  0.00000000000E+00 0.  1.
<mgrwt>
<rscale>  1 0.12800139E+03</rscale>
<asrwt>0</asrwt>
<pdfrwt beam="1">  1       21 0.56202095E-01 0.12800139E+03</pdfrwt>
<pdfrwt beam="2">  1        2 0.37342704E-02 0.12800139E+03</pdfrwt>
<totfact> 0.81818263E+04</totfact>
</mgrwt>
</event>
<event>
 6    2  0.1181843E-002  0.1357624E+03  0.7546771E-02  0.1219147E+00
         21   -1    0    0  502  503  0.00000000000E+00  0.00000000000E+00  0.25546446385E+03  0.25546446385E+03  0.00000000000E+00 0.  1.
          2   -1    0    0  503    0 -0.00000000000E+00 -0.00000000000E+00 -0.44310355769E+03  0.44310355769E+03  0.00000000000E+00 0.  1.
         25    2    1    2    0    0 -0.39826028825E+02 -0.34938376915E+02  0.23565868577E+03  0.27196772504E+03  0.12499849813E+03 0.  0.
          5    1    3    3  501    0  0.31165862612E+02  0.23828414846E+02  0.10489201629E+03  0.11198861294E+03  0.10000000000E+00 0. -1.
         -5    1    3    3    0  501 -0.70991891437E+02 -0.58766791761E+02  0.13076666948E+03  0.15997911210E+03  0.10000000000E+00 0. -1.
          2    1    1    2  502    0  0.39826028825E+02  0.34938376915E+02 -0.42329777960E+03  0.42660029649E+03  0.00000000000E+00 0.  1.
<mgrwt>
<rscale>  1 0.13576239E+03</rscale>
<asrwt>0</asrwt>
<pdfrwt beam="1">  1       21 0.39302226E-01 0.13576239E+03</pdfrwt>
<pdfrwt beam="2">  1        2 0.68169777E-01 0.13576239E+03</pdfrwt>
<totfact> 0.56630230E+03</totfact>
</mgrwt>
</event>
<event>
 6    2  0.1181843E-002  0.1295606E+03  0.7546771E-02  0.1228109E+00
         21   -1    0    0  502  503  0.00000000000E+00  0.00000000000E+00  0.66616117329E+01  0.66616117329E+01  0.00000000000E+00 0.  1.
          1   -1    0    0  503    0 -0.00000000000E+00 -0.00000000000E+00 -0.11837452658E+04  0.11837452658E+04  0.00000000000E+00 0.  1.
         25    2    1    2    0    0 -0.41566960555E+01 -0.33857077090E+02 -0.10749002747E+04  0.10826802661E+04  0.12498951262E+03 0.  0.
          5    1    3    3  501    0 -0.59833570666E+02 -0.30710408616E+02 -0.75185477647E+03  0.75485680779E+03  0.10000000000E+00 0. -1.
         -5    1    3    3    0  501  0.55676874610E+02 -0.31466684740E+01 -0.32304549820E+03  0.32782345828E+03  0.10000000000E+00 0. -1.
          1    1    1    2  502    0  0.41566960555E+01  0.33857077090E+02 -0.10218337935E+03  0.10772661142E+03  0.00000000000E+00 0.  1.
<mgrwt>
<rscale>  1 0.12956063E+03</rscale>
<asrwt>0</asrwt>
<pdfrwt beam="1">  1       21 0.10248643E-02 0.12956063E+03</pdfrwt>
<pdfrwt beam="2">  1        1 0.18211448E+00 0.12956063E+03</pdfrwt>
<totfact> 0.47218004E+05</totfact>
</mgrwt>
</event>
<event>
 6    2  0.1181843E-002  0.2054020E+03  0.7546771E-02  0.1145260E+00
          2   -1    0    0  503    0 -0.00000000000E+00  0.00000000000E+00  0.15866330290E+04  0.15866330290E+04  0.00000000000E+00 0. -1.
         21   -1    0    0  502  503  0.00000000000E+00 -0.00000000000E+00 -0.97243637191E+02  0.97243637191E+02  0.00000000000E+00 0.  1.
         25    2    1    2    0    0  0.11764039983E+03 -0.11280231741E+03  0.21003281326E+02  0.20647306665E+03  0.12500545164E+03 0.  0.
          5    1    3    3  501    0  0.72725857480E+02 -0.10714282685E+03 -0.35308212543E+02  0.13422114426E+03  0.10000000000E+00 0.  1.
         -5    1    3    3    0  501  0.44914542345E+02 -0.56594905568E+01  0.56311493869E+02  0.72251922391E+02  0.10000000000E+00 0.  1.
          2    1    1    2  502    0 -0.11764039983E+03  0.11280231741E+03  0.14683861105E+04  0.14774035995E+04  0.00000000000E+00 0. -1.
<mgrwt>
<rscale>  1 0.20540202E+03</rscale>
<asrwt>0</asrwt>
<pdfrwt beam="1">  1       21 0.14960561E-01 0.20540202E+03</pdfrwt>
<pdfrwt beam="2">  1        2 0.24409737E+00 0.20540202E+03</pdfrwt>
<totfact> 0.61936839E+03</totfact>
</mgrwt>
</event>
<event>
 6    2  0.1181843E-002  0.1264223E+03  0.7546771E-02  0.1232863E+00
         21   -1    0    0  502  503  0.00000000000E+00  0.00000000000E+00  0.78911331958E+03  0.78911331958E+03  0.00000000000E+00 0.  1.
          1   -1    0    0  503    0 -0.00000000000E+00 -0.00000000000E+00 -0.64451654224E+03  0.64451654224E+03  0.00000000000E+00 0. -1.
         25    2    1    2    0    0 -0.17268700013E+02 -0.77316295754E+01  0.78390899793E+03  0.79403772499E+03  0.12499842233E+03 0.  0.
          5    1    3    3  501    0  0.50824613108E+02  0.17240231162E+02  0.35701051479E+03  0.36102200007E+03  0.10000000000E+00 0.  1.
         -5    1    3    3    0  501 -0.68093313121E+02 -0.24971860737E+02  0.42689848314E+03  0.43301572492E+03  0.10000000000E+00 0.  1.
          1    1    1    2  502    0  0.17268700013E+02  0.77316295754E+01 -0.63931222059E+03  0.63959213683E+03  0.00000000000E+00 0. -1.
<mgrwt>
<rscale>  1 0.12642228E+03</rscale>
<asrwt>0</asrwt>
<pdfrwt beam="1">  1       21 0.12140205E+00 0.12642228E+03</pdfrwt>
<pdfrwt beam="2">  1        1 0.99156391E-01 0.12642228E+03</pdfrwt>
<totfact> 0.19312435E+02</totfact>
</mgrwt>
</event>
<event>
 6    2  0.1181843E-002  0.1262591E+03  0.7546771E-02  0.1233115E+00
          2   -1    0    0  503    0 -0.00000000000E+00  0.00000000000E+00  0.18101591569E+04  0.18101591569E+04  0.00000000000E+00 0.  1.
         21   -1    0    0  502  503  0.00000000000E+00 -0.00000000000E+00 -0.51338695943E+01  0.51338695943E+01  0.00000000000E+00 0.  1.
         25    2    1    2    0    0  0.74419074289E+01  0.16177902242E+02  0.78313668601E+03  0.79324927989E+03  0.12499697824E+03 0.  0.
          5    1    3    3  501    0 -0.16675104853E+02  0.67144902732E+02  0.47222495695E+03  0.47726608622E+03  0.10000000000E+00 0. -1.
         -5    1    3    3    0  501  0.24117012282E+02 -0.50967000489E+02  0.31091172906E+03  0.31598319368E+03  0.10000000000E+00 0. -1.
          2    1    1    2  502    0 -0.74419074289E+01 -0.16177902242E+02  0.10218886013E+04  0.10220437466E+04  0.00000000000E+00 0.  1.
<mgrwt>
<rscale>  1 0.12625906E+03</rscale>
<asrwt>0</asrwt>
<pdfrwt beam="1">  1       21 0.78982754E-03 0.12625906E+03</pdfrwt>
<pdfrwt beam="2">  1        2 0.27848552E+00 0.12625906E+03</pdfrwt>
<totfact> 0.65232549E+05</totfact>
</mgrwt>
</event>
<event>
 6    2  0.1181843E-002  0.1261042E+03  0.7546771E-02  0.1233354E+00
         21   -1    0    0  502  503  0.00000000000E+00  0.00000000000E+00  0.31718770012E+03  0.31718770012E+03  0.00000000000E+00 0. -1.
          1   -1    0    0  503    0 -0.00000000000E+00 -0.00000000000E+00 -0.20134090341E+02  0.20134090341E+02  0.00000000000E+00 0. -1.
         25    2    1    2    0    0  0.16414450891E+02 -0.26189389952E+01  0.29468327014E+03  0.32053156862E+03  0.12500385491E+03 0.  0.
          5    1    3    3  501    0 -0.40477915529E+02 -0.12116519845E+02  0.36041409918E+02  0.55536158740E+02  0.10000000000E+00 0. -1.
         -5    1    3    3    0  501  0.56892366420E+02  0.94975808496E+01  0.25864186022E+03  0.26499540988E+03  0.10000000000E+00 0. -1.
          1    1    1    2  502    0 -0.16414450891E+02  0.26189389952E+01  0.23703396425E+01  0.16790221843E+02  0.00000000000E+00 0. -1.
<mgrwt>
<rscale>  1 0.12610415E+03</rscale>
<asrwt>0</asrwt>
<pdfrwt beam="1">  1       21 0.48798104E-01 0.12610415E+03</pdfrwt>
<pdfrwt beam="2">  1        1 0.30975526E-02 0.12610415E+03</pdfrwt>
<totfact> 0.13400332E+05</totfact>
</mgrwt>
</event>
<event>
 6    2  0.1181843E-002  0.1935175E+03  0.7546771E-02  0.1155326E+00
         21   -1    0    0  502  503  0.00000000000E+00  0.00000000000E+00  0.46825415927E+02  0.46825415927E+02  0.00000000000E+00 0. -1.
          2   -1    0    0  503    0 -0.00000000000E+00 -0.00000000000E+00 -0.87889093479E+03  0.87889093479E+03  0.00000000000E+00 0. -1.
         25    2    1    2    0    0  0.54417841591E+02 -0.13734041069E+03 -0.20674543682E+03  0.28318316488E+03  0.12500135734E+03 0.  0.
          5    1    3    3  501    0  0.89738834657E+02 -0.66893642946E+02 -0.14438943913E+03  0.18269137375E+03  0.10000000000E+00 0. -1.
         -5    1    3    3    0  501 -0.35320993066E+02 -0.70446767743E+02 -0.62355997694E+02  0.10049179113E+03  0.10000000000E+00 0. -1.
          2    1    1    2  502    0 -0.54417841591E+02  0.13734041069E+03 -0.62532008204E+03  0.64253318583E+03  0.00000000000E+00 0. -1.
<mgrwt>
<rscale>  1 0.19351752E+03</rscale>
<asrwt>0</asrwt>
<pdfrwt beam="1">  1       21 0.72039102E-02 0.19351752E+03</pdfrwt>
<pdfrwt beam="2">  1        2 0.13521399E+00 0.19351752E+03</pdfrwt>
<totfact> 0.57229715E+04</totfact>
</mgrwt>
</event>
<event>
 6    2  0.1181843E-002  0.1259472E+03  0.7546771E-02  0.1233596E+00
         21   -1    0    0  502  503  0.00000000000E+00  0.00000000000E+00  0.14322047560E+03  0.14322047560E+03  0.00000000000E+00 0.  1.
          3   -1    0    0  503    0 -0.00000000000E+00 -0.00000000000E+00 -0.11033373295E+03  0.11033373295E+03  0.00000000000E+00 0.  1.
         25    2    1    2    0    0  0.14898363280E+02 -0.40130473325E+01  0.11466964018E+03  0.17032856284E+03  0.12499850865E+03 0.  0.
          5    1    3    3  501    0 -0.44469824881E+02  0.12021946814E+02  0.95307852886E+02  0.10585692869E+03  0.10000000000E+00 0. -1.
         -5    1    3    3    0  501  0.59368188161E+02 -0.16034994146E+02  0.19361787289E+02  0.64471634149E+02  0.10000000000E+00 0. -1.
          3    1    1    2  502    0 -0.14898363280E+02  0.40130473325E+01 -0.81782897523E+02  0.83225645714E+02  0.00000000000E+00 0.  1.
<mgrwt>
<rscale>  1 0.12594718E+03</rscale>
<asrwt>0</asrwt>
<pdfrwt beam="1">  1       21 0.22033919E-01 0.12594718E+03</pdfrwt>
<pdfrwt beam="2">  1        3 0.16974421E-01 0.12594718E+03</pdfrwt>
<totfact> 0.27570629E+04</totfact>
</mgrwt>
</event>
<event>
 6    2  0.1181843E-002  0.1833739E+03  0.7546771E-02  0.1164577E+00
          2   -1    0    0  503    0 -0.00000000000E+00  0.00000000000E+00  0.51382536136E+03  0.51382536136E+03  0.00000000000E+00 0. -1.
         21   -1    0    0  502  503  0.00000000000E+00 -0.00000000000E+00 -0.49066906543E+02  0.49066906543E+02  0.00000000000E+00 0. -1.
         25    2    1    2    0    0  0.10350705745E+03 -0.85372036075E+02  0.27141149817E+03  0.32755178875E+03  0.12499550987E+03 0.  0.
          5    1    3    3  501    0 -0.93862079401E+01 -0.20935921902E+02 -0.37342886830E+01  0.23245830537E+02  0.10000000000E+00 0.  1.
         -5    1    3    3    0  501  0.11289326539E+03 -0.64436114173E+02  0.27514578685E+03  0.30430595821E+03  0.10000000000E+00 0.  1.
          2    1    1    2  502    0 -0.10350705745E+03  0.85372036075E+02  0.19334695665E+03  0.23534047915E+03  0.00000000000E+00 0. -1.
<mgrwt>
<rscale>  1 0.18337386E+03</rscale>
<asrwt>0</asrwt>
<pdfrwt beam="1">  1       21 0.75487552E-02 0.18337386E+03</pdfrwt>
<pdfrwt beam="2">  1        2 0.79050052E-01 0.18337386E+03</pdfrwt>
<totfact> 0.10032241E+05</totfact>
</mgrwt>
</event>
<event>
 6    2  0.1181843E-002  0.1310366E+03  0.7546771E-02  0.1225926E+00
          1   -1    0    0  503    0 -0.00000000000E+00  0.00000000000E+00  0.48307731551E+03  0.48307731551E+03  0.00000000000E+00 0.  1.
         21   -1    0    0  502  503  0.00000000000E+00 -0.00000000000E+00 -0.22208699424E+02  0.22208699424E+02  0.00000000000E+00 0.  1.
         25    2    1    2    0    0 -0.15938265962E+02  0.35935821708E+02  0.18543469162E+03  0.22706082134E+03  0.12500072051E+03 0.  0.
          5    1    3    3  501    0 -0.41969221749E+02  0.29807284974E+02  0.13717314557E+02  0.53273488063E+02  0.10000000000E+00 0.  1.
         -5    1    3    3    0  501  0.26030955787E+02  0.61285367334E+01  0.17171737707E+03  0.17378733328E+03  0.10000000000E+00 0.  1.
          1    1    1    2  502    0  0.15938265962E+02 -0.35935821708E+02  0.27543392447E+03  0.27822519360E+03  0.00000000000E+00 0.  1.
<mgrwt>
<rscale>  1 0.13103660E+03</rscale>
<asrwt>0</asrwt>
<pdfrwt beam="1">  1       21 0.34167234E-02 0.13103660E+03</pdfrwt>
<pdfrwt beam="2">  1        1 0.74319579E-01 0.13103660E+03</pdfrwt>
<totfact> 0.26189889E+05</totfact>
</mgrwt>
</event>
<event>
 6    2  0.1181843E-002  0.1507024E+03  0.7546771E-02  0.1199613E+00
         21   -1    0    0  502  503  0.00000000000E+00  0.00000000000E+00  0.41336272364E+02  0.41336272364E+02  0.00000000000E+00 0.  1.
          1   -1    0    0  503    0 -0.00000000000E+00 -0.00000000000E+00 -0.35947656823E+03  0.35947656823E+03  0.00000000000E+00 0.  1.
         25    2    1    2    0    0 -0.72953478480E+02 -0.41984011477E+02 -0.14920262258E+03  0.21206749708E+03  0.12500533385E+03 0.  0.
          5    1    3    3  501    0 -0.27008748656E+02 -0.37413927765E+02 -0.15840381079E+03  0.16498803523E+03  0.10000000000E+00 0. -1.
         -5    1    3    3    0  501 -0.45944729824E+02 -0.45700837123E+01  0.92011882147E+01  0.47079461852E+02  0.10000000000E+00 0. -1.
          1    1    1    2  502    0  0.72953478480E+02  0.41984011477E+02 -0.16893767329E+03  0.18874534351E+03  0.00000000000E+00 0.  1.
<mgrwt>
<rscale>  1 0.15070236E+03</rscale>
<asrwt>0</asrwt>
<pdfrwt beam="1">  1       21 0.63594267E-02 0.15070236E+03</pdfrwt>
<pdfrwt beam="2">  1        1 0.55304086E-01 0.15070236E+03</pdfrwt>
<totfact> 0.13524925E+05</totfact>
</mgrwt>
</event>
<event>
 6    2  0.1181843E-002  0.1278971E+03  0.7546771E-02  0.1230610E+00
          2   -1    0    0  503    0 -0.00000000000E+00  0.00000000000E+00  0.26425789579E+04  0.26425789579E+04  0.00000000000E+00 0. -1.
         21   -1    0    0  502  503  0.00000000000E+00 -0.00000000000E+00 -0.36863818809E+01  0.36863818809E+01  0.00000000000E+00 0. -1.
         25    2    1    2    0    0  0.89769310390E+01 -0.25531085685E+02  0.11438870293E+04  0.11510148569E+04  0.12500097414E+03 0.  0.
          5    1    3    3  501    0 -0.55458111999E+02 -0.29434698314E+02  0.51035925360E+03  0.51420674965E+03  0.10000000000E+00 0.  1.
         -5    1    3    3    0  501  0.64435043038E+02  0.39036126295E+01  0.63352777566E+03  0.63680810728E+03  0.10000000000E+00 0.  1.
          2    1    1    2  502    0 -0.89769310390E+01  0.25531085685E+02  0.14950055467E+04  0.14952504828E+04  0.00000000000E+00 0. -1.
<mgrwt>
<rscale>  1 0.12789709E+03</rscale>
<asrwt>0</asrwt>
<pdfrwt beam="1">  1       21 0.56713779E-03 0.12789709E+03</pdfrwt>
<pdfrwt beam="2">  1        2 0.40654909E+00 0.12789709E+03</pdfrwt>
<totfact> 0.40308677E+05</totfact>
</mgrwt>
</event>
<event>
 6    2  0.1181843E-002  0.1280162E+03  0.7546771E-02  0.1230429E+00
          1   -1    0    0  503    0 -0.00000000000E+00  0.00000000000E+00  0.32359788437E+03  0.32359788437E+03  0.00000000000E+00 0. -1.
         21   -1    0    0  502  503  0.00000000000E+00 -0.00000000000E+00 -0.63186900769E+02  0.63186900769E+02  0.00000000000E+00 0.  1.
         25    2    1    2    0    0  0.15861590050E+02 -0.22638113797E+02  0.31622634423E+01  0.12805523859E+03  0.12499627988E+03 0.  0.
          5    1    3    3  501    0  0.63402546119E+02 -0.37486940808E+02  0.18495505873E+02  0.75942394767E+02  0.10000000000E+00 0.  1.
         -5    1    3    3    0  501 -0.47540956069E+02  0.14848827011E+02 -0.15333242431E+02  0.52112843820E+02  0.10000000000E+00 0.  1.
          1    1    1    2  502    0 -0.15861590050E+02  0.22638113797E+02  0.25724872015E+03  0.25872954655E+03  0.00000000000E+00 0. -1.
<mgrwt>
<rscale>  1 0.12801619E+03</rscale>
<asrwt>0</asrwt>
<pdfrwt beam="1">  1       21 0.97210618E-02 0.12801619E+03</pdfrwt>
<pdfrwt beam="2">  1        1 0.49784289E-01 0.12801619E+03</pdfrwt>
<totfact> 0.73757741E+04</totfact>
</mgrwt>
</event>
<event>
 6    2  0.1181843E-002  0.1753646E+03  0.7546771E-02  0.1172366E+00
         21   -1    0    0  502  503  0.00000000000E+00  0.00000000000E+00  0.37092601111E+03  0.37092601111E+03  0.00000000000E+00 0. -1.
          2   -1    0    0  503    0 -0.00000000000E+00 -0.00000000000E+00 -0.78132310886E+02  0.78132310886E+02  0.00000000000E+00 0. -1.
         25    2    1    2    0    0 -0.37066739105E+02 -0.11727530069E+03  0.27301560644E+03  0.32448459967E+03  0.12500117904E+03 0.  0.
          5    1    3    3  501    0 -0.13549594594E+01 -0.24802830175E+02 -0.83195453504E+01  0.26196204585E+02  0.10000000000E+00 0.  1.
         -5    1    3    3    0  501 -0.35711779646E+02 -0.92472470516E+02  0.28133515179E+03  0.29828839508E+03  0.10000000000E+00 0.  1.
          2    1    1    2  502    0  0.37066739105E+02  0.11727530069E+03  0.19778093782E+02  0.12457372232E+03  0.00000000000E+00 0. -1.
<mgrwt>
<rscale>  1 0.17536457E+03</rscale>
<asrwt>0</asrwt>
<pdfrwt beam="1">  1       21 0.57065539E-01 0.17536457E+03</pdfrwt>
<pdfrwt beam="2">  1        2 0.12020356E-01 0.17536457E+03</pdfrwt>
<totfact> 0.17877777E+04</totfact>
</mgrwt>
</event>
<event>
 6    2  0.1181843E-002  0.1260003E+03  0.7546771E-02  0.1233514E+00
          2   -1    0    0  503    0 -0.00000000000E+00  0.00000000000E+00  0.23476912315E+02  0.23476912315E+02  0.00000000000E+00 0. -1.
         21   -1    0    0  502  503  0.00000000000E+00 -0.00000000000E+00 -0.38915961488E+03  0.38915961488E+03  0.00000000000E+00 0.  1.
         25    2    1    2    0    0  0.14739482391E+02 -0.58121934859E+01 -0.37406202936E+03  0.39471316112E+03  0.12500017528E+03 0.  0.
          5    1    3    3  501    0  0.69088405150E+02 -0.14721346869E+02 -0.19688470433E+03  0.20917342704E+03  0.10000000000E+00 0. -1.
         -5    1    3    3    0  501 -0.54348922758E+02  0.89091533835E+01 -0.17717732503E+03  0.18553973408E+03  0.10000000000E+00 0. -1.
          2    1    1    2  502    0 -0.14739482391E+02  0.58121934859E+01  0.83793267867E+01  0.17923366081E+02  0.00000000000E+00 0. -1.
<mgrwt>
<rscale>  1 0.12600031E+03</rscale>
<asrwt>0</asrwt>
<pdfrwt beam="1">  1       21 0.59870707E-01 0.12600031E+03</pdfrwt>
<pdfrwt beam="2">  1        2 0.36118328E-02 0.12600031E+03</pdfrwt>
<totfact> 0.74793678E+04</totfact>
</mgrwt>
</event>
<event>
 6    2  0.1181843E-002  0.2291447E+03  0.7546771E-02  0.1127243E+00
          1   -1    0    0  503    0 -0.00000000000E+00  0.00000000000E+00  0.34623772544E+03  0.34623772544E+03  0.00000000000E+00 0. -1.
         21   -1    0    0  502  503  0.00000000000E+00 -0.00000000000E+00 -0.13930974228E+03  0.13930974228E+03  0.00000000000E+00 0. -1.
         25    2    1    2    0    0  0.16355887867E+03 -0.10069967071E+03  0.18043244149E+03  0.29165588925E+03  0.12496143933E+03 0.  0.
          5    1    3    3  501    0  0.12126057719E+03 -0.12686837582E+03  0.16130041820E+03  0.23836431627E+03  0.10000000000E+00 0.  1.
         -5    1    3    3    0  501  0.42298301477E+02  0.26168705102E+02  0.19132023288E+02  0.53291572971E+02  0.10000000000E+00 0.  1.
          1    1    1    2  502    0 -0.16355887867E+03  0.10069967071E+03  0.26495541675E+02  0.19389157847E+03  0.00000000000E+00 0. -1.
<mgrwt>
<rscale>  1 0.22914470E+03</rscale>
<asrwt>0</asrwt>
<pdfrwt beam="1">  1       21 0.21432268E-01 0.22914470E+03</pdfrwt>
<pdfrwt beam="2">  1        1 0.53267342E-01 0.22914470E+03</pdfrwt>
<totfact> 0.16132531E+04</totfact>
</mgrwt>
</event>
<event>
 6    2  0.1181843E-002  0.1271652E+03  0.7546771E-02  0.1231724E+00
         21   -1    0    0  502  503  0.00000000000E+00  0.00000000000E+00  0.54113177263E+02  0.54113177263E+02  0.00000000000E+00 0. -1.
          2   -1    0    0  503    0 -0.00000000000E+00 -0.00000000000E+00 -0.73917209729E+03  0.73917209729E+03  0.00000000000E+00 0. -1.
         25    2    1    2    0    0 -0.17567697054E+02 -0.15420266937E+02 -0.21086616745E+02  0.12890162926E+03  0.12499830402E+03 0.  0.
          5    1    3    3  501    0  0.47362176306E+02 -0.18664324099E+02 -0.35814572648E+02  0.62243283593E+02  0.10000000000E+00 0.  1.
         -5    1    3    3    0  501 -0.64929873360E+02  0.32440571619E+01  0.14727955903E+02  0.66658345662E+02  0.10000000000E+00 0.  1.
          2    1    1    2  502    0  0.17567697054E+02  0.15420266937E+02 -0.66397230329E+03  0.66438364530E+03  0.00000000000E+00 0. -1.
<mgrwt>
<rscale>  1 0.12716519E+03</rscale>
<asrwt>0</asrwt>
<pdfrwt beam="1">  1       21 0.83251042E-02 0.12716519E+03</pdfrwt>
<pdfrwt beam="2">  1        2 0.11371878E+00 0.12716519E+03</pdfrwt>
<totfact> 0.55489230E+04</totfact>
</mgrwt>
</event>
<event>
 6    2  0.1181843E-002  0.1310827E+03  0.7546771E-02  0.1225858E+00
         21   -1    0    0  502  503  0.00000000000E+00  0.00000000000E+00  0.37546808012E+02  0.37546808012E+02  0.00000000000E+00 0. -1.
          2   -1    0    0  503    0 -0.00000000000E+00 -0.00000000000E+00 -0.77394315486E+03  0.77394315486E+03  0.00000000000E+00 0. -1.
         25    2    1    2    0    0  0.24631113609E+02 -0.30828101040E+02 -0.79285657382E+02  0.15319555929E+03  0.12500240138E+03 0.  0.
          5    1    3    3  501    0  0.87186618560E+01 -0.73333352451E+02 -0.16411330814E+02  0.75651420511E+02  0.10000000000E+00 0.  1.
         -5    1    3    3    0  501  0.15912451753E+02  0.42505251411E+02 -0.62874326568E+02  0.77544138783E+02  0.10000000000E+00 0.  1.
          2    1    1    2  502    0 -0.24631113609E+02  0.30828101040E+02 -0.65711068946E+03  0.65829440358E+03  0.00000000000E+00 0. -1.
<mgrwt>
<rscale>  1 0.13108266E+03</rscale>
<asrwt>0</asrwt>
<pdfrwt beam="1">  1       21 0.57764326E-02 0.13108266E+03</pdfrwt>
<pdfrwt beam="2">  1        2 0.11906817E+00 0.13108266E+03</pdfrwt>
<totfact> 0.98063363E+04</totfact>
</mgrwt>
</event>
<event>
 6    2  0.1181843E-002  0.1284246E+03  0.7546771E-02  0.1229812E+00
         21   -1    0    0  502  503  0.00000000000E+00  0.00000000000E+00  0.25419630514E+03  0.25419630514E+03  0.00000000000E+00 0.  1.
          1   -1    0    0  503    0 -0.00000000000E+00 -0.00000000000E+00 -0.61384053561E+02  0.61384053561E+02  0.00000000000E+00 0. -1.
         25    2    1    2    0    0  0.12388996907E+02  0.26790453756E+02  0.23280321862E+03  0.26587630352E+03  0.12498661736E+03 0.  0.
          5    1    3    3  501    0 -0.34577303403E+02 -0.24996323473E+01  0.96853867117E+01  0.35995205073E+02  0.10000000000E+00 0. -1.
         -5    1    3    3    0  501  0.46966300311E+02  0.29290086103E+02  0.22311783191E+03  0.22988109845E+03  0.10000000000E+00 0. -1.
          1    1    1    2  502    0 -0.12388996907E+02 -0.26790453756E+02 -0.39990967038E+02  0.49704055181E+02  0.00000000000E+00 0. -1.
<mgrwt>
<rscale>  1 0.12842457E+03</rscale>
<asrwt>0</asrwt>
<pdfrwt beam="1">  1       21 0.39107123E-01 0.12842457E+03</pdfrwt>
<pdfrwt beam="2">  1        1 0.94437007E-02 0.12842457E+03</pdfrwt>
<totfact> 0.46154761E+04</totfact>
</mgrwt>
</event>
<event>
 6    2  0.1181843E-002  0.1275663E+03  0.7546771E-02  0.1231112E+00
         21   -1    0    0  502  503  0.00000000000E+00  0.00000000000E+00  0.66786775133E+03  0.66786775133E+03  0.00000000000E+00 0. -1.
          2   -1    0    0  503    0 -0.00000000000E+00 -0.00000000000E+00 -0.27980594932E+02  0.27980594932E+02  0.00000000000E+00 0.  1.
         25    2    1    2    0    0  0.24743549114E+02  0.59548599597E+01  0.65428709576E+03  0.66660690592E+03  0.12500183903E+03 0.  0.
          5    1    3    3  501    0  0.28593970586E+02  0.10821261572E+02  0.31886930841E+02  0.44175798967E+02  0.10000000000E+00 0.  1.
         -5    1    3    3    0  501 -0.38504214722E+01 -0.48664016120E+01  0.62240016492E+03  0.62243110695E+03  0.10000000000E+00 0.  1.
          2    1    1    2  502    0 -0.24743549114E+02 -0.59548599597E+01 -0.14399939359E+02  0.29241440345E+02  0.00000000000E+00 0.  1.
<mgrwt>
<rscale>  1 0.12756631E+03</rscale>
<asrwt>0</asrwt>
<pdfrwt beam="1">  1       21 0.10274887E+00 0.12756631E+03</pdfrwt>
<pdfrwt beam="2">  1        2 0.43047074E-02 0.12756631E+03</pdfrwt>
<totfact> 0.17794227E+04</totfact>
</mgrwt>
</event>
<event>
 6    2  0.1181843E-002  0.1260722E+03  0.7546771E-02  0.1233403E+00
         21   -1    0    0  502  503  0.00000000000E+00  0.00000000000E+00  0.94326132793E+02  0.94326132793E+02  0.00000000000E+00 0.  1.
          3   -1    0    0  503    0 -0.00000000000E+00 -0.00000000000E+00 -0.32316857134E+03  0.32316857134E+03  0.00000000000E+00 0.  1.
         25    2    1    2    0    0  0.83315670836E+01  0.14125235842E+02  0.51854022299E+02  0.13631959779E+03  0.12500102325E+03 0.  0.
          5    1    3    3  501    0  0.45232187113E+02  0.53811475087E+02  0.39881389912E+02  0.80821784585E+02  0.10000000000E+00 0. -1.
         -5    1    3    3    0  501 -0.36900620030E+02 -0.39686239245E+02  0.11972632387E+02  0.55497813202E+02  0.10000000000E+00 0. -1.
          3    1    1    2  502    0 -0.83315670836E+01 -0.14125235842E+02 -0.28069646084E+03  0.28117510634E+03  0.00000000000E+00 0.  1.
<mgrwt>
<rscale>  1 0.12607217E+03</rscale>
<asrwt>0</asrwt>
<pdfrwt beam="1">  1       21 0.14511713E-01 0.12607217E+03</pdfrwt>
<pdfrwt beam="2">  1        3 0.49718242E-01 0.12607217E+03</pdfrwt>
<totfact> 0.81519428E+03</totfact>
</mgrwt>
</event>
<event>
 6    2  0.1181843E-002  0.1652808E+03  0.7546771E-02  0.1182861E+00
          2   -1    0    0  503    0 -0.00000000000E+00  0.00000000000E+00  0.33827685136E+03  0.33827685136E+03  0.00000000000E+00 0. -1.
         21   -1    0    0  502  503  0.00000000000E+00 -0.00000000000E+00 -0.55393641133E+02  0.55393641133E+02  0.00000000000E+00 0. -1.
         25    2    1    2    0    0  0.29785131247E+02  0.10395353879E+03  0.16106781531E+03  0.23078254724E+03  0.12499700280E+03 0.  0.
          5    1    3    3  501    0  0.46494171532E+02  0.11225796460E+03  0.17090017847E+03  0.20969129596E+03  0.10000000000E+00 0. -1.
         -5    1    3    3    0  501 -0.16709040284E+02 -0.83044258067E+01 -0.98323631533E+01  0.21091251276E+02  0.10000000000E+00 0. -1.
          2    1    1    2  502    0 -0.29785131247E+02 -0.10395353879E+03  0.12181539491E+03  0.16288794525E+03  0.00000000000E+00 0. -1.
<mgrwt>
<rscale>  1 0.16528080E+03</rscale>
<asrwt>0</asrwt>
<pdfrwt beam="1">  1       21 0.85220989E-02 0.16528080E+03</pdfrwt>
<pdfrwt beam="2">  1        2 0.52042591E-01 0.16528080E+03</pdfrwt>
<totfact> 0.12770104E+05</totfact>
</mgrwt>
</event>
<event>
 6    2  0.1181843E-002  0.1289617E+03  0.7546771E-02  0.1229005E+00
          2   -1    0    0  503    0 -0.00000000000E+00  0.00000000000E+00  0.16660737362E+04  0.16660737362E+04  0.00000000000E+00 0. -1.
         21   -1    0    0  502  503  0.00000000000E+00 -0.00000000000E+00 -0.28447873281E+02  0.28447873281E+02  0.00000000000E+00 0. -1.
         25    2    1    2    0    0  0.20972429507E+02 -0.23813941898E+02  0.11872847705E+03  0.17529278687E+03  0.12499665292E+03 0.  0.
          5    1    3    3  501    0  0.26773868068E+02  0.29515032320E+02 -0.52620018231E+01  0.40195469985E+02  0.10000000000E+00 0. -1.
         -5    1    3    3    0  501 -0.58014385607E+01 -0.53328974218E+02  0.12399047887E+03  0.13509731689E+03  0.10000000000E+00 0. -1.
          2    1    1    2  502    0 -0.20972429507E+02  0.23813941898E+02  0.15188973859E+04  0.15192288226E+04  0.00000000000E+00 0. -1.
<mgrwt>
<rscale>  1 0.12896166E+03</rscale>
<asrwt>0</asrwt>
<pdfrwt beam="1">  1       21 0.43765972E-02 0.12896166E+03</pdfrwt>
<pdfrwt beam="2">  1        2 0.25631896E+00 0.12896166E+03</pdfrwt>
<totfact> 0.48971033E+04</totfact>
</mgrwt>
</event>
<event>
 6    2  0.1181843E-002  0.1285878E+03  0.7546771E-02  0.1229566E+00
         21   -1    0    0  502  503  0.00000000000E+00  0.00000000000E+00  0.17598251618E+02  0.17598251618E+02  0.00000000000E+00 0. -1.
          1   -1    0    0  503    0 -0.00000000000E+00 -0.00000000000E+00 -0.14866622589E+04  0.14866622589E+04  0.00000000000E+00 0.  1.
         25    2    1    2    0    0  0.29166630217E+02 -0.76531976845E+01 -0.21993075362E+03  0.25476335199E+03  0.12500226149E+03 0.  0.
          5    1    3    3  501    0 -0.10055835314E+02  0.35744293992E+02 -0.12402403268E+02  0.39148486352E+02  0.10000000000E+00 0. -1.
         -5    1    3    3    0  501  0.39222465532E+02 -0.43397491676E+02 -0.20752835035E+03  0.21561486564E+03  0.10000000000E+00 0. -1.
          1    1    1    2  502    0 -0.29166630217E+02  0.76531976845E+01 -0.12491332537E+04  0.12494971585E+04  0.00000000000E+00 0.  1.
<mgrwt>
<rscale>  1 0.12858783E+03</rscale>
<asrwt>0</asrwt>
<pdfrwt beam="1">  1       21 0.27074233E-02 0.12858783E+03</pdfrwt>
<pdfrwt beam="2">  1        1 0.22871728E+00 0.12858783E+03</pdfrwt>
<totfact> 0.62575821E+04</totfact>
</mgrwt>
</event>
<event>
 6    2  0.1181843E-002  0.1294632E+03  0.7546771E-02  0.1228254E+00
         21   -1    0    0  502  503  0.00000000000E+00  0.00000000000E+00  0.77988939841E+01  0.77988939841E+01  0.00000000000E+00 0.  1.
          1   -1    0    0  503    0 -0.00000000000E+00 -0.00000000000E+00 -0.99302076601E+03  0.99302076601E+03  0.00000000000E+00 0.  1.
         25    2    1    2    0    0  0.11260992500E+02  0.31789245353E+02 -0.58374908216E+03  0.59793286811E+03  0.12499343091E+03 0.  0.
          5    1    3    3  501    0  0.36877315232E+02  0.33787481090E+01 -0.53347976457E+03  0.53476351926E+03  0.10000000000E+00 0. -1.
         -5    1    3    3    0  501 -0.25616322731E+02  0.28410497244E+02 -0.50269317583E+02  0.63169348850E+02  0.10000000000E+00 0. -1.
          1    1    1    2  502    0 -0.11260992500E+02 -0.31789245353E+02 -0.40147278987E+03  0.40288679189E+03  0.00000000000E+00 0.  1.
<mgrwt>
<rscale>  1 0.12946321E+03</rscale>
<asrwt>0</asrwt>
<pdfrwt beam="1">  1       21 0.11998300E-02 0.12946321E+03</pdfrwt>
<pdfrwt beam="2">  1        1 0.15277240E+00 0.12946321E+03</pdfrwt>
<totfact> 0.50201916E+05</totfact>
</mgrwt>
</event>
<event>
 6    2  0.1181843E-002  0.1361270E+03  0.7546771E-02  0.1218637E+00
         21   -1    0    0  502  503  0.00000000000E+00  0.00000000000E+00  0.17941603773E+02  0.17941603773E+02  0.00000000000E+00 0.  1.
          2   -1    0    0  503    0 -0.00000000000E+00 -0.00000000000E+00 -0.86142182207E+03  0.86142182207E+03  0.00000000000E+00 0.  1.
         25    2    1    2    0    0 -0.63301363182E+01 -0.53520647818E+02 -0.26073534294E+03  0.29413174512E+03  0.12500413617E+03 0.  0.
          5    1    3    3  501    0 -0.13376913062E+02 -0.93674370650E+02 -0.16765313603E+03  0.19251341133E+03  0.10000000000E+00 0.  1.
         -5    1    3    3    0  501  0.70467767436E+01  0.40153722832E+02 -0.93082206913E+02  0.10161833380E+03  0.10000000000E+00 0.  1.
          2    1    1    2  502    0  0.63301363182E+01  0.53520647818E+02 -0.58274487535E+03  0.58523168072E+03  0.00000000000E+00 0.  1.
<mgrwt>
<rscale>  1 0.13612702E+03</rscale>
<asrwt>0</asrwt>
<pdfrwt beam="1">  1       21 0.27602465E-02 0.13612702E+03</pdfrwt>
<pdfrwt beam="2">  1        2 0.13252645E+00 0.13612702E+03</pdfrwt>
<totfact> 0.29314587E+05</totfact>
</mgrwt>
</event>
<event>
 6    2  0.1181843E-002  0.1274361E+03  0.7546771E-02  0.1231310E+00
         21   -1    0    0  502  503  0.00000000000E+00  0.00000000000E+00  0.13160392662E+02  0.13160392662E+02  0.00000000000E+00 0.  1.
          1   -1    0    0  503    0 -0.00000000000E+00 -0.00000000000E+00 -0.57716967042E+03  0.57716967042E+03  0.00000000000E+00 0.  1.
         25    2    1    2    0    0  0.65480552464E+01  0.23930069091E+02 -0.31084808646E+03  0.33595609819E+03  0.12499776727E+03 0.  0.
          5    1    3    3  501    0  0.13976950324E+02 -0.50496462679E+02 -0.11791725447E+03  0.12903385906E+03  0.10000000000E+00 0.  1.
         -5    1    3    3    0  501 -0.74288950780E+01  0.74426531770E+02 -0.19293083199E+03  0.20692223913E+03  0.10000000000E+00 0.  1.
          1    1    1    2  502    0 -0.65480552464E+01 -0.23930069091E+02 -0.25316119130E+03  0.25437396490E+03  0.00000000000E+00 0.  1.
<mgrwt>
<rscale>  1 0.12743613E+03</rscale>
<asrwt>0</asrwt>
<pdfrwt beam="1">  1       21 0.20246764E-02 0.12743613E+03</pdfrwt>
<pdfrwt beam="2">  1        1 0.88795308E-01 0.12743613E+03</pdfrwt>
<totfact> 0.48567097E+05</totfact>
</mgrwt>
</event>
<event>
 6    2  0.1181843E-002  0.1261012E+03  0.7546771E-02  0.1233358E+00
         21   -1    0    0  502  503  0.00000000000E+00  0.00000000000E+00  0.62656526397E+02  0.62656526397E+02  0.00000000000E+00 0. -1.
          2   -1    0    0  503    0 -0.00000000000E+00 -0.00000000000E+00 -0.31298645367E+03  0.31298645367E+03  0.00000000000E+00 0. -1.
         25    2    1    2    0    0 -0.16570355136E+02 -0.97155205505E+00 -0.13480018782E+01  0.12610837374E+03  0.12500393688E+03 0.  0.
          5    1    3    3  501    0 -0.47640567588E+02  0.27510501846E+02 -0.40709354220E+02  0.68437657126E+02  0.10000000000E+00 0. -1.
         -5    1    3    3    0  501  0.31070212452E+02 -0.28482053901E+02  0.39361352341E+02  0.57670716611E+02  0.10000000000E+00 0. -1.
          2    1    1    2  502    0  0.16570355136E+02  0.97155205505E+00 -0.24898192540E+03  0.24953460633E+03  0.00000000000E+00 0. -1.
<mgrwt>
<rscale>  1 0.12610117E+03</rscale>
<asrwt>0</asrwt>
<pdfrwt beam="1">  1       21 0.96394656E-02 0.12610117E+03</pdfrwt>
<pdfrwt beam="2">  1        2 0.48151762E-01 0.12610117E+03</pdfrwt>
<totfact> 0.11093951E+05</totfact>
</mgrwt>
</event>
<event>
 6    2  0.1181843E-002  0.1277394E+03  0.7546771E-02  0.1230849E+00
         21   -1    0    0  502  503  0.00000000000E+00  0.00000000000E+00  0.10146633218E+03  0.10146633218E+03  0.00000000000E+00 0.  1.
          2   -1    0    0  503    0 -0.00000000000E+00 -0.00000000000E+00 -0.13788030132E+04  0.13788030132E+04  0.00000000000E+00 0. -1.
         25    2    1    2    0    0  0.20836134685E+02 -0.16013633416E+02  0.61082337487E+02  0.14159236789E+03  0.12500706271E+03 0.  0.
          5    1    3    3  501    0 -0.31361058172E+02  0.15562364347E+02  0.71587152637E+02  0.79689607706E+02  0.10000000000E+00 0.  1.
         -5    1    3    3    0  501  0.52197192857E+02 -0.31575997762E+02 -0.10504815150E+02  0.61902760182E+02  0.10000000000E+00 0.  1.
          2    1    1    2  502    0 -0.20836134685E+02  0.16013633416E+02 -0.13384190185E+04  0.13386769775E+04  0.00000000000E+00 0. -1.
<mgrwt>
<rscale>  1 0.12773937E+03</rscale>
<asrwt>0</asrwt>
<pdfrwt beam="1">  1       21 0.15610205E-01 0.12773937E+03</pdfrwt>
<pdfrwt beam="2">  1        2 0.21212354E+00 0.12773937E+03</pdfrwt>
<totfact> 0.76412242E+03</totfact>
</mgrwt>
</event>
<event>
 6    2  0.1181843E-002  0.1738633E+03  0.7546771E-02  0.1173878E+00
         21   -1    0    0  502  503  0.00000000000E+00  0.00000000000E+00  0.46293778883E+02  0.46293778883E+02  0.00000000000E+00 0.  1.
          2   -1    0    0  503    0 -0.00000000000E+00 -0.00000000000E+00 -0.12992405629E+04  0.12992405629E+04  0.00000000000E+00 0.  1.
         25    2    1    2    0    0 -0.10280345164E+03  0.63526385850E+02 -0.13252009312E+03  0.21860926839E+03  0.12499714307E+03 0.  0.
          5    1    3    3  501    0 -0.11411470716E+03  0.59572293974E+02 -0.54693692398E+02  0.13986577346E+03  0.10000000000E+00 0.  1.
         -5    1    3    3    0  501  0.11311255510E+02  0.39540918760E+01 -0.77826400726E+02  0.78743494930E+02  0.10000000000E+00 0.  1.
          2    1    1    2  502    0  0.10280345164E+03 -0.63526385850E+02 -0.11204266909E+04  0.11269250734E+04  0.00000000000E+00 0.  1.
<mgrwt>
<rscale>  1 0.17386327E+03</rscale>
<asrwt>0</asrwt>
<pdfrwt beam="1">  1       21 0.71221206E-02 0.17386327E+03</pdfrwt>
<pdfrwt beam="2">  1        2 0.19988314E+00 0.17386327E+03</pdfrwt>
<totfact> 0.33150922E+04</totfact>
</mgrwt>
</event>
<event>
 6    2  0.1181843E-002  0.1449608E+03  0.7546771E-02  0.1206806E+00
         21   -1    0    0  502  503  0.00000000000E+00  0.00000000000E+00  0.64759026171E+03  0.64759026171E+03  0.00000000000E+00 0.  1.
          4   -1    0    0  503    0 -0.00000000000E+00 -0.00000000000E+00 -0.51975613887E+02  0.51975613887E+02  0.00000000000E+00 0.  1.
         25    2    1    2    0    0 -0.55664238888E+02 -0.47862200143E+02  0.60806538264E+03  0.62510569502E+03  0.12499729075E+03 0.  0.
          5    1    3    3  501    0 -0.79668507987E+02 -0.44440446479E+02  0.58350441096E+03  0.59059244159E+03  0.10000000000E+00 0. -1.
         -5    1    3    3    0  501  0.24004269099E+02 -0.34217536639E+01  0.24560971675E+02  0.34513253436E+02  0.10000000000E+00 0. -1.
          4    1    1    2  502    0  0.55664238888E+02  0.47862200143E+02 -0.12450734815E+02  0.74460180573E+02  0.00000000000E+00 0.  1.
<mgrwt>
<rscale>  1 0.14496075E+03</rscale>
<asrwt>0</asrwt>
<pdfrwt beam="1">  1       21 0.99629265E-01 0.14496075E+03</pdfrwt>
<pdfrwt beam="2">  1        4 0.79962488E-02 0.14496075E+03</pdfrwt>
<totfact> 0.38210139E+03</totfact>
</mgrwt>
</event>
<event>
 6    2  0.1181843E-002  0.1415733E+03  0.7546771E-02  0.1211227E+00
         21   -1    0    0  502  503  0.00000000000E+00  0.00000000000E+00  0.83156622478E+02  0.83156622478E+02  0.00000000000E+00 0.  1.
          1   -1    0    0  503    0 -0.00000000000E+00 -0.00000000000E+00 -0.17405314512E+03  0.17405314512E+03  0.00000000000E+00 0.  1.
         25    2    1    2    0    0  0.54898038254E+02  0.37452486516E+02  0.36775832493E+01  0.14162107933E+03  0.12500608842E+03 0.  0.
          5    1    3    3  501    0  0.43194083139E+01 -0.40934470091E+02 -0.19424202953E+02  0.45514808471E+02  0.10000000000E+00 0. -1.
         -5    1    3    3    0  501  0.50578629940E+02  0.78386956607E+02  0.23101786203E+02  0.96106270859E+02  0.10000000000E+00 0. -1.
          1    1    1    2  502    0 -0.54898038254E+02 -0.37452486516E+02 -0.94574105892E+02  0.11558868827E+03  0.00000000000E+00 0.  1.
<mgrwt>
<rscale>  1 0.14157332E+03</rscale>
<asrwt>0</asrwt>
<pdfrwt beam="1">  1       21 0.12793327E-01 0.14157332E+03</pdfrwt>
<pdfrwt beam="2">  1        1 0.26777407E-01 0.14157332E+03</pdfrwt>
<totfact> 0.98288155E+04</totfact>
</mgrwt>
</event>
<event>
 6    2  0.1181843E-002  0.1426939E+03  0.7546771E-02  0.1209749E+00
          1   -1    0    0  503    0 -0.00000000000E+00  0.00000000000E+00  0.17473087638E+04  0.17473087638E+04  0.00000000000E+00 0.  1.
         21   -1    0    0  502  503  0.00000000000E+00 -0.00000000000E+00 -0.73979753516E+02  0.73979753516E+02  0.00000000000E+00 0. -1.
         25    2    1    2    0    0 -0.90011341556E+01 -0.68234388233E+02 -0.38032752746E+01  0.14274460803E+03  0.12499842425E+03 0.  0.
          5    1    3    3  501    0  0.57261114489E+02 -0.24769063888E+02 -0.10297976628E+02  0.63232903469E+02  0.10000000000E+00 0.  1.
         -5    1    3    3    0  501 -0.66262248645E+02 -0.43465324344E+02  0.64947013536E+01  0.79511704556E+02  0.10000000000E+00 0.  1.
          1    1    1    2  502    0  0.90011341556E+01  0.68234388233E+02  0.16771322856E+04  0.16785439093E+04  0.00000000000E+00 0.  1.
<mgrwt>
<rscale>  1 0.14269393E+03</rscale>
<asrwt>0</asrwt>
<pdfrwt beam="1">  1       21 0.11381502E-01 0.14269393E+03</pdfrwt>
<pdfrwt beam="2">  1        1 0.26881670E+00 0.14269393E+03</pdfrwt>
<totfact> 0.37193976E+03</totfact>
</mgrwt>
</event>
<event>
 6    2  0.1181843E-002  0.2237643E+03  0.7546771E-02  0.1131107E+00
         21   -1    0    0  502  503  0.00000000000E+00  0.00000000000E+00  0.29534937782E+02  0.29534937782E+02  0.00000000000E+00 0.  1.
          1   -1    0    0  503    0 -0.00000000000E+00 -0.00000000000E+00 -0.15155439020E+04  0.15155439020E+04  0.00000000000E+00 0. -1.
         25    2    1    2    0    0  0.18511077278E+03 -0.13385217719E+02 -0.10025964984E+04  0.10272634534E+04  0.12500120745E+03 0.  0.
          5    1    3    3  501    0  0.14946862505E+03 -0.21280236730E+02 -0.47524123251E+03  0.49864612445E+03  0.10000000000E+00 0. -1.
         -5    1    3    3    0  501  0.35642147726E+02  0.78950190111E+01 -0.52735526592E+03  0.52861732899E+03  0.10000000000E+00 0. -1.
          1    1    1    2  502    0 -0.18511077278E+03  0.13385217719E+02 -0.48341246578E+03  0.51781538633E+03  0.00000000000E+00 0. -1.
<mgrwt>
<rscale>  1 0.22376430E+03</rscale>
<asrwt>0</asrwt>
<pdfrwt beam="1">  1       21 0.45438350E-02 0.22376430E+03</pdfrwt>
<pdfrwt beam="2">  1        1 0.23316068E+00 0.22376430E+03</pdfrwt>
<totfact> 0.24924469E+04</totfact>
</mgrwt>
</event>
<event>
 6    2  0.1181843E-002  0.1302303E+03  0.7546771E-02  0.1227114E+00
         21   -1    0    0  502  503  0.00000000000E+00  0.00000000000E+00  0.59682915581E+01  0.59682915581E+01  0.00000000000E+00 0.  1.
          1   -1    0    0  503    0 -0.00000000000E+00 -0.00000000000E+00 -0.11940085748E+04  0.11940085748E+04  0.00000000000E+00 0.  1.
         25    2    1    2    0    0  0.35896564905E+02 -0.77263907141E+01 -0.99378821386E+03  0.10022848662E+04  0.12494670236E+03 0.  0.
          5    1    3    3  501    0  0.63741225701E+02  0.37042919412E+02 -0.45632512801E+03  0.46224209478E+03  0.10000000000E+00 0. -1.
         -5    1    3    3    0  501 -0.27844660795E+02 -0.44769310126E+02 -0.53746308585E+03  0.54004277137E+03  0.10000000000E+00 0. -1.
          1    1    1    2  502    0 -0.35896564905E+02  0.77263907141E+01 -0.19425206944E+03  0.19769200026E+03  0.00000000000E+00 0.  1.
<mgrwt>
<rscale>  1 0.13023033E+03</rscale>
<asrwt>0</asrwt>
<pdfrwt beam="1">  1       21 0.91819761E-03 0.13023033E+03</pdfrwt>
<pdfrwt beam="2">  1        1 0.18369385E+00 0.13023033E+03</pdfrwt>
<totfact> 0.55250443E+05</totfact>
</mgrwt>
</event>
<event>
 6    2  0.1181843E-002  0.1264628E+03  0.7546771E-02  0.1232801E+00
          2   -1    0    0  503    0 -0.00000000000E+00  0.00000000000E+00  0.83162302023E+03  0.83162302023E+03  0.00000000000E+00 0.  1.
         21   -1    0    0  502  503  0.00000000000E+00 -0.00000000000E+00 -0.11989021724E+03  0.11989021724E+03  0.00000000000E+00 0. -1.
         25    2    1    2    0    0  0.14758622133E+02  0.12238844766E+02 -0.86394112635E+02  0.15315606195E+03  0.12500092146E+03 0.  0.
          5    1    3    3  501    0 -0.11711176363E+02 -0.53462949715E+02 -0.28697274937E+02  0.61797914470E+02  0.10000000000E+00 0. -1.
         -5    1    3    3    0  501  0.26469798496E+02  0.65701794480E+02 -0.57696837698E+02  0.91358147478E+02  0.10000000000E+00 0. -1.
          2    1    1    2  502    0 -0.14758622133E+02 -0.12238844766E+02  0.79812691563E+03  0.79835717552E+03  0.00000000000E+00 0.  1.
<mgrwt>
<rscale>  1 0.12646279E+03</rscale>
<asrwt>0</asrwt>
<pdfrwt beam="1">  1       21 0.18444649E-01 0.12646279E+03</pdfrwt>
<pdfrwt beam="2">  1        2 0.12794200E+00 0.12646279E+03</pdfrwt>
<totfact> 0.11676238E+04</totfact>
</mgrwt>
</event>
<event>
 6    2  0.1181843E-002  0.1518095E+03  0.7546771E-02  0.1198267E+00
         21   -1    0    0  502  503  0.00000000000E+00  0.00000000000E+00  0.12801576783E+02  0.12801576783E+02  0.00000000000E+00 0.  1.
          1   -1    0    0  503    0 -0.00000000000E+00 -0.00000000000E+00 -0.18796905757E+04  0.18796905757E+04  0.00000000000E+00 0. -1.
         25    2    1    2    0    0  0.30989048967E+02 -0.80377269030E+02 -0.49156168969E+03  0.51446964394E+03  0.12500117294E+03 0.  0.
          5    1    3    3  501    0  0.83455691310E+01 -0.32398267557E+02 -0.43731168392E+03  0.43858957484E+03  0.10000000000E+00 0. -1.
         -5    1    3    3    0  501  0.22643479836E+02 -0.47979001473E+02 -0.54250005770E+02  0.75880069106E+02  0.10000000000E+00 0. -1.
          1    1    1    2  502    0 -0.30989048967E+02  0.80377269030E+02 -0.13753273092E+04  0.13780225085E+04  0.00000000000E+00 0. -1.
<mgrwt>
<rscale>  1 0.15180949E+03</rscale>
<asrwt>0</asrwt>
<pdfrwt beam="1">  1       21 0.19694725E-02 0.15180949E+03</pdfrwt>
<pdfrwt beam="2">  1        1 0.28918329E+00 0.15180949E+03</pdfrwt>
<totfact> 0.58639934E+04</totfact>
</mgrwt>
</event>
<event>
 6    2  0.1181843E-002  0.1260635E+03  0.7546771E-02  0.1233417E+00
          1   -1    0    0  503    0 -0.00000000000E+00  0.00000000000E+00  0.40325086722E+03  0.40325086722E+03  0.00000000000E+00 0. -1.
         21   -1    0    0  502  503  0.00000000000E+00 -0.00000000000E+00 -0.21948778339E+02  0.21948778339E+02  0.00000000000E+00 0. -1.
         25    2    1    2    0    0  0.99551820576E+01  0.12997645071E+02  0.16191957077E+03  0.20520706914E+03  0.12499579752E+03 0.  0.
          5    1    3    3  501    0  0.48884029507E+02  0.22393260789E+02  0.19390152189E+02  0.57158503055E+02  0.10000000000E+00 0.  1.
         -5    1    3    3    0  501 -0.38928847449E+02 -0.93956157176E+01  0.14252941858E+03  0.14804856608E+03  0.10000000000E+00 0.  1.
          1    1    1    2  502    0 -0.99551820576E+01 -0.12997645071E+02  0.21938251812E+03  0.21999257643E+03  0.00000000000E+00 0. -1.
<mgrwt>
<rscale>  1 0.12606345E+03</rscale>
<asrwt>0</asrwt>
<pdfrwt beam="1">  1       21 0.33767354E-02 0.12606345E+03</pdfrwt>
<pdfrwt beam="2">  1        1 0.62038590E-01 0.12606345E+03</pdfrwt>
<totfact> 0.33542949E+05</totfact>
</mgrwt>
</event>
<event>
 6    2  0.1181843E-002  0.1260318E+03  0.7546771E-02  0.1233465E+00
          1   -1    0    0  503    0 -0.00000000000E+00  0.00000000000E+00  0.89420564305E+03  0.89420564305E+03  0.00000000000E+00 0.  1.
         21   -1    0    0  502  503  0.00000000000E+00 -0.00000000000E+00 -0.92030898679E+01  0.92030898679E+01  0.00000000000E+00 0. -1.
         25    2    1    2    0    0  0.78984553694E+01  0.14020433592E+02  0.42918624147E+03  0.44730844989E+03  0.12500024528E+03 0.  0.
          5    1    3    3  501    0 -0.40253293862E+02  0.20672009581E+01  0.35957074196E+03  0.36182278737E+03  0.10000000000E+00 0.  1.
         -5    1    3    3    0  501  0.48151749231E+02  0.11953232634E+02  0.69615499509E+02  0.85485662520E+02  0.10000000000E+00 0.  1.
          1    1    1    2  502    0 -0.78984553694E+01 -0.14020433592E+02  0.45581631172E+03  0.45610028304E+03  0.00000000000E+00 0.  1.
<mgrwt>
<rscale>  1 0.12603182E+03</rscale>
<asrwt>0</asrwt>
<pdfrwt beam="1">  1       21 0.14158607E-02 0.12603182E+03</pdfrwt>
<pdfrwt beam="2">  1        1 0.13757003E+00 0.12603182E+03</pdfrwt>
<totfact> 0.45704725E+05</totfact>
</mgrwt>
</event>
<event>
 6    2  0.1181843E-002  0.2337660E+03  0.7546771E-02  0.1124017E+00
          2   -1    0    0  503    0 -0.00000000000E+00  0.00000000000E+00  0.78410654452E+03  0.78410654452E+03  0.00000000000E+00 0. -1.
         21   -1    0    0  502  503  0.00000000000E+00 -0.00000000000E+00 -0.61322471186E+02  0.61322471186E+02  0.00000000000E+00 0. -1.
         25    2    1    2    0    0 -0.41945137802E+02  0.19302955549E+03  0.46707939208E+03  0.52231187303E+03  0.12500692109E+03 0.  0.
          5    1    3    3  501    0  0.67174279426E+01  0.28396813878E+02  0.53059694879E+01  0.29659167028E+02  0.10000000000E+00 0. -1.
         -5    1    3    3    0  501 -0.48662565744E+02  0.16463274161E+03  0.46177342259E+03  0.49265270600E+03  0.10000000000E+00 0. -1.
          2    1    1    2  502    0  0.41945137802E+02 -0.19302955549E+03  0.25570468125E+03  0.32311714268E+03  0.00000000000E+00 0. -1.
<mgrwt>
<rscale>  1 0.23376598E+03</rscale>
<asrwt>0</asrwt>
<pdfrwt beam="1">  1       21 0.94342269E-02 0.23376598E+03</pdfrwt>
<pdfrwt beam="2">  1        2 0.12063177E+00 0.23376598E+03</pdfrwt>
<totfact> 0.41188325E+04</totfact>
</mgrwt>
</event>
<event>
 6    2  0.1181843E-002  0.1340569E+03  0.7546771E-02  0.1221557E+00
         21   -1    0    0  502  503  0.00000000000E+00  0.00000000000E+00  0.38638711966E+01  0.38638711966E+01  0.00000000000E+00 0.  1.
          2   -1    0    0  503    0 -0.00000000000E+00 -0.00000000000E+00 -0.24424791852E+04  0.24424791852E+04  0.00000000000E+00 0.  1.
         25    2    1    2    0    0  0.17072358046E+02  0.45376749220E+02 -0.13477020705E+04  0.13543530291E+04  0.12498296656E+03 0.  0.
          5    1    3    3  501    0  0.19963512010E+02  0.45995073298E+02 -0.18578620073E+03  0.19243339357E+03  0.10000000000E+00 0.  1.
         -5    1    3    3    0  501 -0.28911539632E+01 -0.61832407845E+00 -0.11619158698E+04  0.11619196356E+04  0.10000000000E+00 0.  1.
          2    1    1    2  502    0 -0.17072358046E+02 -0.45376749220E+02 -0.10909132435E+04  0.10919900273E+04  0.00000000000E+00 0.  1.
<mgrwt>
<rscale>  1 0.13405692E+03</rscale>
<asrwt>0</asrwt>
<pdfrwt beam="1">  1       21 0.59443836E-03 0.13405692E+03</pdfrwt>
<pdfrwt beam="2">  1        2 0.37576815E+00 0.13405692E+03</pdfrwt>
<totfact> 0.47982691E+05</totfact>
</mgrwt>
</event>
<event>
 6    2  0.1181843E-002  0.1408549E+03  0.7546771E-02  0.1212183E+00
          1   -1    0    0  503    0 -0.00000000000E+00  0.00000000000E+00  0.62216941913E+03  0.62216941913E+03  0.00000000000E+00 0. -1.
         21   -1    0    0  502  503  0.00000000000E+00 -0.00000000000E+00 -0.17085125953E+02  0.17085125953E+02  0.00000000000E+00 0. -1.
         25    2    1    2    0    0 -0.64832699846E+02  0.32462873861E+01  0.39447114769E+03  0.41886463061E+03  0.12500510014E+03 0.  0.
          5    1    3    3  501    0 -0.33316006387E+02 -0.52336972115E+02  0.28870262392E+03  0.29529363351E+03  0.10000000000E+00 0.  1.
         -5    1    3    3    0  501 -0.31516693459E+02  0.55583259501E+02  0.10576852377E+03  0.12357099710E+03  0.10000000000E+00 0.  1.
          1    1    1    2  502    0  0.64832699846E+02 -0.32462873861E+01  0.21061314548E+03  0.22038991447E+03  0.00000000000E+00 0. -1.
<mgrwt>
<rscale>  1 0.14085486E+03</rscale>
<asrwt>0</asrwt>
<pdfrwt beam="1">  1       21 0.26284814E-02 0.14085486E+03</pdfrwt>
<pdfrwt beam="2">  1        1 0.95718355E-01 0.14085486E+03</pdfrwt>
<totfact> 0.28860118E+05</totfact>
</mgrwt>
</event>
<event>
 6    2  0.1181843E-002  0.1620289E+03  0.7546771E-02  0.1186425E+00
         21   -1    0    0  502  503  0.00000000000E+00  0.00000000000E+00  0.75940318747E+01  0.75940318747E+01  0.00000000000E+00 0.  1.
          2   -1    0    0  503    0 -0.00000000000E+00 -0.00000000000E+00 -0.35445172006E+04  0.35445172006E+04  0.00000000000E+00 0. -1.
         25    2    1    2    0    0  0.70046612941E+02  0.75642233711E+02 -0.99565789772E+03  0.10087556826E+04  0.12500040945E+03 0.  0.
          5    1    3    3  501    0 -0.11266655700E+02 -0.16666604603E+02 -0.35952812006E+02  0.41198639914E+02  0.10000000000E+00 0.  1.
         -5    1    3    3    0  501  0.81313268642E+02  0.92308838314E+02 -0.95970508572E+03  0.96755704268E+03  0.10000000000E+00 0.  1.
          2    1    1    2  502    0 -0.70046612941E+02 -0.75642233711E+02 -0.25412652710E+04  0.25433555499E+04  0.00000000000E+00 0. -1.
<mgrwt>
<rscale>  1 0.16202894E+03</rscale>
<asrwt>0</asrwt>
<pdfrwt beam="1">  1       21 0.11683120E-02 0.16202894E+03</pdfrwt>
<pdfrwt beam="2">  1        2 0.54531061E+00 0.16202894E+03</pdfrwt>
<totfact> 0.37418475E+04</totfact>
</mgrwt>
</event>
<event>
 6    2  0.1181843E-002  0.1346656E+03  0.7546771E-02  0.1220692E+00
         21   -1    0    0  502  503  0.00000000000E+00  0.00000000000E+00  0.20309670264E+02  0.20309670264E+02  0.00000000000E+00 0.  1.
          1   -1    0    0  503    0 -0.00000000000E+00 -0.00000000000E+00 -0.33249689209E+04  0.33249689209E+04  0.00000000000E+00 0.  1.
         25    2    1    2    0    0 -0.37565055355E+02 -0.33144850498E+02 -0.20536920551E+03  0.24558368710E+03  0.12500048919E+03 0.  0.
          5    1    3    3  501    0  0.44469945567E+02 -0.62152336297E+01 -0.45720820090E+02  0.64082825917E+02  0.10000000000E+00 0. -1.
         -5    1    3    3    0  501 -0.82035000922E+02 -0.26929616869E+02 -0.15964838542E+03  0.18150086118E+03  0.10000000000E+00 0. -1.
          1    1    1    2  502    0  0.37565055355E+02  0.33144850498E+02 -0.30992900452E+04  0.30996949041E+04  0.00000000000E+00 0.  1.
<mgrwt>
<rscale>  1 0.13466565E+03</rscale>
<asrwt>0</asrwt>
<pdfrwt beam="1">  1       21 0.31245655E-02 0.13466565E+03</pdfrwt>
<pdfrwt beam="2">  1        1 0.51153355E+00 0.13466565E+03</pdfrwt>
<totfact> 0.30391039E+03</totfact>
</mgrwt>
</event>
<event>
 6    2  0.1181843E-002  0.1262831E+03  0.7546771E-02  0.1233078E+00
          1   -1    0    0  503    0 -0.00000000000E+00  0.00000000000E+00  0.18085803699E+03  0.18085803699E+03  0.00000000000E+00 0.  1.
         21   -1    0    0  502  503  0.00000000000E+00 -0.00000000000E+00 -0.89579785274E+02  0.89579785274E+02  0.00000000000E+00 0.  1.
         25    2    1    2    0    0  0.13345789825E+02  0.12017070018E+02 -0.44184599195E+02  0.13378971926E+03  0.12499956038E+03 0.  0.
          5    1    3    3  501    0  0.22126640327E+01  0.64104020438E+02  0.68466380866E+00  0.64145928031E+02  0.10000000000E+00 0. -1.
         -5    1    3    3    0  501  0.11133125792E+02 -0.52086950421E+02 -0.44869263004E+02  0.69643791227E+02  0.10000000000E+00 0. -1.
          1    1    1    2  502    0 -0.13345789825E+02 -0.12017070018E+02  0.13546285091E+03  0.13664810300E+03  0.00000000000E+00 0.  1.
<mgrwt>
<rscale>  1 0.12628306E+03</rscale>
<asrwt>0</asrwt>
<pdfrwt beam="1">  1       21 0.13781505E-01 0.12628306E+03</pdfrwt>
<pdfrwt beam="2">  1        1 0.27824313E-01 0.12628306E+03</pdfrwt>
<totfact> 0.81710869E+04</totfact>
</mgrwt>
</event>
<event>
 6    2  0.1181843E-002  0.1315533E+03  0.7546771E-02  0.1225169E+00
          2   -1    0    0  503    0 -0.00000000000E+00  0.00000000000E+00  0.16164826566E+04  0.16164826566E+04  0.00000000000E+00 0.  1.
         21   -1    0    0  502  503  0.00000000000E+00 -0.00000000000E+00 -0.14878300417E+02  0.14878300417E+02  0.00000000000E+00 0.  1.
         25    2    1    2    0    0 -0.40131467348E+02 -0.85311436050E+01  0.28260882331E+03  0.31172747350E+03  0.12499182229E+03 0.  0.
          5    1    3    3  501    0 -0.62101100301E+02 -0.33462132553E+02  0.26478177411E+03  0.27401762512E+03  0.10000000000E+00 0.  1.
         -5    1    3    3    0  501  0.21969632953E+02  0.24930988948E+02  0.17827049204E+02  0.37709848387E+02  0.10000000000E+00 0.  1.
          2    1    1    2  502    0  0.40131467348E+02  0.85311436050E+01  0.13189955329E+04  0.13196334835E+04  0.00000000000E+00 0.  1.
<mgrwt>
<rscale>  1 0.13155330E+03</rscale>
<asrwt>0</asrwt>
<pdfrwt beam="1">  1       21 0.22889706E-02 0.13155330E+03</pdfrwt>
<pdfrwt beam="2">  1        2 0.24868950E+00 0.13155330E+03</pdfrwt>
<totfact> 0.15074283E+05</totfact>
</mgrwt>
</event>
<event>
 6    2  0.1181843E-002  0.1401164E+03  0.7546771E-02  0.1213172E+00
         21   -1    0    0  502  503  0.00000000000E+00  0.00000000000E+00  0.47644431195E+02  0.47644431195E+02  0.00000000000E+00 0.  1.
          1   -1    0    0  503    0 -0.00000000000E+00 -0.00000000000E+00 -0.97391806410E+03  0.97391806410E+03  0.00000000000E+00 0. -1.
         25    2    1    2    0    0 -0.51293681764E+02  0.37136889051E+02 -0.59084776350E+02  0.15206453483E+03  0.12498968614E+03 0.  0.
          5    1    3    3  501    0 -0.33980935282E+02  0.83457967045E+02 -0.31612383250E+02  0.95494968457E+02  0.10000000000E+00 0.  1.
         -5    1    3    3    0  501 -0.17312746482E+02 -0.46321077994E+02 -0.27472393100E+02  0.56569566375E+02  0.10000000000E+00 0.  1.
          1    1    1    2  502    0  0.51293681764E+02 -0.37136889051E+02 -0.86718885655E+03  0.86949796046E+03  0.00000000000E+00 0. -1.
<mgrwt>
<rscale>  1 0.14011642E+03</rscale>
<asrwt>0</asrwt>
<pdfrwt beam="1">  1       21 0.73299129E-02 0.14011642E+03</pdfrwt>
<pdfrwt beam="2">  1        1 0.14983354E+00 0.14011642E+03</pdfrwt>
<totfact> 0.26474516E+04</totfact>
</mgrwt>
</event>
<event>
 6    2  0.1181843E-002  0.1376990E+03  0.7546771E-02  0.1216459E+00
         21   -1    0    0  502  503  0.00000000000E+00  0.00000000000E+00  0.63046937841E+01  0.63046937841E+01  0.00000000000E+00 0. -1.
          2   -1    0    0  503    0 -0.00000000000E+00 -0.00000000000E+00 -0.22946254034E+04  0.22946254034E+04  0.00000000000E+00 0. -1.
         25    2    1    2    0    0 -0.55882871811E+02  0.14602306742E+02 -0.82057034861E+03  0.83204370098E+03  0.12499960239E+03 0.  0.
          5    1    3    3  501    0 -0.61548131713E+01 -0.94317454067E+01 -0.17917689522E+01  0.11404384357E+02  0.10000000000E+00 0. -1.
         -5    1    3    3    0  501 -0.49728058639E+02  0.24034052148E+02 -0.81877857966E+03  0.82063931662E+03  0.10000000000E+00 0. -1.
          2    1    1    2  502    0  0.55882871811E+02 -0.14602306742E+02 -0.14677503610E+04  0.14688863962E+04  0.00000000000E+00 0. -1.
<mgrwt>
<rscale>  1 0.13769903E+03</rscale>
<asrwt>0</asrwt>
<pdfrwt beam="1">  1       21 0.96995266E-03 0.13769903E+03</pdfrwt>
<pdfrwt beam="2">  1        2 0.35301938E+00 0.13769903E+03</pdfrwt>
<totfact> 0.26680734E+05</totfact>
</mgrwt>
</event>
<event>
 6    2  0.1181843E-002  0.1400868E+03  0.7546771E-02  0.1213212E+00
          2   -1    0    0  503    0 -0.00000000000E+00  0.00000000000E+00  0.14588632797E+04  0.14588632797E+04  0.00000000000E+00 0. -1.
         21   -1    0    0  502  503  0.00000000000E+00 -0.00000000000E+00 -0.58133749554E+02  0.58133749554E+02  0.00000000000E+00 0. -1.
         25    2    1    2    0    0 -0.52623412353E+02  0.35076220459E+02  0.14371875418E+04  0.14439987321E+04  0.12499897293E+03 0.  0.
          5    1    3    3  501    0 -0.22089807643E+02  0.30244194663E+02  0.10546775315E+03  0.11192018525E+03  0.10000000000E+00 0. -1.
         -5    1    3    3    0  501 -0.30533604710E+02  0.48320257963E+01  0.13317197887E+04  0.13320785469E+04  0.10000000000E+00 0. -1.
          2    1    1    2  502    0  0.52623412353E+02 -0.35076220459E+02 -0.36458011673E+02  0.72998297135E+02  0.00000000000E+00 0. -1.
<mgrwt>
<rscale>  1 0.14008679E+03</rscale>
<asrwt>0</asrwt>
<pdfrwt beam="1">  1       21 0.89436549E-02 0.14008679E+03</pdfrwt>
<pdfrwt beam="2">  1        2 0.22444048E+00 0.14008679E+03</pdfrwt>
<totfact> 0.18516990E+04</totfact>
</mgrwt>
</event>
<event>
 6    2  0.1181843E-002  0.1261621E+03  0.7546771E-02  0.1233264E+00
         21   -1    0    0  502  503  0.00000000000E+00  0.00000000000E+00  0.44361113357E+02  0.44361113357E+02  0.00000000000E+00 0.  1.
          1   -1    0    0  503    0 -0.00000000000E+00 -0.00000000000E+00 -0.15497210619E+03  0.15497210619E+03  0.00000000000E+00 0.  1.
         25    2    1    2    0    0 -0.46156858779E+01 -0.16457590448E+02 -0.48914118489E+02  0.13531243274E+03  0.12499882650E+03 0.  0.
          5    1    3    3  501    0 -0.32599329082E+02  0.31668807021E+02  0.17455268358E+02  0.48685993758E+02  0.10000000000E+00 0.  1.
         -5    1    3    3    0  501  0.27983643204E+02 -0.48126397469E+02 -0.66369386847E+02  0.86626438982E+02  0.10000000000E+00 0.  1.
          1    1    1    2  502    0  0.46156858779E+01  0.16457590448E+02 -0.61696874341E+02  0.64020786804E+02  0.00000000000E+00 0.  1.
<mgrwt>
<rscale>  1 0.12616205E+03</rscale>
<asrwt>0</asrwt>
<pdfrwt beam="1">  1       21 0.68247867E-02 0.12616205E+03</pdfrwt>
<pdfrwt beam="2">  1        1 0.23841862E-01 0.12616205E+03</pdfrwt>
<totfact> 0.33804875E+05</totfact>
</mgrwt>
</event>
<event>
 6    2  0.1181843E-002  0.1266605E+03  0.7546771E-02  0.1232497E+00
         21   -1    0    0  502  503  0.00000000000E+00  0.00000000000E+00  0.64461708137E+02  0.64461708137E+02  0.00000000000E+00 0.  1.
          2   -1    0    0  503    0 -0.00000000000E+00 -0.00000000000E+00 -0.13782675488E+04  0.13782675488E+04  0.00000000000E+00 0. -1.
         25    2    1    2    0    0  0.16776469145E+02  0.11702999320E+02  0.20867071586E+01  0.12667773533E+03  0.12499793667E+03 0.  0.
          5    1    3    3  501    0  0.17723930635E+02 -0.53905053543E+02  0.17298868412E+02  0.59322452436E+02  0.10000000000E+00 0. -1.
         -5    1    3    3    0  501 -0.94746149010E+00  0.65608052864E+02 -0.15212161253E+02  0.67355282895E+02  0.10000000000E+00 0. -1.
          2    1    1    2  502    0 -0.16776469145E+02 -0.11702999320E+02 -0.13158925478E+04  0.13160515216E+04  0.00000000000E+00 0. -1.
<mgrwt>
<rscale>  1 0.12666055E+03</rscale>
<asrwt>0</asrwt>
<pdfrwt beam="1">  1       21 0.99171851E-02 0.12666055E+03</pdfrwt>
<pdfrwt beam="2">  1        2 0.21204118E+00 0.12666055E+03</pdfrwt>
<totfact> 0.17125880E+04</totfact>
</mgrwt>
</event>
<event>
 6    2  0.1181843E-002  0.1526855E+03  0.7546771E-02  0.1197211E+00
          4   -1    0    0  503    0 -0.00000000000E+00  0.00000000000E+00  0.77849836779E+02  0.77849836779E+02  0.00000000000E+00 0. -1.
         21   -1    0    0  502  503  0.00000000000E+00 -0.00000000000E+00 -0.20045670049E+03  0.20045670049E+03  0.00000000000E+00 0. -1.
         25    2    1    2    0    0 -0.87525912736E+02  0.52332441804E+01 -0.11330177611E+03  0.19013195533E+03  0.12499878288E+03 0.  0.
          5    1    3    3  501    0 -0.10545701457E+03  0.40208686061E+02 -0.76987973809E+02  0.13662019788E+03  0.10000000000E+00 0. -1.
         -5    1    3    3    0  501  0.17931101832E+02 -0.34975441881E+02 -0.36313802305E+02  0.53511757451E+02  0.10000000000E+00 0. -1.
          4    1    1    2  502    0  0.87525912736E+02 -0.52332441804E+01 -0.93050875928E+01  0.88174581938E+02  0.00000000000E+00 0. -1.
<mgrwt>
<rscale>  1 0.15268552E+03</rscale>
<asrwt>0</asrwt>
<pdfrwt beam="1">  1       21 0.30839492E-01 0.15268552E+03</pdfrwt>
<pdfrwt beam="2">  1        4 0.11976898E-01 0.15268552E+03</pdfrwt>
<totfact> 0.23243975E+04</totfact>
</mgrwt>
</event>
<event>
 6    2  0.1181843E-002  0.1336553E+03  0.7546771E-02  0.1222131E+00
         21   -1    0    0  502  503  0.00000000000E+00  0.00000000000E+00  0.16048863385E+02  0.16048863385E+02  0.00000000000E+00 0. -1.
          2   -1    0    0  503    0 -0.00000000000E+00 -0.00000000000E+00 -0.20981713953E+04  0.20981713953E+04  0.00000000000E+00 0. -1.
         25    2    1    2    0    0  0.42107576865E+02 -0.21572950136E+02 -0.26798292588E+03  0.29946381486E+03  0.12500115056E+03 0.  0.
          5    1    3    3  501    0  0.81791776193E+02 -0.15269401102E+02 -0.22830078884E+03  0.24299034847E+03  0.10000000000E+00 0. -1.
         -5    1    3    3    0  501 -0.39684199328E+02 -0.63035490335E+01 -0.39682137041E+02  0.56473466397E+02  0.10000000000E+00 0. -1.
          2    1    1    2  502    0 -0.42107576865E+02  0.21572950136E+02 -0.18141396061E+04  0.18147564438E+04  0.00000000000E+00 0. -1.
<mgrwt>
<rscale>  1 0.13365526E+03</rscale>
<asrwt>0</asrwt>
<pdfrwt beam="1">  1       21 0.24690577E-02 0.13365526E+03</pdfrwt>
<pdfrwt beam="2">  1        2 0.32279536E+00 0.13365526E+03</pdfrwt>
<totfact> 0.75576889E+04</totfact>
</mgrwt>
</event>
<event>
 6    2  0.1181843E-002  0.2075232E+03  0.7546771E-02  0.1143543E+00
          2   -1    0    0  503    0 -0.00000000000E+00  0.00000000000E+00  0.14152232284E+04  0.14152232284E+04  0.00000000000E+00 0. -1.
         21   -1    0    0  502  503  0.00000000000E+00 -0.00000000000E+00 -0.26417496174E+02  0.26417496174E+02  0.00000000000E+00 0. -1.
         25    2    1    2    0    0 -0.14050354700E+03 -0.87755459579E+02  0.57904293765E+03  0.61510696793E+03  0.12499436363E+03 0.  0.
          5    1    3    3  501    0 -0.85751421288E+02 -0.29913172738E+01  0.13668072853E+03  0.16138118163E+03  0.10000000000E+00 0. -1.
         -5    1    3    3    0  501 -0.54752125714E+02 -0.84764142305E+02  0.44236220913E+03  0.45372578630E+03  0.10000000000E+00 0. -1.
          2    1    1    2  502    0  0.14050354700E+03  0.87755459579E+02  0.80976279456E+03  0.82653375664E+03  0.00000000000E+00 0. -1.
<mgrwt>
<rscale>  1 0.20752315E+03</rscale>
<asrwt>0</asrwt>
<pdfrwt beam="1">  1       21 0.40642313E-02 0.20752315E+03</pdfrwt>
<pdfrwt beam="2">  1        2 0.21772659E+00 0.20752315E+03</pdfrwt>
<totfact> 0.74137264E+04</totfact>
</mgrwt>
</event>
<event>
 6    2  0.1181843E-002  0.1585037E+03  0.7546771E-02  0.1190397E+00
          1   -1    0    0  503    0 -0.00000000000E+00  0.00000000000E+00  0.51078544525E+03  0.51078544525E+03  0.00000000000E+00 0. -1.
         21   -1    0    0  502  503  0.00000000000E+00 -0.00000000000E+00 -0.11522790348E+03  0.11522790348E+03  0.00000000000E+00 0. -1.
         25    2    1    2    0    0  0.89403134127E+02  0.38815326809E+02 -0.52891033469E+02  0.16709540986E+03  0.12499545827E+03 0.  0.
          5    1    3    3  501    0  0.12055918978E+03  0.32908870244E+02 -0.31611457210E+02  0.12890619150E+03  0.10000000000E+00 0.  1.
         -5    1    3    3    0  501 -0.31156055652E+02  0.59064565645E+01 -0.21279576259E+02  0.38189218357E+02  0.10000000000E+00 0.  1.
          1    1    1    2  502    0 -0.89403134127E+02 -0.38815326809E+02  0.44844857523E+03  0.45891793887E+03  0.00000000000E+00 0. -1.
<mgrwt>
<rscale>  1 0.15850367E+03</rscale>
<asrwt>0</asrwt>
<pdfrwt beam="1">  1       21 0.17727370E-01 0.15850367E+03</pdfrwt>
<pdfrwt beam="2">  1        1 0.78582375E-01 0.15850367E+03</pdfrwt>
<totfact> 0.14100406E+04</totfact>
</mgrwt>
</event>
<event>
 6    2  0.1181843E-002  0.1574820E+03  0.7546771E-02  0.1191569E+00
         21   -1    0    0  502  503  0.00000000000E+00  0.00000000000E+00  0.50547971874E+03  0.50547971874E+03  0.00000000000E+00 0.  1.
          1   -1    0    0  503    0 -0.00000000000E+00 -0.00000000000E+00 -0.47042672474E+03  0.47042672474E+03  0.00000000000E+00 0. -1.
         25    2    1    2    0    0  0.47866039335E+02 -0.82976597243E+02  0.48808263548E+03  0.51285986972E+03  0.12499725397E+03 0.  0.
          5    1    3    3  501    0  0.28721954975E+02 -0.98486517853E+02  0.47294240408E+03  0.48394118700E+03  0.10000000000E+00 0. -1.
         -5    1    3    3    0  501  0.19144084360E+02  0.15509920610E+02  0.15140231396E+02  0.28918682716E+02  0.10000000000E+00 0. -1.
          1    1    1    2  502    0 -0.47866039335E+02  0.82976597243E+02 -0.45302964148E+03  0.46304657376E+03  0.00000000000E+00 0. -1.
<mgrwt>
<rscale>  1 0.15748202E+03</rscale>
<asrwt>0</asrwt>
<pdfrwt beam="1">  1       21 0.77766111E-01 0.15748202E+03</pdfrwt>
<pdfrwt beam="2">  1        1 0.72373342E-01 0.15748202E+03</pdfrwt>
<totfact> 0.80957230E+02</totfact>
</mgrwt>
</event>
<event>
 6    2  0.1181843E-002  0.1266354E+03  0.7546771E-02  0.1232535E+00
          1   -1    0    0  503    0 -0.00000000000E+00  0.00000000000E+00  0.26650756575E+03  0.26650756575E+03  0.00000000000E+00 0.  1.
         21   -1    0    0  502  503  0.00000000000E+00 -0.00000000000E+00 -0.61094579219E+02  0.61094579219E+02  0.00000000000E+00 0.  1.
         25    2    1    2    0    0 -0.19621431777E+02  0.49614206822E+01  0.55920223084E+01  0.12675883783E+03  0.12500766366E+03 0.  0.
          5    1    3    3  501    0 -0.45814138847E+01 -0.58695002783E+02 -0.94896438164E+01  0.59633514442E+02  0.10000000000E+00 0. -1.
         -5    1    3    3    0  501 -0.15040017892E+02  0.63656423466E+02  0.15081666125E+02  0.67125323386E+02  0.10000000000E+00 0. -1.
          1    1    1    2  502    0  0.19621431777E+02 -0.49614206822E+01  0.19982096422E+03  0.20084330714E+03  0.00000000000E+00 0.  1.
<mgrwt>
<rscale>  1 0.12663543E+03</rscale>
<asrwt>0</asrwt>
<pdfrwt beam="1">  1       21 0.93991662E-02 0.12663543E+03</pdfrwt>
<pdfrwt beam="2">  1        1 0.41001163E-01 0.12663543E+03</pdfrwt>
<totfact> 0.99370744E+04</totfact>
</mgrwt>
</event>
<event>
 6    2  0.1181843E-002  0.1264615E+03  0.7546771E-02  0.1232803E+00
         21   -1    0    0  502  503  0.00000000000E+00  0.00000000000E+00  0.35944469081E+02  0.35944469081E+02  0.00000000000E+00 0. -1.
          2   -1    0    0  503    0 -0.00000000000E+00 -0.00000000000E+00 -0.27734272301E+03  0.27734272301E+03  0.00000000000E+00 0. -1.
         25    2    1    2    0    0  0.19123154134E+02 -0.76909515808E+00 -0.77594484758E+02  0.14836914782E+03  0.12500485362E+03 0.  0.
          5    1    3    3  501    0  0.38773732914E+01 -0.58831283681E+02 -0.13366808901E+02  0.60455235864E+02  0.10000000000E+00 0. -1.
         -5    1    3    3    0  501  0.15245780843E+02  0.58062188523E+02 -0.64227675857E+02  0.87913911957E+02  0.10000000000E+00 0. -1.
          2    1    1    2  502    0 -0.19123154134E+02  0.76909515808E+00 -0.16380376917E+03  0.16491804427E+03  0.00000000000E+00 0. -1.
<mgrwt>
<rscale>  1 0.12646146E+03</rscale>
<asrwt>0</asrwt>
<pdfrwt beam="1">  1       21 0.55299184E-02 0.12646146E+03</pdfrwt>
<pdfrwt beam="2">  1        2 0.42668110E-01 0.12646146E+03</pdfrwt>
<totfact> 0.32689112E+05</totfact>
</mgrwt>
</event>
<event>
 6    2  0.1181843E-002  0.1394849E+03  0.7546771E-02  0.1214024E+00
          2   -1    0    0  503    0 -0.00000000000E+00  0.00000000000E+00  0.15654892432E+03  0.15654892432E+03  0.00000000000E+00 0. -1.
         21   -1    0    0  502  503  0.00000000000E+00 -0.00000000000E+00 -0.65196741196E+02  0.65196741196E+02  0.00000000000E+00 0. -1.
         25    2    1    2    0    0  0.25711048920E+00  0.61890358965E+02  0.71540276273E+02  0.15676109587E+03  0.12500218963E+03 0.  0.
          5    1    3    3  501    0  0.55446607165E+02  0.57894080960E+02  0.23643793031E+02  0.83576849697E+02  0.10000000000E+00 0. -1.
         -5    1    3    3    0  501 -0.55189496676E+02  0.39962780051E+01  0.47896483242E+02  0.73184246175E+02  0.10000000000E+00 0. -1.
          2    1    1    2  502    0 -0.25711048920E+00 -0.61890358965E+02  0.19811906851E+02  0.64984569643E+02  0.00000000000E+00 0. -1.
<mgrwt>
<rscale>  1 0.13948487E+03</rscale>
<asrwt>0</asrwt>
<pdfrwt beam="1">  1       21 0.10030268E-01 0.13948487E+03</pdfrwt>
<pdfrwt beam="2">  1        2 0.24084450E-01 0.13948487E+03</pdfrwt>
<totfact> 0.21896775E+05</totfact>
</mgrwt>
</event>
<event>
 6    2  0.1181843E-002  0.1410282E+03  0.7546771E-02  0.1211952E+00
         21   -1    0    0  502  503  0.00000000000E+00  0.00000000000E+00  0.59921520071E+02  0.59921520071E+02  0.00000000000E+00 0. -1.
          3   -1    0    0  503    0 -0.00000000000E+00 -0.00000000000E+00 -0.18281955388E+03  0.18281955388E+03  0.00000000000E+00 0. -1.
         25    2    1    2    0    0  0.20400989383E+02  0.61980859134E+02 -0.64124610318E+02  0.15492226859E+03  0.12502446316E+03 0.  0.
          5    1    3    3  501    0 -0.45087211400E+02  0.36660291759E+02  0.24533888809E+01  0.58162382522E+02  0.10000000000E+00 0. -1.
         -5    1    3    3    0  501  0.65488200782E+02  0.25320567375E+02 -0.66577999199E+02  0.96759886065E+02  0.10000000000E+00 0. -1.
          3    1    1    2  502    0 -0.20400989383E+02 -0.61980859134E+02 -0.58773423491E+02  0.87818805364E+02  0.00000000000E+00 0. -1.
<mgrwt>
<rscale>  1 0.14102817E+03</rscale>
<asrwt>0</asrwt>
<pdfrwt beam="1">  1       21 0.92186955E-02 0.14102817E+03</pdfrwt>
<pdfrwt beam="2">  1        3 0.28126085E-01 0.14102817E+03</pdfrwt>
<totfact> 0.54403185E+04</totfact>
</mgrwt>
</event>
<event>
 6    2  0.1181843E-002  0.1797313E+03  0.7546771E-02  0.1168063E+00
         21   -1    0    0  502  503  0.00000000000E+00  0.00000000000E+00  0.24601965909E+03  0.24601965909E+03  0.00000000000E+00 0. -1.
          1   -1    0    0  503    0 -0.00000000000E+00 -0.00000000000E+00 -0.44342040868E+03  0.44342040868E+03  0.00000000000E+00 0.  1.
         25    2    1    2    0    0  0.96246002290E+02 -0.86110190894E+02  0.20158514669E+03  0.27007387533E+03  0.12500027536E+03 0.  0.
          5    1    3    3  501    0  0.45947305418E+01 -0.75409133977E+02  0.43909144651E+02  0.87382332424E+02  0.10000000000E+00 0.  1.
         -5    1    3    3    0  501  0.91651271748E+02 -0.10701056917E+02  0.15767600204E+03  0.18269154291E+03  0.10000000000E+00 0.  1.
          1    1    1    2  502    0 -0.96246002290E+02  0.86110190894E+02 -0.39898589627E+03  0.41936619243E+03  0.00000000000E+00 0.  1.
<mgrwt>
<rscale>  1 0.17973126E+03</rscale>
<asrwt>0</asrwt>
<pdfrwt beam="1">  1       21 0.37849179E-01 0.17973126E+03</pdfrwt>
<pdfrwt beam="2">  1        1 0.68218524E-01 0.17973126E+03</pdfrwt>
<totfact> 0.39474228E+03</totfact>
</mgrwt>
</event>
<event>
 6    2  0.1181843E-002  0.1307790E+03  0.7546771E-02  0.1226304E+00
         21   -1    0    0  502  503  0.00000000000E+00  0.00000000000E+00  0.62272108513E+01  0.62272108513E+01  0.00000000000E+00 0. -1.
          1   -1    0    0  503    0 -0.00000000000E+00 -0.00000000000E+00 -0.11552217573E+04  0.11552217573E+04  0.00000000000E+00 0. -1.
         25    2    1    2    0    0 -0.29165989748E+02  0.24733664548E+02 -0.92807594410E+03  0.93724495841E+03  0.12506296386E+03 0.  0.
          5    1    3    3  501    0 -0.37768617615E+01  0.70857485695E+02 -0.37390032693E+03  0.38057392506E+03  0.10000000000E+00 0.  1.
         -5    1    3    3    0  501 -0.25389127986E+02 -0.46123821147E+02 -0.55417561717E+03  0.55667103335E+03  0.10000000000E+00 0.  1.
          1    1    1    2  502    0  0.29165989748E+02 -0.24733664548E+02 -0.22091860238E+03  0.22420400977E+03  0.00000000000E+00 0. -1.
<mgrwt>
<rscale>  1 0.13077903E+03</rscale>
<asrwt>0</asrwt>
<pdfrwt beam="1">  1       21 0.95803277E-03 0.13077903E+03</pdfrwt>
<pdfrwt beam="2">  1        1 0.17772636E+00 0.13077903E+03</pdfrwt>
<totfact> 0.54964832E+05</totfact>
</mgrwt>
</event>
<event>
 6    2  0.1181843E-002  0.1491557E+03  0.7546771E-02  0.1201514E+00
          2   -1    0    0  503    0 -0.00000000000E+00  0.00000000000E+00  0.12819731840E+04  0.12819731840E+04  0.00000000000E+00 0. -1.
         21   -1    0    0  502  503  0.00000000000E+00 -0.00000000000E+00 -0.36309385738E+03  0.36309385738E+03  0.00000000000E+00 0. -1.
         25    2    1    2    0    0  0.29921753366E+02  0.75677273060E+02 -0.34641343515E+03  0.37716005190E+03  0.12500030286E+03 0.  0.
          5    1    3    3  501    0  0.47498313359E+02 -0.43995649411E+01 -0.47928913913E+02  0.67621274260E+02  0.10000000000E+00 0.  1.
         -5    1    3    3    0  501 -0.17576559994E+02  0.80076838001E+02 -0.29848452123E+03  0.30953877764E+03  0.10000000000E+00 0.  1.
          2    1    1    2  502    0 -0.29921753366E+02 -0.75677273060E+02  0.12652927618E+04  0.12679069895E+04  0.00000000000E+00 0. -1.
<mgrwt>
<rscale>  1 0.14915575E+03</rscale>
<asrwt>0</asrwt>
<pdfrwt beam="1">  1       21 0.55860594E-01 0.14915575E+03</pdfrwt>
<pdfrwt beam="2">  1        2 0.19722664E+00 0.14915575E+03</pdfrwt>
<totfact> 0.71725836E+02</totfact>
</mgrwt>
</event>
<event>
 6    2  0.1181843E-002  0.1683086E+03  0.7546771E-02  0.1179623E+00
          2   -1    0    0  503    0 -0.00000000000E+00  0.00000000000E+00  0.16662192490E+04  0.16662192490E+04  0.00000000000E+00 0.  1.
         21   -1    0    0  502  503  0.00000000000E+00 -0.00000000000E+00 -0.38899552707E+02  0.38899552707E+02  0.00000000000E+00 0. -1.
         25    2    1    2    0    0  0.10457596138E+03  0.42037026294E+02  0.15599198876E+03  0.22948047670E+03  0.12499818139E+03 0.  0.
          5    1    3    3  501    0  0.36285178084E+02  0.19008924863E+02 -0.15235338746E+02  0.43704449656E+02  0.10000000000E+00 0. -1.
         -5    1    3    3    0  501  0.68290783298E+02  0.23028101431E+02  0.17122732750E+03  0.18577602704E+03  0.10000000000E+00 0. -1.
          2    1    1    2  502    0 -0.10457596138E+03 -0.42037026294E+02  0.14713277075E+04  0.14756383250E+04  0.00000000000E+00 0.  1.
<mgrwt>
<rscale>  1 0.16830861E+03</rscale>
<asrwt>0</asrwt>
<pdfrwt beam="1">  1       21 0.59845478E-02 0.16830861E+03</pdfrwt>
<pdfrwt beam="2">  1        2 0.25634137E+00 0.16830861E+03</pdfrwt>
<totfact> 0.28621466E+04</totfact>
</mgrwt>
</event>
<event>
 6    2  0.1181843E-002  0.1259840E+03  0.7546771E-02  0.1233539E+00
          3   -1    0    0  503    0 -0.00000000000E+00  0.00000000000E+00  0.68919432856E+02  0.68919432856E+02  0.00000000000E+00 0.  1.
         21   -1    0    0  502  503  0.00000000000E+00 -0.00000000000E+00 -0.58235634761E+03  0.58235634761E+03  0.00000000000E+00 0.  1.
         25    2    1    2    0    0  0.27219885679E+01 -0.15541071143E+02 -0.57452866825E+03  0.58817953288E+03  0.12499215231E+03 0.  0.
          5    1    3    3  501    0 -0.21071422175E+02  0.33188084244E+02 -0.45762942493E+03  0.45931487492E+03  0.10000000000E+00 0.  1.
         -5    1    3    3    0  501  0.23793410743E+02 -0.48729155387E+02 -0.11689924333E+03  0.12886465795E+03  0.10000000000E+00 0.  1.
          3    1    1    2  502    0 -0.27219885679E+01  0.15541071143E+02  0.61091753499E+02  0.63096247587E+02  0.00000000000E+00 0.  1.
<mgrwt>
<rscale>  1 0.12598402E+03</rscale>
<asrwt>0</asrwt>
<pdfrwt beam="1">  1       21 0.89593284E-01 0.12598402E+03</pdfrwt>
<pdfrwt beam="2">  1        3 0.10602990E-01 0.12598402E+03</pdfrwt>
<totfact> 0.34826308E+03</totfact>
</mgrwt>
</event>
<event>
 6    2  0.1181843E-002  0.1267645E+03  0.7546771E-02  0.1232337E+00
         21   -1    0    0  502  503  0.00000000000E+00  0.00000000000E+00  0.50927945994E+03  0.50927945994E+03  0.00000000000E+00 0. -1.
          1   -1    0    0  503    0 -0.00000000000E+00 -0.00000000000E+00 -0.30814606404E+02  0.30814606404E+02  0.00000000000E+00 0. -1.
         25    2    1    2    0    0 -0.11263423647E+02 -0.17821109103E+02  0.49645250757E+03  0.51238103079E+03  0.12499908720E+03 0.  0.
          5    1    3    3  501    0 -0.21577865763E+02 -0.69117734446E+02  0.33204845133E+03  0.33985151101E+03  0.10000000000E+00 0. -1.
         -5    1    3    3    0  501  0.10314442115E+02  0.51296625344E+02  0.16440405623E+03  0.17252951978E+03  0.10000000000E+00 0. -1.
          1    1    1    2  502    0  0.11263423647E+02  0.17821109103E+02 -0.17987654033E+02  0.27713035552E+02  0.00000000000E+00 0. -1.
<mgrwt>
<rscale>  1 0.12676446E+03</rscale>
<asrwt>0</asrwt>
<pdfrwt beam="1">  1       21 0.78350680E-01 0.12676446E+03</pdfrwt>
<pdfrwt beam="2">  1        1 0.47407090E-02 0.12676446E+03</pdfrwt>
<totfact> 0.27170641E+04</totfact>
</mgrwt>
</event>
<event>
 6    2  0.1181843E-002  0.1270161E+03  0.7546771E-02  0.1231952E+00
          2   -1    0    0  503    0 -0.00000000000E+00  0.00000000000E+00  0.10651787213E+04  0.10651787213E+04  0.00000000000E+00 0.  1.
         21   -1    0    0  502  503  0.00000000000E+00 -0.00000000000E+00 -0.33166909182E+02  0.33166909182E+02  0.00000000000E+00 0.  1.
         25    2    1    2    0    0 -0.17428578391E+02 -0.14217828983E+02  0.89066124755E+02  0.15513172509E+03  0.12500870188E+03 0.  0.
          5    1    3    3  501    0  0.41198735786E+02 -0.32854879988E+02  0.75606409739E+02  0.92158115014E+02  0.10000000000E+00 0. -1.
         -5    1    3    3    0  501 -0.58627314177E+02  0.18637051005E+02  0.13459715016E+02  0.62973610077E+02  0.10000000000E+00 0. -1.
          2    1    1    2  502    0  0.17428578391E+02  0.14217828983E+02  0.94294568739E+03  0.94321390542E+03  0.00000000000E+00 0.  1.
<mgrwt>
<rscale>  1 0.12701605E+03</rscale>
<asrwt>0</asrwt>
<pdfrwt beam="1">  1       21 0.51026022E-02 0.12701605E+03</pdfrwt>
<pdfrwt beam="2">  1        2 0.16387362E+00 0.12701605E+03</pdfrwt>
<totfact> 0.79432182E+04</totfact>
</mgrwt>
</event>
<event>
 6    2  0.1181843E-002  0.1298967E+03  0.7546771E-02  0.1227609E+00
          3   -1    0    0  503    0 -0.00000000000E+00  0.00000000000E+00  0.22605086101E+03  0.22605086101E+03  0.00000000000E+00 0. -1.
         21   -1    0    0  502  503  0.00000000000E+00 -0.00000000000E+00 -0.62471000929E+02  0.62471000929E+02  0.00000000000E+00 0.  1.
         25    2    1    2    0    0 -0.11511537947E+02  0.33418935603E+02  0.92826906615E+01  0.13022796675E+03  0.12499525677E+03 0.  0.
          5    1    3    3  501    0 -0.65579009317E+02  0.18381395837E+01  0.15172564147E+02  0.67336482852E+02  0.10000000000E+00 0. -1.
         -5    1    3    3    0  501  0.54067471370E+02  0.31580796019E+02 -0.58898734855E+01  0.62891483900E+02  0.10000000000E+00 0. -1.
          3    1    1    2  502    0  0.11511537947E+02 -0.33418935603E+02  0.15429716942E+03  0.15829389519E+03  0.00000000000E+00 0. -1.
<mgrwt>
<rscale>  1 0.12989671E+03</rscale>
<asrwt>0</asrwt>
<pdfrwt beam="1">  1       21 0.96109234E-02 0.12989671E+03</pdfrwt>
<pdfrwt beam="2">  1        3 0.34777055E-01 0.12989671E+03</pdfrwt>
<totfact> 0.33835449E+04</totfact>
</mgrwt>
</event>
<event>
 6    2  0.1181843E-002  0.1303027E+03  0.7546771E-02  0.1227007E+00
          2   -1    0    0  503    0 -0.00000000000E+00  0.00000000000E+00  0.89193402551E+03  0.89193402551E+03  0.00000000000E+00 0. -1.
         21   -1    0    0  502  503  0.00000000000E+00 -0.00000000000E+00 -0.98069351585E+01  0.98069351585E+01  0.00000000000E+00 0. -1.
         25    2    1    2    0    0 -0.81645654555E+01  0.35909751827E+02  0.81338557511E+03  0.82375656272E+03  0.12499044133E+03 0.  0.
          5    1    3    3  501    0 -0.22707562976E+02 -0.18851868868E+02  0.65282769391E+03  0.65349447918E+03  0.10000000000E+00 0. -1.
         -5    1    3    3    0  501  0.14542997521E+02  0.54761620696E+02  0.16055788120E+03  0.17026208354E+03  0.10000000000E+00 0. -1.
          2    1    1    2  502    0  0.81645654555E+01 -0.35909751827E+02  0.68741515235E+02  0.77984397941E+02  0.00000000000E+00 0. -1.
<mgrwt>
<rscale>  1 0.13030265E+03</rscale>
<asrwt>0</asrwt>
<pdfrwt beam="1">  1       21 0.15087600E-02 0.13030265E+03</pdfrwt>
<pdfrwt beam="2">  1        2 0.13722056E+00 0.13030265E+03</pdfrwt>
<totfact> 0.74238075E+05</totfact>
</mgrwt>
</event>
<event>
 6    2  0.1181843E-002  0.1264546E+03  0.7546771E-02  0.1232813E+00
          1   -1    0    0  503    0 -0.00000000000E+00  0.00000000000E+00  0.47897840340E+03  0.47897840340E+03  0.00000000000E+00 0.  1.
         21   -1    0    0  502  503  0.00000000000E+00 -0.00000000000E+00 -0.10923750115E+03  0.10923750115E+03  0.00000000000E+00 0. -1.
         25    2    1    2    0    0 -0.15451778647E+02 -0.11483832904E+02 -0.72361372592E+02  0.14569465388E+03  0.12498051065E+03 0.  0.
          5    1    3    3  501    0 -0.62572153519E+02  0.39698372514E+01 -0.72833052041E+02  0.96102536249E+02  0.10000000000E+00 0.  1.
         -5    1    3    3    0  501  0.47120374873E+02 -0.15453670155E+02  0.47167944861E+00  0.49592117629E+02  0.10000000000E+00 0.  1.
          1    1    1    2  502    0  0.15451778647E+02  0.11483832904E+02  0.44210227484E+03  0.44252125067E+03  0.00000000000E+00 0.  1.
<mgrwt>
<rscale>  1 0.12645459E+03</rscale>
<asrwt>0</asrwt>
<pdfrwt beam="1">  1       21 0.16805770E-01 0.12645459E+03</pdfrwt>
<pdfrwt beam="2">  1        1 0.73688984E-01 0.12645459E+03</pdfrwt>
<totfact> 0.16984911E+04</totfact>
</mgrwt>
</event>
<event>
 6    2  0.1181843E-002  0.1342919E+03  0.7546771E-02  0.1221223E+00
          2   -1    0    0  503    0 -0.00000000000E+00  0.00000000000E+00  0.77826741337E+03  0.77826741337E+03  0.00000000000E+00 0. -1.
         21   -1    0    0  502  503  0.00000000000E+00 -0.00000000000E+00 -0.44783044098E+02  0.44783044098E+02  0.00000000000E+00 0. -1.
         25    2    1    2    0    0  0.23194344306E+02  0.43242387484E+02  0.58827999944E+02  0.14661191750E+03  0.12500575623E+03 0.  0.
          5    1    3    3  501    0  0.32740701754E+02 -0.19484724879E+02  0.72321425883E+02  0.81743542232E+02  0.10000000000E+00 0. -1.
         -5    1    3    3    0  501 -0.95463574482E+01  0.62727112363E+02 -0.13493425939E+02  0.64868375265E+02  0.10000000000E+00 0. -1.
          2    1    1    2  502    0 -0.23194344306E+02 -0.43242387484E+02  0.67465636933E+03  0.67643853998E+03  0.00000000000E+00 0. -1.
<mgrwt>
<rscale>  1 0.13429192E+03</rscale>
<asrwt>0</asrwt>
<pdfrwt beam="1">  1       21 0.68896997E-02 0.13429192E+03</pdfrwt>
<pdfrwt beam="2">  1        2 0.11973344E+00 0.13429192E+03</pdfrwt>
<totfact> 0.72179159E+04</totfact>
</mgrwt>
</event>
<event>
 6    2  0.1181843E-002  0.1315309E+03  0.7546771E-02  0.1225202E+00
         21   -1    0    0  502  503  0.00000000000E+00  0.00000000000E+00  0.70225635875E+01  0.70225635875E+01  0.00000000000E+00 0. -1.
          2   -1    0    0  503    0 -0.00000000000E+00 -0.00000000000E+00 -0.18628680126E+04  0.18628680126E+04  0.00000000000E+00 0. -1.
         25    2    1    2    0    0 -0.20553571324E+02 -0.35489607270E+02 -0.64113218312E+03  0.65448517886E+03  0.12497364361E+03 0.  0.
          5    1    3    3  501    0 -0.18264053267E+02  0.41533697957E+02 -0.36477682875E+03  0.36758776979E+03  0.10000000000E+00 0.  1.
         -5    1    3    3    0  501 -0.22895180572E+01 -0.77023305227E+02 -0.27635535437E+03  0.28689740907E+03  0.10000000000E+00 0.  1.
          2    1    1    2  502    0  0.20553571324E+02  0.35489607270E+02 -0.12147132659E+04  0.12154053973E+04  0.00000000000E+00 0. -1.
<mgrwt>
<rscale>  1 0.13153088E+03</rscale>
<asrwt>0</asrwt>
<pdfrwt beam="1">  1       21 0.10803940E-02 0.13153088E+03</pdfrwt>
<pdfrwt beam="2">  1        2 0.28659518E+00 0.13153088E+03</pdfrwt>
<totfact> 0.37514229E+05</totfact>
</mgrwt>
</event>
<event>
 6    2  0.1181843E-002  0.1327790E+03  0.7546771E-02  0.1223389E+00
         21   -1    0    0  502  503  0.00000000000E+00  0.00000000000E+00  0.65908041516E+01  0.65908041516E+01  0.00000000000E+00 0.  1.
          2   -1    0    0  503    0 -0.00000000000E+00 -0.00000000000E+00 -0.13816072627E+04  0.13816072627E+04  0.00000000000E+00 0.  1.
         25    2    1    2    0    0 -0.41970396320E+02 -0.15712213504E+02 -0.75681809481E+03  0.76837744380E+03  0.12498751818E+03 0.  0.
          5    1    3    3  501    0 -0.47798951746E+01  0.16522788813E+02 -0.99131140385E+01  0.19852702033E+02  0.10000000000E+00 0.  1.
         -5    1    3    3    0  501 -0.37190501146E+02 -0.32235002317E+02 -0.74690498077E+03  0.74852474177E+03  0.10000000000E+00 0.  1.
          2    1    1    2  502    0  0.41970396320E+02  0.15712213504E+02 -0.61819836374E+03  0.61982062305E+03  0.00000000000E+00 0.  1.
<mgrwt>
<rscale>  1 0.13277902E+03</rscale>
<asrwt>0</asrwt>
<pdfrwt beam="1">  1       21 0.10139697E-02 0.13277902E+03</pdfrwt>
<pdfrwt beam="2">  1        2 0.21255501E+00 0.13277902E+03</pdfrwt>
<totfact> 0.73474694E+05</totfact>
</mgrwt>
</event>
<event>
 6    2  0.1181843E-002  0.1651379E+03  0.7546771E-02  0.1183015E+00
          3   -1    0    0  503    0 -0.00000000000E+00  0.00000000000E+00  0.54461567569E+02  0.54461567569E+02  0.00000000000E+00 0. -1.
         21   -1    0    0  502  503  0.00000000000E+00 -0.00000000000E+00 -0.64024674225E+03  0.64024674225E+03  0.00000000000E+00 0. -1.
         25    2    1    2    0    0 -0.15347872095E+02  0.10680888411E+03 -0.55989417208E+03  0.58373967047E+03  0.12500729596E+03 0.  0.
          5    1    3    3  501    0  0.13482797032E+02  0.11152559275E+03 -0.27084548569E+03  0.29321840115E+03  0.10000000000E+00 0. -1.
         -5    1    3    3    0  501 -0.28830669127E+02 -0.47167086333E+01 -0.28904868639E+03  0.29052126932E+03  0.10000000000E+00 0. -1.
          3    1    1    2  502    0  0.15347872095E+02 -0.10680888411E+03 -0.25891002601E+02  0.11096863935E+03  0.00000000000E+00 0. -1.
<mgrwt>
<rscale>  1 0.16513788E+03</rscale>
<asrwt>0</asrwt>
<pdfrwt beam="1">  1       21 0.98499501E-01 0.16513788E+03</pdfrwt>
<pdfrwt beam="2">  1        3 0.83787025E-02 0.16513788E+03</pdfrwt>
<totfact> 0.41385367E+03</totfact>
</mgrwt>
</event>
<event>
 6    2  0.1181843E-002  0.1356285E+03  0.7546771E-02  0.1219335E+00
          2   -1    0    0  503    0 -0.00000000000E+00  0.00000000000E+00  0.13116720321E+04  0.13116720321E+04  0.00000000000E+00 0.  1.
         21   -1    0    0  502  503  0.00000000000E+00 -0.00000000000E+00 -0.24309238279E+02  0.24309238279E+02  0.00000000000E+00 0. -1.
         25    2    1    2    0    0 -0.30882505932E+02  0.42619782116E+02  0.17043714005E+03  0.21781621501E+03  0.12499963925E+03 0.  0.
          5    1    3    3  501    0  0.37714422836E+02  0.53373190318E+02  0.94768276383E+02  0.11511781506E+03  0.10000000000E+00 0. -1.
         -5    1    3    3    0  501 -0.68596928768E+02 -0.10753408202E+02  0.75668863665E+02  0.10269839995E+03  0.10000000000E+00 0. -1.
          2    1    1    2  502    0  0.30882505932E+02 -0.42619782116E+02  0.11169256538E+04  0.11181650554E+04  0.00000000000E+00 0.  1.
<mgrwt>
<rscale>  1 0.13562848E+03</rscale>
<asrwt>0</asrwt>
<pdfrwt beam="1">  1       21 0.37398838E-02 0.13562848E+03</pdfrwt>
<pdfrwt beam="2">  1        2 0.20179564E+00 0.13562848E+03</pdfrwt>
<totfact> 0.97343199E+04</totfact>
</mgrwt>
</event>
<event>
 6    2  0.1181843E-002  0.1271148E+03  0.7546771E-02  0.1231801E+00
          2   -1    0    0  503    0 -0.00000000000E+00  0.00000000000E+00  0.28195727698E+03  0.28195727698E+03  0.00000000000E+00 0. -1.
         21   -1    0    0  502  503  0.00000000000E+00 -0.00000000000E+00 -0.22783251177E+02  0.22783251177E+02  0.00000000000E+00 0. -1.
         25    2    1    2    0    0 -0.17830741181E+02  0.14736257443E+02  0.16795898307E+03  0.21063804873E+03  0.12499229961E+03 0.  0.
          5    1    3    3  501    0  0.32481412364E+02  0.49752976517E+02  0.49807861248E+02  0.77532147291E+02  0.10000000000E+00 0.  1.
         -5    1    3    3    0  501 -0.50312153545E+02 -0.35016719073E+02  0.11815112182E+03  0.13310590144E+03  0.10000000000E+00 0.  1.
          2    1    1    2  502    0  0.17830741181E+02 -0.14736257443E+02  0.91215042733E+02  0.94102479432E+02  0.00000000000E+00 0. -1.
<mgrwt>
<rscale>  1 0.12711478E+03</rscale>
<asrwt>0</asrwt>
<pdfrwt beam="1">  1       21 0.35051158E-02 0.12711478E+03</pdfrwt>
<pdfrwt beam="2">  1        2 0.43378040E-01 0.12711478E+03</pdfrwt>
<totfact> 0.68765046E+05</totfact>
</mgrwt>
</event>
<event>
 6    2  0.1181843E-002  0.1292967E+03  0.7546771E-02  0.1228503E+00
          2   -1    0    0  503    0 -0.00000000000E+00  0.00000000000E+00  0.15142819002E+04  0.15142819002E+04  0.00000000000E+00 0.  1.
         21   -1    0    0  502  503  0.00000000000E+00 -0.00000000000E+00 -0.32280816581E+02  0.32280816581E+02  0.00000000000E+00 0. -1.
         25    2    1    2    0    0  0.27702417639E+02  0.17935647347E+02  0.98180184100E+02  0.16234835718E+03  0.12501411576E+03 0.  0.
          5    1    3    3  501    0  0.19076447189E+02 -0.44398396075E+02  0.85417374152E+02  0.98139014762E+02  0.10000000000E+00 0.  1.
         -5    1    3    3    0  501  0.86259704498E+01  0.62334043423E+02  0.12762809948E+02  0.64209342415E+02  0.10000000000E+00 0.  1.
          2    1    1    2  502    0 -0.27702417639E+02 -0.17935647347E+02  0.13838208995E+04  0.13842143596E+04  0.00000000000E+00 0.  1.
<mgrwt>
<rscale>  1 0.12929672E+03</rscale>
<asrwt>0</asrwt>
<pdfrwt beam="1">  1       21 0.49662806E-02 0.12929672E+03</pdfrwt>
<pdfrwt beam="2">  1        2 0.23296639E+00 0.12929672E+03</pdfrwt>
<totfact> 0.47446169E+04</totfact>
</mgrwt>
</event>
<event>
 6    2  0.1181843E-002  0.1269020E+03  0.7546771E-02  0.1232126E+00
          1   -1    0    0  503    0 -0.00000000000E+00  0.00000000000E+00  0.14602285308E+04  0.14602285308E+04  0.00000000000E+00 0. -1.
         21   -1    0    0  502  503  0.00000000000E+00 -0.00000000000E+00 -0.10638787947E+02  0.10638787947E+02  0.00000000000E+00 0. -1.
         25    2    1    2    0    0 -0.98455351815E+01 -0.19353240266E+02  0.37183017299E+03  0.39288903840E+03  0.12503054218E+03 0.  0.
          5    1    3    3  501    0  0.26537743780E+01 -0.67791981993E+02  0.13809535678E+03  0.15386075817E+03  0.10000000000E+00 0.  1.
         -5    1    3    3    0  501 -0.12499309560E+02  0.48438741727E+02  0.23373481622E+03  0.23902828023E+03  0.10000000000E+00 0.  1.
          1    1    1    2  502    0  0.98455351815E+01  0.19353240266E+02  0.10777595698E+04  0.10779782803E+04  0.00000000000E+00 0. -1.
<mgrwt>
<rscale>  1 0.12690201E+03</rscale>
<asrwt>0</asrwt>
<pdfrwt beam="1">  1       21 0.16367378E-02 0.12690201E+03</pdfrwt>
<pdfrwt beam="2">  1        1 0.22465038E+00 0.12690201E+03</pdfrwt>
<totfact> 0.14685348E+05</totfact>
</mgrwt>
</event>
<event>
 6    2  0.1181843E-002  0.1262921E+03  0.7546771E-02  0.1233064E+00
         21   -1    0    0  502  503  0.00000000000E+00  0.00000000000E+00  0.25647436202E+03  0.25647436202E+03  0.00000000000E+00 0. -1.
          2   -1    0    0  503    0 -0.00000000000E+00 -0.00000000000E+00 -0.89893111817E+02  0.89893111817E+02  0.00000000000E+00 0. -1.
         25    2    1    2    0    0 -0.16982942742E+01 -0.17950390978E+02  0.23976650125E+03  0.27099385968E+03  0.12499838450E+03 0.  0.
          5    1    3    3  501    0  0.57881888662E+02 -0.12493874088E+02  0.16457334895E+03  0.17490227875E+03  0.10000000000E+00 0. -1.
         -5    1    3    3    0  501 -0.59580182936E+02 -0.54565168900E+01  0.75193152292E+02  0.96091580937E+02  0.10000000000E+00 0. -1.
          2    1    1    2  502    0  0.16982942742E+01  0.17950390978E+02 -0.73185251046E+02  0.75373614152E+02  0.00000000000E+00 0. -1.
<mgrwt>
<rscale>  1 0.12629211E+03</rscale>
<asrwt>0</asrwt>
<pdfrwt beam="1">  1       21 0.39457594E-01 0.12629211E+03</pdfrwt>
<pdfrwt beam="2">  1        2 0.13829710E-01 0.12629211E+03</pdfrwt>
<totfact> 0.32338993E+04</totfact>
</mgrwt>
</event>
<event>
 6    2  0.1181843E-002  0.1273029E+03  0.7546771E-02  0.1231513E+00
         21   -1    0    0  502  503  0.00000000000E+00  0.00000000000E+00  0.53689881372E+03  0.53689881372E+03  0.00000000000E+00 0.  1.
          4   -1    0    0  503    0 -0.00000000000E+00 -0.00000000000E+00 -0.28500801217E+02  0.28500801217E+02  0.00000000000E+00 0. -1.
         25    2    1    2    0    0  0.23709281193E+02 -0.43871796135E+01  0.52228430796E+03  0.53757504736E+03  0.12499862338E+03 0.  0.
          5    1    3    3  501    0  0.30237531851E+02 -0.10706355012E+02  0.52655783520E+03  0.52753397822E+03  0.10000000000E+00 0. -1.
         -5    1    3    3    0  501 -0.65282506575E+01  0.63191753982E+01 -0.42735272412E+01  0.10041069138E+02  0.10000000000E+00 0. -1.
          4    1    1    2  502    0 -0.23709281193E+02  0.43871796135E+01 -0.13886295451E+02  0.27824567580E+02  0.00000000000E+00 0. -1.
<mgrwt>
<rscale>  1 0.12730292E+03</rscale>
<asrwt>0</asrwt>
<pdfrwt beam="1">  1       21 0.82599810E-01 0.12730292E+03</pdfrwt>
<pdfrwt beam="2">  1        4 0.43847391E-02 0.12730292E+03</pdfrwt>
<totfact> 0.15478533E+04</totfact>
</mgrwt>
</event>
<event>
 6    2  0.1181843E-002  0.1278735E+03  0.7546771E-02  0.1230646E+00
          2   -1    0    0  503    0 -0.00000000000E+00  0.00000000000E+00  0.83993033884E+03  0.83993033884E+03  0.00000000000E+00 0.  1.
         21   -1    0    0  502  503  0.00000000000E+00 -0.00000000000E+00 -0.27967076910E+02  0.27967076910E+02  0.00000000000E+00 0.  1.
         25    2    1    2    0    0  0.23035784874E+02  0.13997168742E+02  0.11984796547E+03  0.17525742866E+03  0.12500025343E+03 0.  0.
          5    1    3    3  501    0  0.69728907037E+02 -0.70591779717E+01  0.95727071071E+02  0.11864077969E+03  0.10000000000E+00 0.  1.
         -5    1    3    3    0  501 -0.46693122162E+02  0.21056346713E+02  0.24120894400E+02  0.56616648972E+02  0.10000000000E+00 0.  1.
          2    1    1    2  502    0 -0.23035784874E+02 -0.13997168742E+02  0.69211529645E+03  0.69263998708E+03  0.00000000000E+00 0.  1.
<mgrwt>
<rscale>  1 0.12787350E+03</rscale>
<asrwt>0</asrwt>
<pdfrwt beam="1">  1       21 0.43026279E-02 0.12787350E+03</pdfrwt>
<pdfrwt beam="2">  1        2 0.12922003E+00 0.12787350E+03</pdfrwt>
<totfact> 0.14517232E+05</totfact>
</mgrwt>
</event>
<event>
 6    2  0.1181843E-002  0.1285002E+03  0.7546771E-02  0.1229698E+00
          4   -1    0    0  503    0 -0.00000000000E+00  0.00000000000E+00  0.87081410854E+02  0.87081410854E+02  0.00000000000E+00 0. -1.
         21   -1    0    0  502  503  0.00000000000E+00 -0.00000000000E+00 -0.76484030045E+02  0.76484030045E+02  0.00000000000E+00 0.  1.
         25    2    1    2    0    0 -0.22680729601E+02 -0.19357440226E+02 -0.74412912269E+01  0.12871548141E+03  0.12499270520E+03 0.  0.
          5    1    3    3  501    0  0.87907437440E+01  0.40287655483E+02  0.30542909923E+02  0.51315219053E+02  0.10000000000E+00 0.  1.
         -5    1    3    3    0  501 -0.31471473345E+02 -0.59645095708E+02 -0.37984201150E+02  0.77400262361E+02  0.10000000000E+00 0.  1.
          4    1    1    2  502    0  0.22680729601E+02  0.19357440226E+02  0.18038672036E+02  0.34849959485E+02  0.00000000000E+00 0. -1.
<mgrwt>
<rscale>  1 0.12850020E+03</rscale>
<asrwt>0</asrwt>
<pdfrwt beam="1">  1       21 0.11766774E-01 0.12850020E+03</pdfrwt>
<pdfrwt beam="2">  1        4 0.13397140E-01 0.12850020E+03</pdfrwt>
<totfact> 0.11151170E+05</totfact>
</mgrwt>
</event>
<event>
 6    2  0.1181843E-002  0.1277028E+03  0.7546771E-02  0.1230905E+00
         21   -1    0    0  502  503  0.00000000000E+00  0.00000000000E+00  0.18823360395E+02  0.18823360395E+02  0.00000000000E+00 0.  1.
          1   -1    0    0  503    0 -0.00000000000E+00 -0.00000000000E+00 -0.33798719567E+03  0.33798719567E+03  0.00000000000E+00 0.  1.
         25    2    1    2    0    0 -0.19780909844E+02  0.16886963028E+02 -0.29437443547E+03  0.32088050934E+03  0.12502615369E+03 0.  0.
          5    1    3    3  501    0 -0.41565008372E+02 -0.44899022481E+02 -0.12216875651E+03  0.13663377038E+03  0.10000000000E+00 0.  1.
         -5    1    3    3    0  501  0.21784098528E+02  0.61785985510E+02 -0.17220567895E+03  0.18424673896E+03  0.10000000000E+00 0.  1.
          1    1    1    2  502    0  0.19780909844E+02 -0.16886963028E+02 -0.24789399811E+02  0.35930046724E+02  0.00000000000E+00 0.  1.
<mgrwt>
<rscale>  1 0.12770275E+03</rscale>
<asrwt>0</asrwt>
<pdfrwt beam="1">  1       21 0.28959015E-02 0.12770275E+03</pdfrwt>
<pdfrwt beam="2">  1        1 0.51998031E-01 0.12770275E+03</pdfrwt>
<totfact> 0.53871345E+05</totfact>
</mgrwt>
</event>
<event>
 6    2  0.1181843E-002  0.1325939E+03  0.7546771E-02  0.1223657E+00
          2   -1    0    0  503    0 -0.00000000000E+00  0.00000000000E+00  0.34635803084E+04  0.34635803084E+04  0.00000000000E+00 0.  1.
         21   -1    0    0  502  503  0.00000000000E+00 -0.00000000000E+00 -0.54475893451E+01  0.54475893451E+01  0.00000000000E+00 0.  1.
         25    2    1    2    0    0  0.15795675095E+02 -0.41287402825E+02  0.83007231261E+03  0.84059573144E+03  0.12500794598E+03 0.  0.
          5    1    3    3  501    0 -0.25631883960E+02 -0.70977066827E+02  0.36368426579E+03  0.37143100661E+03  0.10000000000E+00 0.  1.
         -5    1    3    3    0  501  0.41427559056E+02  0.29689664002E+02  0.46638804683E+03  0.46916472483E+03  0.10000000000E+00 0.  1.
          2    1    1    2  502    0 -0.15795675095E+02  0.41287402825E+02  0.26280604064E+04  0.26284321663E+04  0.00000000000E+00 0.  1.
<mgrwt>
<rscale>  1 0.13259389E+03</rscale>
<asrwt>0</asrwt>
<pdfrwt beam="1">  1       21 0.83809344E-03 0.13259389E+03</pdfrwt>
<pdfrwt beam="2">  1        2 0.53285675E+00 0.13259389E+03</pdfrwt>
<totfact> 0.72309976E+04</totfact>
</mgrwt>
</event>
<event>
 6    2  0.1181843E-002  0.1273603E+03  0.7546771E-02  0.1231426E+00
          3   -1    0    0  503    0 -0.00000000000E+00  0.00000000000E+00  0.55629746222E+02  0.55629746222E+02  0.00000000000E+00 0.  1.
         21   -1    0    0  502  503  0.00000000000E+00 -0.00000000000E+00 -0.11346238414E+03  0.11346238414E+03  0.00000000000E+00 0.  1.
         25    2    1    2    0    0 -0.20386945274E+02 -0.13020650678E+02 -0.66146566794E+02  0.14351310976E+03  0.12504191095E+03 0.  0.
          5    1    3    3  501    0 -0.19761037062E+02 -0.45241046497E+02  0.18669646177E+02  0.52780835180E+02  0.10000000000E+00 0.  1.
         -5    1    3    3    0  501 -0.62590821157E+00  0.32220395819E+02 -0.84816212972E+02  0.90732274581E+02  0.10000000000E+00 0.  1.
          3    1    1    2  502    0  0.20386945274E+02  0.13020650678E+02  0.83139288744E+01  0.25579020603E+02  0.00000000000E+00 0.  1.
<mgrwt>
<rscale>  1 0.12736029E+03</rscale>
<asrwt>0</asrwt>
<pdfrwt beam="1">  1       21 0.17455751E-01 0.12736029E+03</pdfrwt>
<pdfrwt beam="2">  1        3 0.85584226E-02 0.12736029E+03</pdfrwt>
<totfact> 0.13368373E+05</totfact>
</mgrwt>
</event>
<event>
 6    2  0.1181843E-002  0.1288366E+03  0.7546771E-02  0.1229192E+00
          1   -1    0    0  503    0 -0.00000000000E+00  0.00000000000E+00  0.32657391031E+03  0.32657391031E+03  0.00000000000E+00 0.  1.
         21   -1    0    0  502  503  0.00000000000E+00 -0.00000000000E+00 -0.62154288821E+02  0.62154288821E+02  0.00000000000E+00 0.  1.
         25    2    1    2    0    0 -0.24535914466E+02  0.19245242317E+02  0.65744350116E+01  0.12900424829E+03  0.12500592958E+03 0.  0.
          5    1    3    3  501    0  0.46314084986E+02 -0.92189046991E+01 -0.15195354065E+02  0.49607373011E+02  0.10000000000E+00 0.  1.
         -5    1    3    3    0  501 -0.70849999452E+02  0.28464147016E+02  0.21769789076E+02  0.79396875280E+02  0.10000000000E+00 0.  1.
          1    1    1    2  502    0  0.24535914466E+02 -0.19245242317E+02  0.25784518647E+03  0.25972395084E+03  0.00000000000E+00 0.  1.
<mgrwt>
<rscale>  1 0.12883661E+03</rscale>
<asrwt>0</asrwt>
<pdfrwt beam="1">  1       21 0.95621985E-02 0.12883661E+03</pdfrwt>
<pdfrwt beam="2">  1        1 0.50242139E-01 0.12883661E+03</pdfrwt>
<totfact> 0.75065590E+04</totfact>
</mgrwt>
</event>
<event>
 6    2  0.1181843E-002  0.1334390E+03  0.7546771E-02  0.1222440E+00
         21   -1    0    0  502  503  0.00000000000E+00  0.00000000000E+00  0.37455203295E+03  0.37455203295E+03  0.00000000000E+00 0.  1.
          2   -1    0    0  503    0 -0.00000000000E+00 -0.00000000000E+00 -0.19856430545E+04  0.19856430545E+04  0.00000000000E+00 0.  1.
         25    2    1    2    0    0 -0.44054678611E+02  0.15502634047E+02  0.36238215086E+03  0.38616937623E+03  0.12499927001E+03 0.  0.
          5    1    3    3  501    0 -0.66889882574E+02 -0.36807435699E+02  0.20462712910E+03  0.21840630869E+03  0.10000000000E+00 0.  1.
         -5    1    3    3    0  501  0.22835203963E+02  0.52310069747E+02  0.15775502176E+03  0.16776306754E+03  0.10000000000E+00 0.  1.
          2    1    1    2  502    0  0.44054678611E+02 -0.15502634047E+02 -0.19734731724E+04  0.19740257112E+04  0.00000000000E+00 0.  1.
<mgrwt>
<rscale>  1 0.13343899E+03</rscale>
<asrwt>0</asrwt>
<pdfrwt beam="1">  1       21 0.57623390E-01 0.13343899E+03</pdfrwt>
<pdfrwt beam="2">  1        2 0.30548354E+00 0.13343899E+03</pdfrwt>
<totfact> 0.29434831E+02</totfact>
</mgrwt>
</event>
<event>
 6    2  0.1181843E-002  0.1301484E+03  0.7546771E-02  0.1227236E+00
         21   -1    0    0  502  503  0.00000000000E+00  0.00000000000E+00  0.33558720465E+02  0.33558720465E+02  0.00000000000E+00 0.  1.
          2   -1    0    0  503    0 -0.00000000000E+00 -0.00000000000E+00 -0.20628318115E+03  0.20628318115E+03  0.00000000000E+00 0.  1.
         25    2    1    2    0    0  0.33111326190E+02  0.14764805929E+02 -0.13462610335E+03  0.18725060720E+03  0.12499697108E+03 0.  0.
          5    1    3    3  501    0  0.55119609147E+02 -0.41286292056E+02 -0.83669892857E+02  0.10836692390E+03  0.10000000000E+00 0. -1.
         -5    1    3    3    0  501 -0.22008282957E+02  0.56051097985E+02 -0.50956210491E+02  0.78883683305E+02  0.10000000000E+00 0. -1.
          2    1    1    2  502    0 -0.33111326190E+02 -0.14764805929E+02 -0.38098357332E+02  0.52591294408E+02  0.00000000000E+00 0.  1.
<mgrwt>
<rscale>  1 0.13014839E+03</rscale>
<asrwt>0</asrwt>
<pdfrwt beam="1">  1       21 0.51628801E-02 0.13014839E+03</pdfrwt>
<pdfrwt beam="2">  1        2 0.31735874E-01 0.13014839E+03</pdfrwt>
<totfact> 0.50421979E+05</totfact>
</mgrwt>
</event>
<event>
 6    2  0.1181843E-002  0.1291989E+03  0.7546771E-02  0.1228649E+00
          2   -1    0    0  503    0 -0.00000000000E+00  0.00000000000E+00  0.22142363921E+03  0.22142363921E+03  0.00000000000E+00 0.  1.
         21   -1    0    0  502  503  0.00000000000E+00 -0.00000000000E+00 -0.32652980865E+02  0.32652980865E+02  0.00000000000E+00 0.  1.
         25    2    1    2    0    0  0.30732385497E+02  0.11022417731E+02  0.11327767972E+03  0.17182600893E+03  0.12500548553E+03 0.  0.
          5    1    3    3  501    0  0.66862726559E+02  0.42529380393E+02  0.55473902671E+02  0.96730224217E+02  0.10000000000E+00 0. -1.
         -5    1    3    3    0  501 -0.36130341061E+02 -0.31506962662E+02  0.57803777046E+02  0.75095784716E+02  0.10000000000E+00 0. -1.
          2    1    1    2  502    0 -0.30732385497E+02 -0.11022417731E+02  0.75492978626E+02  0.82250611140E+02  0.00000000000E+00 0.  1.
<mgrwt>
<rscale>  1 0.12919886E+03</rscale>
<asrwt>0</asrwt>
<pdfrwt beam="1">  1       21 0.50235357E-02 0.12919886E+03</pdfrwt>
<pdfrwt beam="2">  1        2 0.34065174E-01 0.12919886E+03</pdfrwt>
<totfact> 0.48901376E+05</totfact>
</mgrwt>
</event>
<event>
 6    2  0.1181843E-002  0.1287755E+03  0.7546771E-02  0.1229284E+00
         21   -1    0    0  502  503  0.00000000000E+00  0.00000000000E+00  0.16173173902E+02  0.16173173902E+02  0.00000000000E+00 0. -1.
          1   -1    0    0  503    0 -0.00000000000E+00 -0.00000000000E+00 -0.51192810472E+03  0.51192810472E+03  0.00000000000E+00 0. -1.
         25    2    1    2    0    0 -0.30938873609E+02 -0.21084524219E+00 -0.25811087313E+03  0.28845162494E+03  0.12500343494E+03 0.  0.
          5    1    3    3  501    0 -0.77799404292E+02  0.10323433128E+02 -0.18519793971E+03  0.20114076527E+03  0.10000000000E+00 0.  1.
         -5    1    3    3    0  501  0.46860530683E+02 -0.10534278370E+02 -0.72912933418E+02  0.87310859670E+02  0.10000000000E+00 0.  1.
          1    1    1    2  502    0  0.30938873609E+02  0.21084524219E+00 -0.23764405768E+03  0.23964965368E+03  0.00000000000E+00 0. -1.
<mgrwt>
<rscale>  1 0.12877545E+03</rscale>
<asrwt>0</asrwt>
<pdfrwt beam="1">  1       21 0.24881806E-02 0.12877545E+03</pdfrwt>
<pdfrwt beam="2">  1        1 0.78758172E-01 0.12877545E+03</pdfrwt>
<totfact> 0.40792132E+05</totfact>
</mgrwt>
</event>
<event>
 6    2  0.1181843E-002  0.1325671E+03  0.7546771E-02  0.1223696E+00
         21   -1    0    0  502  503  0.00000000000E+00  0.00000000000E+00  0.25508570549E+02  0.25508570549E+02  0.00000000000E+00 0. -1.
          2   -1    0    0  503    0 -0.00000000000E+00 -0.00000000000E+00 -0.11418659359E+04  0.11418659359E+04  0.00000000000E+00 0.  1.
         25    2    1    2    0    0  0.30367407424E+02 -0.32114890990E+02 -0.15071572582E+03  0.20072186891E+03  0.12498197068E+03 0.  0.
          5    1    3    3  501    0 -0.54315418436E+00  0.32390448533E+02 -0.11745000517E+03  0.12183574963E+03  0.10000000000E+00 0.  1.
         -5    1    3    3    0  501  0.30910561608E+02 -0.64505339523E+02 -0.33265720650E+02  0.78886119288E+02  0.10000000000E+00 0.  1.
          2    1    1    2  502    0 -0.30367407424E+02  0.32114890990E+02 -0.96564163955E+03  0.96665263756E+03  0.00000000000E+00 0.  1.
<mgrwt>
<rscale>  1 0.13256711E+03</rscale>
<asrwt>0</asrwt>
<pdfrwt beam="1">  1       21 0.39243960E-02 0.13256711E+03</pdfrwt>
<pdfrwt beam="2">  1        2 0.17567166E+00 0.13256711E+03</pdfrwt>
<totfact> 0.11139283E+05</totfact>
</mgrwt>
</event>
<event>
 6    2  0.1181843E-002  0.1303734E+03  0.7546771E-02  0.1226903E+00
         21   -1    0    0  502  503  0.00000000000E+00  0.00000000000E+00  0.15602983246E+02  0.15602983246E+02  0.00000000000E+00 0.  1.
          1   -1    0    0  503    0 -0.00000000000E+00 -0.00000000000E+00 -0.79762637480E+03  0.79762637480E+03  0.00000000000E+00 0.  1.
         25    2    1    2    0    0 -0.34912511181E+02  0.12547827249E+02 -0.26963870456E+03  0.29950336214E+03  0.12498360505E+03 0.  0.
          5    1    3    3  501    0 -0.26957851852E+02  0.53235869898E+02 -0.24301121313E+03  0.25023038050E+03  0.10000000000E+00 0.  1.
         -5    1    3    3    0  501 -0.79546593292E+01 -0.40688042649E+02 -0.26627491436E+02  0.49272981641E+02  0.10000000000E+00 0.  1.
          1    1    1    2  502    0  0.34912511181E+02 -0.12547827249E+02 -0.51238468699E+03  0.51372599590E+03  0.00000000000E+00 0.  1.
<mgrwt>
<rscale>  1 0.13037344E+03</rscale>
<asrwt>0</asrwt>
<pdfrwt beam="1">  1       21 0.24004592E-02 0.13037344E+03</pdfrwt>
<pdfrwt beam="2">  1        1 0.12271174E+00 0.13037344E+03</pdfrwt>
<totfact> 0.23350914E+05</totfact>
</mgrwt>
</event>
<event>
 6    2  0.1181843E-002  0.1316482E+03  0.7546771E-02  0.1225030E+00
          2   -1    0    0  503    0 -0.00000000000E+00  0.00000000000E+00  0.58902514885E+03  0.58902514885E+03  0.00000000000E+00 0. -1.
         21   -1    0    0  502  503  0.00000000000E+00 -0.00000000000E+00 -0.42582347658E+02  0.42582347658E+02  0.00000000000E+00 0. -1.
         25    2    1    2    0    0 -0.32195532420E+02  0.25776916163E+02  0.62184184679E+02  0.14559575860E+03  0.12502099977E+03 0.  0.
          5    1    3    3  501    0 -0.56688388094E+02 -0.19364800121E+02  0.71627927665E+02  0.93376329174E+02  0.10000000000E+00 0. -1.
         -5    1    3    3    0  501  0.24492855674E+02  0.45141716284E+02 -0.94437429862E+01  0.52219429428E+02  0.10000000000E+00 0. -1.
          2    1    1    2  502    0  0.32195532420E+02 -0.25776916163E+02  0.48425861652E+03  0.48601173791E+03  0.00000000000E+00 0. -1.
<mgrwt>
<rscale>  1 0.13164821E+03</rscale>
<asrwt>0</asrwt>
<pdfrwt beam="1">  1       21 0.65511308E-02 0.13164821E+03</pdfrwt>
<pdfrwt beam="2">  1        2 0.90619248E-01 0.13164821E+03</pdfrwt>
<totfact> 0.10914263E+05</totfact>
</mgrwt>
</event>
<event>
 6    2  0.1181843E-002  0.1440496E+03  0.7546771E-02  0.1207982E+00
          1   -1    0    0  503    0 -0.00000000000E+00  0.00000000000E+00  0.10201977404E+04  0.10201977404E+04  0.00000000000E+00 0.  1.
         21   -1    0    0  502  503  0.00000000000E+00 -0.00000000000E+00 -0.11627449596E+02  0.11627449596E+02  0.00000000000E+00 0. -1.
         25    2    1    2    0    0  0.42066168845E+02 -0.57943316920E+02  0.73892396750E+03  0.75283391736E+03  0.12499314717E+03 0.  0.
          5    1    3    3  501    0 -0.89720187223E+01  0.32323027389E+02  0.98164308952E+02  0.10373773070E+03  0.10000000000E+00 0.  1.
         -5    1    3    3    0  501  0.51038187567E+02 -0.90266344309E+02  0.64075965855E+03  0.64909618665E+03  0.10000000000E+00 0.  1.
          1    1    1    2  502    0 -0.42066168845E+02  0.57943316920E+02  0.26964632331E+03  0.27899127264E+03  0.00000000000E+00 0.  1.
<mgrwt>
<rscale>  1 0.14404957E+03</rscale>
<asrwt>0</asrwt>
<pdfrwt beam="1">  1       21 0.17888392E-02 0.14404957E+03</pdfrwt>
<pdfrwt beam="2">  1        1 0.15695343E+00 0.14404957E+03</pdfrwt>
<totfact> 0.25446770E+05</totfact>
</mgrwt>
</event>
<event>
 6    2  0.1181843E-002  0.1281274E+03  0.7546771E-02  0.1230261E+00
         21   -1    0    0  502  503  0.00000000000E+00  0.00000000000E+00  0.48468255549E+02  0.48468255549E+02  0.00000000000E+00 0. -1.
          1   -1    0    0  503    0 -0.00000000000E+00 -0.00000000000E+00 -0.41247195474E+03  0.41247195474E+03  0.00000000000E+00 0. -1.
         25    2    1    2    0    0 -0.50323490461E+01  0.27719572856E+02 -0.37890795427E+02  0.13361265988E+03  0.12499172471E+03 0.  0.
          5    1    3    3  501    0 -0.36393902279E+02  0.82269860818E+01  0.35470870806E+02  0.51481958965E+02  0.10000000000E+00 0. -1.
         -5    1    3    3    0  501  0.31361553233E+02  0.19492586774E+02 -0.73361666232E+02  0.82130700915E+02  0.10000000000E+00 0. -1.
          1    1    1    2  502    0  0.50323490461E+01 -0.27719572856E+02 -0.32611290376E+03  0.32732755041E+03  0.00000000000E+00 0. -1.
<mgrwt>
<rscale>  1 0.12812740E+03</rscale>
<asrwt>0</asrwt>
<pdfrwt beam="1">  1       21 0.74566550E-02 0.12812740E+03</pdfrwt>
<pdfrwt beam="2">  1        1 0.63457221E-01 0.12812740E+03</pdfrwt>
<totfact> 0.86196760E+04</totfact>
</mgrwt>
</event>
<event>
 6    2  0.1181843E-002  0.1260573E+03  0.7546771E-02  0.1233426E+00
          2   -1    0    0  503    0 -0.00000000000E+00  0.00000000000E+00  0.12844685728E+04  0.12844685728E+04  0.00000000000E+00 0. -1.
         21   -1    0    0  502  503  0.00000000000E+00 -0.00000000000E+00 -0.35771079751E+02  0.35771079751E+02  0.00000000000E+00 0. -1.
         25    2    1    2    0    0 -0.16003595100E+02  0.28269710146E+01  0.75516664412E+02  0.14694626916E+03  0.12500533027E+03 0.  0.
          5    1    3    3  501    0  0.23957577996E+02  0.38386053855E+02 -0.97520753883E+01  0.46287877985E+02  0.10000000000E+00 0. -1.
         -5    1    3    3    0  501 -0.39961173096E+02 -0.35559082840E+02  0.85268739801E+02  0.10065839118E+03  0.10000000000E+00 0. -1.
          2    1    1    2  502    0  0.16003595100E+02 -0.28269710146E+01  0.11731808287E+04  0.11732933834E+04  0.00000000000E+00 0. -1.
<mgrwt>
<rscale>  1 0.12605729E+03</rscale>
<asrwt>0</asrwt>
<pdfrwt beam="1">  1       21 0.55032440E-02 0.12605729E+03</pdfrwt>
<pdfrwt beam="2">  1        2 0.19761051E+00 0.12605729E+03</pdfrwt>
<totfact> 0.52798041E+04</totfact>
</mgrwt>
</event>
<event>
 6    2  0.1181843E-002  0.1332775E+03  0.7546771E-02  0.1222672E+00
         21   -1    0    0  502  503  0.00000000000E+00  0.00000000000E+00  0.49164178821E+02  0.49164178821E+02  0.00000000000E+00 0. -1.
          2   -1    0    0  503    0 -0.00000000000E+00 -0.00000000000E+00 -0.21836687745E+03  0.21836687745E+03  0.00000000000E+00 0. -1.
         25    2    1    2    0    0 -0.40850521015E+02  0.21660750737E+02 -0.54738237645E+02  0.14408039399E+03  0.12499972833E+03 0.  0.
          5    1    3    3  501    0 -0.28994837832E+02 -0.30166322879E+02 -0.76051305226E+02  0.86801605305E+02  0.10000000000E+00 0. -1.
         -5    1    3    3    0  501 -0.11855683183E+02  0.51827073616E+02  0.21313067581E+02  0.57278788683E+02  0.10000000000E+00 0. -1.
          2    1    1    2  502    0  0.40850521015E+02 -0.21660750737E+02 -0.11446446099E+03  0.12345066229E+03  0.00000000000E+00 0. -1.
<mgrwt>
<rscale>  1 0.13327747E+03</rscale>
<asrwt>0</asrwt>
<pdfrwt beam="1">  1       21 0.75637199E-02 0.13327747E+03</pdfrwt>
<pdfrwt beam="2">  1        2 0.33594904E-01 0.13327747E+03</pdfrwt>
<totfact> 0.24812989E+05</totfact>
</mgrwt>
</event>
<event>
 6    2  0.1181843E-002  0.1381856E+03  0.7546771E-02  0.1215791E+00
          2   -1    0    0  503    0 -0.00000000000E+00  0.00000000000E+00  0.12030020186E+04  0.12030020186E+04  0.00000000000E+00 0.  1.
         21   -1    0    0  502  503  0.00000000000E+00 -0.00000000000E+00 -0.18842045472E+02  0.18842045472E+02  0.00000000000E+00 0.  1.
         25    2    1    2    0    0  0.41184417013E+01  0.58772087191E+02  0.24854788367E+03  0.28437881045E+03  0.12499655021E+03 0.  0.
          5    1    3    3  501    0  0.45646230972E+02  0.64620275540E+02  0.87519413164E+02  0.11797887986E+03  0.10000000000E+00 0.  1.
         -5    1    3    3    0  501 -0.41527789271E+02 -0.58481883489E+01  0.16102847050E+03  0.16639993059E+03  0.10000000000E+00 0.  1.
          2    1    1    2  502    0 -0.41184417013E+01 -0.58772087191E+02  0.93561208950E+03  0.93746525365E+03  0.00000000000E+00 0.  1.
<mgrwt>
<rscale>  1 0.13818559E+03</rscale>
<asrwt>0</asrwt>
<pdfrwt beam="1">  1       21 0.28987772E-02 0.13818559E+03</pdfrwt>
<pdfrwt beam="2">  1        2 0.18507717E+00 0.13818559E+03</pdfrwt>
<totfact> 0.16985045E+05</totfact>
</mgrwt>
</event>
<event>
 6    2  0.1181843E-002  0.1269820E+03  0.7546771E-02  0.1232004E+00
         21   -1    0    0  502  503  0.00000000000E+00  0.00000000000E+00  0.14683789663E+02  0.14683789663E+02  0.00000000000E+00 0.  1.
          1   -1    0    0  503    0 -0.00000000000E+00 -0.00000000000E+00 -0.48706415113E+03  0.48706415113E+03  0.00000000000E+00 0.  1.
         25    2    1    2    0    0  0.11269451793E+02  0.19303363283E+02 -0.27263901329E+03  0.30075981540E+03  0.12499925845E+03 0.  0.
          5    1    3    3  501    0  0.49883056680E+02  0.53914639108E+02 -0.13520529946E+03  0.15386874490E+03  0.10000000000E+00 0.  1.
         -5    1    3    3    0  501 -0.38613604887E+02 -0.34611275825E+02 -0.13743371383E+03  0.14689107050E+03  0.10000000000E+00 0.  1.
          1    1    1    2  502    0 -0.11269451793E+02 -0.19303363283E+02 -0.19974134818E+03  0.20098812540E+03  0.00000000000E+00 0.  1.
<mgrwt>
<rscale>  1 0.12698203E+03</rscale>
<asrwt>0</asrwt>
<pdfrwt beam="1">  1       21 0.22590450E-02 0.12698203E+03</pdfrwt>
<pdfrwt beam="2">  1        1 0.74932932E-01 0.12698203E+03</pdfrwt>
<totfact> 0.50867447E+05</totfact>
</mgrwt>
</event>
<event>
 6    2  0.1181843E-002  0.1369141E+03  0.7546771E-02  0.1217543E+00
         21   -1    0    0  502  503  0.00000000000E+00  0.00000000000E+00  0.11329832620E+03  0.11329832620E+03  0.00000000000E+00 0.  1.
          1   -1    0    0  503    0 -0.00000000000E+00 -0.00000000000E+00 -0.95777073113E+02  0.95777073113E+02  0.00000000000E+00 0. -1.
         25    2    1    2    0    0  0.27879601244E+02  0.48388539295E+02  0.48454088799E+02  0.14523526127E+03  0.12500703778E+03 0.  0.
          5    1    3    3  501    0 -0.38124558546E+02  0.54739657152E+02  0.41498448524E+02  0.78562352685E+02  0.10000000000E+00 0.  1.
         -5    1    3    3    0  501  0.66004159790E+02 -0.63511178571E+01  0.69556402744E+01  0.66672908586E+02  0.10000000000E+00 0.  1.
          1    1    1    2  502    0 -0.27879601244E+02 -0.48388539295E+02 -0.30932835709E+02  0.63840138045E+02  0.00000000000E+00 0. -1.
<mgrwt>
<rscale>  1 0.13691414E+03</rscale>
<asrwt>0</asrwt>
<pdfrwt beam="1">  1       21 0.17430512E-01 0.13691414E+03</pdfrwt>
<pdfrwt beam="2">  1        1 0.14734934E-01 0.13691414E+03</pdfrwt>
<totfact> 0.12013204E+05</totfact>
</mgrwt>
</event>
<event>
 6    2  0.1181843E-002  0.1260884E+03  0.7546771E-02  0.1233378E+00
         21   -1    0    0  502  503  0.00000000000E+00  0.00000000000E+00  0.24124965212E+03  0.24124965212E+03  0.00000000000E+00 0.  1.
          1   -1    0    0  503    0 -0.00000000000E+00 -0.00000000000E+00 -0.28925077137E+02  0.28925077137E+02  0.00000000000E+00 0.  1.
         25    2    1    2    0    0 -0.66119732301E+01 -0.15145639458E+02  0.21871433905E+03  0.25245644296E+03  0.12500073961E+03 0.  0.
          5    1    3    3  501    0 -0.62054757930E+02 -0.27634666734E+02  0.10069106847E+03  0.12146262411E+03  0.10000000000E+00 0. -1.
         -5    1    3    3    0  501  0.55442784700E+02  0.12489027276E+02  0.11802327058E+03  0.13099381885E+03  0.10000000000E+00 0. -1.
          1    1    1    2  502    0  0.66119732301E+01  0.15145639458E+02 -0.63897640632E+01  0.17718286299E+02  0.00000000000E+00 0.  1.
<mgrwt>
<rscale>  1 0.12608844E+03</rscale>
<asrwt>0</asrwt>
<pdfrwt beam="1">  1       21 0.37115330E-01 0.12608844E+03</pdfrwt>
<pdfrwt beam="2">  1        1 0.44500120E-02 0.12608844E+03</pdfrwt>
<totfact> 0.14131134E+05</totfact>
</mgrwt>
</event>
<event>
 6    2  0.1181843E-002  0.1419153E+03  0.7546771E-02  0.1210775E+00
          1   -1    0    0  503    0 -0.00000000000E+00  0.00000000000E+00  0.11653204091E+03  0.11653204091E+03  0.00000000000E+00 0. -1.
         21   -1    0    0  502  503  0.00000000000E+00 -0.00000000000E+00 -0.17882990778E+03  0.17882990778E+03  0.00000000000E+00 0.  1.
         25    2    1    2    0    0 -0.64173158425E+02  0.19902451060E+02 -0.13534934057E+03  0.19611065333E+03  0.12500257013E+03 0.  0.
          5    1    3    3  501    0 -0.45380275400E+02  0.30802081090E+02  0.40807326111E+01  0.54998181547E+02  0.10000000000E+00 0.  1.
         -5    1    3    3    0  501 -0.18792883025E+02 -0.10899630030E+02 -0.13943007318E+03  0.14111247179E+03  0.10000000000E+00 0.  1.
          1    1    1    2  502    0  0.64173158425E+02 -0.19902451060E+02  0.73051473700E+02  0.99251295357E+02  0.00000000000E+00 0. -1.
<mgrwt>
<rscale>  1 0.14191527E+03</rscale>
<asrwt>0</asrwt>
<pdfrwt beam="1">  1       21 0.27512294E-01 0.14191527E+03</pdfrwt>
<pdfrwt beam="2">  1        1 0.17928006E-01 0.14191527E+03</pdfrwt>
<totfact> 0.39786187E+04</totfact>
</mgrwt>
</event>
<event>
 6    2  0.1181843E-002  0.1572465E+03  0.7546771E-02  0.1191841E+00
          3   -1    0    0  503    0 -0.00000000000E+00  0.00000000000E+00  0.15300284053E+02  0.15300284053E+02  0.00000000000E+00 0. -1.
         21   -1    0    0  502  503  0.00000000000E+00 -0.00000000000E+00 -0.10460458823E+04  0.10460458823E+04  0.00000000000E+00 0. -1.
         25    2    1    2    0    0 -0.93570691841E+02 -0.18580505211E+02 -0.66920745968E+03  0.68743369640E+03  0.12500301321E+03 0.  0.
          5    1    3    3  501    0 -0.37527530539E+02 -0.25985286833E+02 -0.58019321483E+03  0.58198601978E+03  0.10000000000E+00 0.  1.
         -5    1    3    3    0  501 -0.56043161302E+02  0.74047816220E+01 -0.89014244853E+02  0.10544767663E+03  0.10000000000E+00 0.  1.
          3    1    1    2  502    0  0.93570691841E+02  0.18580505211E+02 -0.36153813854E+03  0.37391246992E+03  0.00000000000E+00 0. -1.
<mgrwt>
<rscale>  1 0.15724650E+03</rscale>
<asrwt>0</asrwt>
<pdfrwt beam="1">  1       21 0.16093016E+00 0.15724650E+03</pdfrwt>
<pdfrwt beam="2">  1        3 0.23538895E-02 0.15724650E+03</pdfrwt>
<totfact> 0.90416347E+03</totfact>
</mgrwt>
</event>
<event>
 6    2  0.1181843E-002  0.1609635E+03  0.7546771E-02  0.1187613E+00
         21   -1    0    0  502  503  0.00000000000E+00  0.00000000000E+00  0.10281706665E+02  0.10281706665E+02  0.00000000000E+00 0. -1.
          3   -1    0    0  503    0 -0.00000000000E+00 -0.00000000000E+00 -0.16750742687E+04  0.16750742687E+04  0.00000000000E+00 0. -1.
         25    2    1    2    0    0  0.78659526635E+02  0.63997526696E+02 -0.99840065513E+03  0.10112927898E+04  0.12500493580E+03 0.  0.
          5    1    3    3  501    0  0.32809456776E+02 -0.10562207690E+02 -0.68589633357E+03  0.68676182996E+03  0.10000000000E+00 0.  1.
         -5    1    3    3    0  501  0.45850069858E+02  0.74559734385E+02 -0.31250432156E+03  0.32453095984E+03  0.10000000000E+00 0.  1.
          3    1    1    2  502    0 -0.78659526635E+02 -0.63997526696E+02 -0.66639190692E+03  0.67406318558E+03  0.00000000000E+00 0. -1.
<mgrwt>
<rscale>  1 0.16096347E+03</rscale>
<asrwt>0</asrwt>
<pdfrwt beam="1">  1       21 0.15818011E-02 0.16096347E+03</pdfrwt>
<pdfrwt beam="2">  1        3 0.25770372E+00 0.16096347E+03</pdfrwt>
<totfact> 0.67373627E+03</totfact>
</mgrwt>
</event>
<event>
 6    2  0.1181843E-002  0.1297903E+03  0.7546771E-02  0.1227767E+00
         21   -1    0    0  502  503  0.00000000000E+00  0.00000000000E+00  0.35246812193E+02  0.35246812193E+02  0.00000000000E+00 0. -1.
          2   -1    0    0  503    0 -0.00000000000E+00 -0.00000000000E+00 -0.48055280627E+03  0.48055280627E+03  0.00000000000E+00 0. -1.
         25    2    1    2    0    0 -0.10463429567E+01  0.34926141747E+02 -0.88049023455E+02  0.15683795858E+03  0.12499833802E+03 0.  0.
          5    1    3    3  501    0 -0.61227483915E+02  0.11947515100E+02 -0.60080156835E+02  0.86609371023E+02  0.10000000000E+00 0. -1.
         -5    1    3    3    0  501  0.60181140959E+02  0.22978626647E+02 -0.27968866621E+02  0.70228587553E+02  0.10000000000E+00 0. -1.
          2    1    1    2  502    0  0.10463429567E+01 -0.34926141747E+02 -0.35725697062E+03  0.35896165989E+03  0.00000000000E+00 0. -1.
<mgrwt>
<rscale>  1 0.12979027E+03</rscale>
<asrwt>0</asrwt>
<pdfrwt beam="1">  1       21 0.54225873E-02 0.12979027E+03</pdfrwt>
<pdfrwt beam="2">  1        2 0.73931189E-01 0.12979027E+03</pdfrwt>
<totfact> 0.18837571E+05</totfact>
</mgrwt>
</event>
<event>
 6    2  0.1181843E-002  0.1265993E+03  0.7546771E-02  0.1232591E+00
          2   -1    0    0  503    0 -0.00000000000E+00  0.00000000000E+00  0.98482567690E+03  0.98482567690E+03  0.00000000000E+00 0.  1.
         21   -1    0    0  502  503  0.00000000000E+00 -0.00000000000E+00 -0.11157212731E+02  0.11157212731E+02  0.00000000000E+00 0.  1.
         25    2    1    2    0    0  0.16534284105E+02 -0.11307000148E+02  0.35341121857E+03  0.37540228929E+03  0.12500463427E+03 0.  0.
          5    1    3    3  501    0  0.55812995308E+02  0.29830515380E+02  0.24420530705E+03  0.25227205966E+03  0.10000000000E+00 0. -1.
         -5    1    3    3    0  501 -0.39278711203E+02 -0.41137515529E+02  0.10920591152E+03  0.12313022963E+03  0.10000000000E+00 0. -1.
          2    1    1    2  502    0 -0.16534284105E+02  0.11307000148E+02  0.62025724560E+03  0.62058060034E+03  0.00000000000E+00 0.  1.
<mgrwt>
<rscale>  1 0.12659933E+03</rscale>
<asrwt>0</asrwt>
<pdfrwt beam="1">  1       21 0.17164950E-02 0.12659933E+03</pdfrwt>
<pdfrwt beam="2">  1        2 0.15151157E+00 0.12659933E+03</pdfrwt>
<totfact> 0.52851674E+05</totfact>
</mgrwt>
</event>
<event>
 6    2  0.1181843E-002  0.1362680E+03  0.7546771E-02  0.1218441E+00
         21   -1    0    0  502  503  0.00000000000E+00  0.00000000000E+00  0.22030137411E+04  0.22030137411E+04  0.00000000000E+00 0.  1.
          1   -1    0    0  503    0 -0.00000000000E+00 -0.00000000000E+00 -0.41478851380E+01  0.41478851380E+01  0.00000000000E+00 0.  1.
         25    2    1    2    0    0 -0.42640786709E+02 -0.33576829028E+02  0.14877079801E+04  0.14939357402E+04  0.12499328624E+03 0.  0.
          5    1    3    3  501    0 -0.65384310077E+02  0.27614834005E+02  0.78378163446E+03  0.78698878491E+03  0.10000000000E+00 0.  1.
         -5    1    3    3    0  501  0.22743523368E+02 -0.61191663033E+02  0.70392634565E+03  0.70694695528E+03  0.10000000000E+00 0.  1.
          1    1    1    2  502    0  0.42640786709E+02  0.33576829028E+02  0.71115787589E+03  0.71322588608E+03  0.00000000000E+00 0.  1.
<mgrwt>
<rscale>  1 0.13626798E+03</rscale>
<asrwt>0</asrwt>
<pdfrwt beam="1">  1       21 0.33892426E+00 0.13626798E+03</pdfrwt>
<pdfrwt beam="2">  1        1 0.63813793E-03 0.13626798E+03</pdfrwt>
<totfact> 0.67029429E+03</totfact>
</mgrwt>
</event>
<event>
 6    2  0.1181843E-002  0.1262610E+03  0.7546771E-02  0.1233112E+00
         21   -1    0    0  502  503  0.00000000000E+00  0.00000000000E+00  0.13573342137E+03  0.13573342137E+03  0.00000000000E+00 0.  1.
          1   -1    0    0  503    0 -0.00000000000E+00 -0.00000000000E+00 -0.11524994994E+04  0.11524994994E+04  0.00000000000E+00 0. -1.
         25    2    1    2    0    0 -0.28804712986E+01 -0.17571804422E+02  0.10628517496E+03  0.16504051416E+03  0.12499906988E+03 0.  0.
          5    1    3    3  501    0 -0.36897875568E+02  0.37513739096E+02  0.78690908766E+02  0.94662574256E+02  0.10000000000E+00 0.  1.
         -5    1    3    3    0  501  0.34017404269E+02 -0.55085543517E+02  0.27594266194E+02  0.70377939900E+02  0.10000000000E+00 0.  1.
          1    1    1    2  502    0  0.28804712986E+01  0.17571804422E+02 -0.11230512529E+04  0.11231924066E+04  0.00000000000E+00 0. -1.
<mgrwt>
<rscale>  1 0.12626097E+03</rscale>
<asrwt>0</asrwt>
<pdfrwt beam="1">  1       21 0.20882065E-01 0.12626097E+03</pdfrwt>
<pdfrwt beam="2">  1        1 0.17730761E+00 0.12626097E+03</pdfrwt>
<totfact> 0.30759635E+03</totfact>
</mgrwt>
</event>
<event>
 6    2  0.1181843E-002  0.1259288E+03  0.7546771E-02  0.1233625E+00
         21   -1    0    0  502  503  0.00000000000E+00  0.00000000000E+00  0.48828340642E+02  0.48828340642E+02  0.00000000000E+00 0. -1.
          1   -1    0    0  503    0 -0.00000000000E+00 -0.00000000000E+00 -0.45856605530E+03  0.45856605530E+03  0.00000000000E+00 0.  1.
         25    2    1    2    0    0  0.13001339248E+02 -0.79589368441E+01 -0.32775664581E+02  0.13012424513E+03  0.12500278190E+03 0.  0.
          5    1    3    3  501    0  0.68073487440E+02 -0.15223676692E+01 -0.54470348829E+01  0.68308107020E+02  0.10000000000E+00 0.  1.
         -5    1    3    3    0  501 -0.55072148192E+02 -0.64365691749E+01 -0.27328629698E+02  0.61816138107E+02  0.10000000000E+00 0.  1.
          1    1    1    2  502    0 -0.13001339248E+02  0.79589368441E+01 -0.37696205007E+03  0.37727015081E+03  0.00000000000E+00 0.  1.
<mgrwt>
<rscale>  1 0.12592885E+03</rscale>
<asrwt>0</asrwt>
<pdfrwt beam="1">  1       21 0.75120522E-02 0.12592885E+03</pdfrwt>
<pdfrwt beam="2">  1        1 0.70548626E-01 0.12592885E+03</pdfrwt>
<totfact> 0.74352504E+04</totfact>
</mgrwt>
</event>
<event>
 6    2  0.1181843E-002  0.1278973E+03  0.7546771E-02  0.1230610E+00
          1   -1    0    0  503    0 -0.00000000000E+00  0.00000000000E+00  0.35288365995E+03  0.35288365995E+03  0.00000000000E+00 0. -1.
         21   -1    0    0  502  503  0.00000000000E+00 -0.00000000000E+00 -0.20596652721E+02  0.20596652721E+02  0.00000000000E+00 0. -1.
         25    2    1    2    0    0  0.19250823176E+02  0.18942320456E+02  0.19254302799E+03  0.23115046538E+03  0.12501325658E+03 0.  0.
          5    1    3    3  501    0  0.21363692692E+02 -0.45809082369E+02  0.36958947483E+02  0.62616716554E+02  0.10000000000E+00 0.  1.
         -5    1    3    3    0  501 -0.21128695161E+01  0.64751402825E+02  0.15558408051E+03  0.16853374883E+03  0.10000000000E+00 0.  1.
          1    1    1    2  502    0 -0.19250823176E+02 -0.18942320456E+02  0.13974397923E+03  0.14232984729E+03  0.00000000000E+00 0. -1.
<mgrwt>
<rscale>  1 0.12789730E+03</rscale>
<asrwt>0</asrwt>
<pdfrwt beam="1">  1       21 0.31687161E-02 0.12789730E+03</pdfrwt>
<pdfrwt beam="2">  1        1 0.54289790E-01 0.12789730E+03</pdfrwt>
<totfact> 0.44052113E+05</totfact>
</mgrwt>
</event>
<event>
 6    2  0.1181843E-002  0.1259422E+03  0.7546771E-02  0.1233604E+00
         21   -1    0    0  502  503  0.00000000000E+00  0.00000000000E+00  0.31919765415E+01  0.31919765415E+01  0.00000000000E+00 0. -1.
          2   -1    0    0  503    0 -0.00000000000E+00 -0.00000000000E+00 -0.18651239099E+04  0.18651239099E+04  0.00000000000E+00 0. -1.
         25    2    1    2    0    0 -0.81848431973E+01  0.12997989676E+02 -0.12799298794E+04  0.12861111714E+04  0.12500203858E+03 0.  0.
          5    1    3    3  501    0  0.27353312297E+02 -0.40256945779E+02 -0.85510240924E+03  0.85648640717E+03  0.10000000000E+00 0. -1.
         -5    1    3    3    0  501 -0.35538155494E+02  0.53254935455E+02 -0.42482747017E+03  0.42962476425E+03  0.10000000000E+00 0. -1.
          2    1    1    2  502    0  0.81848431973E+01 -0.12997989676E+02 -0.58200205398E+03  0.58220471505E+03  0.00000000000E+00 0. -1.
<mgrwt>
<rscale>  1 0.12594224E+03</rscale>
<asrwt>0</asrwt>
<pdfrwt beam="1">  1       21 0.49107409E-03 0.12594224E+03</pdfrwt>
<pdfrwt beam="2">  1        2 0.28694169E+00 0.12594224E+03</pdfrwt>
<totfact> 0.12794295E+06</totfact>
</mgrwt>
</event>
<event>
 6    2  0.1181843E-002  0.1269566E+03  0.7546771E-02  0.1232043E+00
          1   -1    0    0  503    0 -0.00000000000E+00  0.00000000000E+00  0.65974884289E+03  0.65974884289E+03  0.00000000000E+00 0. -1.
         21   -1    0    0  502  503  0.00000000000E+00 -0.00000000000E+00 -0.34552819758E+02  0.34552819758E+02  0.00000000000E+00 0. -1.
         25    2    1    2    0    0 -0.20920036781E+02 -0.73815106837E+01  0.83063114686E+02  0.15171505660E+03  0.12500337091E+03 0.  0.
          5    1    3    3  501    0 -0.52186278036E+02 -0.51173567803E+02  0.45564715975E+02  0.86129524548E+02  0.10000000000E+00 0. -1.
         -5    1    3    3    0  501  0.31266241256E+02  0.43792057120E+02  0.37498398711E+02  0.65585532055E+02  0.10000000000E+00 0. -1.
          1    1    1    2  502    0  0.20920036781E+02  0.73815106837E+01  0.54213290845E+03  0.54258660605E+03  0.00000000000E+00 0. -1.
<mgrwt>
<rscale>  1 0.12695660E+03</rscale>
<asrwt>0</asrwt>
<pdfrwt beam="1">  1       21 0.53158189E-02 0.12695660E+03</pdfrwt>
<pdfrwt beam="2">  1        1 0.10149981E+00 0.12695660E+03</pdfrwt>
<totfact> 0.82481504E+04</totfact>
</mgrwt>
</event>
<event>
 6    2  0.1181843E-002  0.1287104E+03  0.7546771E-02  0.1229382E+00
          2   -1    0    0  503    0 -0.00000000000E+00  0.00000000000E+00  0.32383801120E+04  0.32383801120E+04  0.00000000000E+00 0.  1.
         21   -1    0    0  502  503  0.00000000000E+00 -0.00000000000E+00 -0.22177774276E+01  0.22177774276E+01  0.00000000000E+00 0.  1.
         25    2    1    2    0    0 -0.20940398815E+02  0.22353704415E+02  0.20478317217E+04  0.20518725915E+04  0.12501273141E+03 0.  0.
          5    1    3    3  501    0 -0.25246769183E+02 -0.22478886255E+02  0.16133861374E+03  0.16484191811E+03  0.10000000000E+00 0.  1.
         -5    1    3    3    0  501  0.43063703680E+01  0.44832590669E+02  0.18864931080E+04  0.18870306734E+04  0.10000000000E+00 0.  1.
          2    1    1    2  502    0  0.20940398815E+02 -0.22353704415E+02  0.11883306129E+04  0.11887252979E+04  0.00000000000E+00 0.  1.
<mgrwt>
<rscale>  1 0.12871042E+03</rscale>
<asrwt>0</asrwt>
<pdfrwt beam="1">  1       21 0.34119912E-03 0.12871042E+03</pdfrwt>
<pdfrwt beam="2">  1        2 0.49820854E+00 0.12871042E+03</pdfrwt>
<totfact> 0.40199204E+05</totfact>
</mgrwt>
</event>
<event>
 6    2  0.1181843E-002  0.1369281E+03  0.7546771E-02  0.1217523E+00
          4   -1    0    0  503    0 -0.00000000000E+00  0.00000000000E+00  0.59650089376E+02  0.59650089376E+02  0.00000000000E+00 0.  1.
         21   -1    0    0  502  503  0.00000000000E+00 -0.00000000000E+00 -0.17661440365E+03  0.17661440365E+03  0.00000000000E+00 0. -1.
         25    2    1    2    0    0 -0.54995688544E+02 -0.99325419311E+01 -0.11741653432E+03  0.18037723463E+03  0.12500449229E+03 0.  0.
          5    1    3    3  501    0  0.91733085348E+01 -0.27547875641E+01 -0.11537891046E+03  0.11577582400E+03  0.10000000000E+00 0.  1.
         -5    1    3    3    0  501 -0.64168997079E+02 -0.71777543670E+01 -0.20376238562E+01  0.64601410626E+02  0.10000000000E+00 0.  1.
          4    1    1    2  502    0  0.54995688544E+02  0.99325419311E+01  0.45222004893E+00  0.55887258392E+02  0.00000000000E+00 0.  1.
<mgrwt>
<rscale>  1 0.13692810E+03</rscale>
<asrwt>0</asrwt>
<pdfrwt beam="1">  1       21 0.27171446E-01 0.13692810E+03</pdfrwt>
<pdfrwt beam="2">  1        4 0.91769370E-02 0.13692810E+03</pdfrwt>
<totfact> 0.46069580E+04</totfact>
</mgrwt>
</event>
<event>
 6    2  0.1181843E-002  0.1854291E+03  0.7546771E-02  0.1162650E+00
         21   -1    0    0  502  503  0.00000000000E+00  0.00000000000E+00  0.17593055134E+03  0.17593055134E+03  0.00000000000E+00 0.  1.
          1   -1    0    0  503    0 -0.00000000000E+00 -0.00000000000E+00 -0.37004787126E+03  0.37004787126E+03  0.00000000000E+00 0.  1.
         25    2    1    2    0    0  0.13479059733E+03 -0.24312318107E+02  0.10777089099E+03  0.21447263709E+03  0.12499741268E+03 0.  0.
          5    1    3    3  501    0  0.34969463809E+02 -0.67876065797E+02  0.48834732600E+02  0.90635891430E+02  0.10000000000E+00 0.  1.
         -5    1    3    3    0  501  0.99821133517E+02  0.43563747690E+02  0.58936158388E+02  0.12383674566E+03  0.10000000000E+00 0.  1.
          1    1    1    2  502    0 -0.13479059733E+03  0.24312318107E+02 -0.30188821091E+03  0.33150578551E+03  0.00000000000E+00 0.  1.
<mgrwt>
<rscale>  1 0.18542909E+03</rscale>
<asrwt>0</asrwt>
<pdfrwt beam="1">  1       21 0.27066239E-01 0.18542909E+03</pdfrwt>
<pdfrwt beam="2">  1        1 0.56930441E-01 0.18542909E+03</pdfrwt>
<totfact> 0.95832341E+03</totfact>
</mgrwt>
</event>
<event>
 6    2  0.1181843E-002  0.1484935E+03  0.7546771E-02  0.1202336E+00
         21   -1    0    0  502  503  0.00000000000E+00  0.00000000000E+00  0.24846268453E+02  0.24846268453E+02  0.00000000000E+00 0.  1.
          2   -1    0    0  503    0 -0.00000000000E+00 -0.00000000000E+00 -0.18719256535E+04  0.18719256535E+04  0.00000000000E+00 0. -1.
         25    2    1    2    0    0 -0.52051526970E+02 -0.60955414855E+02 -0.20709919441E+03  0.25483405780E+03  0.12500158651E+03 0.  0.
          5    1    3    3  501    0  0.78269676364E+01 -0.83042452240E+02 -0.13351637837E+03  0.15742917007E+03  0.10000000000E+00 0. -1.
         -5    1    3    3    0  501 -0.59878494606E+02  0.22087037385E+02 -0.73582816039E+02  0.97404887726E+02  0.10000000000E+00 0. -1.
          2    1    1    2  502    0  0.52051526970E+02  0.60955414855E+02 -0.16399801907E+04  0.16419378642E+04  0.00000000000E+00 0. -1.
<mgrwt>
<rscale>  1 0.14849350E+03</rscale>
<asrwt>0</asrwt>
<pdfrwt beam="1">  1       21 0.38225027E-02 0.14849350E+03</pdfrwt>
<pdfrwt beam="2">  1        2 0.28798857E+00 0.14849350E+03</pdfrwt>
<totfact> 0.47950548E+04</totfact>
</mgrwt>
</event>
<event>
 6    2  0.1181843E-002  0.1320344E+03  0.7546771E-02  0.1224468E+00
          4   -1    0    0  503    0 -0.00000000000E+00  0.00000000000E+00  0.58076026864E+02  0.58076026864E+02  0.00000000000E+00 0. -1.
         21   -1    0    0  502  503  0.00000000000E+00 -0.00000000000E+00 -0.20705311789E+03  0.20705311789E+03  0.00000000000E+00 0.  1.
         25    2    1    2    0    0  0.30820693041E+02 -0.29303304338E+02 -0.17194899034E+03  0.21679378583E+03  0.12499796610E+03 0.  0.
          5    1    3    3  501    0  0.57855659052E+02 -0.64890382080E+02 -0.10535272008E+03  0.13659152463E+03  0.10000000000E+00 0. -1.
         -5    1    3    3    0  501 -0.27034966011E+02  0.35587077742E+02 -0.66596270254E+02  0.80202261197E+02  0.10000000000E+00 0. -1.
          4    1    1    2  502    0 -0.30820693041E+02  0.29303304338E+02  0.22971899313E+02  0.48335358928E+02  0.00000000000E+00 0. -1.
<mgrwt>
<rscale>  1 0.13203443E+03</rscale>
<asrwt>0</asrwt>
<pdfrwt beam="1">  1       21 0.31854326E-01 0.13203443E+03</pdfrwt>
<pdfrwt beam="2">  1        4 0.89347733E-02 0.13203443E+03</pdfrwt>
<totfact> 0.35324701E+04</totfact>
</mgrwt>
</event>
<event>
 6    2  0.1181843E-002  0.1806942E+03  0.7546771E-02  0.1167133E+00
         21   -1    0    0  502  503  0.00000000000E+00  0.00000000000E+00  0.17052110182E+02  0.17052110182E+02  0.00000000000E+00 0.  1.
          1   -1    0    0  503    0 -0.00000000000E+00 -0.00000000000E+00 -0.21603337590E+04  0.21603337590E+04  0.00000000000E+00 0.  1.
         25    2    1    2    0    0 -0.11570924771E+03  0.60314381304E+02 -0.55327568265E+03  0.58203467680E+03  0.12499571747E+03 0.  0.
          5    1    3    3  501    0 -0.11434274552E+03  0.89191232182E+02 -0.50819853573E+03  0.52848377559E+03  0.10000000000E+00 0.  1.
         -5    1    3    3    0  501 -0.13665021808E+01 -0.28876850878E+02 -0.45077146930E+02  0.53550901208E+02  0.10000000000E+00 0.  1.
          1    1    1    2  502    0  0.11570924771E+03 -0.60314381304E+02 -0.15900059662E+04  0.15953511924E+04  0.00000000000E+00 0.  1.
<mgrwt>
<rscale>  1 0.18069417E+03</rscale>
<asrwt>0</asrwt>
<pdfrwt beam="1">  1       21 0.26234025E-02 0.18069417E+03</pdfrwt>
<pdfrwt beam="2">  1        1 0.33235892E+00 0.18069417E+03</pdfrwt>
<totfact> 0.24123620E+04</totfact>
</mgrwt>
</event>
<event>
 6    2  0.1181843E-002  0.1272671E+03  0.7546771E-02  0.1231568E+00
         21   -1    0    0  502  503  0.00000000000E+00  0.00000000000E+00  0.49655155516E+02  0.49655155516E+02  0.00000000000E+00 0.  1.
          2   -1    0    0  503    0 -0.00000000000E+00 -0.00000000000E+00 -0.51775655956E+03  0.51775655956E+03  0.00000000000E+00 0.  1.
         25    2    1    2    0    0  0.12445917626E+02 -0.20455485862E+02 -0.32764772092E+02  0.13141709253E+03  0.12499437648E+03 0.  0.
          5    1    3    3  501    0  0.12391049633E+02 -0.24235777432E+01 -0.79930630510E+02  0.80921737091E+02  0.10000000000E+00 0. -1.
         -5    1    3    3    0  501  0.54867992919E-01 -0.18031908119E+02  0.47165858418E+02  0.50495355442E+02  0.10000000000E+00 0. -1.
          2    1    1    2  502    0 -0.12445917626E+02  0.20455485862E+02 -0.43533663195E+03  0.43599462254E+03  0.00000000000E+00 0.  1.
<mgrwt>
<rscale>  1 0.12726713E+03</rscale>
<asrwt>0</asrwt>
<pdfrwt beam="1">  1       21 0.76392546E-02 0.12726713E+03</pdfrwt>
<pdfrwt beam="2">  1        2 0.79654857E-01 0.12726713E+03</pdfrwt>
<totfact> 0.96796221E+04</totfact>
</mgrwt>
</event>
<event>
 6    2  0.1181843E-002  0.1399989E+03  0.7546771E-02  0.1213330E+00
         21   -1    0    0  502  503  0.00000000000E+00  0.00000000000E+00  0.24311539622E+03  0.24311539622E+03  0.00000000000E+00 0. -1.
          2   -1    0    0  503    0 -0.00000000000E+00 -0.00000000000E+00 -0.23062133196E+03  0.23062133196E+03  0.00000000000E+00 0.  1.
         25    2    1    2    0    0 -0.25741645383E+02  0.57547541938E+02  0.21783090208E+03  0.25894015266E+03  0.12500139547E+03 0.  0.
          5    1    3    3  501    0  0.26637787622E+02  0.49685348167E+02  0.30156162834E+02  0.63934417247E+02  0.10000000000E+00 0.  1.
         -5    1    3    3    0  501 -0.52379433005E+02  0.78621937701E+01  0.18767473925E+03  0.19500573541E+03  0.10000000000E+00 0.  1.
          2    1    1    2  502    0  0.25741645383E+02 -0.57547541938E+02 -0.20533683782E+03  0.21479657552E+03  0.00000000000E+00 0.  1.
<mgrwt>
<rscale>  1 0.13999893E+03</rscale>
<asrwt>0</asrwt>
<pdfrwt beam="1">  1       21 0.37402369E-01 0.13999893E+03</pdfrwt>
<pdfrwt beam="2">  1        2 0.35480205E-01 0.13999893E+03</pdfrwt>
<totfact> 0.12516570E+04</totfact>
</mgrwt>
</event>
<event>
 6    2  0.1181843E-002  0.1465514E+03  0.7546771E-02  0.1204776E+00
          1   -1    0    0  503    0 -0.00000000000E+00  0.00000000000E+00  0.22088032794E+04  0.22088032794E+04  0.00000000000E+00 0.  1.
         21   -1    0    0  502  503  0.00000000000E+00 -0.00000000000E+00 -0.13610325433E+02  0.13610325433E+02  0.00000000000E+00 0.  1.
         25    2    1    2    0    0  0.14389546991E+02  0.75142028591E+02  0.40693615086E+03  0.43252093280E+03  0.12499577158E+03 0.  0.
          5    1    3    3  501    0  0.60028450810E+02  0.67551488440E+02  0.18598427812E+03  0.20677712689E+03  0.10000000000E+00 0.  1.
         -5    1    3    3    0  501 -0.45638903819E+02  0.75905401508E+01  0.22095187273E+03  0.22574380591E+03  0.10000000000E+00 0.  1.
          1    1    1    2  502    0 -0.14389546991E+02 -0.75142028591E+02  0.17882568031E+04  0.17898926720E+04  0.00000000000E+00 0.  1.
<mgrwt>
<rscale>  1 0.14655145E+03</rscale>
<asrwt>0</asrwt>
<pdfrwt beam="1">  1       21 0.20938980E-02 0.14655145E+03</pdfrwt>
<pdfrwt beam="2">  1        1 0.33981560E+00 0.14655145E+03</pdfrwt>
<totfact> 0.32760879E+04</totfact>
</mgrwt>
</event>
<event>
 6    2  0.1181843E-002  0.2230451E+03  0.7546771E-02  0.1131633E+00
         21   -1    0    0  502  503  0.00000000000E+00  0.00000000000E+00  0.35699450633E+02  0.35699450633E+02  0.00000000000E+00 0.  1.
          2   -1    0    0  503    0 -0.00000000000E+00 -0.00000000000E+00 -0.15982511538E+04  0.15982511538E+04  0.00000000000E+00 0.  1.
         25    2    1    2    0    0  0.13821003602E+03 -0.12256429215E+03 -0.12590324911E+04  0.12786367546E+04  0.12500046762E+03 0.  0.
          5    1    3    3  501    0 -0.89214168630E+01 -0.59928456803E+02 -0.43866189117E+03  0.44282646305E+03  0.10000000000E+00 0. -1.
         -5    1    3    3    0  501  0.14713145288E+03 -0.62635835344E+02 -0.82037059993E+03  0.83581029159E+03  0.10000000000E+00 0. -1.
          2    1    1    2  502    0 -0.13821003602E+03  0.12256429215E+03 -0.30351921211E+03  0.35531384984E+03  0.00000000000E+00 0.  1.
<mgrwt>
<rscale>  1 0.22304514E+03</rscale>
<asrwt>0</asrwt>
<pdfrwt beam="1">  1       21 0.54922228E-02 0.22304514E+03</pdfrwt>
<pdfrwt beam="2">  1        2 0.24588481E+00 0.22304514E+03</pdfrwt>
<totfact> 0.35480071E+04</totfact>
</mgrwt>
</event>
<event>
 6    2  0.1181843E-002  0.1259982E+03  0.7546771E-02  0.1233517E+00
         21   -1    0    0  502  503  0.00000000000E+00  0.00000000000E+00  0.79186441152E+03  0.79186441152E+03  0.00000000000E+00 0. -1.
          4   -1    0    0  503    0 -0.00000000000E+00 -0.00000000000E+00 -0.89756325398E+01  0.89756325398E+01  0.00000000000E+00 0. -1.
         25    2    1    2    0    0 -0.24391089169E+01  0.15561575826E+02  0.77067796399E+03  0.78090976817E+03  0.12500971937E+03 0.  0.
          5    1    3    3  501    0  0.39865768491E+02 -0.31618949840E+02  0.18690136747E+03  0.19370381682E+03  0.10000000000E+00 0. -1.
         -5    1    3    3    0  501 -0.42304877408E+02  0.47180525666E+02  0.58377659652E+03  0.58720595135E+03  0.10000000000E+00 0. -1.
          4    1    1    2  502    0  0.24391089169E+01 -0.15561575826E+02  0.12210814983E+02  0.19930275890E+02  0.00000000000E+00 0. -1.
<mgrwt>
<rscale>  1 0.12599818E+03</rscale>
<asrwt>0</asrwt>
<pdfrwt beam="1">  1       21 0.12182524E+00 0.12599818E+03</pdfrwt>
<pdfrwt beam="2">  1        4 0.13808672E-02 0.12599818E+03</pdfrwt>
<totfact> 0.37434369E+04</totfact>
</mgrwt>
</event>
<event>
 6    2  0.1181843E-002  0.1275134E+03  0.7546771E-02  0.1231193E+00
          1   -1    0    0  503    0 -0.00000000000E+00  0.00000000000E+00  0.48696572791E+03  0.48696572791E+03  0.00000000000E+00 0. -1.
         21   -1    0    0  502  503  0.00000000000E+00 -0.00000000000E+00 -0.50881146955E+02  0.50881146955E+02  0.00000000000E+00 0.  1.
         25    2    1    2    0    0  0.25179061156E+02 -0.75937760306E+00  0.30017149507E+02  0.13099884346E+03  0.12500042379E+03 0.  0.
          5    1    3    3  501    0  0.34365312159E+02  0.27640585911E+02 -0.37043536713E+02  0.57595227940E+02  0.10000000000E+00 0. -1.
         -5    1    3    3    0  501 -0.91862510029E+01 -0.28399963514E+02  0.67060686220E+02  0.73403615520E+02  0.10000000000E+00 0. -1.
          1    1    1    2  502    0 -0.25179061156E+02  0.75937760306E+00  0.40606743145E+03  0.40684803141E+03  0.00000000000E+00 0. -1.
<mgrwt>
<rscale>  1 0.12751340E+03</rscale>
<asrwt>0</asrwt>
<pdfrwt beam="1">  1       21 0.78278691E-02 0.12751340E+03</pdfrwt>
<pdfrwt beam="2">  1        1 0.74917801E-01 0.12751340E+03</pdfrwt>
<totfact> 0.64130580E+04</totfact>
</mgrwt>
</event>
<event>
 6    2  0.1181843E-002  0.1452826E+03  0.7546771E-02  0.1206393E+00
          2   -1    0    0  503    0 -0.00000000000E+00  0.00000000000E+00  0.10503725454E+04  0.10503725454E+04  0.00000000000E+00 0.  1.
         21   -1    0    0  502  503  0.00000000000E+00 -0.00000000000E+00 -0.11590012257E+02  0.11590012257E+02  0.00000000000E+00 0.  1.
         25    2    1    2    0    0  0.38717783811E+02  0.63109025836E+02  0.74152097594E+03  0.75561920565E+03  0.12500084108E+03 0.  0.
          5    1    3    3  501    0  0.18542510212E+02  0.18877520956E+02  0.66121415150E+03  0.66174341676E+03  0.10000000000E+00 0.  1.
         -5    1    3    3    0  501  0.20175273599E+02  0.44231504880E+02  0.80306824440E+02  0.93875788893E+02  0.10000000000E+00 0.  1.
          2    1    1    2  502    0 -0.38717783811E+02 -0.63109025836E+02  0.29726155719E+03  0.30634335199E+03  0.00000000000E+00 0.  1.
<mgrwt>
<rscale>  1 0.14528257E+03</rscale>
<asrwt>0</asrwt>
<pdfrwt beam="1">  1       21 0.17830796E-02 0.14528257E+03</pdfrwt>
<pdfrwt beam="2">  1        2 0.16159570E+00 0.14528257E+03</pdfrwt>
<totfact> 0.45754283E+05</totfact>
</mgrwt>
</event>
<event>
 6    2  0.1181843E-002  0.1310936E+03  0.7546771E-02  0.1225842E+00
          2   -1    0    0  503    0 -0.00000000000E+00  0.00000000000E+00  0.16226536678E+04  0.16226536678E+04  0.00000000000E+00 0. -1.
         21   -1    0    0  502  503  0.00000000000E+00 -0.00000000000E+00 -0.16679358851E+02  0.16679358851E+02  0.00000000000E+00 0. -1.
         25    2    1    2    0    0  0.32289400390E+02  0.22743255280E+02  0.24569776159E+03  0.27848323835E+03  0.12500265177E+03 0.  0.
          5    1    3    3  501    0  0.21451997708E+02  0.61737021362E+02  0.60994572551E+02  0.89397963584E+02  0.10000000000E+00 0.  1.
         -5    1    3    3    0  501  0.10837402682E+02 -0.38993766082E+02  0.18470318904E+03  0.18908527477E+03  0.10000000000E+00 0.  1.
          2    1    1    2  502    0 -0.32289400390E+02 -0.22743255280E+02  0.13602765473E+04  0.13608497883E+04  0.00000000000E+00 0. -1.
<mgrwt>
<rscale>  1 0.13109357E+03</rscale>
<asrwt>0</asrwt>
<pdfrwt beam="1">  1       21 0.25660565E-02 0.13109357E+03</pdfrwt>
<pdfrwt beam="2">  1        2 0.24963890E+00 0.13109357E+03</pdfrwt>
<totfact> 0.12426705E+05</totfact>
</mgrwt>
</event>
<event>
 6    2  0.1181843E-002  0.1556884E+03  0.7546771E-02  0.1193652E+00
         21   -1    0    0  502  503  0.00000000000E+00  0.00000000000E+00  0.69287120190E+02  0.69287120190E+02  0.00000000000E+00 0.  1.
          3   -1    0    0  503    0 -0.00000000000E+00 -0.00000000000E+00 -0.75028430637E+03  0.75028430637E+03  0.00000000000E+00 0. -1.
         25    2    1    2    0    0 -0.39425828126E+02 -0.84023102359E+02 -0.25774077092E+02  0.15780742003E+03  0.12499840445E+03 0.  0.
          5    1    3    3  501    0 -0.62079755401E+02 -0.14052417805E+02 -0.49386789899E+02  0.80563214269E+02  0.10000000000E+00 0.  1.
         -5    1    3    3    0  501  0.22653927275E+02 -0.69970684554E+02  0.23612712806E+02  0.77244205764E+02  0.10000000000E+00 0.  1.
          3    1    1    2  502    0  0.39425828126E+02  0.84023102359E+02 -0.65522310908E+03  0.66176400652E+03  0.00000000000E+00 0. -1.
<mgrwt>
<rscale>  1 0.15568840E+03</rscale>
<asrwt>0</asrwt>
<pdfrwt beam="1">  1       21 0.10659557E-01 0.15568840E+03</pdfrwt>
<pdfrwt beam="2">  1        3 0.11542835E+00 0.15568840E+03</pdfrwt>
<totfact> 0.23214776E+03</totfact>
</mgrwt>
</event>
<event>
 6    2  0.1181843E-002  0.1300340E+03  0.7546771E-02  0.1227405E+00
         21   -1    0    0  502  503  0.00000000000E+00  0.00000000000E+00  0.41946121404E+02  0.41946121404E+02  0.00000000000E+00 0.  1.
          1   -1    0    0  503    0 -0.00000000000E+00 -0.00000000000E+00 -0.30004488579E+03  0.30004488579E+03  0.00000000000E+00 0. -1.
         25    2    1    2    0    0 -0.17334455749E+02 -0.31358380966E+02 -0.64588220828E+02  0.14519120567E+03  0.12500006608E+03 0.  0.
          5    1    3    3  501    0  0.49535594403E+01  0.12687703151E+02  0.33070242973E+02  0.35765437683E+02  0.10000000000E+00 0. -1.
         -5    1    3    3    0  501 -0.22288015189E+02 -0.44046084117E+02 -0.97658463801E+02  0.10942576799E+03  0.10000000000E+00 0. -1.
          1    1    1    2  502    0  0.17334455749E+02  0.31358380966E+02 -0.19351054356E+03  0.19679980153E+03  0.00000000000E+00 0. -1.
<mgrwt>
<rscale>  1 0.13003403E+03</rscale>
<asrwt>0</asrwt>
<pdfrwt beam="1">  1       21 0.64532496E-02 0.13003403E+03</pdfrwt>
<pdfrwt beam="2">  1        1 0.46160750E-01 0.13003403E+03</pdfrwt>
<totfact> 0.16419423E+05</totfact>
</mgrwt>
</event>
<event>
 6    2  0.1181843E-002  0.1285003E+03  0.7546771E-02  0.1229698E+00
         21   -1    0    0  502  503  0.00000000000E+00  0.00000000000E+00  0.20844932517E+03  0.20844932517E+03  0.00000000000E+00 0. -1.
          2   -1    0    0  503    0 -0.00000000000E+00 -0.00000000000E+00 -0.31647502639E+03  0.31647502639E+03  0.00000000000E+00 0. -1.
         25    2    1    2    0    0 -0.17354382894E+02 -0.24050501616E+02  0.18783346254E+03  0.22758238342E+03  0.12503091761E+03 0.  0.
          5    1    3    3  501    0 -0.17919766471E+02  0.82410233102E+00  0.19935678502E+03  0.20016227144E+03  0.10000000000E+00 0.  1.
         -5    1    3    3    0  501  0.56538357663E+00 -0.24874603947E+02 -0.11523322476E+02  0.27420111980E+02  0.10000000000E+00 0.  1.
          2    1    1    2  502    0  0.17354382894E+02  0.24050501616E+02 -0.29585916377E+03  0.29734196814E+03  0.00000000000E+00 0. -1.
<mgrwt>
<rscale>  1 0.12850032E+03</rscale>
<asrwt>0</asrwt>
<pdfrwt beam="1">  1       21 0.32069127E-01 0.12850032E+03</pdfrwt>
<pdfrwt beam="2">  1        2 0.48688465E-01 0.12850032E+03</pdfrwt>
<totfact> 0.12122818E+04</totfact>
</mgrwt>
</event>
<event>
 6    2  0.1181843E-002  0.1318581E+03  0.7546771E-02  0.1224724E+00
          2   -1    0    0  503    0 -0.00000000000E+00  0.00000000000E+00  0.88020689428E+03  0.88020689428E+03  0.00000000000E+00 0.  1.
         21   -1    0    0  502  503  0.00000000000E+00 -0.00000000000E+00 -0.24389709203E+02  0.24389709203E+02  0.00000000000E+00 0.  1.
         25    2    1    2    0    0  0.48474645597E+01  0.41687736087E+02  0.15919534124E+03  0.20671168564E+03  0.12500079620E+03 0.  0.
          5    1    3    3  501    0 -0.50255534840E+02  0.23743374934E+02  0.25812240451E+02  0.61283345147E+02  0.10000000000E+00 0.  1.
         -5    1    3    3    0  501  0.55102999400E+02  0.17944361153E+02  0.13338310079E+03  0.14542834049E+03  0.10000000000E+00 0.  1.
          2    1    1    2  502    0 -0.48474645597E+01 -0.41687736087E+02  0.69662184384E+03  0.69788491785E+03  0.00000000000E+00 0.  1.
<mgrwt>
<rscale>  1 0.13185812E+03</rscale>
<asrwt>0</asrwt>
<pdfrwt beam="1">  1       21 0.37522636E-02 0.13185812E+03</pdfrwt>
<pdfrwt beam="2">  1        2 0.13541642E+00 0.13185812E+03</pdfrwt>
<totfact> 0.17179860E+05</totfact>
</mgrwt>
</event>
<event>
 6    2  0.1181843E-002  0.1334299E+03  0.7546771E-02  0.1222453E+00
         21   -1    0    0  502  503  0.00000000000E+00  0.00000000000E+00  0.13489126525E+02  0.13489126525E+02  0.00000000000E+00 0. -1.
          1   -1    0    0  503    0 -0.00000000000E+00 -0.00000000000E+00 -0.93181107637E+03  0.93181107637E+03  0.00000000000E+00 0. -1.
         25    2    1    2    0    0  0.65617983044E+01 -0.46219134348E+02 -0.34225070660E+03  0.36734056514E+03  0.12499711618E+03 0.  0.
          5    1    3    3  501    0 -0.43577555616E+02 -0.44706023859E+02 -0.28254236451E+03  0.28935761553E+03  0.10000000000E+00 0.  1.
         -5    1    3    3    0  501  0.50139353920E+02 -0.15131104889E+01 -0.59708342090E+02  0.77982949611E+02  0.10000000000E+00 0.  1.
          1    1    1    2  502    0 -0.65617983044E+01  0.46219134348E+02 -0.57607124325E+03  0.57795963776E+03  0.00000000000E+00 0. -1.
<mgrwt>
<rscale>  1 0.13342992E+03</rscale>
<asrwt>0</asrwt>
<pdfrwt beam="1">  1       21 0.20752495E-02 0.13342992E+03</pdfrwt>
<pdfrwt beam="2">  1        1 0.14335560E+00 0.13342992E+03</pdfrwt>
<totfact> 0.23223730E+05</totfact>
</mgrwt>
</event>
<event>
 6    2  0.1181843E-002  0.1267936E+03  0.7546771E-02  0.1232292E+00
         21   -1    0    0  502  503  0.00000000000E+00  0.00000000000E+00  0.25860934477E+02  0.25860934477E+02  0.00000000000E+00 0.  1.
          2   -1    0    0  503    0 -0.00000000000E+00 -0.00000000000E+00 -0.22183390355E+03  0.22183390355E+03  0.00000000000E+00 0.  1.
         25    2    1    2    0    0  0.13212269907E+02 -0.16665370557E+02 -0.14592185229E+03  0.19331273671E+03  0.12499731416E+03 0.  0.
          5    1    3    3  501    0 -0.11944118157E+02  0.51791588446E+02 -0.51554850432E+02  0.74046898621E+02  0.10000000000E+00 0.  1.
         -5    1    3    3    0  501  0.25156388064E+02 -0.68456959003E+02 -0.94367001858E+02  0.11926583809E+03  0.10000000000E+00 0.  1.
          2    1    1    2  502    0 -0.13212269907E+02  0.16665370557E+02 -0.50051116779E+02  0.54382101309E+02  0.00000000000E+00 0.  1.
<mgrwt>
<rscale>  1 0.12679364E+03</rscale>
<asrwt>0</asrwt>
<pdfrwt beam="1">  1       21 0.39786053E-02 0.12679364E+03</pdfrwt>
<pdfrwt beam="2">  1        2 0.34128293E-01 0.12679364E+03</pdfrwt>
<totfact> 0.71934414E+05</totfact>
</mgrwt>
</event>
<event>
 6    2  0.1181843E-002  0.1317555E+03  0.7546771E-02  0.1224874E+00
         21   -1    0    0  502  503  0.00000000000E+00  0.00000000000E+00  0.29196890610E+03  0.29196890610E+03  0.00000000000E+00 0. -1.
          4   -1    0    0  503    0 -0.00000000000E+00 -0.00000000000E+00 -0.51583893542E+02  0.51583893542E+02  0.00000000000E+00 0. -1.
         25    2    1    2    0    0  0.36334950107E+02 -0.20304375151E+02  0.26446367934E+03  0.29546664317E+03  0.12500801290E+03 0.  0.
          5    1    3    3  501    0  0.43317327458E+02  0.18882361903E+02  0.24788367511E+03  0.25234750015E+03  0.10000000000E+00 0. -1.
         -5    1    3    3    0  501 -0.69823773505E+01 -0.39186737054E+02  0.16580004232E+02  0.43119143020E+02  0.10000000000E+00 0. -1.
          4    1    1    2  502    0 -0.36334950107E+02  0.20304375151E+02 -0.24078666783E+02  0.48086156466E+02  0.00000000000E+00 0. -1.
<mgrwt>
<rscale>  1 0.13175545E+03</rscale>
<asrwt>0</asrwt>
<pdfrwt beam="1">  1       21 0.44918292E-01 0.13175545E+03</pdfrwt>
<pdfrwt beam="2">  1        4 0.79359838E-02 0.13175545E+03</pdfrwt>
<totfact> 0.21731132E+04</totfact>
</mgrwt>
</event>
<event>
 6    2  0.1181843E-002  0.1394371E+03  0.7546771E-02  0.1214088E+00
         21   -1    0    0  502  503  0.00000000000E+00  0.00000000000E+00  0.19072463974E+02  0.19072463974E+02  0.00000000000E+00 0.  1.
          2   -1    0    0  503    0 -0.00000000000E+00 -0.00000000000E+00 -0.10627953573E+04  0.10627953573E+04  0.00000000000E+00 0. -1.
         25    2    1    2    0    0 -0.58806321774E+02 -0.18943112097E+02 -0.25420235260E+03  0.28993366416E+03  0.12500267425E+03 0.  0.
          5    1    3    3  501    0 -0.41748438435E+02 -0.25235607149E+02 -0.16442228341E+02  0.51479363368E+02  0.10000000000E+00 0. -1.
         -5    1    3    3    0  501 -0.17057883338E+02  0.62924950518E+01 -0.23776012426E+03  0.23845430079E+03  0.10000000000E+00 0. -1.
          2    1    1    2  502    0  0.58806321774E+02  0.18943112097E+02 -0.78952054074E+03  0.79193415713E+03  0.00000000000E+00 0. -1.
<mgrwt>
<rscale>  1 0.13943706E+03</rscale>
<asrwt>0</asrwt>
<pdfrwt beam="1">  1       21 0.29342250E-02 0.13943706E+03</pdfrwt>
<pdfrwt beam="2">  1        2 0.16350699E+00 0.13943706E+03</pdfrwt>
<totfact> 0.19994697E+05</totfact>
</mgrwt>
</event>
<event>
 6    2  0.1181843E-002  0.1264039E+03  0.7546771E-02  0.1232891E+00
         21   -1    0    0  502  503  0.00000000000E+00  0.00000000000E+00  0.11829909177E+03  0.11829909177E+03  0.00000000000E+00 0.  1.
          1   -1    0    0  503    0 -0.00000000000E+00 -0.00000000000E+00 -0.42442719837E+03  0.42442719837E+03  0.00000000000E+00 0. -1.
         25    2    1    2    0    0  0.15369359538E+02 -0.10876930413E+02  0.84241282484E+02  0.15190307593E+03  0.12499370374E+03 0.  0.
          5    1    3    3  501    0 -0.36076429991E+02 -0.66471327791E+01  0.92608896627E+02  0.99609793241E+02  0.10000000000E+00 0.  1.
         -5    1    3    3    0  501  0.51445789529E+02 -0.42297976340E+01 -0.83676141422E+01  0.52293282692E+02  0.10000000000E+00 0.  1.
          1    1    1    2  502    0 -0.15369359538E+02  0.10876930413E+02 -0.39036938908E+03  0.39082321420E+03  0.00000000000E+00 0. -1.
<mgrwt>
<rscale>  1 0.12640392E+03</rscale>
<asrwt>0</asrwt>
<pdfrwt beam="1">  1       21 0.18199860E-01 0.12640392E+03</pdfrwt>
<pdfrwt beam="2">  1        1 0.65296493E-01 0.12640392E+03</pdfrwt>
<totfact> 0.17139990E+04</totfact>
</mgrwt>
</event>
<event>
 6    2  0.1181843E-002  0.1283599E+03  0.7546771E-02  0.1229910E+00
          2   -1    0    0  503    0 -0.00000000000E+00  0.00000000000E+00  0.92726460461E+03  0.92726460461E+03  0.00000000000E+00 0.  1.
         21   -1    0    0  502  503  0.00000000000E+00 -0.00000000000E+00 -0.35201579425E+02  0.35201579425E+02  0.00000000000E+00 0. -1.
         25    2    1    2    0    0  0.28677723467E+02 -0.57229322893E+01  0.82960900153E+02  0.15283576680E+03  0.12498438656E+03 0.  0.
          5    1    3    3  501    0  0.78128181908E+02 -0.97416252120E+01  0.51951762949E+02  0.94328721731E+02  0.10000000000E+00 0.  1.
         -5    1    3    3    0  501 -0.49450458441E+02  0.40186929227E+01  0.31009137204E+02  0.58507045071E+02  0.10000000000E+00 0.  1.
          2    1    1    2  502    0 -0.28677723467E+02  0.57229322893E+01  0.80910212503E+03  0.80963041723E+03  0.00000000000E+00 0.  1.
<mgrwt>
<rscale>  1 0.12835989E+03</rscale>
<asrwt>0</asrwt>
<pdfrwt beam="1">  1       21 0.54156283E-02 0.12835989E+03</pdfrwt>
<pdfrwt beam="2">  1        2 0.14265607E+00 0.12835989E+03</pdfrwt>
<totfact> 0.86875555E+04</totfact>
</mgrwt>
</event>
<event>
 6    2  0.1181843E-002  0.1288596E+03  0.7546771E-02  0.1229158E+00
          2   -1    0    0  503    0 -0.00000000000E+00  0.00000000000E+00  0.90227781390E+03  0.90227781390E+03  0.00000000000E+00 0.  1.
         21   -1    0    0  502  503  0.00000000000E+00 -0.00000000000E+00 -0.24572454511E+02  0.24572454511E+02  0.00000000000E+00 0. -1.
         25    2    1    2    0    0 -0.30481664265E+02 -0.69452651551E+01  0.14702854499E+03  0.19550494938E+03  0.12500969413E+03 0.  0.
          5    1    3    3  501    0 -0.24124585727E+02  0.48976195323E+02  0.12249053558E+03  0.13410669130E+03  0.10000000000E+00 0.  1.
         -5    1    3    3    0  501 -0.63570785375E+01 -0.55921460478E+02  0.24538009405E+02  0.61398258078E+02  0.10000000000E+00 0.  1.
          2    1    1    2  502    0  0.30481664265E+02  0.69452651551E+01  0.73067681440E+03  0.73134531903E+03  0.00000000000E+00 0.  1.
<mgrwt>
<rscale>  1 0.12885958E+03</rscale>
<asrwt>0</asrwt>
<pdfrwt beam="1">  1       21 0.37803783E-02 0.12885958E+03</pdfrwt>
<pdfrwt beam="2">  1        2 0.13881195E+00 0.12885958E+03</pdfrwt>
<totfact> 0.16421173E+05</totfact>
</mgrwt>
</event>
<event>
 6    2  0.1181843E-002  0.1268509E+03  0.7546771E-02  0.1232205E+00
          4   -1    0    0  503    0 -0.00000000000E+00  0.00000000000E+00  0.29092903137E+02  0.29092903137E+02  0.00000000000E+00 0. -1.
         21   -1    0    0  502  503  0.00000000000E+00 -0.00000000000E+00 -0.20034322248E+03  0.20034322248E+03  0.00000000000E+00 0. -1.
         25    2    1    2    0    0  0.86257366202E+01 -0.19815113561E+02 -0.16243128673E+03  0.20609480188E+03  0.12499640953E+03 0.  0.
          5    1    3    3  501    0  0.48342868991E+01 -0.69276531665E+02 -0.12827381740E+03  0.14586565874E+03  0.10000000000E+00 0.  1.
         -5    1    3    3    0  501  0.37914497212E+01  0.49461418104E+02 -0.34157469321E+02  0.60229143131E+02  0.10000000000E+00 0.  1.
          4    1    1    2  502    0 -0.86257366202E+01  0.19815113561E+02 -0.88190326167E+01  0.23341323741E+02  0.00000000000E+00 0. -1.
<mgrwt>
<rscale>  1 0.12685087E+03</rscale>
<asrwt>0</asrwt>
<pdfrwt beam="1">  1       21 0.30822035E-01 0.12685087E+03</pdfrwt>
<pdfrwt beam="2">  1        4 0.44758311E-02 0.12685087E+03</pdfrwt>
<totfact> 0.11562728E+05</totfact>
</mgrwt>
</event>
<event>
 6    2  0.1181843E-002  0.1261963E+03  0.7546771E-02  0.1233211E+00
          3   -1    0    0  503    0 -0.00000000000E+00  0.00000000000E+00  0.47582161690E+02  0.47582161690E+02  0.00000000000E+00 0. -1.
         21   -1    0    0  502  503  0.00000000000E+00 -0.00000000000E+00 -0.15946709833E+03  0.15946709833E+03  0.00000000000E+00 0. -1.
         25    2    1    2    0    0  0.17305083098E+02 -0.42000595519E+00 -0.13056360422E+03  0.18158291107E+03  0.12500342611E+03 0.  0.
          5    1    3    3  501    0  0.27102975012E+02 -0.56637000330E+01 -0.15356300404E+03  0.15603927378E+03  0.10000000000E+00 0. -1.
         -5    1    3    3    0  501 -0.97978919136E+01  0.52436940778E+01  0.22999399824E+02  0.25543637286E+02  0.10000000000E+00 0. -1.
          3    1    1    2  502    0 -0.17305083098E+02  0.42000595519E+00  0.18678667582E+02  0.25466348947E+02  0.00000000000E+00 0. -1.
<mgrwt>
<rscale>  1 0.12619627E+03</rscale>
<asrwt>0</asrwt>
<pdfrwt beam="1">  1       21 0.24533400E-01 0.12619627E+03</pdfrwt>
<pdfrwt beam="2">  1        3 0.73203324E-02 0.12619627E+03</pdfrwt>
<totfact> 0.91548968E+04</totfact>
</mgrwt>
</event>
<event>
 6    2  0.1181843E-002  0.1266596E+03  0.7546771E-02  0.1232498E+00
         21   -1    0    0  502  503  0.00000000000E+00  0.00000000000E+00  0.28653110185E+02  0.28653110185E+02  0.00000000000E+00 0. -1.
          2   -1    0    0  503    0 -0.00000000000E+00 -0.00000000000E+00 -0.19178561810E+03  0.19178561810E+03  0.00000000000E+00 0. -1.
         25    2    1    2    0    0  0.19382501556E+02  0.65904803036E+01 -0.13007078715E+03  0.18155180019E+03  0.12499412259E+03 0.  0.
          5    1    3    3  501    0 -0.16770533085E+01 -0.30906406576E+02  0.11937514357E+02  0.33174278052E+02  0.10000000000E+00 0. -1.
         -5    1    3    3    0  501  0.21059554865E+02  0.37496886880E+02 -0.14200830151E+03  0.14837752213E+03  0.10000000000E+00 0. -1.
          2    1    1    2  502    0 -0.19382501556E+02 -0.65904803036E+01 -0.33061720759E+02  0.38886928096E+02  0.00000000000E+00 0. -1.
<mgrwt>
<rscale>  1 0.12665957E+03</rscale>
<asrwt>0</asrwt>
<pdfrwt beam="1">  1       21 0.44081707E-02 0.12665957E+03</pdfrwt>
<pdfrwt beam="2">  1        2 0.29505480E-01 0.12665957E+03</pdfrwt>
<totfact> 0.70928273E+05</totfact>
</mgrwt>
</event>
<event>
 6    2  0.1181843E-002  0.1519387E+03  0.7546771E-02  0.1198111E+00
         21   -1    0    0  502  503  0.00000000000E+00  0.00000000000E+00  0.95512552032E+02  0.95512552032E+02  0.00000000000E+00 0.  1.
          2   -1    0    0  503    0 -0.00000000000E+00 -0.00000000000E+00 -0.13133782877E+04  0.13133782877E+04  0.00000000000E+00 0.  1.
         25    2    1    2    0    0  0.58587252199E+02 -0.63494756868E+02  0.32639287641E+02  0.15540495485E+03  0.12498530564E+03 0.  0.
          5    1    3    3  501    0 -0.39180313419E+02 -0.17597152269E+02  0.17351697368E+02  0.46323300067E+02  0.10000000000E+00 0. -1.
         -5    1    3    3    0  501  0.97767565617E+02 -0.45897604599E+02  0.15287590273E+02  0.10908165479E+03  0.10000000000E+00 0. -1.
          2    1    1    2  502    0 -0.58587252199E+02  0.63494756868E+02 -0.12505050233E+04  0.12534858849E+04  0.00000000000E+00 0.  1.
<mgrwt>
<rscale>  1 0.15193873E+03</rscale>
<asrwt>0</asrwt>
<pdfrwt beam="1">  1       21 0.14694239E-01 0.15193873E+03</pdfrwt>
<pdfrwt beam="2">  1        2 0.20205819E+00 0.15193873E+03</pdfrwt>
<totfact> 0.91406483E+03</totfact>
</mgrwt>
</event>
<event>
 6    2  0.1181843E-002  0.1367468E+03  0.7546771E-02  0.1217775E+00
          1   -1    0    0  503    0 -0.00000000000E+00  0.00000000000E+00  0.35949140846E+03  0.35949140846E+03  0.00000000000E+00 0.  1.
         21   -1    0    0  502  503  0.00000000000E+00 -0.00000000000E+00 -0.26809536654E+02  0.26809536654E+02  0.00000000000E+00 0.  1.
         25    2    1    2    0    0 -0.31432513409E+02  0.45636282459E+02  0.19767787863E+03  0.24036688003E+03  0.12501607954E+03 0.  0.
          5    1    3    3  501    0  0.35327139699E+02  0.42195594975E+02  0.36933332923E+02  0.66276361663E+02  0.10000000000E+00 0. -1.
         -5    1    3    3    0  501 -0.66759653108E+02  0.34406874842E+01  0.16074454570E+03  0.17409051837E+03  0.10000000000E+00 0. -1.
          1    1    1    2  502    0  0.31432513409E+02 -0.45636282459E+02  0.13500399318E+03  0.14593406508E+03  0.00000000000E+00 0.  1.
<mgrwt>
<rscale>  1 0.13674682E+03</rscale>
<asrwt>0</asrwt>
<pdfrwt beam="1">  1       21 0.41245444E-02 0.13674682E+03</pdfrwt>
<pdfrwt beam="2">  1        1 0.55306367E-01 0.13674682E+03</pdfrwt>
<totfact> 0.27944133E+05</totfact>
</mgrwt>
</event>
<event>
 6    2  0.1181843E-002  0.1632453E+03  0.7546771E-02  0.1185081E+00
          2   -1    0    0  503    0 -0.00000000000E+00  0.00000000000E+00  0.84560546690E+03  0.84560546690E+03  0.00000000000E+00 0. -1.
         21   -1    0    0  502  503  0.00000000000E+00 -0.00000000000E+00 -0.22011326697E+02  0.22011326697E+02  0.00000000000E+00 0. -1.
         25    2    1    2    0    0 -0.54062276602E+02 -0.90016937174E+02  0.57577927512E+03  0.59847373483E+03  0.12499303535E+03 0.  0.
          5    1    3    3  501    0 -0.20522887296E+02  0.14740830439E+02  0.30727684501E+03  0.30831404520E+03  0.10000000000E+00 0. -1.
         -5    1    3    3    0  501 -0.33539389306E+02 -0.10475776761E+03  0.26850243011E+03  0.29015968963E+03  0.10000000000E+00 0. -1.
          2    1    1    2  502    0  0.54062276602E+02  0.90016937174E+02  0.24781486508E+03  0.26914305877E+03  0.00000000000E+00 0. -1.
<mgrwt>
<rscale>  1 0.16324533E+03</rscale>
<asrwt>0</asrwt>
<pdfrwt beam="1">  1       21 0.33863586E-02 0.16324533E+03</pdfrwt>
<pdfrwt beam="2">  1        2 0.13009312E+00 0.16324533E+03</pdfrwt>
<totfact> 0.21566038E+05</totfact>
</mgrwt>
</event>
<event>
 6    2  0.1181843E-002  0.1264439E+03  0.7546771E-02  0.1232830E+00
         21   -1    0    0  502  503  0.00000000000E+00  0.00000000000E+00  0.97963331924E+01  0.97963331924E+01  0.00000000000E+00 0.  1.
          1   -1    0    0  503    0 -0.00000000000E+00 -0.00000000000E+00 -0.69019081810E+03  0.69019081810E+03  0.00000000000E+00 0.  1.
         25    2    1    2    0    0  0.11699054150E+02 -0.15006626764E+02 -0.41314613239E+03  0.43206225764E+03  0.12500400415E+03 0.  0.
          5    1    3    3  501    0  0.28508602441E+02  0.49441204197E+02 -0.14651269331E+03  0.15723597676E+03  0.10000000000E+00 0. -1.
         -5    1    3    3    0  501 -0.16809548291E+02 -0.64447830960E+02 -0.26663343908E+03  0.27482628089E+03  0.10000000000E+00 0. -1.
          1    1    1    2  502    0 -0.11699054150E+02  0.15006626764E+02 -0.26724835251E+03  0.26792489364E+03  0.00000000000E+00 0.  1.
<mgrwt>
<rscale>  1 0.12644393E+03</rscale>
<asrwt>0</asrwt>
<pdfrwt beam="1">  1       21 0.15071274E-02 0.12644393E+03</pdfrwt>
<pdfrwt beam="2">  1        1 0.10618326E+00 0.12644393E+03</pdfrwt>
<totfact> 0.60923456E+05</totfact>
</mgrwt>
</event>
<event>
 6    2  0.1181843E-002  0.1520871E+03  0.7546771E-02  0.1197932E+00
          2   -1    0    0  503    0 -0.00000000000E+00  0.00000000000E+00  0.35194668517E+03  0.35194668517E+03  0.00000000000E+00 0. -1.
         21   -1    0    0  502  503  0.00000000000E+00 -0.00000000000E+00 -0.43421006159E+02  0.43421006159E+02  0.00000000000E+00 0. -1.
         25    2    1    2    0    0  0.82147105779E+02  0.27489210261E+02  0.14406282723E+03  0.20948645697E+03  0.12500669501E+03 0.  0.
          5    1    3    3  501    0  0.96136106632E+02 -0.15441933379E+02  0.60867832996E+02  0.11482816466E+03  0.10000000000E+00 0.  1.
         -5    1    3    3    0  501 -0.13989000853E+02  0.42931143640E+02  0.83194994230E+02  0.94658292316E+02  0.10000000000E+00 0.  1.
          2    1    1    2  502    0 -0.82147105779E+02 -0.27489210261E+02  0.16446285178E+03  0.18588123436E+03  0.00000000000E+00 0. -1.
<mgrwt>
<rscale>  1 0.15208707E+03</rscale>
<asrwt>0</asrwt>
<pdfrwt beam="1">  1       21 0.66801550E-02 0.15208707E+03</pdfrwt>
<pdfrwt beam="2">  1        2 0.54145642E-01 0.15208707E+03</pdfrwt>
<totfact> 0.18589019E+05</totfact>
</mgrwt>
</event>
<event>
 6    2  0.1181843E-002  0.1281934E+03  0.7546771E-02  0.1230161E+00
         21   -1    0    0  502  503  0.00000000000E+00  0.00000000000E+00  0.91863173211E+02  0.91863173211E+02  0.00000000000E+00 0.  1.
          1   -1    0    0  503    0 -0.00000000000E+00 -0.00000000000E+00 -0.19541972333E+03  0.19541972333E+03  0.00000000000E+00 0. -1.
         25    2    1    2    0    0  0.99299391896E+01  0.26659052549E+02  0.45125402409E+02  0.13590379698E+03  0.12499692523E+03 0.  0.
          5    1    3    3  501    0  0.62946532544E+02  0.20868614469E+02  0.48964860637E+02  0.82433807424E+02  0.10000000000E+00 0. -1.
         -5    1    3    3    0  501 -0.53016593354E+02  0.57904380797E+01 -0.38394582275E+01  0.53469989560E+02  0.10000000000E+00 0. -1.
          1    1    1    2  502    0 -0.99299391896E+01 -0.26659052549E+02 -0.14868195253E+03  0.15137909956E+03  0.00000000000E+00 0. -1.
<mgrwt>
<rscale>  1 0.12819337E+03</rscale>
<asrwt>0</asrwt>
<pdfrwt beam="1">  1       21 0.14132796E-01 0.12819337E+03</pdfrwt>
<pdfrwt beam="2">  1        1 0.30064572E-01 0.12819337E+03</pdfrwt>
<totfact> 0.70972773E+04</totfact>
</mgrwt>
</event>
<event>
 6    2  0.1181843E-002  0.1334514E+03  0.7546771E-02  0.1222423E+00
         21   -1    0    0  502  503  0.00000000000E+00  0.00000000000E+00  0.12591082999E+04  0.12591082999E+04  0.00000000000E+00 0. -1.
          4   -1    0    0  503    0 -0.00000000000E+00 -0.00000000000E+00 -0.16801860160E+02  0.16801860160E+02  0.00000000000E+00 0.  1.
         25    2    1    2    0    0  0.46198174235E+02 -0.71648430404E+01  0.12138843896E+04  0.12211980114E+04  0.12499466171E+03 0.  0.
          5    1    3    3  501    0  0.53336007134E+02 -0.48458428317E+01  0.19318734378E+03  0.20047336892E+03  0.10000000000E+00 0.  1.
         -5    1    3    3    0  501 -0.71378328988E+01 -0.23190002087E+01  0.10206970458E+04  0.10207246425E+04  0.10000000000E+00 0.  1.
          4    1    1    2  502    0 -0.46198174235E+02  0.71648430404E+01  0.28422050172E+02  0.54712148691E+02  0.00000000000E+00 0.  1.
<mgrwt>
<rscale>  1 0.13345138E+03</rscale>
<asrwt>0</asrwt>
<pdfrwt beam="1">  1       21 0.19370890E+00 0.13345138E+03</pdfrwt>
<pdfrwt beam="2">  1        4 0.25849026E-02 0.13345138E+03</pdfrwt>
<totfact> 0.42398709E+03</totfact>
</mgrwt>
</event>
<event>
 6    2  0.1181843E-002  0.1681745E+03  0.7546771E-02  0.1179765E+00
          2   -1    0    0  503    0 -0.00000000000E+00  0.00000000000E+00  0.17075749342E+04  0.17075749342E+04  0.00000000000E+00 0.  1.
         21   -1    0    0  502  503  0.00000000000E+00 -0.00000000000E+00 -0.20076544727E+02  0.20076544727E+02  0.00000000000E+00 0.  1.
         25    2    1    2    0    0 -0.78695206562E+02  0.80385683528E+02  0.38280817072E+03  0.41812050924E+03  0.12501148358E+03 0.  0.
          5    1    3    3  501    0  0.81410872881E+01  0.76553401774E+02  0.22710387935E+03  0.23979758681E+03  0.10000000000E+00 0.  1.
         -5    1    3    3    0  501 -0.86836293851E+02  0.38322817548E+01  0.15570429137E+03  0.17832292243E+03  0.10000000000E+00 0.  1.
          2    1    1    2  502    0  0.78695206562E+02 -0.80385683528E+02  0.13046902187E+04  0.13095309697E+04  0.00000000000E+00 0.  1.
<mgrwt>
<rscale>  1 0.16817451E+03</rscale>
<asrwt>0</asrwt>
<pdfrwt beam="1">  1       21 0.30887005E-02 0.16817451E+03</pdfrwt>
<pdfrwt beam="2">  1        2 0.26270372E+00 0.16817451E+03</pdfrwt>
<totfact> 0.82664383E+04</totfact>
</mgrwt>
</event>
<event>
 6    2  0.1181843E-002  0.1290955E+03  0.7546771E-02  0.1228804E+00
         21   -1    0    0  502  503  0.00000000000E+00  0.00000000000E+00  0.16926848088E+03  0.16926848088E+03  0.00000000000E+00 0. -1.
          1   -1    0    0  503    0 -0.00000000000E+00 -0.00000000000E+00 -0.38656764422E+02  0.38656764422E+02  0.00000000000E+00 0. -1.
         25    2    1    2    0    0 -0.30384329014E+02 -0.10761494082E+02  0.98069243528E+02  0.16212099060E+03  0.12500648728E+03 0.  0.
          5    1    3    3  501    0  0.38745381117E+02  0.26245636774E+02  0.18251286114E+02  0.50231040725E+02  0.10000000000E+00 0. -1.
         -5    1    3    3    0  501 -0.69129710131E+02 -0.37007130856E+02  0.79817957415E+02  0.11188994987E+03  0.10000000000E+00 0. -1.
          1    1    1    2  502    0  0.30384329014E+02  0.10761494082E+02  0.32542472928E+02  0.45804254702E+02  0.00000000000E+00 0. -1.
<mgrwt>
<rscale>  1 0.12909546E+03</rscale>
<asrwt>0</asrwt>
<pdfrwt beam="1">  1       21 0.26041304E-01 0.12909546E+03</pdfrwt>
<pdfrwt beam="2">  1        1 0.59471946E-02 0.12909546E+03</pdfrwt>
<totfact> 0.18930683E+05</totfact>
</mgrwt>
</event>
<event>
 6    2  0.1181843E-002  0.1300623E+03  0.7546771E-02  0.1227363E+00
          2   -1    0    0  503    0 -0.00000000000E+00  0.00000000000E+00  0.13400262701E+04  0.13400262701E+04  0.00000000000E+00 0.  1.
         21   -1    0    0  502  503  0.00000000000E+00 -0.00000000000E+00 -0.54049927747E+01  0.54049927747E+01  0.00000000000E+00 0.  1.
         25    2    1    2    0    0  0.87896364117E+01 -0.34834862865E+02  0.90318085539E+03  0.91249759237E+03  0.12500189260E+03 0.  0.
          5    1    3    3  501    0  0.10867894099E+02 -0.75574949870E+02  0.75346637581E+03  0.75732507792E+03  0.10000000000E+00 0. -1.
         -5    1    3    3    0  501 -0.20782576873E+01  0.40740087005E+02  0.14971447959E+03  0.15517251446E+03  0.10000000000E+00 0. -1.
          2    1    1    2  502    0 -0.87896364117E+01  0.34834862865E+02  0.43144042190E+03  0.43293367047E+03  0.00000000000E+00 0.  1.
<mgrwt>
<rscale>  1 0.13006229E+03</rscale>
<asrwt>0</asrwt>
<pdfrwt beam="1">  1       21 0.83153842E-03 0.13006229E+03</pdfrwt>
<pdfrwt beam="2">  1        2 0.20615762E+00 0.13006229E+03</pdfrwt>
<totfact> 0.10549211E+06</totfact>
</mgrwt>
</event>
<event>
 6    2  0.1181843E-002  0.1260318E+03  0.7546771E-02  0.1233465E+00
          2   -1    0    0  503    0 -0.00000000000E+00  0.00000000000E+00  0.10481918715E+04  0.10481918715E+04  0.00000000000E+00 0. -1.
         21   -1    0    0  502  503  0.00000000000E+00 -0.00000000000E+00 -0.13268613871E+02  0.13268613871E+02  0.00000000000E+00 0. -1.
         25    2    1    2    0    0  0.59718585793E+01 -0.15005593059E+02  0.28807892829E+03  0.31444155443E+03  0.12499276503E+03 0.  0.
          5    1    3    3  501    0  0.61443340765E+02  0.86705407728E+01  0.18361354628E+03  0.19381539356E+03  0.10000000000E+00 0.  1.
         -5    1    3    3    0  501 -0.55471482185E+02 -0.23676133832E+02  0.10446538201E+03  0.12062616087E+03  0.10000000000E+00 0.  1.
          2    1    1    2  502    0 -0.59718585793E+01  0.15005593059E+02  0.74684432934E+03  0.74701893095E+03  0.00000000000E+00 0. -1.
<mgrwt>
<rscale>  1 0.12603183E+03</rscale>
<asrwt>0</asrwt>
<pdfrwt beam="1">  1       21 0.20413260E-02 0.12603183E+03</pdfrwt>
<pdfrwt beam="2">  1        2 0.16126022E+00 0.12603183E+03</pdfrwt>
<totfact> 0.36680515E+05</totfact>
</mgrwt>
</event>
<event>
 6    2  0.1181843E-002  0.1481128E+03  0.7546771E-02  0.1202811E+00
          1   -1    0    0  503    0 -0.00000000000E+00  0.00000000000E+00  0.27235678925E+04  0.27235678925E+04  0.00000000000E+00 0. -1.
         21   -1    0    0  502  503  0.00000000000E+00 -0.00000000000E+00 -0.18615909285E+02  0.18615909285E+02  0.00000000000E+00 0. -1.
         25    2    1    2    0    0  0.64038879383E+02  0.46990191391E+02  0.28733845679E+03  0.32326581655E+03  0.12501337223E+03 0.  0.
          5    1    3    3  501    0  0.34907286379E+02  0.81408273821E+02  0.11518296970E+03  0.14530296692E+03  0.10000000000E+00 0. -1.
         -5    1    3    3    0  501  0.29131593003E+02 -0.34418082430E+02  0.17215548709E+03  0.17796284962E+03  0.10000000000E+00 0. -1.
          1    1    1    2  502    0 -0.64038879383E+02 -0.46990191391E+02  0.24176135264E+04  0.24189179852E+04  0.00000000000E+00 0. -1.
<mgrwt>
<rscale>  1 0.14811279E+03</rscale>
<asrwt>0</asrwt>
<pdfrwt beam="1">  1       21 0.28639882E-02 0.14811279E+03</pdfrwt>
<pdfrwt beam="2">  1        1 0.41901013E+00 0.14811279E+03</pdfrwt>
<totfact> 0.90600829E+03</totfact>
</mgrwt>
</event>
<event>
 6    2  0.1181843E-002  0.1275800E+03  0.7546771E-02  0.1231091E+00
          1   -1    0    0  503    0 -0.00000000000E+00  0.00000000000E+00  0.12950446908E+04  0.12950446908E+04  0.00000000000E+00 0.  1.
         21   -1    0    0  502  503  0.00000000000E+00 -0.00000000000E+00 -0.46751487628E+01  0.46751487628E+01  0.00000000000E+00 0.  1.
         25    2    1    2    0    0  0.13815077298E+02 -0.21504780166E+02  0.11486898790E+04  0.11557530418E+04  0.12499337444E+03 0.  0.
          5    1    3    3  501    0 -0.69518744375E+01 -0.26646467970E+01  0.10963520172E+04  0.10963773003E+04  0.10000000000E+00 0.  1.
         -5    1    3    3    0  501  0.20766951736E+02 -0.18840133369E+02  0.52337861808E+02  0.59375741582E+02  0.10000000000E+00 0.  1.
          1    1    1    2  502    0 -0.13815077298E+02  0.21504780166E+02  0.14167966304E+03  0.14396679773E+03  0.00000000000E+00 0.  1.
<mgrwt>
<rscale>  1 0.12758000E+03</rscale>
<asrwt>0</asrwt>
<pdfrwt beam="1">  1       21 0.71925469E-03 0.12758000E+03</pdfrwt>
<pdfrwt beam="2">  1        1 0.19923736E+00 0.12758000E+03</pdfrwt>
<totfact> 0.69140941E+05</totfact>
</mgrwt>
</event>
<event>
 6    2  0.1181843E-002  0.1274965E+03  0.7546771E-02  0.1231218E+00
          1   -1    0    0  503    0 -0.00000000000E+00  0.00000000000E+00  0.17818640849E+04  0.17818640849E+04  0.00000000000E+00 0.  1.
         21   -1    0    0  502  503  0.00000000000E+00 -0.00000000000E+00 -0.44809267827E+01  0.44809267827E+01  0.00000000000E+00 0. -1.
         25    2    1    2    0    0  0.16508953554E+02 -0.18944008919E+02  0.94257525071E+03  0.95115900648E+03  0.12499572525E+03 0.  0.
          5    1    3    3  501    0  0.58203979652E+02 -0.19518832839E+02  0.80661817697E+03  0.80895091415E+03  0.10000000000E+00 0.  1.
         -5    1    3    3    0  501 -0.41695026099E+02  0.57482391988E+00  0.13595707374E+03  0.14220809233E+03  0.10000000000E+00 0.  1.
          1    1    1    2  502    0 -0.16508953554E+02  0.18944008919E+02  0.83480790737E+03  0.83518600516E+03  0.00000000000E+00 0.  1.
<mgrwt>
<rscale>  1 0.12749648E+03</rscale>
<asrwt>0</asrwt>
<pdfrwt beam="1">  1       21 0.68937477E-03 0.12749648E+03</pdfrwt>
<pdfrwt beam="2">  1        1 0.27413237E+00 0.12749648E+03</pdfrwt>
<totfact> 0.35789102E+05</totfact>
</mgrwt>
</event>
<event>
 6    2  0.1181843E-002  0.1923086E+03  0.7546771E-02  0.1156395E+00
         21   -1    0    0  502  503  0.00000000000E+00  0.00000000000E+00  0.42028504093E+02  0.42028504093E+02  0.00000000000E+00 0. -1.
          1   -1    0    0  503    0 -0.00000000000E+00 -0.00000000000E+00 -0.17153153209E+04  0.17153153209E+04  0.00000000000E+00 0. -1.
         25    2    1    2    0    0  0.83871796613E+02 -0.11967363732E+03 -0.20231555720E+03  0.27913115277E+03  0.12500543198E+03 0.  0.
          5    1    3    3  501    0 -0.21223317678E+02  0.11568450119E+02 -0.25820911796E+02  0.35369305018E+02  0.10000000000E+00 0. -1.
         -5    1    3    3    0  501  0.10509511429E+03 -0.13124208744E+03 -0.17649464540E+03  0.24376184775E+03  0.10000000000E+00 0. -1.
          1    1    1    2  502    0 -0.83871796613E+02  0.11967363732E+03 -0.14709712596E+04  0.14782126722E+04  0.00000000000E+00 0. -1.
<mgrwt>
<rscale>  1 0.19230865E+03</rscale>
<asrwt>0</asrwt>
<pdfrwt beam="1">  1       21 0.64659243E-02 0.19230865E+03</pdfrwt>
<pdfrwt beam="2">  1        1 0.26389464E+00 0.19230865E+03</pdfrwt>
<totfact> 0.10214467E+04</totfact>
</mgrwt>
</event>
<event>
 6    2  0.1181843E-002  0.1471253E+03  0.7546771E-02  0.1204051E+00
         21   -1    0    0  502  503  0.00000000000E+00  0.00000000000E+00  0.69201672310E+01  0.69201672310E+01  0.00000000000E+00 0. -1.
          1   -1    0    0  503    0 -0.00000000000E+00 -0.00000000000E+00 -0.24321712152E+04  0.24321712152E+04  0.00000000000E+00 0. -1.
         25    2    1    2    0    0 -0.72214178987E+02  0.28374818764E+02 -0.90666412387E+03  0.91852363846E+03  0.12500329153E+03 0.  0.
          5    1    3    3  501    0 -0.64327011909E+01  0.68797626262E+02 -0.38017353504E+03  0.38640188893E+03  0.10000000000E+00 0. -1.
         -5    1    3    3    0  501 -0.65781477797E+02 -0.40422807498E+02 -0.52649058884E+03  0.53212174953E+03  0.10000000000E+00 0. -1.
          1    1    1    2  502    0  0.72214178987E+02 -0.28374818764E+02 -0.15185869241E+04  0.15205677440E+04  0.00000000000E+00 0. -1.
<mgrwt>
<rscale>  1 0.14712526E+03</rscale>
<asrwt>0</asrwt>
<pdfrwt beam="1">  1       21 0.10646416E-02 0.14712526E+03</pdfrwt>
<pdfrwt beam="2">  1        1 0.37418000E+00 0.14712526E+03</pdfrwt>
<totfact> 0.69431045E+04</totfact>
</mgrwt>
</event>
<event>
 6    2  0.1181843E-002  0.1695429E+03  0.7546771E-02  0.1178325E+00
         21   -1    0    0  502  503  0.00000000000E+00  0.00000000000E+00  0.14059441708E+03  0.14059441708E+03  0.00000000000E+00 0.  1.
          2   -1    0    0  503    0 -0.00000000000E+00 -0.00000000000E+00 -0.27894611607E+03  0.27894611607E+03  0.00000000000E+00 0. -1.
         25    2    1    2    0    0 -0.67420927231E+02  0.92611984387E+02  0.68683384709E+02  0.18292674032E+03  0.12498889513E+03 0.  0.
          5    1    3    3  501    0 -0.62883198115E+02  0.28160221676E+02  0.91380071020E+02  0.11444484291E+03  0.10000000000E+00 0.  1.
         -5    1    3    3    0  501 -0.45377291161E+01  0.64451762711E+02 -0.22696686311E+02  0.68481897401E+02  0.10000000000E+00 0.  1.
          2    1    1    2  502    0  0.67420927231E+02 -0.92611984387E+02 -0.20703508369E+03  0.23661379284E+03  0.00000000000E+00 0. -1.
<mgrwt>
<rscale>  1 0.16954287E+03</rscale>
<asrwt>0</asrwt>
<pdfrwt beam="1">  1       21 0.21629910E-01 0.16954287E+03</pdfrwt>
<pdfrwt beam="2">  1        2 0.42914787E-01 0.16954287E+03</pdfrwt>
<totfact> 0.29262725E+04</totfact>
</mgrwt>
</event>
<event>
 6    2  0.1181843E-002  0.1267893E+03  0.7546771E-02  0.1232299E+00
         21   -1    0    0  502  503  0.00000000000E+00  0.00000000000E+00  0.85237630223E+02  0.85237630223E+02  0.00000000000E+00 0.  1.
          2   -1    0    0  503    0 -0.00000000000E+00 -0.00000000000E+00 -0.21222293741E+03  0.21222293741E+03  0.00000000000E+00 0.  1.
         25    2    1    2    0    0  0.19260578024E+02  0.88727671156E+01  0.37025230002E+02  0.13208477687E+03  0.12500329900E+03 0.  0.
          5    1    3    3  501    0  0.15874862883E+02  0.66738798485E+02  0.23966526155E+02  0.72666931067E+02  0.10000000000E+00 0. -1.
         -5    1    3    3    0  501  0.33857151413E+01 -0.57866031369E+02  0.13058703847E+02  0.59417845801E+02  0.10000000000E+00 0. -1.
          2    1    1    2  502    0 -0.19260578024E+02 -0.88727671156E+01 -0.16401053719E+03  0.16537579076E+03  0.00000000000E+00 0.  1.
<mgrwt>
<rscale>  1 0.12678928E+03</rscale>
<asrwt>0</asrwt>
<pdfrwt beam="1">  1       21 0.13113482E-01 0.12678928E+03</pdfrwt>
<pdfrwt beam="2">  1        2 0.32649683E-01 0.12678928E+03</pdfrwt>
<totfact> 0.97460414E+04</totfact>
</mgrwt>
</event>
<event>
 6    2  0.1181843E-002  0.1263328E+03  0.7546771E-02  0.1233001E+00
          1   -1    0    0  503    0 -0.00000000000E+00  0.00000000000E+00  0.18254580669E+04  0.18254580669E+04  0.00000000000E+00 0. -1.
         21   -1    0    0  502  503  0.00000000000E+00 -0.00000000000E+00 -0.54032115288E+01  0.54032115288E+01  0.00000000000E+00 0. -1.
         25    2    1    2    0    0  0.16726900361E+02  0.77473017587E+01  0.74407367282E+03  0.75472220048E+03  0.12498063625E+03 0.  0.
          5    1    3    3  501    0  0.39808538615E+02  0.83044318264E+01  0.75543392820E+02  0.85793342011E+02  0.10000000000E+00 0.  1.
         -5    1    3    3    0  501 -0.23081638254E+02 -0.55713006765E+00  0.66853028000E+03  0.66892885847E+03  0.10000000000E+00 0.  1.
          1    1    1    2  502    0 -0.16726900361E+02 -0.77473017587E+01  0.10759811825E+04  0.10761390779E+04  0.00000000000E+00 0. -1.
<mgrwt>
<rscale>  1 0.12633277E+03</rscale>
<asrwt>0</asrwt>
<pdfrwt beam="1">  1       21 0.83126477E-03 0.12633277E+03</pdfrwt>
<pdfrwt beam="2">  1        1 0.28083921E+00 0.12633277E+03</pdfrwt>
<totfact> 0.25063242E+05</totfact>
</mgrwt>
</event>
<event>
 6    2  0.1181843E-002  0.1296825E+03  0.7546771E-02  0.1227928E+00
          2   -1    0    0  503    0 -0.00000000000E+00  0.00000000000E+00  0.15805178899E+04  0.15805178899E+04  0.00000000000E+00 0. -1.
         21   -1    0    0  502  503  0.00000000000E+00 -0.00000000000E+00 -0.11473992857E+02  0.11473992857E+02  0.00000000000E+00 0. -1.
         25    2    1    2    0    0  0.14112059919E+02 -0.31514965369E+02  0.36326798814E+03  0.38572164531E+03  0.12500085268E+03 0.  0.
          5    1    3    3  501    0  0.16534960304E+02  0.47456447392E+02  0.12638162651E+03  0.13600678230E+03  0.10000000000E+00 0. -1.
         -5    1    3    3    0  501 -0.24229003845E+01 -0.78971412760E+02  0.23688636163E+03  0.24971486301E+03  0.10000000000E+00 0. -1.
          2    1    1    2  502    0 -0.14112059919E+02  0.31514965369E+02  0.12057759089E+04  0.12062702375E+04  0.00000000000E+00 0. -1.
<mgrwt>
<rscale>  1 0.12968252E+03</rscale>
<asrwt>0</asrwt>
<pdfrwt beam="1">  1       21 0.17652309E-02 0.12968252E+03</pdfrwt>
<pdfrwt beam="2">  1        2 0.24315643E+00 0.12968252E+03</pdfrwt>
<totfact> 0.23925050E+05</totfact>
</mgrwt>
</event>
<event>
 6    2  0.1181843E-002  0.1645571E+03  0.7546771E-02  0.1183646E+00
          2   -1    0    0  503    0 -0.00000000000E+00  0.00000000000E+00  0.58022690605E+03  0.58022690605E+03  0.00000000000E+00 0. -1.
         21   -1    0    0  502  503  0.00000000000E+00 -0.00000000000E+00 -0.97125054584E+02  0.97125054584E+02  0.00000000000E+00 0.  1.
         25    2    1    2    0    0  0.99209622081E+02  0.40293158403E+02 -0.17445464468E+02  0.16547921940E+03  0.12495175107E+03 0.  0.
          5    1    3    3  501    0  0.71639050564E+02  0.80417803516E+02 -0.35734724463E+02  0.11347315639E+03  0.10000000000E+00 0.  1.
         -5    1    3    3    0  501  0.27570571518E+02 -0.40124645113E+02  0.18289259995E+02  0.52006063016E+02  0.10000000000E+00 0.  1.
          2    1    1    2  502    0 -0.99209622081E+02 -0.40293158403E+02  0.50054731594E+03  0.51187274123E+03  0.00000000000E+00 0. -1.
<mgrwt>
<rscale>  1 0.16455707E+03</rscale>
<asrwt>0</asrwt>
<pdfrwt beam="1">  1       21 0.14942316E-01 0.16455707E+03</pdfrwt>
<pdfrwt beam="2">  1        2 0.89265676E-01 0.16455707E+03</pdfrwt>
<totfact> 0.26130296E+04</totfact>
</mgrwt>
</event>
<event>
 6    2  0.1181843E-002  0.1340187E+03  0.7546771E-02  0.1221612E+00
          1   -1    0    0  503    0 -0.00000000000E+00  0.00000000000E+00  0.17382460089E+03  0.17382460089E+03  0.00000000000E+00 0. -1.
         21   -1    0    0  502  503  0.00000000000E+00 -0.00000000000E+00 -0.85537114001E+02  0.85537114001E+02  0.00000000000E+00 0. -1.
         25    2    1    2    0    0  0.38193879885E+02  0.29634254091E+02 -0.24873522686E+02  0.13630735469E+03  0.12499616529E+03 0.  0.
          5    1    3    3  501    0  0.35555149782E+02  0.21488617335E+02  0.47685767817E+02  0.63244539711E+02  0.10000000000E+00 0.  1.
         -5    1    3    3    0  501  0.26387301036E+01  0.81456367551E+01 -0.72559290502E+02  0.73062814981E+02  0.10000000000E+00 0.  1.
          1    1    1    2  502    0 -0.38193879885E+02 -0.29634254091E+02  0.11316100958E+03  0.12305436020E+03  0.00000000000E+00 0. -1.
<mgrwt>
<rscale>  1 0.13401867E+03</rscale>
<asrwt>0</asrwt>
<pdfrwt beam="1">  1       21 0.13159556E-01 0.13401867E+03</pdfrwt>
<pdfrwt beam="2">  1        1 0.26742246E-01 0.13401867E+03</pdfrwt>
<totfact> 0.93439601E+04</totfact>
</mgrwt>
</event>
<event>
 6    2  0.1181843E-002  0.1389086E+03  0.7546771E-02  0.1214805E+00
         21   -1    0    0  502  503  0.00000000000E+00  0.00000000000E+00  0.32222699000E+02  0.32222699000E+02  0.00000000000E+00 0.  1.
          3   -1    0    0  503    0 -0.00000000000E+00 -0.00000000000E+00 -0.30884987256E+03  0.30884987256E+03  0.00000000000E+00 0.  1.
         25    2    1    2    0    0  0.60311937307E+02  0.57636501950E+01 -0.19503051086E+03  0.23944204067E+03  0.12499936491E+03 0.  0.
          5    1    3    3  501    0 -0.23898553759E+02 -0.26935239729E+01 -0.13133079898E+03  0.13351473591E+03  0.10000000000E+00 0. -1.
         -5    1    3    3    0  501  0.84210491065E+02  0.84571741679E+01 -0.63699711872E+02  0.10592730476E+03  0.10000000000E+00 0. -1.
          3    1    1    2  502    0 -0.60311937307E+02 -0.57636501950E+01 -0.81596662706E+02  0.10163053089E+03  0.00000000000E+00 0.  1.
<mgrwt>
<rscale>  1 0.13890857E+03</rscale>
<asrwt>0</asrwt>
<pdfrwt beam="1">  1       21 0.49573382E-02 0.13890857E+03</pdfrwt>
<pdfrwt beam="2">  1        3 0.47515366E-01 0.13890857E+03</pdfrwt>
<totfact> 0.57888711E+04</totfact>
</mgrwt>
</event>
<event>
 6    2  0.1181843E-002  0.1265200E+03  0.7546771E-02  0.1232713E+00
         21   -1    0    0  502  503  0.00000000000E+00  0.00000000000E+00  0.23025187120E+02  0.23025187120E+02  0.00000000000E+00 0. -1.
          1   -1    0    0  503    0 -0.00000000000E+00 -0.00000000000E+00 -0.66495604376E+03  0.66495604376E+03  0.00000000000E+00 0. -1.
         25    2    1    2    0    0  0.10976149230E+02 -0.16179632036E+02 -0.15245797521E+03  0.19811802753E+03  0.12500024912E+03 0.  0.
          5    1    3    3  501    0  0.14986144877E+02  0.15709256587E+02 -0.16288744649E+03  0.16432801193E+03  0.10000000000E+00 0. -1.
         -5    1    3    3    0  501 -0.40099956472E+01 -0.31888888623E+02  0.10429471282E+02  0.33790015595E+02  0.10000000000E+00 0. -1.
          1    1    1    2  502    0 -0.10976149230E+02  0.16179632036E+02 -0.48947288143E+03  0.48986320335E+03  0.00000000000E+00 0. -1.
<mgrwt>
<rscale>  1 0.12652003E+03</rscale>
<asrwt>0</asrwt>
<pdfrwt beam="1">  1       21 0.35423366E-02 0.12652003E+03</pdfrwt>
<pdfrwt beam="2">  1        1 0.10230093E+00 0.12652003E+03</pdfrwt>
<totfact> 0.16048566E+05</totfact>
</mgrwt>
</event>
<event>
 6    2  0.1181843E-002  0.1309986E+03  0.7546771E-02  0.1225981E+00
          2   -1    0    0  503    0 -0.00000000000E+00  0.00000000000E+00  0.40572791954E+03  0.40572791954E+03  0.00000000000E+00 0. -1.
         21   -1    0    0  502  503  0.00000000000E+00 -0.00000000000E+00 -0.24513379382E+02  0.24513379382E+02  0.00000000000E+00 0. -1.
         25    2    1    2    0    0 -0.72669612239E+01 -0.38505332899E+02  0.36506808541E+03  0.38785996591E+03  0.12500070712E+03 0.  0.
          5    1    3    3  501    0  0.44744521337E+02  0.14785188820E+02  0.76591870962E+02  0.89927741524E+02  0.10000000000E+00 0. -1.
         -5    1    3    3    0  501 -0.52011482561E+02 -0.53290521720E+02  0.28847621445E+03  0.29793222439E+03  0.10000000000E+00 0. -1.
          2    1    1    2  502    0  0.72669612239E+01  0.38505332899E+02  0.16146454747E+02  0.42381333013E+02  0.00000000000E+00 0. -1.
<mgrwt>
<rscale>  1 0.13099865E+03</rscale>
<asrwt>0</asrwt>
<pdfrwt beam="1">  1       21 0.37712894E-02 0.13099865E+03</pdfrwt>
<pdfrwt beam="2">  1        2 0.62419675E-01 0.13099865E+03</pdfrwt>
<totfact> 0.41509810E+05</totfact>
</mgrwt>
</event>
<event>
 6    2  0.1181843E-002  0.1377561E+03  0.7546771E-02  0.1216381E+00
          2   -1    0    0  503    0 -0.00000000000E+00  0.00000000000E+00  0.10481994217E+04  0.10481994217E+04  0.00000000000E+00 0. -1.
         21   -1    0    0  502  503  0.00000000000E+00 -0.00000000000E+00 -0.14124075257E+02  0.14124075257E+02  0.00000000000E+00 0. -1.
         25    2    1    2    0    0  0.46310950050E+01  0.57701511161E+02  0.35508737464E+03  0.38087241486E+03  0.12500336534E+03 0.  0.
          5    1    3    3  501    0  0.22238805085E+02 -0.28956202329E+02  0.42556271710E+02  0.56072028381E+02  0.10000000000E+00 0. -1.
         -5    1    3    3    0  501 -0.17607710080E+02  0.86657713490E+02  0.31253110293E+03  0.32480038648E+03  0.10000000000E+00 0. -1.
          2    1    1    2  502    0 -0.46310950050E+01 -0.57701511161E+02  0.67898797182E+03  0.68145108211E+03  0.00000000000E+00 0. -1.
<mgrwt>
<rscale>  1 0.13775614E+03</rscale>
<asrwt>0</asrwt>
<pdfrwt beam="1">  1       21 0.21729355E-02 0.13775614E+03</pdfrwt>
<pdfrwt beam="2">  1        2 0.16126139E+00 0.13775614E+03</pdfrwt>
<totfact> 0.33268607E+05</totfact>
</mgrwt>
</event>
<event>
 6    2  0.1181843E-002  0.1434691E+03  0.7546771E-02  0.1208736E+00
          2   -1    0    0  503    0 -0.00000000000E+00  0.00000000000E+00  0.27451352199E+02  0.27451352199E+02  0.00000000000E+00 0.  1.
         21   -1    0    0  502  503  0.00000000000E+00 -0.00000000000E+00 -0.78720405781E+03  0.78720405781E+03  0.00000000000E+00 0. -1.
         25    2    1    2    0    0 -0.67294551931E+02 -0.21139976596E+02 -0.71903771701E+03  0.73321116143E+03  0.12493163503E+03 0.  0.
          5    1    3    3  501    0 -0.94659337449E+02 -0.33498688624E+02 -0.65290482652E+03  0.66058101305E+03  0.10000000000E+00 0.  1.
         -5    1    3    3    0  501  0.27364785518E+02  0.12358712028E+02 -0.66132890490E+02  0.72630148382E+02  0.10000000000E+00 0.  1.
          2    1    1    2  502    0  0.67294551931E+02  0.21139976596E+02 -0.40714988604E+02  0.81444248582E+02  0.00000000000E+00 0.  1.
<mgrwt>
<rscale>  1 0.14346905E+03</rscale>
<asrwt>0</asrwt>
<pdfrwt beam="1">  1       21 0.12110833E+00 0.14346905E+03</pdfrwt>
<pdfrwt beam="2">  1        2 0.42232846E-02 0.14346905E+03</pdfrwt>
<totfact> 0.12272544E+04</totfact>
</mgrwt>
</event>
<event>
 6    2  0.1181843E-002  0.1260108E+03  0.7546771E-02  0.1233498E+00
         21   -1    0    0  502  503  0.00000000000E+00  0.00000000000E+00  0.93047921188E+02  0.93047921188E+02  0.00000000000E+00 0.  1.
          1   -1    0    0  503    0 -0.00000000000E+00 -0.00000000000E+00 -0.67985789773E+02  0.67985789773E+02  0.00000000000E+00 0.  1.
         25    2    1    2    0    0  0.15307260947E+02  0.44015907534E+01  0.46508684014E+02  0.13431965366E+03  0.12500010173E+03 0.  0.
          5    1    3    3  501    0 -0.48436867240E+02 -0.17483587254E+02  0.42561115964E+02  0.66807668148E+02  0.10000000000E+00 0. -1.
         -5    1    3    3    0  501  0.63744128187E+02  0.21885178008E+02  0.39475680508E+01  0.67511985516E+02  0.10000000000E+00 0. -1.
          1    1    1    2  502    0 -0.15307260947E+02 -0.44015907534E+01 -0.21446552600E+02  0.26714057298E+02  0.00000000000E+00 0.  1.
<mgrwt>
<rscale>  1 0.12601076E+03</rscale>
<asrwt>0</asrwt>
<pdfrwt beam="1">  1       21 0.14315065E-01 0.12601076E+03</pdfrwt>
<pdfrwt beam="2">  1        1 0.10459352E-01 0.12601076E+03</pdfrwt>
<totfact> 0.26743842E+05</totfact>
</mgrwt>
</event>
<event>
 6    2  0.1181843E-002  0.1398337E+03  0.7546771E-02  0.1213553E+00
          4   -1    0    0  503    0 -0.00000000000E+00  0.00000000000E+00  0.41200743379E+03  0.41200743379E+03  0.00000000000E+00 0. -1.
         21   -1    0    0  502  503  0.00000000000E+00 -0.00000000000E+00 -0.30689990983E+02  0.30689990983E+02  0.00000000000E+00 0.  1.
         25    2    1    2    0    0  0.41995572651E+02  0.46533014525E+02  0.15913676829E+03  0.21184422100E+03  0.12499805353E+03 0.  0.
          5    1    3    3  501    0  0.12221491543E+02 -0.69659496717E+00 -0.20419592112E+02  0.23807978539E+02  0.10000000000E+00 0. -1.
         -5    1    3    3    0  501  0.29774081107E+02  0.47229609492E+02  0.17955636040E+03  0.18803624246E+03  0.10000000000E+00 0. -1.
          4    1    1    2  502    0 -0.41995572651E+02 -0.46533014525E+02  0.22218067451E+03  0.23085320377E+03  0.00000000000E+00 0. -1.
<mgrwt>
<rscale>  1 0.13983370E+03</rscale>
<asrwt>0</asrwt>
<pdfrwt beam="1">  1       21 0.47215374E-02 0.13983370E+03</pdfrwt>
<pdfrwt beam="2">  1        4 0.63385755E-01 0.13983370E+03</pdfrwt>
<totfact> 0.28481425E+04</totfact>
</mgrwt>
</event>
<event>
 6    2  0.1181843E-002  0.1303558E+03  0.7546771E-02  0.1226929E+00
          3   -1    0    0  503    0 -0.00000000000E+00  0.00000000000E+00  0.26401960460E+02  0.26401960460E+02  0.00000000000E+00 0.  1.
         21   -1    0    0  502  503  0.00000000000E+00 -0.00000000000E+00 -0.65440991110E+03  0.65440991110E+03  0.00000000000E+00 0.  1.
         25    2    1    2    0    0 -0.21823437833E+02 -0.29838708146E+02 -0.63042898743E+03  0.64376497747E+03  0.12500410824E+03 0.  0.
          5    1    3    3  501    0  0.36587730832E+02 -0.55487585227E+02 -0.33405930088E+03  0.34060704729E+03  0.10000000000E+00 0.  1.
         -5    1    3    3    0  501 -0.58411168665E+02  0.25648877081E+02 -0.29636968656E+03  0.30315793018E+03  0.10000000000E+00 0.  1.
          3    1    1    2  502    0  0.21823437833E+02  0.29838708146E+02  0.24210367934E+01  0.37046894092E+02  0.00000000000E+00 0.  1.
<mgrwt>
<rscale>  1 0.13035581E+03</rscale>
<asrwt>0</asrwt>
<pdfrwt beam="1">  1       21 0.10067844E+00 0.13035581E+03</pdfrwt>
<pdfrwt beam="2">  1        3 0.40618404E-02 0.13035581E+03</pdfrwt>
<totfact> 0.12433673E+04</totfact>
</mgrwt>
</event>
<event>
 6    2  0.1181843E-002  0.1271556E+03  0.7546771E-02  0.1231738E+00
          1   -1    0    0  503    0 -0.00000000000E+00  0.00000000000E+00  0.20578431706E+04  0.20578431706E+04  0.00000000000E+00 0.  1.
         21   -1    0    0  502  503  0.00000000000E+00 -0.00000000000E+00 -0.60458028475E+01  0.60458028475E+01  0.00000000000E+00 0.  1.
         25    2    1    2    0    0 -0.17247290456E+02  0.15733118222E+02  0.67375333201E+03  0.68564720783E+03  0.12499416458E+03 0.  0.
          5    1    3    3  501    0  0.36076284733E+02  0.11279706951E+01  0.64677938767E+02  0.74067647466E+02  0.10000000000E+00 0.  1.
         -5    1    3    3    0  501 -0.53323575189E+02  0.14605147526E+02  0.60907539324E+03  0.61157956036E+03  0.10000000000E+00 0.  1.
          1    1    1    2  502    0  0.17247290456E+02 -0.15733118222E+02  0.13780440358E+04  0.13782417656E+04  0.00000000000E+00 0.  1.
<mgrwt>
<rscale>  1 0.12715558E+03</rscale>
<asrwt>0</asrwt>
<pdfrwt beam="1">  1       21 0.93012515E-03 0.12715558E+03</pdfrwt>
<pdfrwt beam="2">  1        1 0.31659070E+00 0.12715558E+03</pdfrwt>
<totfact> 0.14967670E+05</totfact>
</mgrwt>
</event>
<event>
 6    2  0.1181843E-002  0.1266484E+03  0.7546771E-02  0.1232515E+00
          1   -1    0    0  503    0 -0.00000000000E+00  0.00000000000E+00  0.71371984507E+03  0.71371984507E+03  0.00000000000E+00 0. -1.
         21   -1    0    0  502  503  0.00000000000E+00 -0.00000000000E+00 -0.76938369886E+02  0.76938369886E+02  0.00000000000E+00 0. -1.
         25    2    1    2    0    0 -0.16932824886E+02  0.11340140566E+02 -0.24555809458E+02  0.12900700517E+03  0.12499800102E+03 0.  0.
          5    1    3    3  501    0  0.26029868949E+02  0.18458048350E+02 -0.63190764279E+02  0.70790792598E+02  0.10000000000E+00 0.  1.
         -5    1    3    3    0  501 -0.42962693835E+02 -0.71179077846E+01  0.38634954821E+02  0.58216212577E+02  0.10000000000E+00 0.  1.
          1    1    1    2  502    0  0.16932824886E+02 -0.11340140566E+02  0.66133728464E+03  0.66165120978E+03  0.00000000000E+00 0. -1.
<mgrwt>
<rscale>  1 0.12664841E+03</rscale>
<asrwt>0</asrwt>
<pdfrwt beam="1">  1       21 0.11836673E-01 0.12664841E+03</pdfrwt>
<pdfrwt beam="2">  1        1 0.10980305E+00 0.12664841E+03</pdfrwt>
<totfact> 0.18563632E+04</totfact>
</mgrwt>
</event>
<event>
 6    2  0.1181843E-002  0.1261105E+03  0.7546771E-02  0.1233344E+00
          1   -1    0    0  503    0 -0.00000000000E+00  0.00000000000E+00  0.14801217977E+03  0.14801217977E+03  0.00000000000E+00 0.  1.
         21   -1    0    0  502  503  0.00000000000E+00 -0.00000000000E+00 -0.55336917301E+02  0.55336917301E+02  0.00000000000E+00 0.  1.
         25    2    1    2    0    0  0.16036941908E+02  0.46986831784E+01  0.18675422366E+02  0.12748581567E+03  0.12499840266E+03 0.  0.
          5    1    3    3  501    0  0.48955753844E+01  0.51906271356E+02  0.47948101275E+02  0.70832606053E+02  0.10000000000E+00 0. -1.
         -5    1    3    3    0  501  0.11141366524E+02 -0.47207588177E+02 -0.29272678909E+02  0.56653209618E+02  0.10000000000E+00 0. -1.
          1    1    1    2  502    0 -0.16036941908E+02 -0.46986831784E+01  0.73999840099E+02  0.75863281395E+02  0.00000000000E+00 0.  1.
<mgrwt>
<rscale>  1 0.12611051E+03</rscale>
<asrwt>0</asrwt>
<pdfrwt beam="1">  1       21 0.85133719E-02 0.12611051E+03</pdfrwt>
<pdfrwt beam="2">  1        1 0.22771105E-01 0.12611051E+03</pdfrwt>
<totfact> 0.24495264E+05</totfact>
</mgrwt>
</event>
<event>
 6    2  0.1181843E-002  0.1259671E+03  0.7546771E-02  0.1233565E+00
          1   -1    0    0  503    0 -0.00000000000E+00  0.00000000000E+00  0.20914019154E+02  0.20914019154E+02  0.00000000000E+00 0. -1.
         21   -1    0    0  502  503  0.00000000000E+00 -0.00000000000E+00 -0.32286968612E+03  0.32286968612E+03  0.00000000000E+00 0. -1.
         25    2    1    2    0    0 -0.10093037336E+02  0.11898410545E+02 -0.30300491426E+03  0.32814585069E+03  0.12499711869E+03 0.  0.
          5    1    3    3  501    0 -0.25441718255E+02 -0.52985674071E+02 -0.15683443198E+03  0.16748675094E+03  0.10000000000E+00 0. -1.
         -5    1    3    3    0  501  0.15348680918E+02  0.64884084617E+02 -0.14617048228E+03  0.16065909975E+03  0.10000000000E+00 0. -1.
          1    1    1    2  502    0  0.10093037336E+02 -0.11898410545E+02  0.10492472967E+01  0.15637854586E+02  0.00000000000E+00 0. -1.
<mgrwt>
<rscale>  1 0.12596714E+03</rscale>
<asrwt>0</asrwt>
<pdfrwt beam="1">  1       21 0.49672258E-01 0.12596714E+03</pdfrwt>
<pdfrwt beam="2">  1        1 0.32175415E-02 0.12596714E+03</pdfrwt>
<totfact> 0.12258420E+05</totfact>
</mgrwt>
</event>
<event>
 6    2  0.1181843E-002  0.1752201E+03  0.7546771E-02  0.1172511E+00
         21   -1    0    0  502  503  0.00000000000E+00  0.00000000000E+00  0.23587688824E+02  0.23587688824E+02  0.00000000000E+00 0.  1.
          2   -1    0    0  503    0 -0.00000000000E+00 -0.00000000000E+00 -0.20179691384E+04  0.20179691384E+04  0.00000000000E+00 0. -1.
         25    2    1    2    0    0 -0.57850819500E+02 -0.10830752484E+03 -0.33880110550E+03  0.38142926798E+03  0.12499944053E+03 0.  0.
          5    1    3    3  501    0  0.39603887507E+02 -0.37201711363E+02 -0.11474212528E+03  0.12695747535E+03  0.10000000000E+00 0. -1.
         -5    1    3    3    0  501 -0.97454707008E+02 -0.71105813480E+02 -0.22405898022E+03  0.25447179263E+03  0.10000000000E+00 0. -1.
          2    1    1    2  502    0  0.57850819500E+02  0.10830752484E+03 -0.16555803441E+04  0.16601275592E+04  0.00000000000E+00 0. -1.
<mgrwt>
<rscale>  1 0.17522014E+03</rscale>
<asrwt>0</asrwt>
<pdfrwt beam="1">  1       21 0.36288743E-02 0.17522014E+03</pdfrwt>
<pdfrwt beam="2">  1        2 0.31045687E+00 0.17522014E+03</pdfrwt>
<totfact> 0.43685342E+04</totfact>
</mgrwt>
</event>
<event>
 6    2  0.1181843E-002  0.1265391E+03  0.7546771E-02  0.1232683E+00
         21   -1    0    0  502  503  0.00000000000E+00  0.00000000000E+00  0.50630532621E+03  0.50630532621E+03  0.00000000000E+00 0. -1.
          3   -1    0    0  503    0 -0.00000000000E+00 -0.00000000000E+00 -0.43291568436E+02  0.43291568436E+02  0.00000000000E+00 0.  1.
         25    2    1    2    0    0  0.49786483291E+01 -0.19194471927E+02  0.49557374326E+03  0.51147383932E+03  0.12497575209E+03 0.  0.
          5    1    3    3  501    0  0.35438307492E+02  0.21380613731E+02  0.59621340133E+02  0.72579049875E+02  0.10000000000E+00 0. -1.
         -5    1    3    3    0  501 -0.30459659163E+02 -0.40575085658E+02  0.43595240313E+03  0.43889478945E+03  0.10000000000E+00 0. -1.
          3    1    1    2  502    0 -0.49786483291E+01  0.19194471927E+02 -0.32559985490E+02  0.38123055319E+02  0.00000000000E+00 0.  1.
<mgrwt>
<rscale>  1 0.12653914E+03</rscale>
<asrwt>0</asrwt>
<pdfrwt beam="1">  1       21 0.77893123E-01 0.12653914E+03</pdfrwt>
<pdfrwt beam="2">  1        3 0.66602417E-02 0.12653914E+03</pdfrwt>
<totfact> 0.10184973E+04</totfact>
</mgrwt>
</event>
<event>
 6    2  0.1181843E-002  0.1694107E+03  0.7546771E-02  0.1178464E+00
          2   -1    0    0  503    0 -0.00000000000E+00  0.00000000000E+00  0.36235037302E+03  0.36235037302E+03  0.00000000000E+00 0.  1.
         21   -1    0    0  502  503  0.00000000000E+00 -0.00000000000E+00 -0.57782753672E+02  0.57782753672E+02  0.00000000000E+00 0.  1.
         25    2    1    2    0    0 -0.90584184082E+02 -0.69757476328E+02  0.14013209252E+03  0.21985671173E+03  0.12501348098E+03 0.  0.
          5    1    3    3  501    0 -0.63050164001E+02 -0.52742093256E+02  0.16140003974E+03  0.18112712224E+03  0.10000000000E+00 0. -1.
         -5    1    3    3    0  501 -0.27534020081E+02 -0.17015383073E+02 -0.21267947220E+02  0.38729589487E+02  0.10000000000E+00 0. -1.
          2    1    1    2  502    0  0.90584184082E+02  0.69757476328E+02  0.16443552683E+03  0.20027641497E+03  0.00000000000E+00 0.  1.
<mgrwt>
<rscale>  1 0.16941066E+03</rscale>
<asrwt>0</asrwt>
<pdfrwt beam="1">  1       21 0.88896546E-02 0.16941066E+03</pdfrwt>
<pdfrwt beam="2">  1        2 0.55746210E-01 0.16941066E+03</pdfrwt>
<totfact> 0.11027694E+05</totfact>
</mgrwt>
</event>
<event>
 6    2  0.1181843E-002  0.1312965E+03  0.7546771E-02  0.1225545E+00
          1   -1    0    0  503    0 -0.00000000000E+00  0.00000000000E+00  0.12023561071E+03  0.12023561071E+03  0.00000000000E+00 0.  1.
         21   -1    0    0  502  503  0.00000000000E+00 -0.00000000000E+00 -0.12691623521E+03  0.12691623521E+03  0.00000000000E+00 0. -1.
         25    2    1    2    0    0 -0.32933629567E+02 -0.23075153388E+02 -0.86877879935E+02  0.15743737418E+03  0.12498669572E+03 0.  0.
          5    1    3    3  501    0 -0.35637194950E+02 -0.52412708096E+02  0.23976638695E+01  0.63426023255E+02  0.10000000000E+00 0.  1.
         -5    1    3    3    0  501  0.27035653831E+01  0.29337554708E+02 -0.89275543805E+02  0.94011350930E+02  0.10000000000E+00 0.  1.
          1    1    1    2  502    0  0.32933629567E+02  0.23075153388E+02  0.80197255433E+02  0.89714471738E+02  0.00000000000E+00 0.  1.
<mgrwt>
<rscale>  1 0.13129646E+03</rscale>
<asrwt>0</asrwt>
<pdfrwt beam="1">  1       21 0.19525575E-01 0.13129646E+03</pdfrwt>
<pdfrwt beam="2">  1        1 0.18497786E-01 0.13129646E+03</pdfrwt>
<totfact> 0.72680795E+04</totfact>
</mgrwt>
</event>
<event>
 6    2  0.1181843E-002  0.1403403E+03  0.7546771E-02  0.1212872E+00
         21   -1    0    0  502  503  0.00000000000E+00  0.00000000000E+00  0.22865072574E+03  0.22865072574E+03  0.00000000000E+00 0. -1.
          2   -1    0    0  503    0 -0.00000000000E+00 -0.00000000000E+00 -0.25627185770E+04  0.25627185770E+04  0.00000000000E+00 0. -1.
         25    2    1    2    0    0  0.35589510981E+02  0.52951585384E+02  0.20667811339E+03  0.24982242327E+03  0.12499966770E+03 0.  0.
          5    1    3    3  501    0  0.82485116888E+02  0.32972465579E+02  0.14159960317E+03  0.16715691913E+03  0.10000000000E+00 0.  1.
         -5    1    3    3    0  501 -0.46895605907E+02  0.19979119806E+02  0.65078510219E+02  0.82665504136E+02  0.10000000000E+00 0.  1.
          2    1    1    2  502    0 -0.35589510981E+02 -0.52951585384E+02 -0.25407459647E+04  0.25415468795E+04  0.00000000000E+00 0. -1.
<mgrwt>
<rscale>  1 0.14034030E+03</rscale>
<asrwt>0</asrwt>
<pdfrwt beam="1">  1       21 0.35177034E-01 0.14034030E+03</pdfrwt>
<pdfrwt beam="2">  1        2 0.39426441E+00 0.14034030E+03</pdfrwt>
<totfact> 0.39843098E+02</totfact>
</mgrwt>
</event>
<event>
 6    2  0.1181843E-002  0.1429795E+03  0.7546771E-02  0.1209375E+00
         21   -1    0    0  502  503  0.00000000000E+00  0.00000000000E+00  0.87424941019E+02  0.87424941019E+02  0.00000000000E+00 0. -1.
          1   -1    0    0  503    0 -0.00000000000E+00 -0.00000000000E+00 -0.22951157258E+03  0.22951157258E+03  0.00000000000E+00 0. -1.
         25    2    1    2    0    0 -0.33911254043E+02  0.60564992766E+02 -0.18614707145E+03  0.23472085899E+03  0.12500023176E+03 0.  0.
          5    1    3    3  501    0  0.31658412527E+02 -0.10132699230E+02 -0.11409148872E+02  0.35144065721E+02  0.10000000000E+00 0. -1.
         -5    1    3    3    0  501 -0.65569666570E+02  0.70697691996E+02 -0.17473792257E+03  0.19957679327E+03  0.10000000000E+00 0. -1.
          1    1    1    2  502    0  0.33911254043E+02 -0.60564992766E+02  0.44060439884E+02  0.82215654606E+02  0.00000000000E+00 0. -1.
<mgrwt>
<rscale>  1 0.14297954E+03</rscale>
<asrwt>0</asrwt>
<pdfrwt beam="1">  1       21 0.13449991E-01 0.14297954E+03</pdfrwt>
<pdfrwt beam="2">  1        1 0.35309472E-01 0.14297954E+03</pdfrwt>
<totfact> 0.63708913E+04</totfact>
</mgrwt>
</event>
<event>
 6    2  0.1181843E-002  0.1314663E+03  0.7546771E-02  0.1225296E+00
         21   -1    0    0  502  503  0.00000000000E+00  0.00000000000E+00  0.14246560405E+02  0.14246560405E+02  0.00000000000E+00 0.  1.
          1   -1    0    0  503    0 -0.00000000000E+00 -0.00000000000E+00 -0.18790396991E+04  0.18790396991E+04  0.00000000000E+00 0.  1.
         25    2    1    2    0    0 -0.34979419023E+02 -0.20864922747E+02 -0.29503798396E+03  0.32300279765E+03  0.12499796220E+03 0.  0.
          5    1    3    3  501    0 -0.66665815087E+02  0.27543534615E+02 -0.13935291153E+03  0.15691469387E+03  0.10000000000E+00 0. -1.
         -5    1    3    3    0  501  0.31686396064E+02 -0.48408457362E+02 -0.15568507243E+03  0.16608810378E+03  0.10000000000E+00 0. -1.
          1    1    1    2  502    0  0.34979419023E+02  0.20864922747E+02 -0.15697551547E+04  0.15702834618E+04  0.00000000000E+00 0.  1.
<mgrwt>
<rscale>  1 0.13146633E+03</rscale>
<asrwt>0</asrwt>
<pdfrwt beam="1">  1       21 0.21917785E-02 0.13146633E+03</pdfrwt>
<pdfrwt beam="2">  1        1 0.28908303E+00 0.13146633E+03</pdfrwt>
<totfact> 0.49518076E+04</totfact>
</mgrwt>
</event>
<event>
 6    2  0.1181843E-002  0.1289334E+03  0.7546771E-02  0.1229047E+00
          1   -1    0    0  503    0 -0.00000000000E+00  0.00000000000E+00  0.12642694139E+03  0.12642694139E+03  0.00000000000E+00 0. -1.
         21   -1    0    0  502  503  0.00000000000E+00 -0.00000000000E+00 -0.24396407778E+04  0.24396407778E+04  0.00000000000E+00 0.  1.
         25    2    1    2    0    0 -0.28504872191E+02 -0.13643967422E+02 -0.24359340447E+04  0.24393438655E+04  0.12500055190E+03 0.  0.
          5    1    3    3  501    0 -0.69442942489E+02 -0.13394361871E+02 -0.86832764797E+03  0.87120298749E+03  0.10000000000E+00 0.  1.
         -5    1    3    3    0  501  0.40938070298E+02 -0.24960555102E+00 -0.15676063968E+04  0.15681408780E+04  0.10000000000E+00 0.  1.
          1    1    1    2  502    0  0.28504872191E+02  0.13643967422E+02  0.12272020831E+03  0.12672385377E+03  0.00000000000E+00 0. -1.
<mgrwt>
<rscale>  1 0.12893341E+03</rscale>
<asrwt>0</asrwt>
<pdfrwt beam="1">  1       21 0.37532935E+00 0.12893341E+03</pdfrwt>
<pdfrwt beam="2">  1        1 0.19450299E-01 0.12893341E+03</pdfrwt>
<totfact> 0.39307725E+01</totfact>
</mgrwt>
</event>
<event>
 6    2  0.1181843E-002  0.1341860E+03  0.7546771E-02  0.1221373E+00
         21   -1    0    0  502  503  0.00000000000E+00  0.00000000000E+00  0.58293486800E+02  0.58293486800E+02  0.00000000000E+00 0.  1.
          1   -1    0    0  503    0 -0.00000000000E+00 -0.00000000000E+00 -0.29061650290E+03  0.29061650290E+03  0.00000000000E+00 0. -1.
         25    2    1    2    0    0 -0.47939646805E+02 -0.91038556887E+01 -0.25727691344E+02  0.13663017875E+03  0.12499920688E+03 0.  0.
          5    1    3    3  501    0 -0.84342423490E+02  0.10591250787E+02 -0.38497104394E+02  0.93315893823E+02  0.10000000000E+00 0. -1.
         -5    1    3    3    0  501  0.36402776685E+02 -0.19695106475E+02  0.12769413050E+02  0.43314284931E+02  0.10000000000E+00 0. -1.
          1    1    1    2  502    0  0.47939646805E+02  0.91038556887E+01 -0.20659532475E+03  0.21227981094E+03  0.00000000000E+00 0. -1.
<mgrwt>
<rscale>  1 0.13418603E+03</rscale>
<asrwt>0</asrwt>
<pdfrwt beam="1">  1       21 0.89682288E-02 0.13418603E+03</pdfrwt>
<pdfrwt beam="2">  1        1 0.44710231E-01 0.13418603E+03</pdfrwt>
<totfact> 0.97090752E+04</totfact>
</mgrwt>
</event>
<event>
 6    2  0.1181843E-002  0.1324759E+03  0.7546771E-02  0.1223828E+00
          1   -1    0    0  503    0 -0.00000000000E+00  0.00000000000E+00  0.53597484130E+02  0.53597484130E+02  0.00000000000E+00 0. -1.
         21   -1    0    0  502  503  0.00000000000E+00 -0.00000000000E+00 -0.16184405374E+03  0.16184405374E+03  0.00000000000E+00 0. -1.
         25    2    1    2    0    0  0.30273796266E+02 -0.31739560798E+02 -0.10902838313E+03  0.17157225827E+03  0.12500379603E+03 0.  0.
          5    1    3    3  501    0  0.72179924487E+02  0.10541217449E+02 -0.60242003359E+02  0.94605326134E+02  0.10000000000E+00 0. -1.
         -5    1    3    3    0  501 -0.41906128221E+02 -0.42280778247E+02 -0.48786379774E+02  0.76966932141E+02  0.10000000000E+00 0. -1.
          1    1    1    2  502    0 -0.30273796266E+02  0.31739560798E+02  0.78181352050E+00  0.43869279597E+02  0.00000000000E+00 0. -1.
<mgrwt>
<rscale>  1 0.13247585E+03</rscale>
<asrwt>0</asrwt>
<pdfrwt beam="1">  1       21 0.24899085E-01 0.13247585E+03</pdfrwt>
<pdfrwt beam="2">  1        1 0.82457669E-02 0.13247585E+03</pdfrwt>
<totfact> 0.13287722E+05</totfact>
</mgrwt>
</event>
<event>
 6    2  0.1181843E-002  0.1421895E+03  0.7546771E-02  0.1210413E+00
          2   -1    0    0  503    0 -0.00000000000E+00  0.00000000000E+00  0.11436523446E+04  0.11436523446E+04  0.00000000000E+00 0.  1.
         21   -1    0    0  502  503  0.00000000000E+00 -0.00000000000E+00 -0.10899532886E+03  0.10899532886E+03  0.00000000000E+00 0.  1.
         25    2    1    2    0    0  0.59586170650E+02 -0.32285419992E+02 -0.61125571055E+02  0.15477138826E+03  0.12499994844E+03 0.  0.
          5    1    3    3  501    0  0.19572340046E+02  0.40681705048E+02 -0.55245651166E+02  0.71345424473E+02  0.10000000000E+00 0.  1.
         -5    1    3    3    0  501  0.40013830604E+02 -0.72967125040E+02 -0.58799198887E+01  0.83425963789E+02  0.10000000000E+00 0.  1.
          2    1    1    2  502    0 -0.59586170650E+02  0.32285419992E+02  0.10957825868E+04  0.10978762852E+04  0.00000000000E+00 0.  1.
<mgrwt>
<rscale>  1 0.14218948E+03</rscale>
<asrwt>0</asrwt>
<pdfrwt beam="1">  1       21 0.16768513E-01 0.14218948E+03</pdfrwt>
<pdfrwt beam="2">  1        2 0.17594651E+00 0.14218948E+03</pdfrwt>
<totfact> 0.89554143E+03</totfact>
</mgrwt>
</event>
<event>
 6    2  0.1181843E-002  0.1265053E+03  0.7546771E-02  0.1232735E+00
         21   -1    0    0  502  503  0.00000000000E+00  0.00000000000E+00  0.23611434701E+03  0.23611434701E+03  0.00000000000E+00 0. -1.
          2   -1    0    0  503    0 -0.00000000000E+00 -0.00000000000E+00 -0.13937180407E+04  0.13937180407E+04  0.00000000000E+00 0. -1.
         25    2    1    2    0    0 -0.12261131779E+02  0.15014850918E+02  0.21909646443E+03  0.25299575744E+03  0.12501124532E+03 0.  0.
          5    1    3    3  501    0 -0.52075308591E+02  0.12187234329E+02  0.33393360142E+02  0.63051510268E+02  0.10000000000E+00 0.  1.
         -5    1    3    3    0  501  0.39814176813E+02  0.28276165890E+01  0.18570310429E+03  0.18994424717E+03  0.10000000000E+00 0.  1.
          2    1    1    2  502    0  0.12261131779E+02 -0.15014850918E+02 -0.13767001581E+04  0.13768366302E+04  0.00000000000E+00 0. -1.
<mgrwt>
<rscale>  1 0.12650531E+03</rscale>
<asrwt>0</asrwt>
<pdfrwt beam="1">  1       21 0.36325284E-01 0.12650531E+03</pdfrwt>
<pdfrwt beam="2">  1        2 0.21441816E+00 0.12650531E+03</pdfrwt>
<totfact> 0.15305065E+03</totfact>
</mgrwt>
</event>
<event>
 6    2  0.1181843E-002  0.1295280E+03  0.7546771E-02  0.1228158E+00
         21   -1    0    0  502  503  0.00000000000E+00  0.00000000000E+00  0.18596209442E+02  0.18596209442E+02  0.00000000000E+00 0. -1.
          2   -1    0    0  503    0 -0.00000000000E+00 -0.00000000000E+00 -0.51578386307E+03  0.51578386307E+03  0.00000000000E+00 0. -1.
         25    2    1    2    0    0 -0.30262667124E+02 -0.15364621379E+02 -0.22135640609E+03  0.25646861587E+03  0.12500236718E+03 0.  0.
          5    1    3    3  501    0  0.35830769000E+02  0.76953840236E+01 -0.16892469898E+02  0.40353791416E+02  0.10000000000E+00 0. -1.
         -5    1    3    3    0  501 -0.66093436123E+02 -0.23060005403E+02 -0.20446393619E+03  0.21611482446E+03  0.10000000000E+00 0. -1.
          2    1    1    2  502    0  0.30262667124E+02  0.15364621379E+02 -0.27583124755E+03  0.27791145664E+03  0.00000000000E+00 0. -1.
<mgrwt>
<rscale>  1 0.12952796E+03</rscale>
<asrwt>0</asrwt>
<pdfrwt beam="1">  1       21 0.28609555E-02 0.12952796E+03</pdfrwt>
<pdfrwt beam="2">  1        2 0.79351358E-01 0.12952796E+03</pdfrwt>
<totfact> 0.50409581E+05</totfact>
</mgrwt>
</event>
<event>
 6    2  0.1181843E-002  0.1432393E+03  0.7546771E-02  0.1209036E+00
          1   -1    0    0  503    0 -0.00000000000E+00  0.00000000000E+00  0.33301960654E+02  0.33301960654E+02  0.00000000000E+00 0.  1.
         21   -1    0    0  502  503  0.00000000000E+00 -0.00000000000E+00 -0.34450066211E+03  0.34450066211E+03  0.00000000000E+00 0.  1.
         25    2    1    2    0    0 -0.68403753700E+02  0.14494537317E+02 -0.19097070723E+03  0.23872014462E+03  0.12501332446E+03 0.  0.
          5    1    3    3  501    0 -0.18819520242E+02  0.43608939629E+02 -0.96053460663E+01  0.48458091489E+02  0.10000000000E+00 0.  1.
         -5    1    3    3    0  501 -0.49584233457E+02 -0.29114402312E+02 -0.18136536116E+03  0.19026205313E+03  0.10000000000E+00 0.  1.
          1    1    1    2  502    0  0.68403753700E+02 -0.14494537317E+02 -0.12022799423E+03  0.13908247815E+03  0.00000000000E+00 0.  1.
<mgrwt>
<rscale>  1 0.14323930E+03</rscale>
<asrwt>0</asrwt>
<pdfrwt beam="1">  1       21 0.53000099E-01 0.14323930E+03</pdfrwt>
<pdfrwt beam="2">  1        1 0.51233788E-02 0.14323930E+03</pdfrwt>
<totfact> 0.56811094E+04</totfact>
</mgrwt>
</event>
<event>
 6    2  0.1181843E-002  0.1472305E+03  0.7546771E-02  0.1203918E+00
          2   -1    0    0  503    0 -0.00000000000E+00  0.00000000000E+00  0.71311092470E+03  0.71311092470E+03  0.00000000000E+00 0. -1.
         21   -1    0    0  502  503  0.00000000000E+00 -0.00000000000E+00 -0.15562989572E+03  0.15562989572E+03  0.00000000000E+00 0.  1.
         25    2    1    2    0    0 -0.56746095171E+02 -0.53230046842E+02 -0.11806906029E+03  0.18872502625E+03  0.12499310113E+03 0.  0.
          5    1    3    3  501    0 -0.41568941283E+02  0.26081763886E+02 -0.43697605441E+01  0.49268043334E+02  0.10000000000E+00 0. -1.
         -5    1    3    3    0  501 -0.15177153889E+02 -0.79311810728E+02 -0.11369929975E+03  0.13945698292E+03  0.10000000000E+00 0. -1.
          2    1    1    2  502    0  0.56746095171E+02  0.53230046842E+02  0.67555008927E+03  0.68001579417E+03  0.00000000000E+00 0. -1.
<mgrwt>
<rscale>  1 0.14723054E+03</rscale>
<asrwt>0</asrwt>
<pdfrwt beam="1">  1       21 0.23943061E-01 0.14723054E+03</pdfrwt>
<pdfrwt beam="2">  1        2 0.10970937E+00 0.14723054E+03</pdfrwt>
<totfact> 0.86228453E+03</totfact>
</mgrwt>
</event>
<event>
 6    2  0.1181843E-002  0.1283902E+03  0.7546771E-02  0.1229864E+00
         21   -1    0    0  502  503  0.00000000000E+00  0.00000000000E+00  0.49198574908E+01  0.49198574908E+01  0.00000000000E+00 0. -1.
          2   -1    0    0  503    0 -0.00000000000E+00 -0.00000000000E+00 -0.14919330519E+04  0.14919330519E+04  0.00000000000E+00 0. -1.
         25    2    1    2    0    0  0.21285706034E+02  0.20278517430E+02 -0.90087793921E+03  0.90998083053E+03  0.12497900239E+03 0.  0.
          5    1    3    3  501    0  0.28780875795E+02 -0.48242866914E+02 -0.30509018999E+03  0.31021886958E+03  0.10000000000E+00 0.  1.
         -5    1    3    3    0  501 -0.74951697616E+01  0.68521384344E+02 -0.59578774922E+03  0.59976196095E+03  0.10000000000E+00 0.  1.
          2    1    1    2  502    0 -0.21285706034E+02 -0.20278517430E+02 -0.58613525520E+03  0.58687207886E+03  0.00000000000E+00 0. -1.
<mgrwt>
<rscale>  1 0.12839023E+03</rscale>
<asrwt>0</asrwt>
<pdfrwt beam="1">  1       21 0.75689999E-03 0.12839023E+03</pdfrwt>
<pdfrwt beam="2">  1        2 0.22952851E+00 0.12839023E+03</pdfrwt>
<totfact> 0.10160187E+06</totfact>
</mgrwt>
</event>
<event>
 6    2  0.1181843E-002  0.1276527E+03  0.7546771E-02  0.1230981E+00
          2   -1    0    0  503    0 -0.00000000000E+00  0.00000000000E+00  0.53406364230E+03  0.53406364230E+03  0.00000000000E+00 0.  1.
         21   -1    0    0  502  503  0.00000000000E+00 -0.00000000000E+00 -0.14761104166E+02  0.14761104166E+02  0.00000000000E+00 0. -1.
         25    2    1    2    0    0  0.53533308269E+01  0.25325275767E+02  0.27532930169E+03  0.30348219442E+03  0.12500076086E+03 0.  0.
          5    1    3    3  501    0  0.14047534017E+02 -0.60943051157E+01 -0.86840960036E+01  0.17603899857E+02  0.10000000000E+00 0.  1.
         -5    1    3    3    0  501 -0.86942031896E+01  0.31419580882E+02  0.28401339769E+03  0.28587829456E+03  0.10000000000E+00 0.  1.
          2    1    1    2  502    0 -0.53533308269E+01 -0.25325275767E+02  0.24397323645E+03  0.24534255205E+03  0.00000000000E+00 0.  1.
<mgrwt>
<rscale>  1 0.12765272E+03</rscale>
<asrwt>0</asrwt>
<pdfrwt beam="1">  1       21 0.22709395E-02 0.12765272E+03</pdfrwt>
<pdfrwt beam="2">  1        2 0.82163622E-01 0.12765272E+03</pdfrwt>
<totfact> 0.70588012E+05</totfact>
</mgrwt>
</event>
<event>
 6    2  0.1181843E-002  0.1391176E+03  0.7546771E-02  0.1214521E+00
          1   -1    0    0  503    0 -0.00000000000E+00  0.00000000000E+00  0.70235196787E+03  0.70235196787E+03  0.00000000000E+00 0.  1.
         21   -1    0    0  502  503  0.00000000000E+00 -0.00000000000E+00 -0.18931449229E+02  0.18931449229E+02  0.00000000000E+00 0.  1.
         25    2    1    2    0    0  0.43720927578E+02 -0.42649249715E+02  0.27361066896E+03  0.30694709127E+03  0.12499296243E+03 0.  0.
          5    1    3    3  501    0 -0.15702905734E+02 -0.45838882737E+02  0.22485184665E+03  0.23001336344E+03  0.10000000000E+00 0. -1.
         -5    1    3    3    0  501  0.59423833312E+02  0.31896330219E+01  0.48758822315E+02  0.76933727830E+02  0.10000000000E+00 0. -1.
          1    1    1    2  502    0 -0.43720927578E+02  0.42649249715E+02  0.40980984968E+03  0.41433632583E+03  0.00000000000E+00 0.  1.
<mgrwt>
<rscale>  1 0.13911764E+03</rscale>
<asrwt>0</asrwt>
<pdfrwt beam="1">  1       21 0.29125312E-02 0.13911764E+03</pdfrwt>
<pdfrwt beam="2">  1        1 0.10805413E+00 0.13911764E+03</pdfrwt>
<totfact> 0.20568406E+05</totfact>
</mgrwt>
</event>
<event>
 6    2  0.1181843E-002  0.1534796E+03  0.7546771E-02  0.1196261E+00
          2   -1    0    0  503    0 -0.00000000000E+00  0.00000000000E+00  0.11889240242E+04  0.11889240242E+04  0.00000000000E+00 0. -1.
         21   -1    0    0  502  503  0.00000000000E+00 -0.00000000000E+00 -0.23543173750E+02  0.23543173750E+02  0.00000000000E+00 0.  1.
         25    2    1    2    0    0 -0.30261558602E+02  0.83762032963E+02  0.25417322796E+03  0.29691754262E+03  0.12499662879E+03 0.  0.
          5    1    3    3  501    0  0.36370455791E+02  0.28249099146E+02  0.16974730472E+03  0.17588342479E+03  0.10000000000E+00 0. -1.
         -5    1    3    3    0  501 -0.66632014393E+02  0.55512933817E+02  0.84425923243E+02  0.12103411783E+03  0.10000000000E+00 0. -1.
          2    1    1    2  502    0  0.30261558602E+02 -0.83762032963E+02  0.91120762249E+03  0.91554965533E+03  0.00000000000E+00 0. -1.
<mgrwt>
<rscale>  1 0.15347963E+03</rscale>
<asrwt>0</asrwt>
<pdfrwt beam="1">  1       21 0.36220277E-02 0.15347963E+03</pdfrwt>
<pdfrwt beam="2">  1        2 0.18291134E+00 0.15347963E+03</pdfrwt>
<totfact> 0.11988263E+05</totfact>
</mgrwt>
</event>
<event>
 6    2  0.1181843E-002  0.1269522E+03  0.7546771E-02  0.1232049E+00
         21   -1    0    0  502  503  0.00000000000E+00  0.00000000000E+00  0.84323977393E+02  0.84323977393E+02  0.00000000000E+00 0. -1.
          1   -1    0    0  503    0 -0.00000000000E+00 -0.00000000000E+00 -0.15245217019E+03  0.15245217019E+03  0.00000000000E+00 0.  1.
         25    2    1    2    0    0  0.66739065796E+01 -0.21153148537E+02  0.34678832697E+02  0.13160352181E+03  0.12499947517E+03 0.  0.
          5    1    3    3  501    0  0.54517008805E+02  0.88583157006E+01  0.48450822184E+02  0.73471533102E+02  0.10000000000E+00 0.  1.
         -5    1    3    3    0  501 -0.47843102225E+02 -0.30011464238E+02 -0.13771989487E+02  0.58131988704E+02  0.10000000000E+00 0.  1.
          1    1    1    2  502    0 -0.66739065796E+01  0.21153148537E+02 -0.10280702550E+03  0.10517262578E+03  0.00000000000E+00 0.  1.
<mgrwt>
<rscale>  1 0.12695222E+03</rscale>
<asrwt>0</asrwt>
<pdfrwt beam="1">  1       21 0.12972920E-01 0.12695222E+03</pdfrwt>
<pdfrwt beam="2">  1        1 0.23454180E-01 0.12695222E+03</pdfrwt>
<totfact> 0.11274511E+05</totfact>
</mgrwt>
</event>
<event>
 6    2  0.1181843E-002  0.1339310E+03  0.7546771E-02  0.1221737E+00
          1   -1    0    0  503    0 -0.00000000000E+00  0.00000000000E+00  0.34160203203E+03  0.34160203203E+03  0.00000000000E+00 0.  1.
         21   -1    0    0  502  503  0.00000000000E+00 -0.00000000000E+00 -0.13677958115E+03  0.13677958115E+03  0.00000000000E+00 0.  1.
         25    2    1    2    0    0 -0.30647090435E+02 -0.37022468156E+02 -0.10166631782E+03  0.16814739096E+03  0.12501039000E+03 0.  0.
          5    1    3    3  501    0  0.38906692969E+02  0.20200437994E+02 -0.34811575523E+02  0.55978962507E+02  0.10000000000E+00 0. -1.
         -5    1    3    3    0  501 -0.69553783404E+02 -0.57222906150E+02 -0.66854742295E+02  0.11216842845E+03  0.10000000000E+00 0. -1.
          1    1    1    2  502    0  0.30647090435E+02  0.37022468156E+02  0.30648876870E+03  0.31023422223E+03  0.00000000000E+00 0.  1.
<mgrwt>
<rscale>  1 0.13393097E+03</rscale>
<asrwt>0</asrwt>
<pdfrwt beam="1">  1       21 0.21043013E-01 0.13393097E+03</pdfrwt>
<pdfrwt beam="2">  1        1 0.52554159E-01 0.13393097E+03</pdfrwt>
<totfact> 0.17200985E+04</totfact>
</mgrwt>
</event>
<event>
 6    2  0.1181843E-002  0.1387299E+03  0.7546771E-02  0.1215048E+00
         21   -1    0    0  502  503  0.00000000000E+00  0.00000000000E+00  0.39006975637E+02  0.39006975637E+02  0.00000000000E+00 0. -1.
          2   -1    0    0  503    0 -0.00000000000E+00 -0.00000000000E+00 -0.11753930651E+04  0.11753930651E+04  0.00000000000E+00 0. -1.
         25    2    1    2    0    0 -0.29977305423E+02 -0.52167827014E+02 -0.87994475926E+02  0.16428333468E+03  0.12500346092E+03 0.  0.
          5    1    3    3  501    0 -0.74100766062E+02 -0.15942501011E+02 -0.73055414846E+02  0.10527198349E+03  0.10000000000E+00 0. -1.
         -5    1    3    3    0  501  0.44123460639E+02 -0.36225326003E+02 -0.14939061080E+02  0.59011351186E+02  0.10000000000E+00 0. -1.
          2    1    1    2  502    0  0.29977305423E+02  0.52167827014E+02 -0.10483916136E+04  0.10501167061E+04  0.00000000000E+00 0. -1.
<mgrwt>
<rscale>  1 0.13872990E+03</rscale>
<asrwt>0</asrwt>
<pdfrwt beam="1">  1       21 0.60010729E-02 0.13872990E+03</pdfrwt>
<pdfrwt beam="2">  1        2 0.18082971E+00 0.13872990E+03</pdfrwt>
<totfact> 0.52272860E+04</totfact>
</mgrwt>
</event>
<event>
 6    2  0.1181843E-002  0.1287218E+03  0.7546771E-02  0.1229365E+00
         21   -1    0    0  502  503  0.00000000000E+00  0.00000000000E+00  0.19340102709E+02  0.19340102709E+02  0.00000000000E+00 0. -1.
          2   -1    0    0  503    0 -0.00000000000E+00 -0.00000000000E+00 -0.41166917597E+03  0.41166917597E+03  0.00000000000E+00 0. -1.
         25    2    1    2    0    0 -0.18021456123E+02 -0.24910161915E+02 -0.21154880356E+03  0.24763317620E+03  0.12499601842E+03 0.  0.
          5    1    3    3  501    0 -0.62101585956E+02 -0.47590405380E+02 -0.14348581644E+03  0.16343085138E+03  0.10000000000E+00 0. -1.
         -5    1    3    3    0  501  0.44080129834E+02  0.22680243465E+02 -0.68062987118E+02  0.84202324821E+02  0.10000000000E+00 0. -1.
          2    1    1    2  502    0  0.18021456123E+02  0.24910161915E+02 -0.18078026969E+03  0.18337610247E+03  0.00000000000E+00 0. -1.
<mgrwt>
<rscale>  1 0.12872177E+03</rscale>
<asrwt>0</asrwt>
<pdfrwt beam="1">  1       21 0.29754007E-02 0.12872177E+03</pdfrwt>
<pdfrwt beam="2">  1        2 0.63333714E-01 0.12872177E+03</pdfrwt>
<totfact> 0.60332421E+05</totfact>
</mgrwt>
</event>
<event>
 6    2  0.1181843E-002  0.1267105E+03  0.7546771E-02  0.1232420E+00
         21   -1    0    0  502  503  0.00000000000E+00  0.00000000000E+00  0.28782091199E+03  0.28782091199E+03  0.00000000000E+00 0. -1.
          2   -1    0    0  503    0 -0.00000000000E+00 -0.00000000000E+00 -0.11689704286E+04  0.11689704286E+04  0.00000000000E+00 0.  1.
         25    2    1    2    0    0  0.18622167433E+02 -0.91934795345E+01  0.27377724052E+03  0.30167787450E+03  0.12499702935E+03 0.  0.
          5    1    3    3  501    0  0.34053090879E+02  0.41901815839E+02  0.57357563940E+02  0.78773569870E+02  0.10000000000E+00 0.  1.
         -5    1    3    3    0  501 -0.15430923445E+02 -0.51095295373E+02  0.21641967658E+03  0.22290430463E+03  0.10000000000E+00 0.  1.
          2    1    1    2  502    0 -0.18622167433E+02  0.91934795345E+01 -0.11549267571E+04  0.11551134661E+04  0.00000000000E+00 0.  1.
<mgrwt>
<rscale>  1 0.12671055E+03</rscale>
<asrwt>0</asrwt>
<pdfrwt beam="1">  1       21 0.44280141E-01 0.12671055E+03</pdfrwt>
<pdfrwt beam="2">  1        2 0.17984160E+00 0.12671055E+03</pdfrwt>
<totfact> 0.13625221E+03</totfact>
</mgrwt>
</event>
<event>
 6    2  0.1181843E-002  0.1259050E+03  0.7546771E-02  0.1233662E+00
         21   -1    0    0  502  503  0.00000000000E+00  0.00000000000E+00  0.46220457786E+02  0.46220457786E+02  0.00000000000E+00 0. -1.
          4   -1    0    0  503    0 -0.00000000000E+00 -0.00000000000E+00 -0.19227562320E+03  0.19227562320E+03  0.00000000000E+00 0. -1.
         25    2    1    2    0    0 -0.71990706875E+01  0.13170652452E+02 -0.41056537041E+02  0.13243004182E+03  0.12500713594E+03 0.  0.
          5    1    3    3  501    0 -0.30952658826E+02  0.49364303481E+02 -0.61357050641E+02  0.84614414907E+02  0.10000000000E+00 0. -1.
         -5    1    3    3    0  501  0.23753588139E+02 -0.36193651029E+02  0.20300513601E+02  0.47815626910E+02  0.10000000000E+00 0. -1.
          4    1    1    2  502    0  0.71990706875E+01 -0.13170652452E+02 -0.10499862837E+03  0.10606603917E+03  0.00000000000E+00 0. -1.
<mgrwt>
<rscale>  1 0.12590503E+03</rscale>
<asrwt>0</asrwt>
<pdfrwt beam="1">  1       21 0.71108397E-02 0.12590503E+03</pdfrwt>
<pdfrwt beam="2">  1        4 0.29580865E-01 0.12590503E+03</pdfrwt>
<totfact> 0.64234476E+04</totfact>
</mgrwt>
</event>
<event>
 6    2  0.1181843E-002  0.1366100E+03  0.7546771E-02  0.1217965E+00
         21   -1    0    0  502  503  0.00000000000E+00  0.00000000000E+00  0.42314373241E+02  0.42314373241E+02  0.00000000000E+00 0. -1.
          2   -1    0    0  503    0 -0.00000000000E+00 -0.00000000000E+00 -0.26870597380E+03  0.26870597380E+03  0.00000000000E+00 0. -1.
         25    2    1    2    0    0  0.19882675973E+02  0.51393249437E+02 -0.89141349863E+02  0.16312099543E+03  0.12500276798E+03 0.  0.
          5    1    3    3  501    0  0.16493067515E+02  0.66917024563E+02  0.36140963530E+01  0.69014354629E+02  0.10000000000E+00 0.  1.
         -5    1    3    3    0  501  0.33896084581E+01 -0.15523775126E+02 -0.92755446216E+02  0.94106640798E+02  0.10000000000E+00 0.  1.
          2    1    1    2  502    0 -0.19882675973E+02 -0.51393249437E+02 -0.13725025069E+03  0.14789935161E+03  0.00000000000E+00 0. -1.
<mgrwt>
<rscale>  1 0.13660995E+03</rscale>
<asrwt>0</asrwt>
<pdfrwt beam="1">  1       21 0.65099036E-02 0.13660995E+03</pdfrwt>
<pdfrwt beam="2">  1        2 0.41339380E-01 0.13660995E+03</pdfrwt>
<totfact> 0.25746671E+05</totfact>
</mgrwt>
</event>
<event>
 6    2  0.1181843E-002  0.1341781E+03  0.7546771E-02  0.1221385E+00
          1   -1    0    0  503    0 -0.00000000000E+00  0.00000000000E+00  0.72003020198E+03  0.72003020198E+03  0.00000000000E+00 0.  1.
         21   -1    0    0  502  503  0.00000000000E+00 -0.00000000000E+00 -0.68120302818E+03  0.68120302818E+03  0.00000000000E+00 0.  1.
         25    2    1    2    0    0  0.27696828034E+02  0.40149336219E+02 -0.67375389591E+03  0.68698476892E+03  0.12499870799E+03 0.  0.
          5    1    3    3  501    0  0.51291112182E+02  0.47331936075E+02 -0.64638718280E+03  0.65014420742E+03  0.10000000000E+00 0. -1.
         -5    1    3    3    0  501 -0.23594284147E+02 -0.71825998567E+01 -0.27366713111E+02  0.36840561500E+02  0.10000000000E+00 0. -1.
          1    1    1    2  502    0 -0.27696828034E+02 -0.40149336219E+02  0.71258106971E+03  0.71424846124E+03  0.00000000000E+00 0.  1.
<mgrwt>
<rscale>  1 0.13417809E+03</rscale>
<asrwt>0</asrwt>
<pdfrwt beam="1">  1       21 0.10480047E+00 0.13417809E+03</pdfrwt>
<pdfrwt beam="2">  1        1 0.11077388E+00 0.13417809E+03</pdfrwt>
<totfact> 0.23306208E+02</totfact>
</mgrwt>
</event>
<event>
 6    2  0.1181843E-002  0.1484398E+03  0.7546771E-02  0.1202403E+00
          2   -1    0    0  503    0 -0.00000000000E+00  0.00000000000E+00  0.18345774865E+04  0.18345774865E+04  0.00000000000E+00 0. -1.
         21   -1    0    0  502  503  0.00000000000E+00 -0.00000000000E+00 -0.10090240383E+02  0.10090240383E+02  0.00000000000E+00 0. -1.
         25    2    1    2    0    0  0.78445759564E+02 -0.16010233501E+02  0.61998245464E+03  0.63750499657E+03  0.12499724724E+03 0.  0.
          5    1    3    3  501    0  0.53803344880E+02  0.30271131122E+02  0.12161400404E+03  0.13638591305E+03  0.10000000000E+00 0. -1.
         -5    1    3    3    0  501  0.24642414684E+02 -0.46281364623E+02  0.49836845060E+03  0.50111908352E+03  0.10000000000E+00 0. -1.
          2    1    1    2  502    0 -0.78445759564E+02  0.16010233501E+02  0.12045047915E+04  0.12071627303E+04  0.00000000000E+00 0. -1.
<mgrwt>
<rscale>  1 0.14843981E+03</rscale>
<asrwt>0</asrwt>
<pdfrwt beam="1">  1       21 0.15523461E-02 0.14843981E+03</pdfrwt>
<pdfrwt beam="2">  1        2 0.28224242E+00 0.14843981E+03</pdfrwt>
<totfact> 0.21808661E+05</totfact>
</mgrwt>
</event>
<event>
 6    2  0.1181843E-002  0.1259774E+03  0.7546771E-02  0.1233550E+00
          2   -1    0    0  503    0 -0.00000000000E+00  0.00000000000E+00  0.35117941636E+02  0.35117941636E+02  0.00000000000E+00 0.  1.
         21   -1    0    0  502  503  0.00000000000E+00 -0.00000000000E+00 -0.49958097412E+03  0.49958097412E+03  0.00000000000E+00 0. -1.
         25    2    1    2    0    0 -0.14868105609E+02  0.49200033879E+01 -0.48934382105E+03  0.50529958519E+03  0.12500011438E+03 0.  0.
          5    1    3    3  501    0  0.13208030127E+02  0.59225830699E+02 -0.17941344348E+03  0.18939731989E+03  0.10000000000E+00 0.  1.
         -5    1    3    3    0  501 -0.28076135736E+02 -0.54305827311E+02 -0.30993037758E+03  0.31590226530E+03  0.10000000000E+00 0.  1.
          2    1    1    2  502    0  0.14868105609E+02 -0.49200033879E+01  0.24880788570E+02  0.29399330563E+02  0.00000000000E+00 0.  1.
<mgrwt>
<rscale>  1 0.12597736E+03</rscale>
<asrwt>0</asrwt>
<pdfrwt beam="1">  1       21 0.76858609E-01 0.12597736E+03</pdfrwt>
<pdfrwt beam="2">  1        2 0.54027604E-02 0.12597736E+03</pdfrwt>
<totfact> 0.25651654E+04</totfact>
</mgrwt>
</event>
<event>
 6    2  0.1181843E-002  0.1287577E+03  0.7546771E-02  0.1229311E+00
         21   -1    0    0  502  503  0.00000000000E+00  0.00000000000E+00  0.15215685037E+02  0.15215685037E+02  0.00000000000E+00 0.  1.
          2   -1    0    0  503    0 -0.00000000000E+00 -0.00000000000E+00 -0.10634909060E+04  0.10634909060E+04  0.00000000000E+00 0. -1.
         25    2    1    2    0    0  0.12284012040E+02 -0.28500642184E+02 -0.26308384058E+03  0.29290210684E+03  0.12496140788E+03 0.  0.
          5    1    3    3  501    0 -0.44668738226E+02  0.17853370165E+02 -0.15452693356E+03  0.16184134885E+03  0.10000000000E+00 0. -1.
         -5    1    3    3    0  501  0.56952750266E+02 -0.46354012349E+02 -0.10855690702E+03  0.13106075799E+03  0.10000000000E+00 0. -1.
          2    1    1    2  502    0 -0.12284012040E+02  0.28500642184E+02 -0.78519138038E+03  0.78580448419E+03  0.00000000000E+00 0. -1.
<mgrwt>
<rscale>  1 0.12875767E+03</rscale>
<asrwt>0</asrwt>
<pdfrwt beam="1">  1       21 0.23408737E-02 0.12875767E+03</pdfrwt>
<pdfrwt beam="2">  1        2 0.16361405E+00 0.12875767E+03</pdfrwt>
<totfact> 0.28817042E+05</totfact>
</mgrwt>
</event>
<event>
 6    2  0.1181843E-002  0.1447593E+03  0.7546771E-02  0.1207065E+00
          2   -1    0    0  503    0 -0.00000000000E+00  0.00000000000E+00  0.31943443401E+04  0.31943443401E+04  0.00000000000E+00 0. -1.
         21   -1    0    0  502  503  0.00000000000E+00 -0.00000000000E+00 -0.10294035501E+03  0.10294035501E+03  0.00000000000E+00 0.  1.
         25    2    1    2    0    0 -0.58710268323E+02  0.43383455010E+02 -0.51414394129E+02  0.15361862115E+03  0.12500488416E+03 0.  0.
          5    1    3    3  501    0 -0.47056228277E+02 -0.39230632636E+02 -0.24004968472E+02  0.65799541549E+02  0.10000000000E+00 0.  1.
         -5    1    3    3    0  501 -0.11654040046E+02  0.82614087647E+02 -0.27409425656E+02  0.87819079600E+02  0.10000000000E+00 0.  1.
          2    1    1    2  502    0  0.58710268323E+02 -0.43383455010E+02  0.31428183792E+04  0.31436660740E+04  0.00000000000E+00 0. -1.
<mgrwt>
<rscale>  1 0.14475925E+03</rscale>
<asrwt>0</asrwt>
<pdfrwt beam="1">  1       21 0.15836980E-01 0.14475925E+03</pdfrwt>
<pdfrwt beam="2">  1        2 0.49143751E+00 0.14475925E+03</pdfrwt>
<totfact> 0.78222592E+02</totfact>
</mgrwt>
</event>
<event>
 6    2  0.1181843E-002  0.1260088E+03  0.7546771E-02  0.1233501E+00
          1   -1    0    0  503    0 -0.00000000000E+00  0.00000000000E+00  0.22255994793E+04  0.22255994793E+04  0.00000000000E+00 0. -1.
         21   -1    0    0  502  503  0.00000000000E+00 -0.00000000000E+00 -0.22647810615E+01  0.22647810615E+01  0.00000000000E+00 0. -1.
         25    2    1    2    0    0  0.11109910163E+02 -0.11435565042E+02  0.19899052235E+04  0.19938909244E+04  0.12499607093E+03 0.  0.
          5    1    3    3  501    0  0.64122874568E+02 -0.12689101898E+02  0.14261561788E+04  0.14276533937E+04  0.10000000000E+00 0.  1.
         -5    1    3    3    0  501 -0.53012964405E+02  0.12535368558E+01  0.56374904473E+03  0.56623753071E+03  0.10000000000E+00 0.  1.
          1    1    1    2  502    0 -0.11109910163E+02  0.11435565042E+02  0.23342947471E+03  0.23397333590E+03  0.00000000000E+00 0. -1.
<mgrwt>
<rscale>  1 0.12600881E+03</rscale>
<asrwt>0</asrwt>
<pdfrwt beam="1">  1       21 0.34842964E-03 0.12600881E+03</pdfrwt>
<pdfrwt beam="2">  1        1 0.34239817E+00 0.12600881E+03</pdfrwt>
<totfact> 0.53598226E+05</totfact>
</mgrwt>
</event>
<event>
 6    2  0.1181843E-002  0.2260427E+03  0.7546771E-02  0.1129456E+00
         21   -1    0    0  502  503  0.00000000000E+00  0.00000000000E+00  0.13438972896E+03  0.13438972896E+03  0.00000000000E+00 0.  1.
          2   -1    0    0  503    0 -0.00000000000E+00 -0.00000000000E+00 -0.63277763415E+03  0.63277763415E+03  0.00000000000E+00 0. -1.
         25    2    1    2    0    0 -0.75546319618E+02 -0.17251914223E+03  0.87251473773E+01  0.22621103500E+03  0.12500081326E+03 0.  0.
          5    1    3    3  501    0 -0.10890346240E+03 -0.13633724251E+03  0.20259515446E+02  0.17566520937E+03  0.10000000000E+00 0.  1.
         -5    1    3    3    0  501  0.33357142780E+02 -0.36181899717E+02 -0.11534368069E+02  0.50545825627E+02  0.10000000000E+00 0.  1.
          2    1    1    2  502    0  0.75546319618E+02  0.17251914223E+03 -0.50711305256E+03  0.54095632811E+03  0.00000000000E+00 0. -1.
<mgrwt>
<rscale>  1 0.22604270E+03</rscale>
<asrwt>0</asrwt>
<pdfrwt beam="1">  1       21 0.20675343E-01 0.22604270E+03</pdfrwt>
<pdfrwt beam="2">  1        2 0.97350406E-01 0.22604270E+03</pdfrwt>
<totfact> 0.12836955E+04</totfact>
</mgrwt>
</event>
<event>
 6    2  0.1181843E-002  0.1298823E+03  0.7546771E-02  0.1227630E+00
         21   -1    0    0  502  503  0.00000000000E+00  0.00000000000E+00  0.14404550370E+03  0.14404550370E+03  0.00000000000E+00 0. -1.
          1   -1    0    0  503    0 -0.00000000000E+00 -0.00000000000E+00 -0.24110642952E+04  0.24110642952E+04  0.00000000000E+00 0. -1.
         25    2    1    2    0    0 -0.11718272817E+02 -0.33083936052E+02  0.11461198029E+03  0.17322042325E+03  0.12505016698E+03 0.  0.
          5    1    3    3  501    0  0.40541400247E+02 -0.54265089673E+02  0.87491672635E+02  0.11064857826E+03  0.10000000000E+00 0. -1.
         -5    1    3    3    0  501 -0.52259673063E+02  0.21181153621E+02  0.27120307655E+02  0.62571844984E+02  0.10000000000E+00 0. -1.
          1    1    1    2  502    0  0.11718272817E+02  0.33083936052E+02 -0.23816307718E+04  0.23818893757E+04  0.00000000000E+00 0. -1.
<mgrwt>
<rscale>  1 0.12988229E+03</rscale>
<asrwt>0</asrwt>
<pdfrwt beam="1">  1       21 0.22160846E-01 0.12988229E+03</pdfrwt>
<pdfrwt beam="2">  1        1 0.37093297E+00 0.12988229E+03</pdfrwt>
<totfact> 0.42257408E+02</totfact>
</mgrwt>
</event>
<event>
 6    2  0.1181843E-002  0.1349693E+03  0.7546771E-02  0.1220263E+00
          2   -1    0    0  503    0 -0.00000000000E+00  0.00000000000E+00  0.10139842974E+04  0.10139842974E+04  0.00000000000E+00 0. -1.
         21   -1    0    0  502  503  0.00000000000E+00 -0.00000000000E+00 -0.40904068846E+02  0.40904068846E+02  0.00000000000E+00 0.  1.
         25    2    1    2    0    0 -0.93869596023E+01  0.50045528842E+02  0.73147623557E+02  0.15351643219E+03  0.12499620055E+03 0.  0.
          5    1    3    3  501    0  0.37164823862E+02 -0.23929748453E+02  0.90267787872E+01  0.45114850426E+02  0.10000000000E+00 0.  1.
         -5    1    3    3    0  501 -0.46551783464E+02  0.73975277295E+02  0.64120844770E+02  0.10840158176E+03  0.10000000000E+00 0.  1.
          2    1    1    2  502    0  0.93869596023E+01 -0.50045528842E+02  0.89993260498E+03  0.90137193404E+03  0.00000000000E+00 0. -1.
<mgrwt>
<rscale>  1 0.13496933E+03</rscale>
<asrwt>0</asrwt>
<pdfrwt beam="1">  1       21 0.62929344E-02 0.13496933E+03</pdfrwt>
<pdfrwt beam="2">  1        2 0.15599757E+00 0.13496933E+03</pdfrwt>
<totfact> 0.59704829E+04</totfact>
</mgrwt>
</event>
<event>
 6    2  0.1181843E-002  0.1267381E+03  0.7546771E-02  0.1232378E+00
         21   -1    0    0  502  503  0.00000000000E+00  0.00000000000E+00  0.16675348937E+03  0.16675348937E+03  0.00000000000E+00 0. -1.
          2   -1    0    0  503    0 -0.00000000000E+00 -0.00000000000E+00 -0.48427474882E+02  0.48427474882E+02  0.00000000000E+00 0.  1.
         25    2    1    2    0    0 -0.20620391219E+02  0.35929598899E+01  0.13735505318E+03  0.18689290655E+03  0.12499775193E+03 0.  0.
          5    1    3    3  501    0 -0.72784484452E+01 -0.60615029953E+02  0.62371297752E+02  0.87277410887E+02  0.10000000000E+00 0.  1.
         -5    1    3    3    0  501 -0.13341942774E+02  0.64207989843E+02  0.74983755432E+02  0.99615495659E+02  0.10000000000E+00 0.  1.
          2    1    1    2  502    0  0.20620391219E+02 -0.35929598899E+01 -0.19029038699E+02  0.28288057703E+02  0.00000000000E+00 0.  1.
<mgrwt>
<rscale>  1 0.12673811E+03</rscale>
<asrwt>0</asrwt>
<pdfrwt beam="1">  1       21 0.25654383E-01 0.12673811E+03</pdfrwt>
<pdfrwt beam="2">  1        2 0.74503808E-02 0.12673811E+03</pdfrwt>
<totfact> 0.15886423E+05</totfact>
</mgrwt>
</event>
<event>
 6    2  0.1181843E-002  0.1469459E+03  0.7546771E-02  0.1204277E+00
         21   -1    0    0  502  503  0.00000000000E+00  0.00000000000E+00  0.51430625594E+03  0.51430625594E+03  0.00000000000E+00 0.  1.
          3   -1    0    0  503    0 -0.00000000000E+00 -0.00000000000E+00 -0.57539076363E+02  0.57539076363E+02  0.00000000000E+00 0.  1.
         25    2    1    2    0    0  0.47163421746E+02 -0.61185509064E+02  0.47091330157E+03  0.49330764939E+03  0.12500017793E+03 0.  0.
          5    1    3    3  501    0  0.68650419597E+02 -0.83924958720E+02  0.41803437505E+03  0.43186690951E+03  0.10000000000E+00 0.  1.
         -5    1    3    3    0  501 -0.21486997851E+02  0.22739449656E+02  0.52878926521E+02  0.61440739883E+02  0.10000000000E+00 0.  1.
          3    1    1    2  502    0 -0.47163421746E+02  0.61185509064E+02 -0.14146121989E+02  0.78537682914E+02  0.00000000000E+00 0.  1.
<mgrwt>
<rscale>  1 0.14694591E+03</rscale>
<asrwt>0</asrwt>
<pdfrwt beam="1">  1       21 0.79124036E-01 0.14694591E+03</pdfrwt>
<pdfrwt beam="2">  1        3 0.88521659E-02 0.14694591E+03</pdfrwt>
<totfact> 0.62333108E+03</totfact>
</mgrwt>
</event>
<event>
 6    2  0.1181843E-002  0.1267350E+03  0.7546771E-02  0.1232382E+00
         21   -1    0    0  502  503  0.00000000000E+00  0.00000000000E+00  0.19844052677E+03  0.19844052677E+03  0.00000000000E+00 0. -1.
          1   -1    0    0  503    0 -0.00000000000E+00 -0.00000000000E+00 -0.81033028688E+02  0.81033028688E+02  0.00000000000E+00 0.  1.
         25    2    1    2    0    0 -0.34319460359E+01  0.20607802216E+02  0.17622011983E+03  0.21706054205E+03  0.12500115406E+03 0.  0.
          5    1    3    3  501    0  0.37629610506E+02  0.56952185284E+02  0.71503035069E+02  0.98854605454E+02  0.10000000000E+00 0.  1.
         -5    1    3    3    0  501 -0.41061556542E+02 -0.36344383068E+02  0.10471708476E+03  0.11820593660E+03  0.10000000000E+00 0.  1.
          1    1    1    2  502    0  0.34319460359E+01 -0.20607802216E+02 -0.58812621747E+02  0.62413013406E+02  0.00000000000E+00 0.  1.
<mgrwt>
<rscale>  1 0.12673495E+03</rscale>
<asrwt>0</asrwt>
<pdfrwt beam="1">  1       21 0.30529312E-01 0.12673495E+03</pdfrwt>
<pdfrwt beam="2">  1        1 0.12466620E-01 0.12673495E+03</pdfrwt>
<totfact> 0.52011014E+04</totfact>
</mgrwt>
</event>
<event>
 6    2  0.1181843E-002  0.1338479E+03  0.7546771E-02  0.1221855E+00
         21   -1    0    0  502  503  0.00000000000E+00  0.00000000000E+00  0.88482115703E+02  0.88482115703E+02  0.00000000000E+00 0. -1.
          1   -1    0    0  503    0 -0.00000000000E+00 -0.00000000000E+00 -0.17001434550E+03  0.17001434550E+03  0.00000000000E+00 0. -1.
         25    2    1    2    0    0 -0.33963130651E+02  0.33713301809E+02  0.29967017841E+02  0.13716153966E+03  0.12500073936E+03 0.  0.
          5    1    3    3  501    0 -0.55907782652E+02  0.50077103494E+02  0.60317909290E+02  0.96289441978E+02  0.10000000000E+00 0. -1.
         -5    1    3    3    0  501  0.21944652001E+02 -0.16363801685E+02 -0.30350891448E+02  0.40872097679E+02  0.10000000000E+00 0. -1.
          1    1    1    2  502    0  0.33963130651E+02 -0.33713301809E+02 -0.11149924764E+03  0.12133492154E+03  0.00000000000E+00 0. -1.
<mgrwt>
<rscale>  1 0.13384792E+03</rscale>
<asrwt>0</asrwt>
<pdfrwt beam="1">  1       21 0.13612633E-01 0.13384792E+03</pdfrwt>
<pdfrwt beam="2">  1        1 0.26156053E-01 0.13384792E+03</pdfrwt>
<totfact> 0.90419718E+04</totfact>
</mgrwt>
</event>
<event>
 6    2  0.1181843E-002  0.1268812E+03  0.7546771E-02  0.1232158E+00
          4   -1    0    0  503    0 -0.00000000000E+00  0.00000000000E+00  0.17499084693E+03  0.17499084693E+03  0.00000000000E+00 0. -1.
         21   -1    0    0  502  503  0.00000000000E+00 -0.00000000000E+00 -0.61915405177E+02  0.61915405177E+02  0.00000000000E+00 0. -1.
         25    2    1    2    0    0  0.20914682128E+02  0.59857381625E+01  0.53369179345E+01  0.12699336613E+03  0.12500231741E+03 0.  0.
          5    1    3    3  501    0  0.72609925032E+02 -0.86493398807E+01  0.44590395817E+01  0.73259165485E+02  0.10000000000E+00 0. -1.
         -5    1    3    3    0  501 -0.51695242904E+02  0.14635078043E+02  0.87787835275E+00  0.53734200642E+02  0.10000000000E+00 0. -1.
          4    1    1    2  502    0 -0.20914682128E+02 -0.59857381625E+01  0.10773852381E+03  0.10991288598E+03  0.00000000000E+00 0. -1.
<mgrwt>
<rscale>  1 0.12688117E+03</rscale>
<asrwt>0</asrwt>
<pdfrwt beam="1">  1       21 0.95254470E-02 0.12688117E+03</pdfrwt>
<pdfrwt beam="2">  1        4 0.26921669E-01 0.12688117E+03</pdfrwt>
<totfact> 0.46301055E+04</totfact>
</mgrwt>
</event>
<event>
 6    2  0.1181843E-002  0.1262037E+03  0.7546771E-02  0.1233200E+00
         21   -1    0    0  502  503  0.00000000000E+00  0.00000000000E+00  0.21118179998E+02  0.21118179998E+02  0.00000000000E+00 0.  1.
          2   -1    0    0  503    0 -0.00000000000E+00 -0.00000000000E+00 -0.32073481642E+03  0.32073481642E+03  0.00000000000E+00 0.  1.
         25    2    1    2    0    0  0.17345235040E+02 -0.21412789168E+01 -0.17357704129E+03  0.21460747864E+03  0.12498775288E+03 0.  0.
          5    1    3    3  501    0 -0.90543727585E+01 -0.60920374900E+02 -0.90539504015E+02  0.10950198871E+03  0.10000000000E+00 0.  1.
         -5    1    3    3    0  501  0.26399607798E+02  0.58779095983E+02 -0.83037537273E+02  0.10510548993E+03  0.10000000000E+00 0.  1.
          2    1    1    2  502    0 -0.17345235040E+02  0.21412789168E+01 -0.12603959514E+03  0.12724551779E+03  0.00000000000E+00 0.  1.
<mgrwt>
<rscale>  1 0.12620373E+03</rscale>
<asrwt>0</asrwt>
<pdfrwt beam="1">  1       21 0.32489510E-02 0.12620373E+03</pdfrwt>
<pdfrwt beam="2">  1        2 0.49343814E-01 0.12620373E+03</pdfrwt>
<totfact> 0.67962240E+05</totfact>
</mgrwt>
</event>
<event>
 6    2  0.1181843E-002  0.1262334E+03  0.7546771E-02  0.1233154E+00
         21   -1    0    0  502  503  0.00000000000E+00  0.00000000000E+00  0.41705717364E+02  0.41705717364E+02  0.00000000000E+00 0. -1.
          2   -1    0    0  503    0 -0.00000000000E+00 -0.00000000000E+00 -0.36251943117E+03  0.36251943117E+03  0.00000000000E+00 0.  1.
         25    2    1    2    0    0  0.16708388637E+02  0.63107827031E+01 -0.54804312583E+02  0.13761682577E+03  0.12496352199E+03 0.  0.
          5    1    3    3  501    0 -0.31202145240E+02 -0.43496898916E+02 -0.40289936005E+02  0.66998828543E+02  0.10000000000E+00 0. -1.
         -5    1    3    3    0  501  0.47910533876E+02  0.49807681619E+02 -0.14514376578E+02  0.70617997225E+02  0.10000000000E+00 0. -1.
          2    1    1    2  502    0 -0.16708388637E+02 -0.63107827031E+01 -0.26600940123E+03  0.26660832277E+03  0.00000000000E+00 0.  1.
<mgrwt>
<rscale>  1 0.12623343E+03</rscale>
<asrwt>0</asrwt>
<pdfrwt beam="1">  1       21 0.64162643E-02 0.12623343E+03</pdfrwt>
<pdfrwt beam="2">  1        2 0.55772220E-01 0.12623343E+03</pdfrwt>
<totfact> 0.19139296E+05</totfact>
</mgrwt>
</event>
<event>
 6    2  0.1181843E-002  0.1268662E+03  0.7546771E-02  0.1232181E+00
          2   -1    0    0  503    0 -0.00000000000E+00  0.00000000000E+00  0.64983495189E+03  0.64983495189E+03  0.00000000000E+00 0.  1.
         21   -1    0    0  502  503  0.00000000000E+00 -0.00000000000E+00 -0.34374955889E+02  0.34374955889E+02  0.00000000000E+00 0.  1.
         25    2    1    2    0    0 -0.12984363015E+02 -0.17364735855E+02  0.83658073755E+02  0.15196615513E+03  0.12499964506E+03 0.  0.
          5    1    3    3  501    0 -0.32037976221E+02 -0.64703538226E+02  0.66416154620E+02  0.98102473841E+02  0.10000000000E+00 0.  1.
         -5    1    3    3    0  501  0.19053613206E+02  0.47338802371E+02  0.17241919135E+02  0.53863681285E+02  0.10000000000E+00 0.  1.
          2    1    1    2  502    0  0.12984363015E+02  0.17364735855E+02  0.53180192225E+03  0.53224375265E+03  0.00000000000E+00 0.  1.
<mgrwt>
<rscale>  1 0.12686622E+03</rscale>
<asrwt>0</asrwt>
<pdfrwt beam="1">  1       21 0.52884552E-02 0.12686622E+03</pdfrwt>
<pdfrwt beam="2">  1        2 0.99974599E-01 0.12686622E+03</pdfrwt>
<totfact> 0.14003167E+05</totfact>
</mgrwt>
</event>
<event>
 6    2  0.1181843E-002  0.1368595E+03  0.7546771E-02  0.1217618E+00
         21   -1    0    0  502  503  0.00000000000E+00  0.00000000000E+00  0.11540034111E+02  0.11540034111E+02  0.00000000000E+00 0.  1.
          3   -1    0    0  503    0 -0.00000000000E+00 -0.00000000000E+00 -0.12613583423E+04  0.12613583423E+04  0.00000000000E+00 0.  1.
         25    2    1    2    0    0 -0.52626782129E+02 -0.18346966626E+02 -0.43149100267E+03  0.45267537726E+03  0.12499728961E+03 0.  0.
          5    1    3    3  501    0 -0.47021399976E+02 -0.29049116086E+02 -0.43621527876E+03  0.43970290268E+03  0.10000000000E+00 0. -1.
         -5    1    3    3    0  501 -0.56053821529E+01  0.10702149460E+02  0.47242760900E+01  0.12972474579E+02  0.10000000000E+00 0. -1.
          3    1    1    2  502    0  0.52626782129E+02  0.18346966626E+02 -0.81832730551E+03  0.82022299914E+03  0.00000000000E+00 0.  1.
<mgrwt>
<rscale>  1 0.13685946E+03</rscale>
<asrwt>0</asrwt>
<pdfrwt beam="1">  1       21 0.17753903E-02 0.13685946E+03</pdfrwt>
<pdfrwt beam="2">  1        3 0.19405509E+00 0.13685946E+03</pdfrwt>
<totfact> 0.12724694E+04</totfact>
</mgrwt>
</event>
<event>
 6    2  0.1181843E-002  0.1331844E+03  0.7546771E-02  0.1222806E+00
          1   -1    0    0  503    0 -0.00000000000E+00  0.00000000000E+00  0.50235078728E+03  0.50235078728E+03  0.00000000000E+00 0.  1.
         21   -1    0    0  502  503  0.00000000000E+00 -0.00000000000E+00 -0.12917083953E+03  0.12917083953E+03  0.00000000000E+00 0. -1.
         25    2    1    2    0    0  0.44629037500E+02 -0.11026187344E+02 -0.93407688015E+02  0.16267479720E+03  0.12499906267E+03 0.  0.
          5    1    3    3  501    0  0.90195738936E+01 -0.54553083134E+02 -0.19719096230E+01  0.55328925709E+02  0.10000000000E+00 0. -1.
         -5    1    3    3    0  501  0.35609463606E+02  0.43526895790E+02 -0.91435778392E+02  0.10734587149E+03  0.10000000000E+00 0. -1.
          1    1    1    2  502    0 -0.44629037500E+02  0.11026187344E+02  0.46658763576E+03  0.46884682962E+03  0.00000000000E+00 0.  1.
<mgrwt>
<rscale>  1 0.13318443E+03</rscale>
<asrwt>0</asrwt>
<pdfrwt beam="1">  1       21 0.19872437E-01 0.13318443E+03</pdfrwt>
<pdfrwt beam="2">  1        1 0.77284736E-01 0.13318443E+03</pdfrwt>
<totfact> 0.11729053E+04</totfact>
</mgrwt>
</event>
<event>
 6    2  0.1181843E-002  0.1536292E+03  0.7546771E-02  0.1196083E+00
         21   -1    0    0  502  503  0.00000000000E+00  0.00000000000E+00  0.95285116006E+01  0.95285116006E+01  0.00000000000E+00 0.  1.
          2   -1    0    0  503    0 -0.00000000000E+00 -0.00000000000E+00 -0.16144292549E+04  0.16144292549E+04  0.00000000000E+00 0.  1.
         25    2    1    2    0    0  0.53893466792E+02  0.71232375081E+02 -0.84791022194E+03  0.86171554355E+03  0.12499350583E+03 0.  0.
          5    1    3    3  501    0  0.93486822572E+02  0.50381658988E+02 -0.66404554112E+03  0.67248389440E+03  0.10000000000E+00 0.  1.
         -5    1    3    3    0  501 -0.39593355779E+02  0.20850716092E+02 -0.18386468082E+03  0.18923164914E+03  0.10000000000E+00 0.  1.
          2    1    1    2  502    0 -0.53893466792E+02 -0.71232375081E+02 -0.75699052133E+03  0.76224222293E+03  0.00000000000E+00 0.  1.
<mgrwt>
<rscale>  1 0.15362921E+03</rscale>
<asrwt>0</asrwt>
<pdfrwt beam="1">  1       21 0.14659256E-02 0.15362921E+03</pdfrwt>
<pdfrwt beam="2">  1        2 0.24837360E+00 0.15362921E+03</pdfrwt>
<totfact> 0.31039900E+05</totfact>
</mgrwt>
</event>
<event>
 6    2  0.1181843E-002  0.1440741E+03  0.7546771E-02  0.1207950E+00
          3   -1    0    0  503    0 -0.00000000000E+00  0.00000000000E+00  0.25722821756E+03  0.25722821756E+03  0.00000000000E+00 0. -1.
         21   -1    0    0  502  503  0.00000000000E+00 -0.00000000000E+00 -0.43271152644E+03  0.43271152644E+03  0.00000000000E+00 0.  1.
         25    2    1    2    0    0 -0.21449583990E+02  0.68353212099E+02 -0.41533697026E+03  0.43961590348E+03  0.12500038990E+03 0.  0.
          5    1    3    3  501    0  0.53623040246E+01 -0.29533206250E+02 -0.35676431417E+02  0.46623838694E+02  0.10000000000E+00 0.  1.
         -5    1    3    3    0  501 -0.26811888015E+02  0.97886418349E+02 -0.37966053884E+03  0.39299206479E+03  0.10000000000E+00 0.  1.
          3    1    1    2  502    0  0.21449583990E+02 -0.68353212099E+02  0.23985366138E+03  0.25032384052E+03  0.00000000000E+00 0. -1.
<mgrwt>
<rscale>  1 0.14407409E+03</rscale>
<asrwt>0</asrwt>
<pdfrwt beam="1">  1       21 0.66571004E-01 0.14407409E+03</pdfrwt>
<pdfrwt beam="2">  1        3 0.39573572E-01 0.14407409E+03</pdfrwt>
<totfact> 0.65206158E+02</totfact>
</mgrwt>
</event>
<event>
 6    2  0.1181843E-002  0.1268033E+03  0.7546771E-02  0.1232278E+00
         21   -1    0    0  502  503  0.00000000000E+00  0.00000000000E+00  0.98984890691E+01  0.98984890691E+01  0.00000000000E+00 0.  1.
          2   -1    0    0  503    0 -0.00000000000E+00 -0.00000000000E+00 -0.15015690554E+04  0.15015690554E+04  0.00000000000E+00 0.  1.
         25    2    1    2    0    0  0.20640974127E+02  0.65863736190E+01 -0.40077009612E+03  0.42035193830E+03  0.12493859273E+03 0.  0.
          5    1    3    3  501    0 -0.35477267005E+02 -0.16400791842E+02 -0.30150721389E+03  0.30402998614E+03  0.10000000000E+00 0. -1.
         -5    1    3    3    0  501  0.56118241132E+02  0.22987165461E+02 -0.99262882233E+02  0.11632195215E+03  0.10000000000E+00 0. -1.
          2    1    1    2  502    0 -0.20640974127E+02 -0.65863736190E+01 -0.10909004703E+04  0.10911156062E+04  0.00000000000E+00 0.  1.
<mgrwt>
<rscale>  1 0.12680332E+03</rscale>
<asrwt>0</asrwt>
<pdfrwt beam="1">  1       21 0.15228447E-02 0.12680332E+03</pdfrwt>
<pdfrwt beam="2">  1        2 0.23101059E+00 0.12680332E+03</pdfrwt>
<totfact> 0.33282501E+05</totfact>
</mgrwt>
</event>
<event>
 6    2  0.1181843E-002  0.1907574E+03  0.7546771E-02  0.1157780E+00
          2   -1    0    0  503    0 -0.00000000000E+00  0.00000000000E+00  0.69469632822E+03  0.69469632822E+03  0.00000000000E+00 0.  1.
         21   -1    0    0  502  503  0.00000000000E+00 -0.00000000000E+00 -0.67740898024E+02  0.67740898024E+02  0.00000000000E+00 0.  1.
         25    2    1    2    0    0  0.22444750365E+02  0.14234063814E+03  0.98499537612E+02  0.21468705099E+03  0.12499498737E+03 0.  0.
          5    1    3    3  501    0 -0.13108213553E+02  0.72353095354E+01 -0.24393452795E+02  0.28622115678E+02  0.10000000000E+00 0. -1.
         -5    1    3    3    0  501  0.35552963918E+02  0.13510532861E+03  0.12289299041E+03  0.18606493531E+03  0.10000000000E+00 0. -1.
          2    1    1    2  502    0 -0.22444750365E+02 -0.14234063814E+03  0.52845589259E+03  0.54775017526E+03  0.00000000000E+00 0.  1.
<mgrwt>
<rscale>  1 0.19075736E+03</rscale>
<asrwt>0</asrwt>
<pdfrwt beam="1">  1       21 0.10421677E-01 0.19075736E+03</pdfrwt>
<pdfrwt beam="2">  1        2 0.10687635E+00 0.19075736E+03</pdfrwt>
<totfact> 0.40272184E+04</totfact>
</mgrwt>
</event>
<event>
 6    2  0.1181843E-002  0.1298388E+03  0.7546771E-02  0.1227695E+00
          2   -1    0    0  503    0 -0.00000000000E+00  0.00000000000E+00  0.74747942521E+02  0.74747942521E+02  0.00000000000E+00 0. -1.
         21   -1    0    0  502  503  0.00000000000E+00 -0.00000000000E+00 -0.10828741792E+03  0.10828741792E+03  0.00000000000E+00 0. -1.
         25    2    1    2    0    0 -0.35129074462E+02 -0.76691636009E+00 -0.55927302055E+02  0.14137176943E+03  0.12499389603E+03 0.  0.
          5    1    3    3  501    0  0.22767378731E+02  0.27047298371E+02 -0.67413575234E+02  0.76121678971E+02  0.10000000000E+00 0. -1.
         -5    1    3    3    0  501 -0.57896453193E+02 -0.27814214732E+02  0.11486273179E+02  0.65250090460E+02  0.10000000000E+00 0. -1.
          2    1    1    2  502    0  0.35129074462E+02  0.76691636009E+00  0.22387826657E+02  0.41663591008E+02  0.00000000000E+00 0. -1.
<mgrwt>
<rscale>  1 0.12983880E+03</rscale>
<asrwt>0</asrwt>
<pdfrwt beam="1">  1       21 0.16659603E-01 0.12983880E+03</pdfrwt>
<pdfrwt beam="2">  1        2 0.11499684E-01 0.12983880E+03</pdfrwt>
<totfact> 0.20734524E+05</totfact>
</mgrwt>
</event>
<event>
 6    2  0.1181843E-002  0.1259160E+03  0.7546771E-02  0.1233645E+00
         21   -1    0    0  502  503  0.00000000000E+00  0.00000000000E+00  0.18006850202E+02  0.18006850202E+02  0.00000000000E+00 0.  1.
          1   -1    0    0  503    0 -0.00000000000E+00 -0.00000000000E+00 -0.27653854512E+03  0.27653854512E+03  0.00000000000E+00 0.  1.
         25    2    1    2    0    0  0.14417544035E+02 -0.46079212044E+01 -0.22759336180E+03  0.26010299457E+03  0.12500292369E+03 0.  0.
          5    1    3    3  501    0 -0.14764360643E+02 -0.60495876173E+02 -0.12574026268E+03  0.14031522027E+03  0.10000000000E+00 0. -1.
         -5    1    3    3    0  501  0.29181904678E+02  0.55887954969E+02 -0.10185309912E+03  0.11978777430E+03  0.10000000000E+00 0. -1.
          1    1    1    2  502    0 -0.14417544035E+02  0.46079212044E+01 -0.30938333111E+02  0.34442400752E+02  0.00000000000E+00 0.  1.
<mgrwt>
<rscale>  1 0.12591596E+03</rscale>
<asrwt>0</asrwt>
<pdfrwt beam="1">  1       21 0.27702846E-02 0.12591596E+03</pdfrwt>
<pdfrwt beam="2">  1        1 0.42544393E-01 0.12591596E+03</pdfrwt>
<totfact> 0.74147286E+05</totfact>
</mgrwt>
</event>
<event>
 6    2  0.1181843E-002  0.1351664E+03  0.7546771E-02  0.1219985E+00
          2   -1    0    0  503    0 -0.00000000000E+00  0.00000000000E+00  0.28724349136E+03  0.28724349136E+03  0.00000000000E+00 0. -1.
         21   -1    0    0  502  503  0.00000000000E+00 -0.00000000000E+00 -0.16762207754E+03  0.16762207754E+03  0.00000000000E+00 0.  1.
         25    2    1    2    0    0 -0.42424741938E+02  0.29071508119E+02 -0.13740537489E+03  0.19274387689E+03  0.12499981487E+03 0.  0.
          5    1    3    3  501    0 -0.82861665774E+02  0.29927679915E+02 -0.11961517646E+03  0.14855814390E+03  0.10000000000E+00 0.  1.
         -5    1    3    3    0  501  0.40436923836E+02 -0.85617179562E+00 -0.17790198431E+02  0.44185732988E+02  0.10000000000E+00 0.  1.
          2    1    1    2  502    0  0.42424741938E+02 -0.29071508119E+02  0.25702678870E+03  0.26212169201E+03  0.00000000000E+00 0. -1.
<mgrwt>
<rscale>  1 0.13516643E+03</rscale>
<asrwt>0</asrwt>
<pdfrwt beam="1">  1       21 0.25788012E-01 0.13516643E+03</pdfrwt>
<pdfrwt beam="2">  1        2 0.44191306E-01 0.13516643E+03</pdfrwt>
<totfact> 0.20398856E+04</totfact>
</mgrwt>
</event>
<event>
 6    2  0.1181843E-002  0.1777303E+03  0.7546771E-02  0.1170018E+00
          2   -1    0    0  503    0 -0.00000000000E+00  0.00000000000E+00  0.39566300251E+03  0.39566300251E+03  0.00000000000E+00 0.  1.
         21   -1    0    0  502  503  0.00000000000E+00 -0.00000000000E+00 -0.65920376561E+02  0.65920376561E+02  0.00000000000E+00 0. -1.
         25    2    1    2    0    0  0.20124838440E+01  0.12633486880E+03  0.26639657003E+03  0.32024240141E+03  0.12499405574E+03 0.  0.
          5    1    3    3  501    0 -0.31066654745E+02  0.12654340335E+03  0.14741303106E+03  0.19674598266E+03  0.10000000000E+00 0.  1.
         -5    1    3    3    0  501  0.33079138589E+02 -0.20853455473E+00  0.11898353898E+03  0.12349641875E+03  0.10000000000E+00 0.  1.
          2    1    1    2  502    0 -0.20124838440E+01 -0.12633486880E+03  0.63346055910E+02  0.14134097765E+03  0.00000000000E+00 0.  1.
<mgrwt>
<rscale>  1 0.17773031E+03</rscale>
<asrwt>0</asrwt>
<pdfrwt beam="1">  1       21 0.10141597E-01 0.17773031E+03</pdfrwt>
<pdfrwt beam="2">  1        2 0.60871230E-01 0.17773031E+03</pdfrwt>
<totfact> 0.79661882E+04</totfact>
</mgrwt>
</event>
<event>
 6    2  0.1181843E-002  0.1259864E+03  0.7546771E-02  0.1233536E+00
         21   -1    0    0  502  503  0.00000000000E+00  0.00000000000E+00  0.11306213906E+04  0.11306213906E+04  0.00000000000E+00 0. -1.
          1   -1    0    0  503    0 -0.00000000000E+00 -0.00000000000E+00 -0.99741555807E+02  0.99741555807E+02  0.00000000000E+00 0. -1.
         25    2    1    2    0    0  0.46284537652E+00  0.15744620160E+02  0.11264651193E+04  0.11334885231E+04  0.12499783905E+03 0.  0.
          5    1    3    3  501    0  0.51213121411E+02 -0.19133740322E+02  0.75285858030E+03  0.75484100031E+03  0.10000000000E+00 0.  1.
         -5    1    3    3    0  501 -0.50750276035E+02  0.34878360482E+02  0.37360653896E+03  0.37864752277E+03  0.10000000000E+00 0.  1.
          1    1    1    2  502    0 -0.46284537652E+00 -0.15744620160E+02 -0.95585284460E+02  0.96874423328E+02  0.00000000000E+00 0. -1.
<mgrwt>
<rscale>  1 0.12598638E+03</rscale>
<asrwt>0</asrwt>
<pdfrwt beam="1">  1       21 0.17394174E+00 0.12598638E+03</pdfrwt>
<pdfrwt beam="2">  1        1 0.15344856E-01 0.12598638E+03</pdfrwt>
<totfact> 0.81361073E+02</totfact>
</mgrwt>
</event>
<event>
 6    2  0.1181843E-002  0.1512307E+03  0.7546771E-02  0.1198969E+00
         21   -1    0    0  502  503  0.00000000000E+00  0.00000000000E+00  0.21752592657E+02  0.21752592657E+02  0.00000000000E+00 0. -1.
          1   -1    0    0  503    0 -0.00000000000E+00 -0.00000000000E+00 -0.64203706258E+03  0.64203706258E+03  0.00000000000E+00 0. -1.
         25    2    1    2    0    0 -0.83399078561E+02 -0.17045238892E+02 -0.39805248341E+03  0.42581276077E+03  0.12499912482E+03 0.  0.
          5    1    3    3  501    0 -0.96408127307E+02 -0.25571366766E+02 -0.39794872090E+03  0.41025798746E+03  0.10000000000E+00 0. -1.
         -5    1    3    3    0  501  0.13009048746E+02  0.85261278744E+01 -0.10376250905E+00  0.15554773301E+02  0.10000000000E+00 0. -1.
          1    1    1    2  502    0  0.83399078561E+02  0.17045238892E+02 -0.22223198651E+03  0.23797689447E+03  0.00000000000E+00 0. -1.
<mgrwt>
<rscale>  1 0.15123071E+03</rscale>
<asrwt>0</asrwt>
<pdfrwt beam="1">  1       21 0.33465531E-02 0.15123071E+03</pdfrwt>
<pdfrwt beam="2">  1        1 0.98774921E-01 0.15123071E+03</pdfrwt>
<totfact> 0.18628982E+05</totfact>
</mgrwt>
</event>
<event>
 6    2  0.1181843E-002  0.1284307E+03  0.7546771E-02  0.1229803E+00
         21   -1    0    0  502  503  0.00000000000E+00  0.00000000000E+00  0.62320624951E+01  0.62320624951E+01  0.00000000000E+00 0. -1.
          1   -1    0    0  503    0 -0.00000000000E+00 -0.00000000000E+00 -0.15221668574E+04  0.15221668574E+04  0.00000000000E+00 0. -1.
         25    2    1    2    0    0 -0.29483376948E+02 -0.18966305751E+01 -0.68479981893E+03  0.69673900442E+03  0.12498632544E+03 0.  0.
          5    1    3    3  501    0 -0.32581326114E+02  0.19133913414E+02 -0.66945771130E+03  0.67052314403E+03  0.10000000000E+00 0.  1.
         -5    1    3    3    0  501  0.30979491659E+01 -0.21030543989E+02 -0.15342107627E+02  0.26215860390E+02  0.10000000000E+00 0.  1.
          1    1    1    2  502    0  0.29483376948E+02  0.18966305751E+01 -0.83113497597E+03  0.83165991547E+03  0.00000000000E+00 0. -1.
<mgrwt>
<rscale>  1 0.12843071E+03</rscale>
<asrwt>0</asrwt>
<pdfrwt beam="1">  1       21 0.95877908E-03 0.12843071E+03</pdfrwt>
<pdfrwt beam="2">  1        1 0.23417946E+00 0.12843071E+03</pdfrwt>
<totfact> 0.31296571E+05</totfact>
</mgrwt>
</event>
<event>
 6    2  0.1181843E-002  0.1424611E+03  0.7546771E-02  0.1210055E+00
         21   -1    0    0  502  503  0.00000000000E+00  0.00000000000E+00  0.32598810830E+02  0.32598810830E+02  0.00000000000E+00 0. -1.
          1   -1    0    0  503    0 -0.00000000000E+00 -0.00000000000E+00 -0.11755059452E+04  0.11755059452E+04  0.00000000000E+00 0. -1.
         25    2    1    2    0    0  0.68286419714E+02 -0.27487516692E+01 -0.12989435895E+03  0.19278930066E+03  0.12499831682E+03 0.  0.
          5    1    3    3  501    0  0.12609516348E+02  0.47836045822E+02 -0.10051828290E+03  0.11203223812E+03  0.10000000000E+00 0.  1.
         -5    1    3    3    0  501  0.55676903366E+02 -0.50584797491E+02 -0.29376076058E+02  0.80757062540E+02  0.10000000000E+00 0.  1.
          1    1    1    2  502    0 -0.68286419714E+02  0.27487516692E+01 -0.10130127754E+04  0.10153154554E+04  0.00000000000E+00 0. -1.
<mgrwt>
<rscale>  1 0.14246112E+03</rscale>
<asrwt>0</asrwt>
<pdfrwt beam="1">  1       21 0.50152017E-02 0.14246112E+03</pdfrwt>
<pdfrwt beam="2">  1        1 0.18084707E+00 0.14246112E+03</pdfrwt>
<totfact> 0.36244847E+04</totfact>
</mgrwt>
</event>
<event>
 6    2  0.1181843E-002  0.1300941E+03  0.7546771E-02  0.1227316E+00
         21   -1    0    0  502  503  0.00000000000E+00  0.00000000000E+00  0.50444864270E+02  0.50444864270E+02  0.00000000000E+00 0. -1.
          1   -1    0    0  503    0 -0.00000000000E+00 -0.00000000000E+00 -0.15388650376E+03  0.15388650376E+03  0.00000000000E+00 0. -1.
         25    2    1    2    0    0 -0.35235562279E+02  0.75003276969E+01 -0.10656903836E+03  0.16817088700E+03  0.12500674995E+03 0.  0.
          5    1    3    3  501    0  0.20288558373E+02 -0.13985752854E+01  0.20708410254E+02  0.29024642443E+02  0.10000000000E+00 0.  1.
         -5    1    3    3    0  501 -0.55524120653E+02  0.88989029822E+01 -0.12727744861E+03  0.13914624455E+03  0.10000000000E+00 0.  1.
          1    1    1    2  502    0  0.35235562279E+02 -0.75003276969E+01  0.31273988692E+01  0.36160481031E+02  0.00000000000E+00 0. -1.
<mgrwt>
<rscale>  1 0.13009415E+03</rscale>
<asrwt>0</asrwt>
<pdfrwt beam="1">  1       21 0.77607484E-02 0.13009415E+03</pdfrwt>
<pdfrwt beam="2">  1        1 0.23674846E-01 0.13009415E+03</pdfrwt>
<totfact> 0.27419001E+05</totfact>
</mgrwt>
</event>
<event>
 6    2  0.1181843E-002  0.1270666E+03  0.7546771E-02  0.1231874E+00
          2   -1    0    0  503    0 -0.00000000000E+00  0.00000000000E+00  0.12410503395E+04  0.12410503395E+04  0.00000000000E+00 0. -1.
         21   -1    0    0  502  503  0.00000000000E+00 -0.00000000000E+00 -0.81517542230E+01  0.81517542230E+01  0.00000000000E+00 0. -1.
         25    2    1    2    0    0  0.86658445431E+01  0.21107870218E+02  0.49818975215E+03  0.51413902941E+03  0.12500109346E+03 0.  0.
          5    1    3    3  501    0 -0.15175476374E+02  0.15568305034E+02  0.77383618843E+01  0.23077249608E+02  0.10000000000E+00 0.  1.
         -5    1    3    3    0  501  0.23841320917E+02  0.55395651835E+01  0.49045139027E+03  0.49106177980E+03  0.10000000000E+00 0.  1.
          2    1    1    2  502    0 -0.86658445431E+01 -0.21107870218E+02  0.73470883308E+03  0.73506306426E+03  0.00000000000E+00 0. -1.
<mgrwt>
<rscale>  1 0.12706657E+03</rscale>
<asrwt>0</asrwt>
<pdfrwt beam="1">  1       21 0.12541170E-02 0.12706657E+03</pdfrwt>
<pdfrwt beam="2">  1        2 0.19093067E+00 0.12706657E+03</pdfrwt>
<totfact> 0.62325484E+05</totfact>
</mgrwt>
</event>
<event>
 6    2  0.1181843E-002  0.1360981E+03  0.7546771E-02  0.1218678E+00
         21   -1    0    0  502  503  0.00000000000E+00  0.00000000000E+00  0.18439848171E+02  0.18439848171E+02  0.00000000000E+00 0. -1.
          2   -1    0    0  503    0 -0.00000000000E+00 -0.00000000000E+00 -0.57250230266E+03  0.57250230266E+03  0.00000000000E+00 0. -1.
         25    2    1    2    0    0 -0.47527362330E+02 -0.25249806679E+02 -0.27614299630E+03  0.30785978094E+03  0.12500514951E+03 0.  0.
          5    1    3    3  501    0  0.31094963012E+02 -0.26021462968E+02 -0.17561780836E+03  0.18023772600E+03  0.10000000000E+00 0. -1.
         -5    1    3    3    0  501 -0.78622325342E+02  0.77165628877E+00 -0.10052518794E+03  0.12762205494E+03  0.10000000000E+00 0. -1.
          2    1    1    2  502    0  0.47527362330E+02  0.25249806679E+02 -0.27791945818E+03  0.28308236989E+03  0.00000000000E+00 0. -1.
<mgrwt>
<rscale>  1 0.13609809E+03</rscale>
<asrwt>0</asrwt>
<pdfrwt beam="1">  1       21 0.28368996E-02 0.13609809E+03</pdfrwt>
<pdfrwt beam="2">  1        2 0.88077281E-01 0.13609809E+03</pdfrwt>
<totfact> 0.45645435E+05</totfact>
</mgrwt>
</event>
<event>
 6    2  0.1181843E-002  0.1743472E+03  0.7546771E-02  0.1173389E+00
          1   -1    0    0  503    0 -0.00000000000E+00  0.00000000000E+00  0.24394221975E+03  0.24394221975E+03  0.00000000000E+00 0. -1.
         21   -1    0    0  502  503  0.00000000000E+00 -0.00000000000E+00 -0.89756196797E+02  0.89756196797E+02  0.00000000000E+00 0. -1.
         25    2    1    2    0    0 -0.12082573183E+03  0.13412117227E+02  0.88649371751E+02  0.19559050580E+03  0.12497276698E+03 0.  0.
          5    1    3    3  501    0 -0.10942644093E+03  0.61037852730E+02  0.66340102469E+02  0.14177723595E+03  0.10000000000E+00 0.  1.
         -5    1    3    3    0  501 -0.11399290903E+02 -0.47625735503E+02  0.22309269282E+02  0.53813269843E+02  0.10000000000E+00 0.  1.
          1    1    1    2  502    0  0.12082573183E+03 -0.13412117227E+02  0.65536651200E+02  0.13810791075E+03  0.00000000000E+00 0. -1.
<mgrwt>
<rscale>  1 0.17434717E+03</rscale>
<asrwt>0</asrwt>
<pdfrwt beam="1">  1       21 0.13808646E-01 0.17434717E+03</pdfrwt>
<pdfrwt beam="2">  1        1 0.37529572E-01 0.17434717E+03</pdfrwt>
<totfact> 0.56500718E+04</totfact>
</mgrwt>
</event>
<event>
 6    2  0.1181843E-002  0.1280779E+03  0.7546771E-02  0.1230336E+00
          3   -1    0    0  503    0 -0.00000000000E+00  0.00000000000E+00  0.55246035375E+02  0.55246035375E+02  0.00000000000E+00 0. -1.
         21   -1    0    0  502  503  0.00000000000E+00 -0.00000000000E+00 -0.15699868837E+03  0.15699868837E+03  0.00000000000E+00 0. -1.
         25    2    1    2    0    0 -0.86317773160E+01 -0.26547857317E+02 -0.12268151489E+03  0.17735470270E+03  0.12499856066E+03 0.  0.
          5    1    3    3  501    0 -0.16558193848E+02 -0.33826410374E+02  0.14052346602E+02  0.40197988349E+02  0.10000000000E+00 0. -1.
         -5    1    3    3    0  501  0.79264165318E+01  0.72785530565E+01 -0.13673386149E+03  0.13715671435E+03  0.10000000000E+00 0. -1.
          3    1    1    2  502    0  0.86317773160E+01  0.26547857317E+02  0.20928861898E+02  0.34890021040E+02  0.00000000000E+00 0. -1.
<mgrwt>
<rscale>  1 0.12807785E+03</rscale>
<asrwt>0</asrwt>
<pdfrwt beam="1">  1       21 0.24153644E-01 0.12807785E+03</pdfrwt>
<pdfrwt beam="2">  1        3 0.84993902E-02 0.12807785E+03</pdfrwt>
<totfact> 0.74108404E+04</totfact>
</mgrwt>
</event>
<event>
 6    2  0.1181843E-002  0.1298718E+03  0.7546771E-02  0.1227646E+00
         21   -1    0    0  502  503  0.00000000000E+00  0.00000000000E+00  0.22396522076E+02  0.22396522076E+02  0.00000000000E+00 0. -1.
          2   -1    0    0  503    0 -0.00000000000E+00 -0.00000000000E+00 -0.41071963428E+03  0.41071963428E+03  0.00000000000E+00 0. -1.
         25    2    1    2    0    0  0.32457986200E+02 -0.13713125982E+02 -0.18072737460E+03  0.22255129470E+03  0.12500049660E+03 0.  0.
          5    1    3    3  501    0  0.25305501509E+01  0.25069584993E+02 -0.17069815377E+03  0.17254784113E+03  0.10000000000E+00 0. -1.
         -5    1    3    3    0  501  0.29927436049E+02 -0.38782710975E+02 -0.10029220827E+02  0.50003453576E+02  0.10000000000E+00 0. -1.
          2    1    1    2  502    0 -0.32457986200E+02  0.13713125982E+02 -0.20759573761E+03  0.21056486166E+03  0.00000000000E+00 0. -1.
<mgrwt>
<rscale>  1 0.12987184E+03</rscale>
<asrwt>0</asrwt>
<pdfrwt beam="1">  1       21 0.34456190E-02 0.12987184E+03</pdfrwt>
<pdfrwt beam="2">  1        2 0.63187632E-01 0.12987184E+03</pdfrwt>
<totfact> 0.47542854E+05</totfact>
</mgrwt>
</event>
<event>
 6    2  0.1181843E-002  0.1847846E+03  0.7546771E-02  0.1163251E+00
          2   -1    0    0  503    0 -0.00000000000E+00  0.00000000000E+00  0.57192759092E+03  0.57192759092E+03  0.00000000000E+00 0.  1.
         21   -1    0    0  502  503  0.00000000000E+00 -0.00000000000E+00 -0.45585487324E+03  0.45585487324E+03  0.00000000000E+00 0. -1.
         25    2    1    2    0    0  0.13206292811E+03 -0.32852864754E+02 -0.42840368370E+03  0.46655659219E+03  0.12500163920E+03 0.  0.
          5    1    3    3  501    0  0.13066792683E+03 -0.12508672912E+02 -0.21306442586E+03  0.25025393816E+03  0.10000000000E+00 0. -1.
         -5    1    3    3    0  501  0.13950012784E+01 -0.20344191842E+02 -0.21533925784E+03  0.21630265402E+03  0.10000000000E+00 0. -1.
          2    1    1    2  502    0 -0.13206292811E+03  0.32852864754E+02  0.54447640139E+03  0.56122587197E+03  0.00000000000E+00 0.  1.
<mgrwt>
<rscale>  1 0.18478457E+03</rscale>
<asrwt>0</asrwt>
<pdfrwt beam="1">  1       21 0.70131518E-01 0.18478457E+03</pdfrwt>
<pdfrwt beam="2">  1        2 0.87988861E-01 0.18478457E+03</pdfrwt>
<totfact> 0.12416588E+03</totfact>
</mgrwt>
</event>
<event>
 6    2  0.1181843E-002  0.1278015E+03  0.7546771E-02  0.1230755E+00
         21   -1    0    0  502  503  0.00000000000E+00  0.00000000000E+00  0.96261063184E+01  0.96261063184E+01  0.00000000000E+00 0. -1.
          1   -1    0    0  503    0 -0.00000000000E+00 -0.00000000000E+00 -0.20099523407E+04  0.20099523407E+04  0.00000000000E+00 0.  1.
         25    2    1    2    0    0 -0.26360792001E+02  0.37984318508E+01 -0.41967877196E+03  0.43870662428E+03  0.12499564441E+03 0.  0.
          5    1    3    3  501    0 -0.46421450082E+02 -0.51024210354E+02 -0.24536206367E+03  0.25487442665E+03  0.10000000000E+00 0. -1.
         -5    1    3    3    0  501  0.20060658080E+02  0.54822642205E+02 -0.17431670828E+03  0.18383219764E+03  0.10000000000E+00 0. -1.
          1    1    1    2  502    0  0.26360792001E+02 -0.37984318508E+01 -0.15806474624E+04  0.15808718227E+04  0.00000000000E+00 0.  1.
<mgrwt>
<rscale>  1 0.12780153E+03</rscale>
<asrwt>0</asrwt>
<pdfrwt beam="1">  1       21 0.14809427E-02 0.12780153E+03</pdfrwt>
<pdfrwt beam="2">  1        1 0.30922276E+00 0.12780153E+03</pdfrwt>
<totfact> 0.76853624E+04</totfact>
</mgrwt>
</event>
<event>
 6    2  0.1181843E-002  0.1361354E+03  0.7546771E-02  0.1218626E+00
          2   -1    0    0  503    0 -0.00000000000E+00  0.00000000000E+00  0.46527612818E+03  0.46527612818E+03  0.00000000000E+00 0.  1.
         21   -1    0    0  502  503  0.00000000000E+00 -0.00000000000E+00 -0.34917332628E+02  0.34917332628E+02  0.00000000000E+00 0.  1.
         25    2    1    2    0    0  0.41733231948E+02  0.34134951457E+02  0.10914505961E+03  0.17448635049E+03  0.12500393957E+03 0.  0.
          5    1    3    3  501    0 -0.92328586914E+01  0.68114982088E+02  0.31565803617E+02  0.75639317967E+02  0.10000000000E+00 0.  1.
         -5    1    3    3    0  501  0.50966090639E+02 -0.33980030631E+02  0.77579255997E+02  0.98847032519E+02  0.10000000000E+00 0.  1.
          2    1    1    2  502    0 -0.41733231948E+02 -0.34134951457E+02  0.32121373594E+03  0.32570711033E+03  0.00000000000E+00 0.  1.
<mgrwt>
<rscale>  1 0.13613538E+03</rscale>
<asrwt>0</asrwt>
<pdfrwt beam="1">  1       21 0.53718977E-02 0.13613538E+03</pdfrwt>
<pdfrwt beam="2">  1        2 0.71580938E-01 0.13613538E+03</pdfrwt>
<totfact> 0.19862667E+05</totfact>
</mgrwt>
</event>
<event>
 6    2  0.1181843E-002  0.1707341E+03  0.7546771E-02  0.1177084E+00
          1   -1    0    0  503    0 -0.00000000000E+00  0.00000000000E+00  0.42293247450E+03  0.42293247450E+03  0.00000000000E+00 0. -1.
         21   -1    0    0  502  503  0.00000000000E+00 -0.00000000000E+00 -0.13076168292E+03  0.13076168292E+03  0.00000000000E+00 0. -1.
         25    2    1    2    0    0 -0.38277088021E+02  0.10981607561E+03 -0.61438512857E+02  0.18145196998E+03  0.12500168245E+03 0.  0.
          5    1    3    3  501    0 -0.76065529669E+02  0.74645847636E+02 -0.72189079058E+02  0.12872156194E+03  0.10000000000E+00 0. -1.
         -5    1    3    3    0  501  0.37788441648E+02  0.35170227974E+02  0.10750566201E+02  0.52730408035E+02  0.10000000000E+00 0. -1.
          1    1    1    2  502    0  0.38277088021E+02 -0.10981607561E+03  0.35360930444E+03  0.37224218745E+03  0.00000000000E+00 0. -1.
<mgrwt>
<rscale>  1 0.17073408E+03</rscale>
<asrwt>0</asrwt>
<pdfrwt beam="1">  1       21 0.20117182E-01 0.17073408E+03</pdfrwt>
<pdfrwt beam="2">  1        1 0.65066534E-01 0.17073408E+03</pdfrwt>
<totfact> 0.14219462E+04</totfact>
</mgrwt>
</event>
<event>
 6    2  0.1181843E-002  0.1306610E+03  0.7546771E-02  0.1226478E+00
          2   -1    0    0  503    0 -0.00000000000E+00  0.00000000000E+00  0.38824472869E+04  0.38824472869E+04  0.00000000000E+00 0. -1.
         21   -1    0    0  502  503  0.00000000000E+00 -0.00000000000E+00 -0.24986355719E+01  0.24986355719E+01  0.00000000000E+00 0.  1.
         25    2    1    2    0    0 -0.16300226070E+02 -0.34368966903E+02  0.18360428467E+04  0.18406861882E+04  0.12500154000E+03 0.  0.
          5    1    3    3  501    0  0.22376657316E+02  0.38211071591E+02  0.87962263279E+03  0.88073650254E+03  0.10000000000E+00 0.  1.
         -5    1    3    3    0  501 -0.38676883386E+02 -0.72580038494E+02  0.95642021395E+03  0.95994968563E+03  0.10000000000E+00 0.  1.
          2    1    1    2  502    0  0.16300226070E+02  0.34368966903E+02  0.20439058046E+04  0.20442597343E+04  0.00000000000E+00 0. -1.
<mgrwt>
<rscale>  1 0.13066104E+03</rscale>
<asrwt>0</asrwt>
<pdfrwt beam="1">  1       21 0.38440858E-03 0.13066104E+03</pdfrwt>
<pdfrwt beam="2">  1        2 0.59729475E+00 0.13066104E+03</pdfrwt>
<totfact> 0.12597154E+05</totfact>
</mgrwt>
</event>
<event>
 6    2  0.1181843E-002  0.1275244E+03  0.7546771E-02  0.1231176E+00
         21   -1    0    0  502  503  0.00000000000E+00  0.00000000000E+00  0.19169947801E+02  0.19169947801E+02  0.00000000000E+00 0. -1.
          2   -1    0    0  503    0 -0.00000000000E+00 -0.00000000000E+00 -0.63759349907E+03  0.63759349907E+03  0.00000000000E+00 0. -1.
         25    2    1    2    0    0 -0.13088059490E+02  0.21494943401E+02 -0.19752999778E+03  0.23511820112E+03  0.12501655324E+03 0.  0.
          5    1    3    3  501    0 -0.32751132606E+02  0.24398724975E+02 -0.20846798749E+03  0.21243080350E+03  0.10000000000E+00 0. -1.
         -5    1    3    3    0  501  0.19663073117E+02 -0.29037815744E+01  0.10937989713E+02  0.22687397621E+02  0.10000000000E+00 0. -1.
          2    1    1    2  502    0  0.13088059490E+02 -0.21494943401E+02 -0.42089355349E+03  0.42164524575E+03  0.00000000000E+00 0. -1.
<mgrwt>
<rscale>  1 0.12752438E+03</rscale>
<asrwt>0</asrwt>
<pdfrwt beam="1">  1       21 0.29492226E-02 0.12752438E+03</pdfrwt>
<pdfrwt beam="2">  1        2 0.98091313E-01 0.12752438E+03</pdfrwt>
<totfact> 0.37750164E+05</totfact>
</mgrwt>
</event>
<event>
 6    2  0.1181843E-002  0.1265894E+03  0.7546771E-02  0.1232606E+00
          2   -1    0    0  503    0 -0.00000000000E+00  0.00000000000E+00  0.10846544894E+04  0.10846544894E+04  0.00000000000E+00 0.  1.
         21   -1    0    0  502  503  0.00000000000E+00 -0.00000000000E+00 -0.56234810441E+01  0.56234810441E+01  0.00000000000E+00 0.  1.
         25    2    1    2    0    0  0.39968895050E+01  0.19660997046E+02  0.74772721150E+03  0.75836723585E+03  0.12498940618E+03 0.  0.
          5    1    3    3  501    0  0.60368330498E+02  0.14041112865E+02  0.25640215368E+03  0.26378696440E+03  0.10000000000E+00 0. -1.
         -5    1    3    3    0  501 -0.56371440993E+02  0.56198841812E+01  0.49132505783E+03  0.49458027145E+03  0.10000000000E+00 0. -1.
          2    1    1    2  502    0 -0.39968895050E+01 -0.19660997046E+02  0.33130379689E+03  0.33191073463E+03  0.00000000000E+00 0.  1.
<mgrwt>
<rscale>  1 0.12658942E+03</rscale>
<asrwt>0</asrwt>
<pdfrwt beam="1">  1       21 0.86515179E-03 0.12658942E+03</pdfrwt>
<pdfrwt beam="2">  1        2 0.16686976E+00 0.12658942E+03</pdfrwt>
<totfact> 0.13685648E+06</totfact>
</mgrwt>
</event>
<event>
 6    2  0.1181843E-002  0.1312575E+03  0.7546771E-02  0.1225602E+00
         21   -1    0    0  502  503  0.00000000000E+00  0.00000000000E+00  0.76739213264E+01  0.76739213264E+01  0.00000000000E+00 0.  1.
          2   -1    0    0  503    0 -0.00000000000E+00 -0.00000000000E+00 -0.14662107187E+04  0.14662107187E+04  0.00000000000E+00 0.  1.
         25    2    1    2    0    0  0.39209403463E+02 -0.81781915998E+01 -0.58997078229E+03  0.60439560462E+03  0.12499705112E+03 0.  0.
          5    1    3    3  501    0 -0.40751463478E+02 -0.12449050062E+01 -0.32467288331E+03  0.32722274175E+03  0.10000000000E+00 0.  1.
         -5    1    3    3    0  501  0.79960866941E+02 -0.69332865936E+01 -0.26529789898E+03  0.27717286287E+03  0.10000000000E+00 0.  1.
          2    1    1    2  502    0 -0.39209403463E+02  0.81781915998E+01 -0.86856601511E+03  0.86948903543E+03  0.00000000000E+00 0.  1.
<mgrwt>
<rscale>  1 0.13125747E+03</rscale>
<asrwt>0</asrwt>
<pdfrwt beam="1">  1       21 0.11806027E-02 0.13125747E+03</pdfrwt>
<pdfrwt beam="2">  1        2 0.22557100E+00 0.13125747E+03</pdfrwt>
<totfact> 0.52115155E+05</totfact>
</mgrwt>
</event>
<event>
 6    2  0.1181843E-002  0.1353997E+03  0.7546771E-02  0.1219656E+00
          2   -1    0    0  503    0 -0.00000000000E+00  0.00000000000E+00  0.78046911441E+03  0.78046911441E+03  0.00000000000E+00 0.  1.
         21   -1    0    0  502  503  0.00000000000E+00 -0.00000000000E+00 -0.64046237770E+03  0.64046237770E+03  0.00000000000E+00 0. -1.
         25    2    1    2    0    0 -0.46604252604E+02 -0.23148593954E+02 -0.63242098456E+03  0.64675296079E+03  0.12500110723E+03 0.  0.
          5    1    3    3  501    0  0.39022361036E+02 -0.66311833991E+01 -0.10582634948E+03  0.11298647485E+03  0.10000000000E+00 0. -1.
         -5    1    3    3    0  501 -0.85626613640E+02 -0.16517410555E+02 -0.52659463508E+03  0.53376648594E+03  0.10000000000E+00 0. -1.
          2    1    1    2  502    0  0.46604252604E+02  0.23148593954E+02  0.77242772127E+03  0.77417853132E+03  0.00000000000E+00 0.  1.
<mgrwt>
<rscale>  1 0.13539974E+03</rscale>
<asrwt>0</asrwt>
<pdfrwt beam="1">  1       21 0.98532674E-01 0.13539974E+03</pdfrwt>
<pdfrwt beam="2">  1        2 0.12007217E+00 0.13539974E+03</pdfrwt>
<totfact> 0.41248730E+02</totfact>
</mgrwt>
</event>
<event>
 6    2  0.1181843E-002  0.1874481E+03  0.7546771E-02  0.1160783E+00
         21   -1    0    0  502  503  0.00000000000E+00  0.00000000000E+00  0.54571676875E+02  0.54571676875E+02  0.00000000000E+00 0. -1.
          2   -1    0    0  503    0 -0.00000000000E+00 -0.00000000000E+00 -0.49156798868E+03  0.49156798868E+03  0.00000000000E+00 0. -1.
         25    2    1    2    0    0  0.85682753661E+02  0.11031616992E+03 -0.23631118545E+03  0.30162849698E+03  0.12500232877E+03 0.  0.
          5    1    3    3  501    0  0.82843370466E+02  0.89838751787E+02 -0.24899987794E+03  0.27737154607E+03  0.10000000000E+00 0.  1.
         -5    1    3    3    0  501  0.28393831947E+01  0.20477418131E+02  0.12688692490E+02  0.24256950908E+02  0.10000000000E+00 0.  1.
          2    1    1    2  502    0 -0.85682753661E+02 -0.11031616992E+03 -0.20068512635E+03  0.24451116858E+03  0.00000000000E+00 0. -1.
<mgrwt>
<rscale>  1 0.18744806E+03</rscale>
<asrwt>0</asrwt>
<pdfrwt beam="1">  1       21 0.83956427E-02 0.18744806E+03</pdfrwt>
<pdfrwt beam="2">  1        2 0.75625843E-01 0.18744806E+03</pdfrwt>
<totfact> 0.87617257E+04</totfact>
</mgrwt>
</event>
<event>
 6    2  0.1181843E-002  0.1265427E+03  0.7546771E-02  0.1232678E+00
          2   -1    0    0  503    0 -0.00000000000E+00  0.00000000000E+00  0.58844274783E+03  0.58844274783E+03  0.00000000000E+00 0. -1.
         21   -1    0    0  502  503  0.00000000000E+00 -0.00000000000E+00 -0.59273446400E+02  0.59273446400E+02  0.00000000000E+00 0. -1.
         25    2    1    2    0    0  0.16563051876E+00 -0.19673393168E+02  0.86636981257E+01  0.12683890263E+03  0.12500391083E+03 0.  0.
          5    1    3    3  501    0 -0.12948661526E+02 -0.65068612858E+02  0.32542868456E+02  0.73896146732E+02  0.10000000000E+00 0.  1.
         -5    1    3    3    0  501  0.13114292045E+02  0.45395219689E+02 -0.23879170330E+02  0.52942755899E+02  0.10000000000E+00 0.  1.
          2    1    1    2  502    0 -0.16563051876E+00  0.19673393168E+02  0.52050560330E+03  0.52087729160E+03  0.00000000000E+00 0. -1.
<mgrwt>
<rscale>  1 0.12654267E+03</rscale>
<asrwt>0</asrwt>
<pdfrwt beam="1">  1       21 0.91189922E-02 0.12654267E+03</pdfrwt>
<pdfrwt beam="2">  1        2 0.90529649E-01 0.12654267E+03</pdfrwt>
<totfact> 0.61799668E+04</totfact>
</mgrwt>
</event>
<event>
 6    2  0.1181843E-002  0.1273780E+03  0.7546771E-02  0.1231399E+00
         21   -1    0    0  502  503  0.00000000000E+00  0.00000000000E+00  0.74402415738E+03  0.74402415738E+03  0.00000000000E+00 0. -1.
          1   -1    0    0  503    0 -0.00000000000E+00 -0.00000000000E+00 -0.43610808867E+03  0.43610808867E+03  0.00000000000E+00 0. -1.
         25    2    1    2    0    0  0.24302059260E+02  0.24728195813E+01  0.73822340058E+03  0.74913212449E+03  0.12501378268E+03 0.  0.
          5    1    3    3  501    0 -0.32226372855E+02  0.10445154478E+02  0.57888899934E+03  0.57987940463E+03  0.10000000000E+00 0. -1.
         -5    1    3    3    0  501  0.56528432115E+02 -0.79723348964E+01  0.15933440124E+03  0.16925271986E+03  0.10000000000E+00 0. -1.
          1    1    1    2  502    0 -0.24302059260E+02 -0.24728195813E+01 -0.43030733187E+03  0.43100012156E+03  0.00000000000E+00 0. -1.
<mgrwt>
<rscale>  1 0.12737798E+03</rscale>
<asrwt>0</asrwt>
<pdfrwt beam="1">  1       21 0.11446526E+00 0.12737798E+03</pdfrwt>
<pdfrwt beam="2">  1        1 0.67093552E-01 0.12737798E+03</pdfrwt>
<totfact> 0.37273411E+02</totfact>
</mgrwt>
</event>
<event>
 6    2  0.1181843E-002  0.1373066E+03  0.7546771E-02  0.1217000E+00
          2   -1    0    0  503    0 -0.00000000000E+00  0.00000000000E+00  0.18526500934E+04  0.18526500934E+04  0.00000000000E+00 0. -1.
         21   -1    0    0  502  503  0.00000000000E+00 -0.00000000000E+00 -0.15411222331E+02  0.15411222331E+02  0.00000000000E+00 0. -1.
         25    2    1    2    0    0  0.36073005270E+02  0.43882257412E+02  0.30173821199E+03  0.33151024654E+03  0.12500472294E+03 0.  0.
          5    1    3    3  501    0 -0.46774859244E+02  0.16945334493E+02  0.12269749338E+03  0.13239983648E+03  0.10000000000E+00 0. -1.
         -5    1    3    3    0  501  0.82847864514E+02  0.26936922919E+02  0.17904071861E+03  0.19911041006E+03  0.10000000000E+00 0. -1.
          2    1    1    2  502    0 -0.36073005270E+02 -0.43882257412E+02  0.15355006590E+04  0.15365510692E+04  0.00000000000E+00 0. -1.
<mgrwt>
<rscale>  1 0.13730657E+03</rscale>
<asrwt>0</asrwt>
<pdfrwt beam="1">  1       21 0.23709587E-02 0.13730657E+03</pdfrwt>
<pdfrwt beam="2">  1        2 0.28502292E+00 0.13730657E+03</pdfrwt>
<totfact> 0.10776392E+05</totfact>
</mgrwt>
</event>
<event>
 6    2  0.1181843E-002  0.1345191E+03  0.7546771E-02  0.1220900E+00
         21   -1    0    0  502  503  0.00000000000E+00  0.00000000000E+00  0.13510320640E+02  0.13510320640E+02  0.00000000000E+00 0. -1.
          1   -1    0    0  503    0 -0.00000000000E+00 -0.00000000000E+00 -0.62853433461E+03  0.62853433461E+03  0.00000000000E+00 0. -1.
         25    2    1    2    0    0 -0.31326097671E+02  0.38585437039E+02 -0.45742472820E+03  0.47679425367E+03  0.12500087207E+03 0.  0.
          5    1    3    3  501    0  0.17638083515E+02  0.57035631190E+02 -0.37093223209E+03  0.37570586370E+03  0.10000000000E+00 0. -1.
         -5    1    3    3    0  501 -0.48964181186E+02 -0.18450194151E+02 -0.86492496105E+02  0.10108838997E+03  0.10000000000E+00 0. -1.
          1    1    1    2  502    0  0.31326097671E+02 -0.38585437039E+02 -0.15759928577E+03  0.16525040158E+03  0.00000000000E+00 0. -1.
<mgrwt>
<rscale>  1 0.13451906E+03</rscale>
<asrwt>0</asrwt>
<pdfrwt beam="1">  1       21 0.20785114E-02 0.13451906E+03</pdfrwt>
<pdfrwt beam="2">  1        1 0.96697563E-01 0.13451906E+03</pdfrwt>
<totfact> 0.41586776E+05</totfact>
</mgrwt>
</event>
<event>
 6    2  0.1181843E-002  0.1631319E+03  0.7546771E-02  0.1185206E+00
         21   -1    0    0  502  503  0.00000000000E+00  0.00000000000E+00  0.24102117162E+02  0.24102117162E+02  0.00000000000E+00 0. -1.
          2   -1    0    0  503    0 -0.00000000000E+00 -0.00000000000E+00 -0.15429545677E+04  0.15429545677E+04  0.00000000000E+00 0. -1.
         25    2    1    2    0    0 -0.48789118747E+02  0.92767007198E+02 -0.28210859623E+03  0.32587923707E+03  0.12500368537E+03 0.  0.
          5    1    3    3  501    0  0.40568182734E+02  0.13148213535E+02 -0.89010705669E+02  0.98699385475E+02  0.10000000000E+00 0.  1.
         -5    1    3    3    0  501 -0.89357301481E+02  0.79618793663E+02 -0.19309789056E+03  0.22717985160E+03  0.10000000000E+00 0.  1.
          2    1    1    2  502    0  0.48789118747E+02 -0.92767007198E+02 -0.12367438543E+04  0.12411774478E+04  0.00000000000E+00 0. -1.
<mgrwt>
<rscale>  1 0.16313190E+03</rscale>
<asrwt>0</asrwt>
<pdfrwt beam="1">  1       21 0.37080181E-02 0.16313190E+03</pdfrwt>
<pdfrwt beam="2">  1        2 0.23737762E+00 0.16313190E+03</pdfrwt>
<totfact> 0.74387424E+04</totfact>
</mgrwt>
</event>
<event>
 6    2  0.1181843E-002  0.1260833E+03  0.7546771E-02  0.1233386E+00
          2   -1    0    0  503    0 -0.00000000000E+00  0.00000000000E+00  0.18668023869E+03  0.18668023869E+03  0.00000000000E+00 0.  1.
         21   -1    0    0  502  503  0.00000000000E+00 -0.00000000000E+00 -0.27768283580E+02  0.27768283580E+02  0.00000000000E+00 0.  1.
         25    2    1    2    0    0  0.11098493954E+02  0.11698093472E+02  0.12849795146E+03  0.18002420562E+03  0.12504786732E+03 0.  0.
          5    1    3    3  501    0  0.10228226658E+01 -0.56009362014E+02  0.43718919896E+02  0.71059473374E+02  0.10000000000E+00 0.  1.
         -5    1    3    3    0  501  0.10075671288E+02  0.67707455486E+02  0.84779031569E+02  0.10896473225E+03  0.10000000000E+00 0.  1.
          2    1    1    2  502    0 -0.11098493954E+02 -0.11698093472E+02  0.30414003649E+02  0.34424316651E+02  0.00000000000E+00 0.  1.
<mgrwt>
<rscale>  1 0.12608327E+03</rscale>
<asrwt>0</asrwt>
<pdfrwt beam="1">  1       21 0.42720437E-02 0.12608327E+03</pdfrwt>
<pdfrwt beam="2">  1        2 0.28720036E-01 0.12608327E+03</pdfrwt>
<totfact> 0.76922531E+05</totfact>
</mgrwt>
</event>
<event>
 6    2  0.1181843E-002  0.1261947E+03  0.7546771E-02  0.1233214E+00
         21   -1    0    0  502  503  0.00000000000E+00  0.00000000000E+00  0.57551963881E+02  0.57551963881E+02  0.00000000000E+00 0. -1.
          2   -1    0    0  503    0 -0.00000000000E+00 -0.00000000000E+00 -0.84480980150E+03  0.84480980150E+03  0.00000000000E+00 0. -1.
         25    2    1    2    0    0 -0.97175202348E+01  0.14352203103E+02 -0.11838496053E+02  0.12674873609E+03  0.12499870471E+03 0.  0.
          5    1    3    3  501    0  0.13100040090E+01  0.15811909502E+02 -0.67830971840E+02  0.69661921689E+02  0.10000000000E+00 0.  1.
         -5    1    3    3    0  501 -0.11027524244E+02 -0.14597063986E+01  0.55992475787E+02  0.57086814401E+02  0.10000000000E+00 0.  1.
          2    1    1    2  502    0  0.97175202348E+01 -0.14352203103E+02 -0.77541934157E+03  0.77561302930E+03  0.00000000000E+00 0. -1.
<mgrwt>
<rscale>  1 0.12619466E+03</rscale>
<asrwt>0</asrwt>
<pdfrwt beam="1">  1       21 0.88541494E-02 0.12619466E+03</pdfrwt>
<pdfrwt beam="2">  1        2 0.12997072E+00 0.12619466E+03</pdfrwt>
<totfact> 0.42292650E+04</totfact>
</mgrwt>
</event>
<event>
 6    2  0.1181843E-002  0.1263503E+03  0.7546771E-02  0.1232974E+00
          2   -1    0    0  503    0 -0.00000000000E+00  0.00000000000E+00  0.91320487438E+02  0.91320487438E+02  0.00000000000E+00 0. -1.
         21   -1    0    0  502  503  0.00000000000E+00 -0.00000000000E+00 -0.15374044150E+03  0.15374044150E+03  0.00000000000E+00 0. -1.
         25    2    1    2    0    0 -0.14636940201E+02  0.11204549028E+02 -0.12625428256E+03  0.17861844680E+03  0.12499849493E+03 0.  0.
          5    1    3    3  501    0  0.20831703952E+02 -0.48368526068E+02 -0.32046218253E+02  0.61647743737E+02  0.10000000000E+00 0.  1.
         -5    1    3    3    0  501 -0.35468644153E+02  0.59573075096E+02 -0.94208064307E+02  0.11697070306E+03  0.10000000000E+00 0.  1.
          2    1    1    2  502    0  0.14636940201E+02 -0.11204549028E+02  0.63834328500E+02  0.66442482136E+02  0.00000000000E+00 0. -1.
<mgrwt>
<rscale>  1 0.12635033E+03</rscale>
<asrwt>0</asrwt>
<pdfrwt beam="1">  1       21 0.23652375E-01 0.12635033E+03</pdfrwt>
<pdfrwt beam="2">  1        2 0.14049306E-01 0.12635033E+03</pdfrwt>
<totfact> 0.85363082E+04</totfact>
</mgrwt>
</event>
<event>
 6    2  0.1181843E-002  0.1268904E+03  0.7546771E-02  0.1232144E+00
          2   -1    0    0  503    0 -0.00000000000E+00  0.00000000000E+00  0.93717114857E+02  0.93717114857E+02  0.00000000000E+00 0. -1.
         21   -1    0    0  502  503  0.00000000000E+00 -0.00000000000E+00 -0.11827377653E+03  0.11827377653E+03  0.00000000000E+00 0. -1.
         25    2    1    2    0    0 -0.85264334027E+01  0.20065914702E+02 -0.81640499467E+02  0.15088519987E+03  0.12500332550E+03 0.  0.
          5    1    3    3  501    0 -0.63624602215E+02  0.77174989103E+01 -0.19655099360E+02  0.67037174219E+02  0.10000000000E+00 0.  1.
         -5    1    3    3    0  501  0.55098168812E+02  0.12348415792E+02 -0.61985400107E+02  0.83848025650E+02  0.10000000000E+00 0.  1.
          2    1    1    2  502    0  0.85264334027E+01 -0.20065914702E+02  0.57083837790E+02  0.61105691521E+02  0.00000000000E+00 0. -1.
<mgrwt>
<rscale>  1 0.12689040E+03</rscale>
<asrwt>0</asrwt>
<pdfrwt beam="1">  1       21 0.18195966E-01 0.12689040E+03</pdfrwt>
<pdfrwt beam="2">  1        2 0.14418018E-01 0.12689040E+03</pdfrwt>
<totfact> 0.13469567E+05</totfact>
</mgrwt>
</event>
<event>
 6    2  0.1181843E-002  0.1284821E+03  0.7546771E-02  0.1229726E+00
         21   -1    0    0  502  503  0.00000000000E+00  0.00000000000E+00  0.17872656075E+02  0.17872656075E+02  0.00000000000E+00 0.  1.
          2   -1    0    0  503    0 -0.00000000000E+00 -0.00000000000E+00 -0.57011854107E+03  0.57011854107E+03  0.00000000000E+00 0.  1.
         25    2    1    2    0    0 -0.29254854739E+02  0.51464514852E+01 -0.22266605880E+03  0.25707550649E+03  0.12500123922E+03 0.  0.
          5    1    3    3  501    0 -0.17204120175E+02  0.44819161922E+02 -0.20741261160E+03  0.21289607906E+03  0.10000000000E+00 0. -1.
         -5    1    3    3    0  501 -0.12050734564E+02 -0.39672710436E+02 -0.15253447202E+02  0.44179427434E+02  0.10000000000E+00 0. -1.
          2    1    1    2  502    0  0.29254854739E+02 -0.51464514852E+01 -0.32957982619E+03  0.33091569065E+03  0.00000000000E+00 0.  1.
<mgrwt>
<rscale>  1 0.12848207E+03</rscale>
<asrwt>0</asrwt>
<pdfrwt beam="1">  1       21 0.27496389E-02 0.12848207E+03</pdfrwt>
<pdfrwt beam="2">  1        2 0.87710561E-01 0.12848207E+03</pdfrwt>
<totfact> 0.48097174E+05</totfact>
</mgrwt>
</event>
<event>
 6    2  0.1181843E-002  0.1259592E+03  0.7546771E-02  0.1233578E+00
          1   -1    0    0  503    0 -0.00000000000E+00  0.00000000000E+00  0.31877522316E+03  0.31877522316E+03  0.00000000000E+00 0. -1.
         21   -1    0    0  502  503  0.00000000000E+00 -0.00000000000E+00 -0.61743374677E+02  0.61743374677E+02  0.00000000000E+00 0. -1.
         25    2    1    2    0    0  0.76933484855E+00  0.15508031025E+02  0.29817418774E+01  0.12599443873E+03  0.12499846761E+03 0.  0.
          5    1    3    3  501    0 -0.53765003934E+02  0.32587695688E+02  0.20657391241E+02  0.66176818986E+02  0.10000000000E+00 0. -1.
         -5    1    3    3    0  501  0.54534338782E+02 -0.17079664663E+02 -0.17675649363E+02  0.59817619744E+02  0.10000000000E+00 0. -1.
          1    1    1    2  502    0 -0.76933484855E+00 -0.15508031025E+02  0.25405010661E+03  0.25452415911E+03  0.00000000000E+00 0. -1.
<mgrwt>
<rscale>  1 0.12595915E+03</rscale>
<asrwt>0</asrwt>
<pdfrwt beam="1">  1       21 0.94989809E-02 0.12595915E+03</pdfrwt>
<pdfrwt beam="2">  1        1 0.49042341E-01 0.12595915E+03</pdfrwt>
<totfact> 0.78197693E+04</totfact>
</mgrwt>
</event>
<event>
 6    2  0.1181843E-002  0.1363019E+03  0.7546771E-02  0.1218393E+00
         21   -1    0    0  502  503  0.00000000000E+00  0.00000000000E+00  0.63423284330E+01  0.63423284330E+01  0.00000000000E+00 0. -1.
          1   -1    0    0  503    0 -0.00000000000E+00 -0.00000000000E+00 -0.17265511090E+04  0.17265511090E+04  0.00000000000E+00 0. -1.
         25    2    1    2    0    0  0.63131220114E+01  0.53969085891E+02 -0.83796564775E+03  0.84897858681E+03  0.12500278524E+03 0.  0.
          5    1    3    3  501    0  0.63012052103E+02  0.29690152470E+02 -0.32926029146E+03  0.33654772825E+03  0.10000000000E+00 0. -1.
         -5    1    3    3    0  501 -0.56698930092E+02  0.24278933421E+02 -0.50870535629E+03  0.51243085856E+03  0.10000000000E+00 0. -1.
          1    1    1    2  502    0 -0.63131220114E+01 -0.53969085891E+02 -0.88224313278E+03  0.88391485058E+03  0.00000000000E+00 0. -1.
<mgrwt>
<rscale>  1 0.13630192E+03</rscale>
<asrwt>0</asrwt>
<pdfrwt beam="1">  1       21 0.97574342E-03 0.13630192E+03</pdfrwt>
<pdfrwt beam="2">  1        1 0.26562309E+00 0.13630192E+03</pdfrwt>
<totfact> 0.22544581E+05</totfact>
</mgrwt>
</event>
<event>
 6    2  0.1181843E-002  0.1660764E+03  0.7546771E-02  0.1182002E+00
          1   -1    0    0  503    0 -0.00000000000E+00  0.00000000000E+00  0.18047866496E+04  0.18047866496E+04  0.00000000000E+00 0.  1.
         21   -1    0    0  502  503  0.00000000000E+00 -0.00000000000E+00 -0.18808317784E+02  0.18808317784E+02  0.00000000000E+00 0. -1.
         25    2    1    2    0    0  0.71975762579E+02  0.82313642570E+02  0.39724397147E+03  0.43056260245E+03  0.12500134242E+03 0.  0.
          5    1    3    3  501    0 -0.26569962106E+02  0.56699077586E+02  0.12286973631E+03  0.13790478739E+03  0.10000000000E+00 0.  1.
         -5    1    3    3    0  501  0.98545724685E+02  0.25614564985E+02  0.27437423516E+03  0.29265781506E+03  0.10000000000E+00 0.  1.
          1    1    1    2  502    0 -0.71975762579E+02 -0.82313642570E+02  0.13887343604E+04  0.13930323649E+04  0.00000000000E+00 0.  1.
<mgrwt>
<rscale>  1 0.16607643E+03</rscale>
<asrwt>0</asrwt>
<pdfrwt beam="1">  1       21 0.28935888E-02 0.16607643E+03</pdfrwt>
<pdfrwt beam="2">  1        1 0.27765935E+00 0.16607643E+03</pdfrwt>
<totfact> 0.34844102E+04</totfact>
</mgrwt>
</event>
<event>
 6    2  0.1181843E-002  0.1606594E+03  0.7546771E-02  0.1187954E+00
          2   -1    0    0  503    0 -0.00000000000E+00  0.00000000000E+00  0.16994908885E+04  0.16994908885E+04  0.00000000000E+00 0. -1.
         21   -1    0    0  502  503  0.00000000000E+00 -0.00000000000E+00 -0.18807975846E+03  0.18807975846E+03  0.00000000000E+00 0. -1.
         25    2    1    2    0    0  0.34572992600E+02  0.94829956107E+02 -0.15195939505E+03  0.22114047556E+03  0.12499375902E+03 0.  0.
          5    1    3    3  501    0  0.32765881045E+02 -0.18260150925E+02 -0.85081552929E+01  0.38463421311E+02  0.10000000000E+00 0.  1.
         -5    1    3    3    0  501  0.18071115546E+01  0.11309010703E+03 -0.14345123976E+03  0.18267705425E+03  0.10000000000E+00 0.  1.
          2    1    1    2  502    0 -0.34572992600E+02 -0.94829956107E+02  0.16633705251E+04  0.16664301714E+04  0.00000000000E+00 0. -1.
<mgrwt>
<rscale>  1 0.16065943E+03</rscale>
<asrwt>0</asrwt>
<pdfrwt beam="1">  1       21 0.28935349E-01 0.16065943E+03</pdfrwt>
<pdfrwt beam="2">  1        2 0.26146013E+00 0.16065943E+03</pdfrwt>
<totfact> 0.16114571E+03</totfact>
</mgrwt>
</event>
<event>
 6    2  0.1181843E-002  0.1434556E+03  0.7546771E-02  0.1208753E+00
         21   -1    0    0  502  503  0.00000000000E+00  0.00000000000E+00  0.28577227918E+02  0.28577227918E+02  0.00000000000E+00 0. -1.
          2   -1    0    0  503    0 -0.00000000000E+00 -0.00000000000E+00 -0.50719906407E+03  0.50719906407E+03  0.00000000000E+00 0. -1.
         25    2    1    2    0    0  0.87883631761E+00 -0.70383156790E+02 -0.18648340995E+03  0.23527767107E+03  0.12499983681E+03 0.  0.
          5    1    3    3  501    0  0.18231838937E+02  0.12425186659E+02 -0.13380393807E+03  0.13561079993E+03  0.10000000000E+00 0.  1.
         -5    1    3    3    0  501 -0.17353002620E+02 -0.82808343448E+02 -0.52679471884E+02  0.99666871139E+02  0.10000000000E+00 0.  1.
          2    1    1    2  502    0 -0.87883631761E+00  0.70383156790E+02 -0.29213842620E+03  0.30049862092E+03  0.00000000000E+00 0. -1.
<mgrwt>
<rscale>  1 0.14345564E+03</rscale>
<asrwt>0</asrwt>
<pdfrwt beam="1">  1       21 0.43964969E-02 0.14345564E+03</pdfrwt>
<pdfrwt beam="2">  1        2 0.78030620E-01 0.14345564E+03</pdfrwt>
<totfact> 0.25365327E+05</totfact>
</mgrwt>
</event>
<event>
 6    2  0.1181843E-002  0.1300757E+03  0.7546771E-02  0.1227344E+00
         21   -1    0    0  502  503  0.00000000000E+00  0.00000000000E+00  0.31464319947E+02  0.31464319947E+02  0.00000000000E+00 0. -1.
          2   -1    0    0  503    0 -0.00000000000E+00 -0.00000000000E+00 -0.94567375730E+03  0.94567375730E+03  0.00000000000E+00 0.  1.
         25    2    1    2    0    0  0.19071966219E+02 -0.30562891389E+02 -0.10510652231E+03  0.16723354130E+03  0.12498738367E+03 0.  0.
          5    1    3    3  501    0  0.59241150593E+02 -0.13694738004E+02 -0.86779710002E+01  0.61419678877E+02  0.10000000000E+00 0.  1.
         -5    1    3    3    0  501 -0.40169184374E+02 -0.16868153385E+02 -0.96428551312E+02  0.10581386242E+03  0.10000000000E+00 0.  1.
          2    1    1    2  502    0 -0.19071966219E+02  0.30562891389E+02 -0.80910291504E+03  0.80990453595E+03  0.00000000000E+00 0.  1.
<mgrwt>
<rscale>  1 0.13007566E+03</rscale>
<asrwt>0</asrwt>
<pdfrwt beam="1">  1       21 0.48406645E-02 0.13007566E+03</pdfrwt>
<pdfrwt beam="2">  1        2 0.14548827E+00 0.13007566E+03</pdfrwt>
<totfact> 0.10223488E+05</totfact>
</mgrwt>
</event>
<event>
 6    2  0.1181843E-002  0.1301566E+03  0.7546771E-02  0.1227223E+00
         21   -1    0    0  502  503  0.00000000000E+00  0.00000000000E+00  0.35158745441E+02  0.35158745441E+02  0.00000000000E+00 0. -1.
          2   -1    0    0  503    0 -0.00000000000E+00 -0.00000000000E+00 -0.55918325503E+03  0.55918325503E+03  0.00000000000E+00 0. -1.
         25    2    1    2    0    0  0.31221847290E+02 -0.18483209168E+02 -0.88697375920E+02  0.15750547947E+03  0.12499727517E+03 0.  0.
          5    1    3    3  501    0 -0.36370775236E+02 -0.35854292039E+02 -0.67349748579E+02  0.84524328938E+02  0.10000000000E+00 0. -1.
         -5    1    3    3    0  501  0.67592622526E+02  0.17371082871E+02 -0.21347627341E+02  0.72981150533E+02  0.10000000000E+00 0. -1.
          2    1    1    2  502    0 -0.31221847290E+02  0.18483209168E+02 -0.43532713367E+03  0.43683652100E+03  0.00000000000E+00 0. -1.
<mgrwt>
<rscale>  1 0.13015664E+03</rscale>
<asrwt>0</asrwt>
<pdfrwt beam="1">  1       21 0.54090376E-02 0.13015664E+03</pdfrwt>
<pdfrwt beam="2">  1        2 0.86028196E-01 0.13015664E+03</pdfrwt>
<totfact> 0.16006778E+05</totfact>
</mgrwt>
</event>
<event>
 6    2  0.1181843E-002  0.1294270E+03  0.7546771E-02  0.1228308E+00
         21   -1    0    0  502  503  0.00000000000E+00  0.00000000000E+00  0.86147235129E+01  0.86147235129E+01  0.00000000000E+00 0.  1.
          2   -1    0    0  503    0 -0.00000000000E+00 -0.00000000000E+00 -0.84835469613E+03  0.84835469613E+03  0.00000000000E+00 0.  1.
         25    2    1    2    0    0 -0.58564696272E+01 -0.33061815697E+02 -0.53717619729E+03  0.55254829680E+03  0.12499588580E+03 0.  0.
          5    1    3    3  501    0  0.28141796982E+01  0.16566469367E+01 -0.50317604024E+03  0.50318664684E+03  0.10000000000E+00 0. -1.
         -5    1    3    3    0  501 -0.86706493253E+01 -0.34718462634E+02 -0.34000157055E+02  0.49361649964E+02  0.10000000000E+00 0. -1.
          2    1    1    2  502    0  0.58564696272E+01  0.33061815697E+02 -0.30256377533E+03  0.30442112285E+03  0.00000000000E+00 0.  1.
<mgrwt>
<rscale>  1 0.12942702E+03</rscale>
<asrwt>0</asrwt>
<pdfrwt beam="1">  1       21 0.13253419E-02 0.12942702E+03</pdfrwt>
<pdfrwt beam="2">  1        2 0.13051612E+00 0.12942702E+03</pdfrwt>
<totfact> 0.97298854E+05</totfact>
</mgrwt>
</event>
<event>
 6    2  0.1181843E-002  0.1675091E+03  0.7546771E-02  0.1180471E+00
         21   -1    0    0  502  503  0.00000000000E+00  0.00000000000E+00  0.14595009440E+02  0.14595009440E+02  0.00000000000E+00 0. -1.
          2   -1    0    0  503    0 -0.00000000000E+00 -0.00000000000E+00 -0.15782784607E+04  0.15782784607E+04  0.00000000000E+00 0. -1.
         25    2    1    2    0    0  0.10267145897E+03  0.43509361912E+02 -0.60617747276E+03  0.62889619244E+03  0.12499919728E+03 0.  0.
          5    1    3    3  501    0  0.10558092249E+03  0.70716902505E+02 -0.37158200114E+03  0.39271033226E+03  0.10000000000E+00 0. -1.
         -5    1    3    3    0  501 -0.29094635151E+01 -0.27207540593E+02 -0.23459547162E+03  0.23618586017E+03  0.10000000000E+00 0. -1.
          2    1    1    2  502    0 -0.10267145897E+03 -0.43509361912E+02 -0.95750597846E+03  0.96397727766E+03  0.00000000000E+00 0. -1.
<mgrwt>
<rscale>  1 0.16750908E+03</rscale>
<asrwt>0</asrwt>
<pdfrwt beam="1">  1       21 0.22453874E-02 0.16750908E+03</pdfrwt>
<pdfrwt beam="2">  1        2 0.24281193E+00 0.16750908E+03</pdfrwt>
<totfact> 0.16281023E+05</totfact>
</mgrwt>
</event>
<event>
 6    2  0.1181843E-002  0.1329292E+03  0.7546771E-02  0.1223173E+00
          2   -1    0    0  503    0 -0.00000000000E+00  0.00000000000E+00  0.12555315021E+03  0.12555315021E+03  0.00000000000E+00 0. -1.
         21   -1    0    0  502  503  0.00000000000E+00 -0.00000000000E+00 -0.75940678980E+02  0.75940678980E+02  0.00000000000E+00 0. -1.
         25    2    1    2    0    0 -0.12435083434E+02 -0.43488493957E+02 -0.18983918107E+01  0.13294275759E+03  0.12499716996E+03 0.  0.
          5    1    3    3  501    0  0.42007501313E+02 -0.40605384862E+02  0.34065219021E+02  0.67630441321E+02  0.10000000000E+00 0. -1.
         -5    1    3    3    0  501 -0.54442584747E+02 -0.28831090956E+01 -0.35963610832E+02  0.65312316266E+02  0.10000000000E+00 0. -1.
          2    1    1    2  502    0  0.12435083434E+02  0.43488493957E+02  0.51510863045E+02  0.68551071606E+02  0.00000000000E+00 0. -1.
<mgrwt>
<rscale>  1 0.13292920E+03</rscale>
<asrwt>0</asrwt>
<pdfrwt beam="1">  1       21 0.11683181E-01 0.13292920E+03</pdfrwt>
<pdfrwt beam="2">  1        2 0.19315869E-01 0.13292920E+03</pdfrwt>
<totfact> 0.21380954E+05</totfact>
</mgrwt>
</event>
<event>
 6    2  0.1181843E-002  0.1279561E+03  0.7546771E-02  0.1230520E+00
         21   -1    0    0  502  503  0.00000000000E+00  0.00000000000E+00  0.35496466975E+02  0.35496466975E+02  0.00000000000E+00 0. -1.
          3   -1    0    0  503    0 -0.00000000000E+00 -0.00000000000E+00 -0.31460388915E+03  0.31460388915E+03  0.00000000000E+00 0.  1.
         25    2    1    2    0    0 -0.27209280705E+02  0.18687553587E+01 -0.83929048567E+02  0.15302566285E+03  0.12501572339E+03 0.  0.
          5    1    3    3  501    0 -0.31051178296E+02  0.36804964950E+02 -0.10251921468E+03  0.11326508949E+03  0.10000000000E+00 0. -1.
         -5    1    3    3    0  501  0.38418975915E+01 -0.34936209592E+02  0.18590166118E+02  0.39760573361E+02  0.10000000000E+00 0. -1.
          3    1    1    2  502    0  0.27209280705E+02 -0.18687553587E+01 -0.19517837361E+03  0.19707469327E+03  0.00000000000E+00 0.  1.
<mgrwt>
<rscale>  1 0.12795612E+03</rscale>
<asrwt>0</asrwt>
<pdfrwt beam="1">  1       21 0.54609951E-02 0.12795612E+03</pdfrwt>
<pdfrwt beam="2">  1        3 0.48400597E-01 0.12795612E+03</pdfrwt>
<totfact> 0.47027978E+04</totfact>
</mgrwt>
</event>
<event>
 6    2  0.1181843E-002  0.1285708E+03  0.7546771E-02  0.1229592E+00
         21   -1    0    0  502  503  0.00000000000E+00  0.00000000000E+00  0.45353060263E+02  0.45353060263E+02  0.00000000000E+00 0.  1.
          2   -1    0    0  503    0 -0.00000000000E+00 -0.00000000000E+00 -0.13130267721E+04  0.13130267721E+04  0.00000000000E+00 0.  1.
         25    2    1    2    0    0  0.30087984532E+02 -0.10418337283E+00 -0.46326958795E+02  0.13666252102E+03  0.12500063949E+03 0.  0.
          5    1    3    3  501    0 -0.95813248627E+01 -0.57779918559E+02 -0.21328041981E+02  0.62331502064E+02  0.10000000000E+00 0. -1.
         -5    1    3    3    0  501  0.39669309395E+02  0.57675735186E+02 -0.24998916814E+02  0.74331018956E+02  0.10000000000E+00 0. -1.
          2    1    1    2  502    0 -0.30087984532E+02  0.10418337283E+00 -0.12213467531E+04  0.12217173114E+04  0.00000000000E+00 0.  1.
<mgrwt>
<rscale>  1 0.12857083E+03</rscale>
<asrwt>0</asrwt>
<pdfrwt beam="1">  1       21 0.69773930E-02 0.12857083E+03</pdfrwt>
<pdfrwt beam="2">  1        2 0.20200415E+00 0.12857083E+03</pdfrwt>
<totfact> 0.34045423E+04</totfact>
</mgrwt>
</event>
<event>
 6    2  0.1181843E-002  0.1363131E+03  0.7546771E-02  0.1218378E+00
         21   -1    0    0  502  503  0.00000000000E+00  0.00000000000E+00  0.61990440481E+02  0.61990440481E+02  0.00000000000E+00 0.  1.
          2   -1    0    0  503    0 -0.00000000000E+00 -0.00000000000E+00 -0.29059263926E+03  0.29059263926E+03  0.00000000000E+00 0.  1.
         25    2    1    2    0    0 -0.45795449656E+01  0.54168991915E+02 -0.20926316655E+02  0.13791001685E+03  0.12500404034E+03 0.  0.
          5    1    3    3  501    0 -0.63886424259E+01  0.69831324050E+02 -0.62195782409E+02  0.93731285706E+02  0.10000000000E+00 0.  1.
         -5    1    3    3    0  501  0.18090974604E+01 -0.15662332135E+02  0.41269465753E+02  0.44178731140E+02  0.10000000000E+00 0.  1.
          2    1    1    2  502    0  0.45795449656E+01 -0.54168991915E+02 -0.20767588212E+03  0.21467306289E+03  0.00000000000E+00 0.  1.
<mgrwt>
<rscale>  1 0.13631310E+03</rscale>
<asrwt>0</asrwt>
<pdfrwt beam="1">  1       21 0.95369910E-02 0.13631310E+03</pdfrwt>
<pdfrwt beam="2">  1        2 0.44706559E-01 0.13631310E+03</pdfrwt>
<totfact> 0.12260034E+05</totfact>
</mgrwt>
</event>
<event>
 6    2  0.1181843E-002  0.1437256E+03  0.7546771E-02  0.1208402E+00
          1   -1    0    0  503    0 -0.00000000000E+00  0.00000000000E+00  0.10478248608E+04  0.10478248608E+04  0.00000000000E+00 0. -1.
         21   -1    0    0  502  503  0.00000000000E+00 -0.00000000000E+00 -0.45803401862E+02  0.45803401862E+02  0.00000000000E+00 0. -1.
         25    2    1    2    0    0 -0.39841203991E+02  0.58695686972E+02  0.71720658570E+02  0.16062660973E+03  0.12499819872E+03 0.  0.
          5    1    3    3  501    0  0.18719306592E+02  0.60977761795E+02  0.79038227673E+02  0.10156648712E+03  0.10000000000E+00 0. -1.
         -5    1    3    3    0  501 -0.58560510583E+02 -0.22820748226E+01 -0.73175691022E+01  0.59060122611E+02  0.10000000000E+00 0. -1.
          1    1    1    2  502    0  0.39841203991E+02 -0.58695686972E+02  0.93030080041E+03  0.93300165298E+03  0.00000000000E+00 0. -1.
<mgrwt>
<rscale>  1 0.14372562E+03</rscale>
<asrwt>0</asrwt>
<pdfrwt beam="1">  1       21 0.70466780E-02 0.14372562E+03</pdfrwt>
<pdfrwt beam="2">  1        1 0.16120381E+00 0.14372562E+03</pdfrwt>
<totfact> 0.25005019E+04</totfact>
</mgrwt>
</event>
<event>
 6    2  0.1181843E-002  0.1285123E+03  0.7546771E-02  0.1229680E+00
          2   -1    0    0  503    0 -0.00000000000E+00  0.00000000000E+00  0.31121765842E+01  0.31121765842E+01  0.00000000000E+00 0. -1.
         21   -1    0    0  502  503  0.00000000000E+00 -0.00000000000E+00 -0.20375430843E+04  0.20375430843E+04  0.00000000000E+00 0. -1.
         25    2    1    2    0    0 -0.80164079476E+01  0.28724434846E+02 -0.15575113804E+04  0.15628042470E+04  0.12500423333E+03 0.  0.
          5    1    3    3  501    0  0.55476249586E+02  0.24844619943E+02 -0.56605989833E+03  0.56931422599E+03  0.10000000000E+00 0.  1.
         -5    1    3    3    0  501 -0.63492657534E+02  0.38798149034E+01 -0.99145148209E+03  0.99349002102E+03  0.10000000000E+00 0.  1.
          2    1    1    2  502    0  0.80164079476E+01 -0.28724434846E+02 -0.47691952726E+03  0.47785101385E+03  0.00000000000E+00 0. -1.
<mgrwt>
<rscale>  1 0.12851231E+03</rscale>
<asrwt>0</asrwt>
<pdfrwt beam="1">  1       21 0.31346763E+00 0.12851231E+03</pdfrwt>
<pdfrwt beam="2">  1        2 0.47879721E-03 0.12851231E+03</pdfrwt>
<totfact> 0.14192968E+04</totfact>
</mgrwt>
</event>
<event>
 6    2  0.1181843E-002  0.1318237E+03  0.7546771E-02  0.1224775E+00
          2   -1    0    0  503    0 -0.00000000000E+00  0.00000000000E+00  0.74746000365E+03  0.74746000365E+03  0.00000000000E+00 0. -1.
         21   -1    0    0  502  503  0.00000000000E+00 -0.00000000000E+00 -0.27865047069E+02  0.27865047069E+02  0.00000000000E+00 0.  1.
         25    2    1    2    0    0 -0.27499151727E+02  0.31558480957E+02  0.13307651162E+03  0.18731482347E+03  0.12500137632E+03 0.  0.
          5    1    3    3  501    0 -0.59124300699E+02  0.50512957857E+02  0.40526067385E+02  0.87690444076E+02  0.10000000000E+00 0. -1.
         -5    1    3    3    0  501  0.31625148971E+02 -0.18954476900E+02  0.92550444233E+02  0.99624379394E+02  0.10000000000E+00 0. -1.
          2    1    1    2  502    0  0.27499151727E+02 -0.31558480957E+02  0.58651844496E+03  0.58801022725E+03  0.00000000000E+00 0. -1.
<mgrwt>
<rscale>  1 0.13182369E+03</rscale>
<asrwt>0</asrwt>
<pdfrwt beam="1">  1       21 0.42869309E-02 0.13182369E+03</pdfrwt>
<pdfrwt beam="2">  1        2 0.11499383E+00 0.13182369E+03</pdfrwt>
<totfact> 0.16888389E+05</totfact>
</mgrwt>
</event>
<event>
 6    2  0.1181843E-002  0.1528300E+03  0.7546771E-02  0.1197038E+00
         21   -1    0    0  502  503  0.00000000000E+00  0.00000000000E+00  0.23747194697E+03  0.23747194697E+03  0.00000000000E+00 0.  1.
          2   -1    0    0  503    0 -0.00000000000E+00 -0.00000000000E+00 -0.19728323980E+04  0.19728323980E+04  0.00000000000E+00 0.  1.
         25    2    1    2    0    0 -0.18600611451E+02  0.85925625967E+02  0.21178771051E+03  0.26117244617E+03  0.12501126498E+03 0.  0.
          5    1    3    3  501    0  0.52904232002E+02  0.30172881142E+02  0.69058391226E+02  0.92077857919E+02  0.10000000000E+00 0.  1.
         -5    1    3    3    0  501 -0.71504843453E+02  0.55752744825E+02  0.14272931928E+03  0.16909458825E+03  0.10000000000E+00 0.  1.
          2    1    1    2  502    0  0.18600611451E+02 -0.85925625967E+02 -0.19471481615E+04  0.19491318988E+04  0.00000000000E+00 0.  1.
<mgrwt>
<rscale>  1 0.15283001E+03</rscale>
<asrwt>0</asrwt>
<pdfrwt beam="1">  1       21 0.36534147E-01 0.15283001E+03</pdfrwt>
<pdfrwt beam="2">  1        2 0.30351266E+00 0.15283001E+03</pdfrwt>
<totfact> 0.74331904E+02</totfact>
</mgrwt>
</event>
<event>
 6    2  0.1181843E-002  0.1461742E+03  0.7546771E-02  0.1205255E+00
          2   -1    0    0  503    0 -0.00000000000E+00  0.00000000000E+00  0.14583532397E+04  0.14583532397E+04  0.00000000000E+00 0.  1.
         21   -1    0    0  502  503  0.00000000000E+00 -0.00000000000E+00 -0.88839511183E+02  0.88839511183E+02  0.00000000000E+00 0.  1.
         25    2    1    2    0    0 -0.73622746846E+02 -0.17935463055E+02 -0.26981232493E+02  0.14864344327E+03  0.12499958653E+03 0.  0.
          5    1    3    3  501    0 -0.11384225605E+02  0.51581438503E+02 -0.11508379293E+02  0.54061984654E+02  0.10000000000E+00 0. -1.
         -5    1    3    3    0  501 -0.62238521241E+02 -0.69516901558E+02 -0.15472853200E+02  0.94581458619E+02  0.10000000000E+00 0. -1.
          2    1    1    2  502    0  0.73622746846E+02  0.17935463055E+02  0.13964949610E+04  0.13985493076E+04  0.00000000000E+00 0.  1.
<mgrwt>
<rscale>  1 0.14617416E+03</rscale>
<asrwt>0</asrwt>
<pdfrwt beam="1">  1       21 0.13667618E-01 0.14617416E+03</pdfrwt>
<pdfrwt beam="2">  1        2 0.22436202E+00 0.14617416E+03</pdfrwt>
<totfact> 0.87395990E+03</totfact>
</mgrwt>
</event>
<event>
 6    2  0.1181843E-002  0.1523313E+03  0.7546771E-02  0.1197637E+00
         21   -1    0    0  502  503  0.00000000000E+00  0.00000000000E+00  0.20467221127E+02  0.20467221127E+02  0.00000000000E+00 0. -1.
          2   -1    0    0  503    0 -0.00000000000E+00 -0.00000000000E+00 -0.70038502478E+03  0.70038502478E+03  0.00000000000E+00 0. -1.
         25    2    1    2    0    0 -0.45746628186E+01 -0.86944240688E+02 -0.42474561999E+03  0.45123571851E+03  0.12499841372E+03 0.  0.
          5    1    3    3  501    0  0.48294452233E+02  0.18302230143E+01 -0.11622560958E+03  0.12587337349E+03  0.10000000000E+00 0. -1.
         -5    1    3    3    0  501 -0.52869115052E+02 -0.88774463702E+02 -0.30852001041E+03  0.32536234502E+03  0.10000000000E+00 0. -1.
          2    1    1    2  502    0  0.45746628186E+01  0.86944240688E+02 -0.25517218366E+03  0.26961652740E+03  0.00000000000E+00 0. -1.
<mgrwt>
<rscale>  1 0.15233132E+03</rscale>
<asrwt>0</asrwt>
<pdfrwt beam="1">  1       21 0.31488031E-02 0.15233132E+03</pdfrwt>
<pdfrwt beam="2">  1        2 0.10775155E+00 0.15233132E+03</pdfrwt>
<totfact> 0.30622553E+05</totfact>
</mgrwt>
</event>
<event>
 6    2  0.1181843E-002  0.1394224E+03  0.7546771E-02  0.1214108E+00
         21   -1    0    0  502  503  0.00000000000E+00  0.00000000000E+00  0.24041819883E+02  0.24041819883E+02  0.00000000000E+00 0.  1.
          3   -1    0    0  503    0 -0.00000000000E+00 -0.00000000000E+00 -0.11745773635E+04  0.11745773635E+04  0.00000000000E+00 0.  1.
         25    2    1    2    0    0 -0.61189629604E+02  0.83029073529E+01 -0.18775332630E+03  0.23385874316E+03  0.12500196468E+03 0.  0.
          5    1    3    3  501    0 -0.31583020582E+01  0.34891500163E+02  0.54139114513E+00  0.35038475422E+02  0.10000000000E+00 0.  1.
         -5    1    3    3    0  501 -0.58031327546E+02 -0.26588592810E+02 -0.18829471745E+03  0.19882026774E+03  0.10000000000E+00 0.  1.
          3    1    1    2  502    0  0.61189629604E+02 -0.83029073529E+01 -0.96278221731E+03  0.96476044022E+03  0.00000000000E+00 0.  1.
<mgrwt>
<rscale>  1 0.13942238E+03</rscale>
<asrwt>0</asrwt>
<pdfrwt beam="1">  1       21 0.36987417E-02 0.13942238E+03</pdfrwt>
<pdfrwt beam="2">  1        3 0.18070420E+00 0.13942238E+03</pdfrwt>
<totfact> 0.46506479E+03</totfact>
</mgrwt>
</event>
<event>
 6    2  0.1181843E-002  0.1265120E+03  0.7546771E-02  0.1232725E+00
         21   -1    0    0  502  503  0.00000000000E+00  0.00000000000E+00  0.16357822089E+03  0.16357822089E+03  0.00000000000E+00 0. -1.
          3   -1    0    0  503    0 -0.00000000000E+00 -0.00000000000E+00 -0.56291008636E+02  0.56291008636E+02  0.00000000000E+00 0. -1.
         25    2    1    2    0    0  0.15628519766E+02 -0.11634832708E+02  0.13563058738E+03  0.18547494402E+03  0.12500271462E+03 0.  0.
          5    1    3    3  501    0  0.59612124050E+02  0.81391995796E+01  0.12091296051E+03  0.13505482562E+03  0.10000000000E+00 0.  1.
         -5    1    3    3    0  501 -0.43983604284E+02 -0.19774032288E+02  0.14717626874E+02  0.50420118400E+02  0.10000000000E+00 0.  1.
          3    1    1    2  502    0 -0.15628519766E+02  0.11634832708E+02 -0.28343375127E+02  0.34394285511E+02  0.00000000000E+00 0. -1.
<mgrwt>
<rscale>  1 0.12651205E+03</rscale>
<asrwt>0</asrwt>
<pdfrwt beam="1">  1       21 0.25165880E-01 0.12651205E+03</pdfrwt>
<pdfrwt beam="2">  1        3 0.86601553E-02 0.12651205E+03</pdfrwt>
<totfact> 0.66436694E+04</totfact>
</mgrwt>
</event>
<event>
 6    2  0.1181843E-002  0.1279839E+03  0.7546771E-02  0.1230478E+00
          2   -1    0    0  503    0 -0.00000000000E+00  0.00000000000E+00  0.21630950525E+03  0.21630950525E+03  0.00000000000E+00 0.  1.
         21   -1    0    0  502  503  0.00000000000E+00 -0.00000000000E+00 -0.70780368334E+02  0.70780368334E+02  0.00000000000E+00 0. -1.
         25    2    1    2    0    0  0.26530558042E+02 -0.71910819515E+01 -0.10728586948E+02  0.12843282698E+03  0.12499722516E+03 0.  0.
          5    1    3    3  501    0 -0.49046778150E+02  0.10296038939E+02  0.32177566962E-01  0.50115924616E+02  0.10000000000E+00 0. -1.
         -5    1    3    3    0  501  0.75577336192E+02 -0.17487120891E+02 -0.10760764515E+02  0.78316902364E+02  0.10000000000E+00 0. -1.
          2    1    1    2  502    0 -0.26530558042E+02  0.71910819515E+01  0.15625772386E+03  0.15865704660E+03  0.00000000000E+00 0.  1.
<mgrwt>
<rscale>  1 0.12798394E+03</rscale>
<asrwt>0</asrwt>
<pdfrwt beam="1">  1       21 0.10889287E-01 0.12798394E+03</pdfrwt>
<pdfrwt beam="2">  1        2 0.33278385E-01 0.12798394E+03</pdfrwt>
<totfact> 0.13274329E+05</totfact>
</mgrwt>
</event>
<event>
 6    2  0.1181843E-002  0.1294433E+03  0.7546771E-02  0.1228284E+00
          2   -1    0    0  503    0 -0.00000000000E+00  0.00000000000E+00  0.12522913756E+04  0.12522913756E+04  0.00000000000E+00 0.  1.
         21   -1    0    0  502  503  0.00000000000E+00 -0.00000000000E+00 -0.79558440786E+01  0.79558440786E+01  0.00000000000E+00 0.  1.
         25    2    1    2    0    0  0.10569522167E+02 -0.31946795646E+02  0.54727186243E+03  0.56237182155E+03  0.12499304665E+03 0.  0.
          5    1    3    3  501    0 -0.11340530882E+02  0.30313511126E+01  0.49782241462E+03  0.49796080491E+03  0.10000000000E+00 0.  1.
         -5    1    3    3    0  501  0.21910053048E+02 -0.34978146759E+02  0.49449447812E+02  0.64411016637E+02  0.10000000000E+00 0.  1.
          2    1    1    2  502    0 -0.10569522167E+02  0.31946795646E+02  0.69706366905E+03  0.69787539809E+03  0.00000000000E+00 0.  1.
<mgrwt>
<rscale>  1 0.12944332E+03</rscale>
<asrwt>0</asrwt>
<pdfrwt beam="1">  1       21 0.12239770E-02 0.12944332E+03</pdfrwt>
<pdfrwt beam="2">  1        2 0.19266005E+00 0.12944332E+03</pdfrwt>
<totfact> 0.63927230E+05</totfact>
</mgrwt>
</event>
<event>
 6    2  0.1181843E-002  0.1336989E+03  0.7546771E-02  0.1222068E+00
          2   -1    0    0  503    0 -0.00000000000E+00  0.00000000000E+00  0.37526648141E+03  0.37526648141E+03  0.00000000000E+00 0.  1.
         21   -1    0    0  502  503  0.00000000000E+00 -0.00000000000E+00 -0.35204489185E+02  0.35204489185E+02  0.00000000000E+00 0.  1.
         25    2    1    2    0    0  0.46673191603E+02 -0.84292650563E+01  0.10316791397E+03  0.16887576444E+03  0.12500386402E+03 0.  0.
          5    1    3    3  501    0  0.79034867133E+02 -0.37338209940E+02  0.51698979126E+02  0.10155514062E+03  0.10000000000E+00 0. -1.
         -5    1    3    3    0  501 -0.32361675530E+02  0.28908944884E+02  0.51468934847E+02  0.67320623822E+02  0.10000000000E+00 0. -1.
          2    1    1    2  502    0 -0.46673191603E+02  0.84292650563E+01  0.23689407825E+03  0.24159520615E+03  0.00000000000E+00 0.  1.
<mgrwt>
<rscale>  1 0.13369894E+03</rscale>
<asrwt>0</asrwt>
<pdfrwt beam="1">  1       21 0.54160755E-02 0.13369894E+03</pdfrwt>
<pdfrwt beam="2">  1        2 0.57733302E-01 0.13369894E+03</pdfrwt>
<totfact> 0.24655541E+05</totfact>
</mgrwt>
</event>
<event>
 6    2  0.1181843E-002  0.1310277E+03  0.7546771E-02  0.1225939E+00
          2   -1    0    0  503    0 -0.00000000000E+00  0.00000000000E+00  0.62881289539E+02  0.62881289539E+02  0.00000000000E+00 0.  1.
         21   -1    0    0  502  503  0.00000000000E+00 -0.00000000000E+00 -0.33666646279E+03  0.33666646279E+03  0.00000000000E+00 0.  1.
         25    2    1    2    0    0  0.27614056231E+02 -0.28218279243E+02 -0.31579381870E+03  0.34189765538E+03  0.12493783831E+03 0.  0.
          5    1    3    3  501    0  0.58186163106E+02 -0.59680293107E+02 -0.16508280501E+03  0.18493163459E+03  0.10000000000E+00 0. -1.
         -5    1    3    3    0  501 -0.30572106875E+02  0.31462013865E+02 -0.15071101370E+03  0.15696602080E+03  0.10000000000E+00 0. -1.
          2    1    1    2  502    0 -0.27614056231E+02  0.28218279243E+02  0.42008645452E+02  0.57650096944E+02  0.00000000000E+00 0.  1.
<mgrwt>
<rscale>  1 0.13102775E+03</rscale>
<asrwt>0</asrwt>
<pdfrwt beam="1">  1       21 0.51794840E-01 0.13102775E+03</pdfrwt>
<pdfrwt beam="2">  1        2 0.96740446E-02 0.13102775E+03</pdfrwt>
<totfact> 0.28613955E+04</totfact>
</mgrwt>
</event>
<event>
 6    2  0.1181843E-002  0.1298689E+03  0.7546771E-02  0.1227650E+00
         21   -1    0    0  502  503  0.00000000000E+00  0.00000000000E+00  0.64154626449E+01  0.64154626449E+01  0.00000000000E+00 0. -1.
          1   -1    0    0  503    0 -0.00000000000E+00 -0.00000000000E+00 -0.15306793549E+04  0.15306793549E+04  0.00000000000E+00 0. -1.
         25    2    1    2    0    0 -0.15889367299E+01  0.35224322906E+02 -0.69178989322E+03  0.70387441650E+03  0.12499064045E+03 0.  0.
          5    1    3    3  501    0  0.38106801334E+02  0.65878440281E+02 -0.49382319703E+03  0.49965333695E+03  0.10000000000E+00 0. -1.
         -5    1    3    3    0  501 -0.39695738064E+02 -0.30654117375E+02 -0.19796669619E+03  0.20422107955E+03  0.10000000000E+00 0. -1.
          1    1    1    2  502    0  0.15889367299E+01 -0.35224322906E+02 -0.83247399901E+03  0.83322040102E+03  0.00000000000E+00 0. -1.
<mgrwt>
<rscale>  1 0.12986893E+03</rscale>
<asrwt>0</asrwt>
<pdfrwt beam="1">  1       21 0.98699312E-03 0.12986893E+03</pdfrwt>
<pdfrwt beam="2">  1        1 0.23548940E+00 0.12986893E+03</pdfrwt>
<totfact> 0.29532183E+05</totfact>
</mgrwt>
</event>
<event>
 6    2  0.1181843E-002  0.1265635E+03  0.7546771E-02  0.1232646E+00
         21   -1    0    0  502  503  0.00000000000E+00  0.00000000000E+00  0.10772178432E+03  0.10772178432E+03  0.00000000000E+00 0.  1.
          2   -1    0    0  503    0 -0.00000000000E+00 -0.00000000000E+00 -0.65498409882E+03  0.65498409882E+03  0.00000000000E+00 0.  1.
         25    2    1    2    0    0  0.10936655989E+02 -0.16547514285E+02  0.70332342583E+02  0.14479278964E+03  0.12499953138E+03 0.  0.
          5    1    3    3  501    0 -0.52908119308E+02 -0.15952258079E+02  0.84971858811E+01  0.55910247669E+02  0.10000000000E+00 0.  1.
         -5    1    3    3    0  501  0.63844775297E+02 -0.59525620623E+00  0.61835156702E+02  0.88882541970E+02  0.10000000000E+00 0.  1.
          2    1    1    2  502    0 -0.10936655989E+02  0.16547514285E+02 -0.61759465708E+03  0.61791309351E+03  0.00000000000E+00 0.  1.
<mgrwt>
<rscale>  1 0.12656348E+03</rscale>
<asrwt>0</asrwt>
<pdfrwt beam="1">  1       21 0.16572582E-01 0.12656348E+03</pdfrwt>
<pdfrwt beam="2">  1        2 0.10076678E+00 0.12656348E+03</pdfrwt>
<totfact> 0.18931295E+04</totfact>
</mgrwt>
</event>
<event>
 6    2  0.1181843E-002  0.1920473E+03  0.7546771E-02  0.1156628E+00
          2   -1    0    0  503    0 -0.00000000000E+00  0.00000000000E+00  0.23912437905E+04  0.23912437905E+04  0.00000000000E+00 0.  1.
         21   -1    0    0  502  503  0.00000000000E+00 -0.00000000000E+00 -0.12194788191E+02  0.12194788191E+02  0.00000000000E+00 0. -1.
         25    2    1    2    0    0 -0.12914501947E+03  0.67674674145E+02  0.11745258724E+04  0.11901231753E+04  0.12499539958E+03 0.  0.
          5    1    3    3  501    0 -0.36744967949E+02  0.84967186226E+02  0.72402385980E+03  0.72991792345E+03  0.10000000000E+00 0.  1.
         -5    1    3    3    0  501 -0.92400051523E+02 -0.17292512082E+02  0.45050201255E+03  0.46020525183E+03  0.10000000000E+00 0.  1.
          2    1    1    2  502    0  0.12914501947E+03 -0.67674674145E+02  0.12045231300E+04  0.12133154034E+04  0.00000000000E+00 0.  1.
<mgrwt>
<rscale>  1 0.19204725E+03</rscale>
<asrwt>0</asrwt>
<pdfrwt beam="1">  1       21 0.18761232E-02 0.19204725E+03</pdfrwt>
<pdfrwt beam="2">  1        2 0.36788329E+00 0.19204725E+03</pdfrwt>
<totfact> 0.81964464E+04</totfact>
</mgrwt>
</event>
<event>
 6    2  0.1181843E-002  0.1353303E+03  0.7546771E-02  0.1219754E+00
         21   -1    0    0  502  503  0.00000000000E+00  0.00000000000E+00  0.14604962240E+03  0.14604962240E+03  0.00000000000E+00 0. -1.
          1   -1    0    0  503    0 -0.00000000000E+00 -0.00000000000E+00 -0.37252299524E+03  0.37252299524E+03  0.00000000000E+00 0. -1.
         25    2    1    2    0    0  0.34321140122E+02  0.38947072483E+02  0.11229281426E+03  0.17585211251E+03  0.12497789495E+03 0.  0.
          5    1    3    3  501    0  0.41789420271E+02  0.76881514145E+02  0.10469755801E+03  0.13645039948E+03  0.10000000000E+00 0. -1.
         -5    1    3    3    0  501 -0.74682801484E+01 -0.37934441662E+02  0.75952562476E+01  0.39401713034E+02  0.10000000000E+00 0. -1.
          1    1    1    2  502    0 -0.34321140122E+02 -0.38947072483E+02 -0.33876618710E+03  0.34272050513E+03  0.00000000000E+00 0. -1.
<mgrwt>
<rscale>  1 0.13533030E+03</rscale>
<asrwt>0</asrwt>
<pdfrwt beam="1">  1       21 0.22469173E-01 0.13533030E+03</pdfrwt>
<pdfrwt beam="2">  1        1 0.57311230E-01 0.13533030E+03</pdfrwt>
<totfact> 0.13656410E+04</totfact>
</mgrwt>
</event>
<event>
 6    2  0.1181843E-002  0.1292661E+03  0.7546771E-02  0.1228549E+00
          1   -1    0    0  503    0 -0.00000000000E+00  0.00000000000E+00  0.69374381470E+03  0.69374381470E+03  0.00000000000E+00 0.  1.
         21   -1    0    0  502  503  0.00000000000E+00 -0.00000000000E+00 -0.10319095468E+02  0.10319095468E+02  0.00000000000E+00 0.  1.
         25    2    1    2    0    0  0.13480601399E+02  0.30030141396E+02  0.61076764434E+03  0.62429708705E+03  0.12500480598E+03 0.  0.
          5    1    3    3  501    0 -0.35107972478E+01 -0.43625067837E+02  0.35214094820E+03  0.35485029187E+03  0.10000000000E+00 0.  1.
         -5    1    3    3    0  501  0.16991398647E+02  0.73655209232E+02  0.25862669614E+03  0.26944679517E+03  0.10000000000E+00 0.  1.
          1    1    1    2  502    0 -0.13480601399E+02 -0.30030141396E+02  0.72657074892E+02  0.79765823121E+02  0.00000000000E+00 0.  1.
<mgrwt>
<rscale>  1 0.12926615E+03</rscale>
<asrwt>0</asrwt>
<pdfrwt beam="1">  1       21 0.15875537E-02 0.12926615E+03</pdfrwt>
<pdfrwt beam="2">  1        1 0.10672978E+00 0.12926615E+03</pdfrwt>
<totfact> 0.55737794E+05</totfact>
</mgrwt>
</event>
<event>
 6    2  0.1181843E-002  0.1402379E+03  0.7546771E-02  0.1213009E+00
         21   -1    0    0  502  503  0.00000000000E+00  0.00000000000E+00  0.24800639246E+02  0.24800639246E+02  0.00000000000E+00 0. -1.
          1   -1    0    0  503    0 -0.00000000000E+00 -0.00000000000E+00 -0.11674714905E+04  0.11674714905E+04  0.00000000000E+00 0. -1.
         25    2    1    2    0    0 -0.18195315212E+02  0.60897957536E+02 -0.18327579990E+03  0.23077408227E+03  0.12500810971E+03 0.  0.
          5    1    3    3  501    0 -0.53723196309E+02  0.43170595829E+02 -0.35045274009E+02  0.77317937092E+02  0.10000000000E+00 0.  1.
         -5    1    3    3    0  501  0.35527881096E+02  0.17727361707E+02 -0.14823052589E+03  0.15345614518E+03  0.10000000000E+00 0.  1.
          1    1    1    2  502    0  0.18195315212E+02 -0.60897957536E+02 -0.95939505139E+03  0.96149804751E+03  0.00000000000E+00 0. -1.
<mgrwt>
<rscale>  1 0.14023786E+03</rscale>
<asrwt>0</asrwt>
<pdfrwt beam="1">  1       21 0.38154829E-02 0.14023786E+03</pdfrwt>
<pdfrwt beam="2">  1        1 0.17961100E+00 0.14023786E+03</pdfrwt>
<totfact> 0.57999282E+04</totfact>
</mgrwt>
</event>
<event>
 6    2  0.1181843E-002  0.1399808E+03  0.7546771E-02  0.1213355E+00
         21   -1    0    0  502  503  0.00000000000E+00  0.00000000000E+00  0.11434897077E+03  0.11434897077E+03  0.00000000000E+00 0. -1.
          1   -1    0    0  503    0 -0.00000000000E+00 -0.00000000000E+00 -0.81386393623E+03  0.81386393623E+03  0.00000000000E+00 0.  1.
         25    2    1    2    0    0 -0.11432410016E+02 -0.61954686974E+02  0.69733760130E+02  0.15638864912E+03  0.12500211613E+03 0.  0.
          5    1    3    3  501    0 -0.61261696440E+02 -0.34910853032E+02  0.70470365532E+02  0.99688743238E+02  0.10000000000E+00 0. -1.
         -5    1    3    3    0  501  0.49829286425E+02 -0.27043833941E+02 -0.73660540217E+00  0.56699905885E+02  0.10000000000E+00 0. -1.
          1    1    1    2  502    0  0.11432410016E+02  0.61954686974E+02 -0.76924872558E+03  0.77182425788E+03  0.00000000000E+00 0.  1.
<mgrwt>
<rscale>  1 0.13998076E+03</rscale>
<asrwt>0</asrwt>
<pdfrwt beam="1">  1       21 0.17592149E-01 0.13998076E+03</pdfrwt>
<pdfrwt beam="2">  1        1 0.12520984E+00 0.13998076E+03</pdfrwt>
<totfact> 0.74718947E+03</totfact>
</mgrwt>
</event>
<event>
 6    2  0.1181843E-002  0.1290398E+03  0.7546771E-02  0.1228887E+00
         21   -1    0    0  502  503  0.00000000000E+00  0.00000000000E+00  0.14403040178E+03  0.14403040178E+03  0.00000000000E+00 0. -1.
          3   -1    0    0  503    0 -0.00000000000E+00 -0.00000000000E+00 -0.45040743445E+02  0.45040743445E+02  0.00000000000E+00 0. -1.
         25    2    1    2    0    0 -0.10057197875E+01  0.32006515281E+02  0.77980003355E+02  0.15077187506E+03  0.12500339553E+03 0.  0.
          5    1    3    3  501    0  0.26871489476E+02 -0.38138904017E+02  0.70339962008E+01  0.47181988606E+02  0.10000000000E+00 0. -1.
         -5    1    3    3    0  501 -0.27877209263E+02  0.70145419298E+02  0.70946007154E+02  0.10358988646E+03  0.10000000000E+00 0. -1.
          3    1    1    2  502    0  0.10057197875E+01 -0.32006515281E+02  0.21009654980E+02  0.38299270164E+02  0.00000000000E+00 0. -1.
<mgrwt>
<rscale>  1 0.12903983E+03</rscale>
<asrwt>0</asrwt>
<pdfrwt beam="1">  1       21 0.22158523E-01 0.12903983E+03</pdfrwt>
<pdfrwt beam="2">  1        3 0.69293452E-02 0.12903983E+03</pdfrwt>
<totfact> 0.12137180E+05</totfact>
</mgrwt>
</event>
<event>
 6    2  0.1181843E-002  0.1269517E+03  0.7546771E-02  0.1232050E+00
          3   -1    0    0  503    0 -0.00000000000E+00  0.00000000000E+00  0.46728632205E+02  0.46728632205E+02  0.00000000000E+00 0. -1.
         21   -1    0    0  502  503  0.00000000000E+00 -0.00000000000E+00 -0.21673359996E+03  0.21673359996E+03  0.00000000000E+00 0. -1.
         25    2    1    2    0    0  0.16864931116E+02  0.14420337442E+02 -0.19331884280E+03  0.23127669499E+03  0.12499745049E+03 0.  0.
          5    1    3    3  501    0 -0.23463315792E+02 -0.22183413377E+02 -0.19944439153E+01  0.32351488738E+02  0.10000000000E+00 0. -1.
         -5    1    3    3    0  501  0.40328246908E+02  0.36603750819E+02 -0.19132439888E+03  0.19892520625E+03  0.10000000000E+00 0. -1.
          3    1    1    2  502    0 -0.16864931116E+02 -0.14420337442E+02  0.23313875048E+02  0.32185537175E+02  0.00000000000E+00 0. -1.
<mgrwt>
<rscale>  1 0.12695170E+03</rscale>
<asrwt>0</asrwt>
<pdfrwt beam="1">  1       21 0.33343631E-01 0.12695170E+03</pdfrwt>
<pdfrwt beam="2">  1        3 0.71890203E-02 0.12695170E+03</pdfrwt>
<totfact> 0.52367969E+04</totfact>
</mgrwt>
</event>
<event>
 6    2  0.1181843E-002  0.1357853E+03  0.7546771E-02  0.1219115E+00
          3   -1    0    0  503    0 -0.00000000000E+00  0.00000000000E+00  0.89998580701E+03  0.89998580701E+03  0.00000000000E+00 0.  1.
         21   -1    0    0  502  503  0.00000000000E+00 -0.00000000000E+00 -0.10439440708E+02  0.10439440708E+02  0.00000000000E+00 0.  1.
         25    2    1    2    0    0  0.50410505837E+02  0.16431534726E+02  0.53633829166E+03  0.55325979807E+03  0.12500570637E+03 0.  0.
          5    1    3    3  501    0  0.60849567436E+02  0.61144770986E+02  0.28526789389E+03  0.29802539180E+03  0.10000000000E+00 0. -1.
         -5    1    3    3    0  501 -0.10439061599E+02 -0.44713236260E+02  0.25107039777E+03  0.25523440627E+03  0.10000000000E+00 0. -1.
          3    1    1    2  502    0 -0.50410505837E+02 -0.16431534726E+02  0.35320807464E+03  0.35716544965E+03  0.00000000000E+00 0.  1.
<mgrwt>
<rscale>  1 0.13578528E+03</rscale>
<asrwt>0</asrwt>
<pdfrwt beam="1">  1       21 0.16060685E-02 0.13578528E+03</pdfrwt>
<pdfrwt beam="2">  1        3 0.13845929E+00 0.13578528E+03</pdfrwt>
<totfact> 0.35442329E+04</totfact>
</mgrwt>
</event>
<event>
 6    2  0.1181843E-002  0.1271298E+03  0.7546771E-02  0.1231778E+00
          1   -1    0    0  503    0 -0.00000000000E+00  0.00000000000E+00  0.85287266491E+02  0.85287266491E+02  0.00000000000E+00 0.  1.
         21   -1    0    0  502  503  0.00000000000E+00 -0.00000000000E+00 -0.11242246141E+03  0.11242246141E+03  0.00000000000E+00 0.  1.
         25    2    1    2    0    0 -0.16491334680E+02 -0.16248107281E+02 -0.72809449873E+02  0.14650325688E+03  0.12500409263E+03 0.  0.
          5    1    3    3  501    0  0.37069708985E+02  0.31899975292E+02 -0.78834033132E+01  0.49537155709E+02  0.10000000000E+00 0. -1.
         -5    1    3    3    0  501 -0.53561043665E+02 -0.48148082573E+02 -0.64926046560E+02  0.96966101169E+02  0.10000000000E+00 0. -1.
          1    1    1    2  502    0  0.16491334680E+02  0.16248107281E+02  0.45674254951E+02  0.51206471027E+02  0.00000000000E+00 0.  1.
<mgrwt>
<rscale>  1 0.12712981E+03</rscale>
<asrwt>0</asrwt>
<pdfrwt beam="1">  1       21 0.17295763E-01 0.12712981E+03</pdfrwt>
<pdfrwt beam="2">  1        1 0.13121118E-01 0.12712981E+03</pdfrwt>
<totfact> 0.14117114E+05</totfact>
</mgrwt>
</event>
<event>
 6    2  0.1181843E-002  0.1340711E+03  0.7546771E-02  0.1221537E+00
         21   -1    0    0  502  503  0.00000000000E+00  0.00000000000E+00  0.15841974041E+02  0.15841974041E+02  0.00000000000E+00 0.  1.
          2   -1    0    0  503    0 -0.00000000000E+00 -0.00000000000E+00 -0.12017284690E+04  0.12017284690E+04  0.00000000000E+00 0.  1.
         25    2    1    2    0    0  0.49223793292E+01 -0.48225107275E+02 -0.28057499683E+03  0.31096203837E+03  0.12500067866E+03 0.  0.
          5    1    3    3  501    0  0.26450334954E+02  0.53332856904E+01 -0.23727294532E+03  0.23880227121E+03  0.10000000000E+00 0.  1.
         -5    1    3    3    0  501 -0.21527955625E+02 -0.53558392965E+02 -0.43302051516E+02  0.72159767155E+02  0.10000000000E+00 0.  1.
          2    1    1    2  502    0 -0.49223793292E+01  0.48225107275E+02 -0.90531149810E+03  0.90660840465E+03  0.00000000000E+00 0.  1.
<mgrwt>
<rscale>  1 0.13407110E+03</rscale>
<asrwt>0</asrwt>
<pdfrwt beam="1">  1       21 0.24372261E-02 0.13407110E+03</pdfrwt>
<pdfrwt beam="2">  1        2 0.18488135E+00 0.13407110E+03</pdfrwt>
<totfact> 0.22571645E+05</totfact>
</mgrwt>
</event>
<event>
 6    2  0.1181843E-002  0.1461081E+03  0.7546771E-02  0.1205339E+00
          1   -1    0    0  503    0 -0.00000000000E+00  0.00000000000E+00  0.26137196278E+04  0.26137196278E+04  0.00000000000E+00 0. -1.
         21   -1    0    0  502  503  0.00000000000E+00 -0.00000000000E+00 -0.32872775518E+02  0.32872775518E+02  0.00000000000E+00 0. -1.
         25    2    1    2    0    0 -0.48696437885E+02  0.58029509099E+02  0.13300954381E+03  0.19758316370E+03  0.12493518657E+03 0.  0.
          5    1    3    3  501    0 -0.47377370173E+02  0.67753759672E+02  0.21208467960E+02  0.85352189587E+02  0.10000000000E+00 0. -1.
         -5    1    3    3    0  501 -0.13190677128E+01 -0.97242505727E+01  0.11180107585E+03  0.11223097411E+03  0.10000000000E+00 0. -1.
          1    1    1    2  502    0  0.48696437885E+02 -0.58029509099E+02  0.24478373084E+04  0.24490092396E+04  0.00000000000E+00 0. -1.
<mgrwt>
<rscale>  1 0.14610807E+03</rscale>
<asrwt>0</asrwt>
<pdfrwt beam="1">  1       21 0.50573521E-02 0.14610807E+03</pdfrwt>
<pdfrwt beam="2">  1        1 0.40211055E+00 0.14610807E+03</pdfrwt>
<totfact> 0.41671836E+03</totfact>
</mgrwt>
</event>
<event>
 6    2  0.1181843E-002  0.1791320E+03  0.7546771E-02  0.1168646E+00
          1   -1    0    0  503    0 -0.00000000000E+00  0.00000000000E+00  0.11606484933E+04  0.11606484933E+04  0.00000000000E+00 0.  1.
         21   -1    0    0  502  503  0.00000000000E+00 -0.00000000000E+00 -0.69288711145E+02  0.69288711145E+02  0.00000000000E+00 0. -1.
         25    2    1    2    0    0  0.12476040969E+03 -0.29793054169E+02  0.57475927493E+02  0.18812694781E+03  0.12504191437E+03 0.  0.
          5    1    3    3  501    0  0.46016416844E+02  0.42926716981E+02 -0.65570222003E+01  0.63270990115E+02  0.10000000000E+00 0. -1.
         -5    1    3    3    0  501  0.78743992844E+02 -0.72719771150E+02  0.64032949693E+02  0.12485595769E+03  0.10000000000E+00 0. -1.
          1    1    1    2  502    0 -0.12476040969E+03  0.29793054169E+02  0.10338838546E+04  0.10418102566E+04  0.00000000000E+00 0.  1.
<mgrwt>
<rscale>  1 0.17913198E+03</rscale>
<asrwt>0</asrwt>
<pdfrwt beam="1">  1       21 0.10659803E-01 0.17913198E+03</pdfrwt>
<pdfrwt beam="2">  1        1 0.17856129E+00 0.17913198E+03</pdfrwt>
<totfact> 0.10022671E+04</totfact>
</mgrwt>
</event>
<event>
 6    2  0.1181843E-002  0.1261661E+03  0.7546771E-02  0.1233258E+00
         21   -1    0    0  502  503  0.00000000000E+00  0.00000000000E+00  0.13378283846E+02  0.13378283846E+02  0.00000000000E+00 0. -1.
          2   -1    0    0  503    0 -0.00000000000E+00 -0.00000000000E+00 -0.10658332646E+04  0.10658332646E+04  0.00000000000E+00 0. -1.
         25    2    1    2    0    0  0.16289306852E+02 -0.53548197624E+01 -0.28632358090E+03  0.31288828934E+03  0.12499549196E+03 0.  0.
          5    1    3    3  501    0  0.60263451762E+02 -0.28628273279E+02 -0.10133782540E+03  0.12132858899E+03  0.10000000000E+00 0.  1.
         -5    1    3    3    0  501 -0.43974144909E+02  0.23273453516E+02 -0.18498575550E+03  0.19155970035E+03  0.10000000000E+00 0.  1.
          2    1    1    2  502    0 -0.16289306852E+02  0.53548197624E+01 -0.76613139990E+03  0.76632325915E+03  0.00000000000E+00 0. -1.
<mgrwt>
<rscale>  1 0.12616612E+03</rscale>
<asrwt>0</asrwt>
<pdfrwt beam="1">  1       21 0.20581962E-02 0.12616612E+03</pdfrwt>
<pdfrwt beam="2">  1        2 0.16397445E+00 0.12616612E+03</pdfrwt>
<totfact> 0.35354605E+05</totfact>
</mgrwt>
</event>
<event>
 6    2  0.1181843E-002  0.1287550E+03  0.7546771E-02  0.1229315E+00
         21   -1    0    0  502  503  0.00000000000E+00  0.00000000000E+00  0.40300102012E+01  0.40300102012E+01  0.00000000000E+00 0. -1.
          2   -1    0    0  503    0 -0.00000000000E+00 -0.00000000000E+00 -0.19076534148E+04  0.19076534148E+04  0.00000000000E+00 0. -1.
         25    2    1    2    0    0  0.22587628862E+02 -0.21121221694E+02 -0.11074322799E+04  0.11148919755E+04  0.12498622099E+03 0.  0.
          5    1    3    3  501    0  0.43625425220E+02 -0.65544230889E+02 -0.74293355695E+03  0.74709403957E+03  0.10000000000E+00 0. -1.
         -5    1    3    3    0  501 -0.21037796358E+02  0.44423009196E+02 -0.36449872299E+03  0.36779793594E+03  0.10000000000E+00 0. -1.
          2    1    1    2  502    0 -0.22587628862E+02  0.21121221694E+02 -0.79619112464E+03  0.79679144946E+03  0.00000000000E+00 0. -1.
<mgrwt>
<rscale>  1 0.12875505E+03</rscale>
<asrwt>0</asrwt>
<pdfrwt beam="1">  1       21 0.61999909E-03 0.12875505E+03</pdfrwt>
<pdfrwt beam="2">  1        2 0.29348631E+00 0.12875505E+03</pdfrwt>
<totfact> 0.84915899E+05</totfact>
</mgrwt>
</event>
<event>
 6    2  0.1181843E-002  0.1360424E+03  0.7546771E-02  0.1218756E+00
          1   -1    0    0  503    0 -0.00000000000E+00  0.00000000000E+00  0.19033271958E+03  0.19033271958E+03  0.00000000000E+00 0.  1.
         21   -1    0    0  502  503  0.00000000000E+00 -0.00000000000E+00 -0.27160555489E+03  0.27160555489E+03  0.00000000000E+00 0. -1.
         25    2    1    2    0    0 -0.48988796866E+02 -0.21903585540E+02 -0.25014463520E+03  0.28474528906E+03  0.12501148687E+03 0.  0.
          5    1    3    3  501    0 -0.80732068346E+02 -0.15109829573E+02 -0.23496993826E+03  0.24891134103E+03  0.10000000000E+00 0. -1.
         -5    1    3    3    0  501  0.31743271480E+02 -0.67937559663E+01 -0.15174696936E+02  0.35833948031E+02  0.10000000000E+00 0. -1.
          1    1    1    2  502    0  0.48988796866E+02  0.21903585540E+02  0.16887179989E+03  0.17719298541E+03  0.00000000000E+00 0.  1.
<mgrwt>
<rscale>  1 0.13604242E+03</rscale>
<asrwt>0</asrwt>
<pdfrwt beam="1">  1       21 0.41785470E-01 0.13604242E+03</pdfrwt>
<pdfrwt beam="2">  1        1 0.29281957E-01 0.13604242E+03</pdfrwt>
<totfact> 0.94362236E+03</totfact>
</mgrwt>
</event>
<event>
 6    2  0.1181843E-002  0.1317882E+03  0.7546771E-02  0.1224826E+00
          1   -1    0    0  503    0 -0.00000000000E+00  0.00000000000E+00  0.15007860561E+03  0.15007860561E+03  0.00000000000E+00 0.  1.
         21   -1    0    0  502  503  0.00000000000E+00 -0.00000000000E+00 -0.53039625211E+02  0.53039625211E+02  0.00000000000E+00 0. -1.
         25    2    1    2    0    0  0.21852913110E+02  0.35531443917E+02  0.51854251544E+02  0.14162275912E+03  0.12501243610E+03 0.  0.
          5    1    3    3  501    0  0.73303623963E+02  0.31610976560E+02  0.36568853496E+02  0.87806413042E+02  0.10000000000E+00 0.  1.
         -5    1    3    3    0  501 -0.51450710854E+02  0.39204673570E+01  0.15285398049E+02  0.53816346078E+02  0.10000000000E+00 0.  1.
          1    1    1    2  502    0 -0.21852913110E+02 -0.35531443917E+02  0.45184728856E+02  0.61495471703E+02  0.00000000000E+00 0.  1.
<mgrwt>
<rscale>  1 0.13178825E+03</rscale>
<asrwt>0</asrwt>
<pdfrwt beam="1">  1       21 0.81599424E-02 0.13178825E+03</pdfrwt>
<pdfrwt beam="2">  1        1 0.23089016E-01 0.13178825E+03</pdfrwt>
<totfact> 0.25974828E+05</totfact>
</mgrwt>
</event>
<event>
 6    2  0.1181843E-002  0.1272862E+03  0.7546771E-02  0.1231539E+00
         21   -1    0    0  502  503  0.00000000000E+00  0.00000000000E+00  0.69888613290E+01  0.69888613290E+01  0.00000000000E+00 0.  1.
          2   -1    0    0  503    0 -0.00000000000E+00 -0.00000000000E+00 -0.10337636257E+04  0.10337636257E+04  0.00000000000E+00 0.  1.
         25    2    1    2    0    0 -0.43000158304E+01  0.23610557097E+02 -0.60245842237E+03  0.61575800867E+03  0.12500330404E+03 0.  0.
          5    1    3    3  501    0 -0.40010590951E+00  0.33185380320E+02 -0.60433874739E+03  0.60524933800E+03  0.10000000000E+00 0.  1.
         -5    1    3    3    0  501 -0.38999099209E+01 -0.95748232231E+01  0.18803250215E+01  0.10508670674E+02  0.10000000000E+00 0.  1.
          2    1    1    2  502    0  0.43000158304E+01 -0.23610557097E+02 -0.42431634204E+03  0.42499447840E+03  0.00000000000E+00 0.  1.
<mgrwt>
<rscale>  1 0.12728619E+03</rscale>
<asrwt>0</asrwt>
<pdfrwt beam="1">  1       21 0.10752095E-02 0.12728619E+03</pdfrwt>
<pdfrwt beam="2">  1        2 0.15904055E+00 0.12728619E+03</pdfrwt>
<totfact> 0.10408928E+06</totfact>
</mgrwt>
</event>
<event>
 6    2  0.1181843E-002  0.1259008E+03  0.7546771E-02  0.1233668E+00
         21   -1    0    0  502  503  0.00000000000E+00  0.00000000000E+00  0.92153918784E+01  0.92153918784E+01  0.00000000000E+00 0. -1.
          1   -1    0    0  503    0 -0.00000000000E+00 -0.00000000000E+00 -0.10546567018E+04  0.10546567018E+04  0.00000000000E+00 0.  1.
         25    2    1    2    0    0  0.14324834275E+02 -0.46774573049E+01 -0.42520389597E+03  0.44345164821E+03  0.12499572662E+03 0.  0.
          5    1    3    3  501    0 -0.12112972607E+01  0.45227162882E+02 -0.63377417669E+02  0.77869574121E+02  0.10000000000E+00 0.  1.
         -5    1    3    3    0  501  0.15536131535E+02 -0.49904620187E+02 -0.36182647830E+03  0.36558207409E+03  0.10000000000E+00 0.  1.
          1    1    1    2  502    0 -0.14324834275E+02  0.46774573049E+01 -0.62023741395E+03  0.62042044547E+03  0.00000000000E+00 0.  1.
<mgrwt>
<rscale>  1 0.12590080E+03</rscale>
<asrwt>0</asrwt>
<pdfrwt beam="1">  1       21 0.14177518E-02 0.12590080E+03</pdfrwt>
<pdfrwt beam="2">  1        1 0.16225496E+00 0.12590080E+03</pdfrwt>
<totfact> 0.34707631E+05</totfact>
</mgrwt>
</event>
<event>
 6    2  0.1181843E-002  0.1296452E+03  0.7546771E-02  0.1227983E+00
         21   -1    0    0  502  503  0.00000000000E+00  0.00000000000E+00  0.10527722250E+03  0.10527722250E+03  0.00000000000E+00 0.  1.
          4   -1    0    0  503    0 -0.00000000000E+00 -0.00000000000E+00 -0.88499942801E+02  0.88499942801E+02  0.00000000000E+00 0. -1.
         25    2    1    2    0    0  0.22207603968E+02 -0.26254915206E+02  0.56340554358E+02  0.14135817115E+03  0.12500150494E+03 0.  0.
          5    1    3    3  501    0  0.12444945340E+02 -0.75286749817E+02  0.18127120476E+02  0.78431969625E+02  0.10000000000E+00 0.  1.
         -5    1    3    3    0  501  0.97626586278E+01  0.49031834611E+02  0.38213433882E+02  0.62926201521E+02  0.10000000000E+00 0.  1.
          4    1    1    2  502    0 -0.22207603968E+02  0.26254915206E+02 -0.39563274659E+02  0.52418994155E+02  0.00000000000E+00 0. -1.
<mgrwt>
<rscale>  1 0.12964519E+03</rscale>
<asrwt>0</asrwt>
<pdfrwt beam="1">  1       21 0.16196496E-01 0.12964519E+03</pdfrwt>
<pdfrwt beam="2">  1        4 0.13615376E-01 0.12964519E+03</pdfrwt>
<totfact> 0.61261357E+04</totfact>
</mgrwt>
</event>
<event>
 6    2  0.1181843E-002  0.1444629E+03  0.7546771E-02  0.1207447E+00
         21   -1    0    0  502  503  0.00000000000E+00  0.00000000000E+00  0.28165271826E+03  0.28165271826E+03  0.00000000000E+00 0.  1.
          3   -1    0    0  503    0 -0.00000000000E+00 -0.00000000000E+00 -0.99412300639E+03  0.99412300639E+03  0.00000000000E+00 0.  1.
         25    2    1    2    0    0  0.72300710412E+02  0.33707126113E+01  0.26169726339E+03  0.29892303725E+03  0.12502307826E+03 0.  0.
          5    1    3    3  501    0 -0.14231263079E+02  0.25485010727E+02  0.16390462969E+03  0.16648348944E+03  0.10000000000E+00 0.  1.
         -5    1    3    3    0  501  0.86531973491E+02 -0.22114298116E+02  0.97792633702E+02  0.13243954781E+03  0.10000000000E+00 0.  1.
          3    1    1    2  502    0 -0.72300710412E+02 -0.33707126113E+01 -0.97416755153E+03  0.97685268740E+03  0.00000000000E+00 0.  1.
<mgrwt>
<rscale>  1 0.14446288E+03</rscale>
<asrwt>0</asrwt>
<pdfrwt beam="1">  1       21 0.43331187E-01 0.14446288E+03</pdfrwt>
<pdfrwt beam="2">  1        3 0.15294200E+00 0.14446288E+03</pdfrwt>
<totfact> 0.84562535E+01</totfact>
</mgrwt>
</event>
<event>
 6    2  0.1181843E-002  0.1344308E+03  0.7546771E-02  0.1221025E+00
         21   -1    0    0  502  503  0.00000000000E+00  0.00000000000E+00  0.69772540571E+01  0.69772540571E+01  0.00000000000E+00 0. -1.
          2   -1    0    0  503    0 -0.00000000000E+00 -0.00000000000E+00 -0.16840768137E+04  0.16840768137E+04  0.00000000000E+00 0. -1.
         25    2    1    2    0    0 -0.42442517989E+02 -0.25510220592E+02 -0.15289342872E+04  0.15348327931E+04  0.12497803652E+03 0.  0.
          5    1    3    3  501    0 -0.49924145838E+02 -0.42580278336E+02 -0.37161965376E+03  0.37736809285E+03  0.10000000000E+00 0. -1.
         -5    1    3    3    0  501  0.74816278492E+01  0.17070057745E+02 -0.11573146334E+04  0.11574647002E+04  0.10000000000E+00 0. -1.
          2    1    1    2  502    0  0.42442517989E+02  0.25510220592E+02 -0.14816527250E+03  0.15622127468E+03  0.00000000000E+00 0. -1.
<mgrwt>
<rscale>  1 0.13443083E+03</rscale>
<asrwt>0</asrwt>
<pdfrwt beam="1">  1       21 0.10734220E-02 0.13443083E+03</pdfrwt>
<pdfrwt beam="2">  1        2 0.25908916E+00 0.13443083E+03</pdfrwt>
<totfact> 0.46791098E+05</totfact>
</mgrwt>
</event>
<event>
 6    2  0.1181843E-002  0.1350920E+03  0.7546771E-02  0.1220090E+00
         21   -1    0    0  502  503  0.00000000000E+00  0.00000000000E+00  0.11626436723E+02  0.11626436723E+02  0.00000000000E+00 0. -1.
          1   -1    0    0  503    0 -0.00000000000E+00 -0.00000000000E+00 -0.94887916457E+03  0.94887916457E+03  0.00000000000E+00 0. -1.
         25    2    1    2    0    0 -0.34780530282E+02  0.37606635625E+02 -0.43118814236E+03  0.45185512306E+03  0.12500357510E+03 0.  0.
          5    1    3    3  501    0 -0.21351474829E+02  0.76941326128E+01 -0.35617266845E+01  0.22973485826E+02  0.10000000000E+00 0.  1.
         -5    1    3    3    0  501 -0.13429055454E+02  0.29912503012E+02 -0.42762641568E+03  0.42888163723E+03  0.10000000000E+00 0.  1.
          1    1    1    2  502    0  0.34780530282E+02 -0.37606635625E+02 -0.50606458549E+03  0.50865047824E+03  0.00000000000E+00 0. -1.
<mgrwt>
<rscale>  1 0.13509196E+03</rscale>
<asrwt>0</asrwt>
<pdfrwt beam="1">  1       21 0.17886821E-02 0.13509196E+03</pdfrwt>
<pdfrwt beam="2">  1        1 0.14598145E+00 0.13509196E+03</pdfrwt>
<totfact> 0.28665677E+05</totfact>
</mgrwt>
</event>
<event>
 6    2  0.1181843E-002  0.1390577E+03  0.7546771E-02  0.1214603E+00
         21   -1    0    0  502  503  0.00000000000E+00  0.00000000000E+00  0.47640560949E+02  0.47640560949E+02  0.00000000000E+00 0. -1.
          2   -1    0    0  503    0 -0.00000000000E+00 -0.00000000000E+00 -0.60533015274E+03  0.60533015274E+03  0.00000000000E+00 0. -1.
         25    2    1    2    0    0  0.13867682948E+02  0.59299084816E+02 -0.59800275941E+02  0.15137080846E+03  0.12501341752E+03 0.  0.
          5    1    3    3  501    0 -0.33969889966E+02  0.76559394524E+02 -0.55190541575E+02  0.10030603269E+03  0.10000000000E+00 0.  1.
         -5    1    3    3    0  501  0.47837572914E+02 -0.17260309708E+02 -0.46097343658E+01  0.51064775770E+02  0.10000000000E+00 0.  1.
          2    1    1    2  502    0 -0.13867682948E+02 -0.59299084816E+02 -0.49788931585E+03  0.50159990523E+03  0.00000000000E+00 0. -1.
<mgrwt>
<rscale>  1 0.13905772E+03</rscale>
<asrwt>0</asrwt>
<pdfrwt beam="1">  1       21 0.73293168E-02 0.13905772E+03</pdfrwt>
<pdfrwt beam="2">  1        2 0.93127719E-01 0.13905772E+03</pdfrwt>
<totfact> 0.87407971E+04</totfact>
</mgrwt>
</event>
<event>
 6    2  0.1181843E-002  0.1599081E+03  0.7546771E-02  0.1188801E+00
         21   -1    0    0  502  503  0.00000000000E+00  0.00000000000E+00  0.70977862784E+01  0.70977862784E+01  0.00000000000E+00 0.  1.
          2   -1    0    0  503    0 -0.00000000000E+00 -0.00000000000E+00 -0.24930053597E+04  0.24930053597E+04  0.00000000000E+00 0.  1.
         25    2    1    2    0    0  0.89926521086E+02  0.43106444960E+02 -0.17830607660E+04  0.17902168315E+04  0.12500265485E+03 0.  0.
          5    1    3    3  501    0 -0.19525673750E+02  0.28210825119E+02 -0.17287676055E+03  0.17624836716E+03  0.10000000000E+00 0. -1.
         -5    1    3    3    0  501  0.10945219484E+03  0.14895619841E+02 -0.16101840055E+04  0.16139684644E+04  0.10000000000E+00 0. -1.
          2    1    1    2  502    0 -0.89926521086E+02 -0.43106444960E+02 -0.70284680743E+03  0.70988631450E+03  0.00000000000E+00 0.  1.
<mgrwt>
<rscale>  1 0.15990813E+03</rscale>
<asrwt>0</asrwt>
<pdfrwt beam="1">  1       21 0.10919668E-02 0.15990813E+03</pdfrwt>
<pdfrwt beam="2">  1        2 0.38353940E+00 0.15990813E+03</pdfrwt>
<totfact> 0.17341526E+05</totfact>
</mgrwt>
</event>
<event>
 6    2  0.1181843E-002  0.1280409E+03  0.7546771E-02  0.1230392E+00
          1   -1    0    0  503    0 -0.00000000000E+00  0.00000000000E+00  0.39383021932E+03  0.39383021932E+03  0.00000000000E+00 0.  1.
         21   -1    0    0  502  503  0.00000000000E+00 -0.00000000000E+00 -0.27241431978E+02  0.27241431978E+02  0.00000000000E+00 0.  1.
         25    2    1    2    0    0  0.14446584229E+02  0.23687497525E+02  0.12860674998E+03  0.18147772098E+03  0.12499866295E+03 0.  0.
          5    1    3    3  501    0  0.27035110236E+02 -0.48061457603E+02  0.57986370467E+02  0.80020185281E+02  0.10000000000E+00 0. -1.
         -5    1    3    3    0  501 -0.12588526007E+02  0.71748955128E+02  0.70620379510E+02  0.10145753570E+03  0.10000000000E+00 0. -1.
          1    1    1    2  502    0 -0.14446584229E+02 -0.23687497525E+02  0.23798203736E+03  0.23959393031E+03  0.00000000000E+00 0.  1.
<mgrwt>
<rscale>  1 0.12804088E+03</rscale>
<asrwt>0</asrwt>
<pdfrwt beam="1">  1       21 0.41909898E-02 0.12804088E+03</pdfrwt>
<pdfrwt beam="2">  1        1 0.60589261E-01 0.12804088E+03</pdfrwt>
<totfact> 0.24185361E+05</totfact>
</mgrwt>
</event>
<event>
 6    2  0.1181843E-002  0.1414790E+03  0.7546771E-02  0.1211353E+00
         21   -1    0    0  502  503  0.00000000000E+00  0.00000000000E+00  0.21938628731E+02  0.21938628731E+02  0.00000000000E+00 0.  1.
          2   -1    0    0  503    0 -0.00000000000E+00 -0.00000000000E+00 -0.61302542018E+03  0.61302542018E+03  0.00000000000E+00 0.  1.
         25    2    1    2    0    0 -0.76112727928E+01  0.65818814238E+02 -0.51496157484E+03  0.53404281039E+03  0.12500500784E+03 0.  0.
          5    1    3    3  501    0 -0.46636644106E+01  0.34510395313E+02 -0.49620789087E+03  0.49742838491E+03  0.10000000000E+00 0. -1.
         -5    1    3    3    0  501 -0.29476083821E+01  0.31308418925E+02 -0.18753683968E+02  0.36614425479E+02  0.10000000000E+00 0. -1.
          2    1    1    2  502    0  0.76112727928E+01 -0.65818814238E+02 -0.76125216610E+02  0.10092123852E+03  0.00000000000E+00 0.  1.
<mgrwt>
<rscale>  1 0.14147897E+03</rscale>
<asrwt>0</asrwt>
<pdfrwt beam="1">  1       21 0.33751742E-02 0.14147897E+03</pdfrwt>
<pdfrwt beam="2">  1        2 0.94311588E-01 0.14147897E+03</pdfrwt>
<totfact> 0.31799437E+05</totfact>
</mgrwt>
</event>
<event>
 6    2  0.1181843E-002  0.2082508E+03  0.7546771E-02  0.1142959E+00
         21   -1    0    0  502  503  0.00000000000E+00  0.00000000000E+00  0.22215209737E+03  0.22215209737E+03  0.00000000000E+00 0. -1.
          2   -1    0    0  503    0 -0.00000000000E+00 -0.00000000000E+00 -0.21571463997E+04  0.21571463997E+04  0.00000000000E+00 0. -1.
         25    2    1    2    0    0  0.54927963938E+02  0.15724514137E+03  0.16932258738E+03  0.26839994716E+03  0.12500110933E+03 0.  0.
          5    1    3    3  501    0  0.80231882142E+02  0.47247644375E+02  0.57043600642E+02  0.10919467563E+03  0.10000000000E+00 0.  1.
         -5    1    3    3    0  501 -0.25303918204E+02  0.10999749700E+03  0.11227898673E+03  0.15920527153E+03  0.10000000000E+00 0.  1.
          2    1    1    2  502    0 -0.54927963938E+02 -0.15724514137E+03 -0.21043168897E+04  0.21108985499E+04  0.00000000000E+00 0. -1.
<mgrwt>
<rscale>  1 0.20825079E+03</rscale>
<asrwt>0</asrwt>
<pdfrwt beam="1">  1       21 0.34177246E-01 0.20825079E+03</pdfrwt>
<pdfrwt beam="2">  1        2 0.33186867E+00 0.20825079E+03</pdfrwt>
<totfact> 0.65048828E+02</totfact>
</mgrwt>
</event>
<event>
 6    2  0.1181843E-002  0.1285704E+03  0.7546771E-02  0.1229593E+00
          2   -1    0    0  503    0 -0.00000000000E+00  0.00000000000E+00  0.19295012770E+03  0.19295012770E+03  0.00000000000E+00 0. -1.
         21   -1    0    0  502  503  0.00000000000E+00 -0.00000000000E+00 -0.17750143919E+03  0.17750143919E+03  0.00000000000E+00 0. -1.
         25    2    1    2    0    0 -0.13684804628E+01  0.30027438870E+02 -0.15271065357E+03  0.19962684926E+03  0.12500726142E+03 0.  0.
          5    1    3    3  501    0  0.25087752128E+02  0.63600174949E+02 -0.13871650668E+03  0.15465011085E+03  0.10000000000E+00 0.  1.
         -5    1    3    3    0  501 -0.26456232591E+02 -0.33572736079E+02 -0.13994146893E+02  0.44976738410E+02  0.10000000000E+00 0.  1.
          2    1    1    2  502    0  0.13684804628E+01 -0.30027438870E+02  0.16815934208E+03  0.17082471763E+03  0.00000000000E+00 0. -1.
<mgrwt>
<rscale>  1 0.12857035E+03</rscale>
<asrwt>0</asrwt>
<pdfrwt beam="1">  1       21 0.27307914E-01 0.12857035E+03</pdfrwt>
<pdfrwt beam="2">  1        2 0.29684635E-01 0.12857035E+03</pdfrwt>
<totfact> 0.27993774E+04</totfact>
</mgrwt>
</event>
<event>
 6    2  0.1181843E-002  0.1643386E+03  0.7546771E-02  0.1183884E+00
          3   -1    0    0  503    0 -0.00000000000E+00  0.00000000000E+00  0.84541888589E+03  0.84541888589E+03  0.00000000000E+00 0.  1.
         21   -1    0    0  502  503  0.00000000000E+00 -0.00000000000E+00 -0.11982555171E+03  0.11982555171E+03  0.00000000000E+00 0.  1.
         25    2    1    2    0    0 -0.72198657079E+02  0.78540548767E+02 -0.58112525745E+02  0.17431072434E+03  0.12500359630E+03 0.  0.
          5    1    3    3  501    0 -0.34283617055E+02 -0.25377705764E+02  0.10776468107E+02  0.43994733925E+02  0.10000000000E+00 0.  1.
         -5    1    3    3    0  501 -0.37915040023E+02  0.10391825453E+03 -0.68888993852E+02  0.13031599042E+03  0.10000000000E+00 0.  1.
          3    1    1    2  502    0  0.72198657079E+02 -0.78540548767E+02  0.78370585993E+03  0.79093371326E+03  0.00000000000E+00 0.  1.
<mgrwt>
<rscale>  1 0.16433856E+03</rscale>
<asrwt>0</asrwt>
<pdfrwt beam="1">  1       21 0.18434701E-01 0.16433856E+03</pdfrwt>
<pdfrwt beam="2">  1        3 0.13006444E+00 0.16433856E+03</pdfrwt>
<totfact> 0.65107818E+02</totfact>
</mgrwt>
</event>
<event>
 6    2  0.1181843E-002  0.1407990E+03  0.7546771E-02  0.1212258E+00
         21   -1    0    0  502  503  0.00000000000E+00  0.00000000000E+00  0.11617595283E+02  0.11617595283E+02  0.00000000000E+00 0. -1.
          2   -1    0    0  503    0 -0.00000000000E+00 -0.00000000000E+00 -0.15889122700E+04  0.15889122700E+04  0.00000000000E+00 0. -1.
         25    2    1    2    0    0  0.41448740663E+02 -0.49828448210E+02 -0.14578483433E+04  0.14646317474E+04  0.12499396417E+03 0.  0.
          5    1    3    3  501    0 -0.53290812651E+01 -0.12089726658E+02 -0.11920314856E+04  0.11921047073E+04  0.10000000000E+00 0. -1.
         -5    1    3    3    0  501  0.46777821929E+02 -0.37738721553E+02 -0.26581685779E+03  0.27252704015E+03  0.10000000000E+00 0. -1.
          2    1    1    2  502    0 -0.41448740663E+02  0.49828448210E+02 -0.11944633138E+03  0.13589811785E+03  0.00000000000E+00 0. -1.
<mgrwt>
<rscale>  1 0.14079902E+03</rscale>
<asrwt>0</asrwt>
<pdfrwt beam="1">  1       21 0.17873240E-02 0.14079902E+03</pdfrwt>
<pdfrwt beam="2">  1        2 0.24444782E+00 0.14079902E+03</pdfrwt>
<totfact> 0.23244523E+05</totfact>
</mgrwt>
</event>
<event>
 6    2  0.1181843E-002  0.2343572E+03  0.7546771E-02  0.1123610E+00
          2   -1    0    0  503    0 -0.00000000000E+00  0.00000000000E+00  0.21156353448E+04  0.21156353448E+04  0.00000000000E+00 0. -1.
         21   -1    0    0  502  503  0.00000000000E+00 -0.00000000000E+00 -0.22320052869E+02  0.22320052869E+02  0.00000000000E+00 0. -1.
         25    2    1    2    0    0  0.11944840622E+03  0.15821615769E+03  0.10309422566E+04  0.10572441779E+04  0.12499216371E+03 0.  0.
          5    1    3    3  501    0  0.11551318579E+03  0.17811320558E+03  0.89726441103E+03  0.92203635688E+03  0.10000000000E+00 0.  1.
         -5    1    3    3    0  501  0.39352204258E+01 -0.19897047890E+02  0.13367784557E+03  0.13520782104E+03  0.10000000000E+00 0.  1.
          2    1    1    2  502    0 -0.11944840622E+03 -0.15821615769E+03  0.10623730353E+04  0.10807112197E+04  0.00000000000E+00 0. -1.
<mgrwt>
<rscale>  1 0.23435724E+03</rscale>
<asrwt>0</asrwt>
<pdfrwt beam="1">  1       21 0.34338559E-02 0.23435724E+03</pdfrwt>
<pdfrwt beam="2">  1        2 0.32548220E+00 0.23435724E+03</pdfrwt>
<totfact> 0.41950481E+04</totfact>
</mgrwt>
</event>
<event>
 6    2  0.1181843E-002  0.1311730E+03  0.7546771E-02  0.1225726E+00
          2   -1    0    0  503    0 -0.00000000000E+00  0.00000000000E+00  0.17928503896E+04  0.17928503896E+04  0.00000000000E+00 0. -1.
         21   -1    0    0  502  503  0.00000000000E+00 -0.00000000000E+00 -0.48103223663E+01  0.48103223663E+01  0.00000000000E+00 0. -1.
         25    2    1    2    0    0 -0.44485969909E+01  0.39363010387E+02  0.99191479350E+03  0.10005505012E+04  0.12504843590E+03 0.  0.
          5    1    3    3  501    0  0.25386657460E+02  0.76834417079E+02  0.70989459733E+03  0.71449167899E+03  0.10000000000E+00 0. -1.
         -5    1    3    3    0  501 -0.29835254451E+02 -0.37471406692E+02  0.28202019617E+03  0.28605882223E+03  0.10000000000E+00 0. -1.
          2    1    1    2  502    0  0.44485969909E+01 -0.39363010387E+02  0.79612527373E+03  0.79711021075E+03  0.00000000000E+00 0. -1.
<mgrwt>
<rscale>  1 0.13117297E+03</rscale>
<asrwt>0</asrwt>
<pdfrwt beam="1">  1       21 0.74005103E-03 0.13117297E+03</pdfrwt>
<pdfrwt beam="2">  1        2 0.27582260E+00 0.13117297E+03</pdfrwt>
<totfact> 0.73794858E+05</totfact>
</mgrwt>
</event>
<event>
 6    2  0.1181843E-002  0.1270256E+03  0.7546771E-02  0.1231937E+00
         21   -1    0    0  502  503  0.00000000000E+00  0.00000000000E+00  0.12960359927E+02  0.12960359927E+02  0.00000000000E+00 0. -1.
          2   -1    0    0  503    0 -0.00000000000E+00 -0.00000000000E+00 -0.11308978799E+04  0.11308978799E+04  0.00000000000E+00 0. -1.
         25    2    1    2    0    0 -0.15333609402E+02 -0.16651234444E+02 -0.30226062406E+03  0.32786731971E+03  0.12499244494E+03 0.  0.
          5    1    3    3  501    0 -0.55434870771E+02  0.27056356239E+02 -0.10394058658E+03  0.12086656630E+03  0.10000000000E+00 0. -1.
         -5    1    3    3    0  501  0.40101261369E+02 -0.43707590683E+02 -0.19832003748E+03  0.20700075342E+03  0.10000000000E+00 0. -1.
          2    1    1    2  502    0  0.15333609402E+02  0.16651234444E+02 -0.81567689591E+03  0.81599092012E+03  0.00000000000E+00 0. -1.
<mgrwt>
<rscale>  1 0.12702557E+03</rscale>
<asrwt>0</asrwt>
<pdfrwt beam="1">  1       21 0.19939011E-02 0.12702557E+03</pdfrwt>
<pdfrwt beam="2">  1        2 0.17398433E+00 0.12702557E+03</pdfrwt>
<totfact> 0.34170532E+05</totfact>
</mgrwt>
</event>
<event>
 6    2  0.1181843E-002  0.1492226E+03  0.7546771E-02  0.1201432E+00
         21   -1    0    0  502  503  0.00000000000E+00  0.00000000000E+00  0.19535925473E+03  0.19535925473E+03  0.00000000000E+00 0. -1.
          2   -1    0    0  503    0 -0.00000000000E+00 -0.00000000000E+00 -0.40958814381E+03  0.40958814381E+03  0.00000000000E+00 0.  1.
         25    2    1    2    0    0  0.70163266372E+02  0.41468014761E+02  0.16184762216E+03  0.22014092445E+03  0.12499957450E+03 0.  0.
          5    1    3    3  501    0  0.17196703414E+02  0.74901662809E+02  0.49199946468E+02  0.91250372231E+02  0.10000000000E+00 0. -1.
         -5    1    3    3    0  501  0.52966562959E+02 -0.33433648048E+02  0.11264767569E+03  0.12889055222E+03  0.10000000000E+00 0. -1.
          2    1    1    2  502    0 -0.70163266372E+02 -0.41468014761E+02 -0.37607651124E+03  0.38480647409E+03  0.00000000000E+00 0.  1.
<mgrwt>
<rscale>  1 0.14922256E+03</rscale>
<asrwt>0</asrwt>
<pdfrwt beam="1">  1       21 0.30055271E-01 0.14922256E+03</pdfrwt>
<pdfrwt beam="2">  1        2 0.63013559E-01 0.14922256E+03</pdfrwt>
<totfact> 0.10402836E+04</totfact>
</mgrwt>
</event>
<event>
 6    2  0.1181843E-002  0.1345517E+03  0.7546771E-02  0.1220854E+00
          4   -1    0    0  503    0 -0.00000000000E+00  0.00000000000E+00  0.10482378098E+04  0.10482378098E+04  0.00000000000E+00 0.  1.
         21   -1    0    0  502  503  0.00000000000E+00 -0.00000000000E+00 -0.10129867807E+02  0.10129867807E+02  0.00000000000E+00 0.  1.
         25    2    1    2    0    0 -0.49055053762E+02  0.90512876212E+01  0.49459307265E+03  0.51256850456E+03  0.12496335559E+03 0.  0.
          5    1    3    3  501    0  0.40499304612E+02  0.11082088839E+02  0.11155007110E+03  0.11919074934E+03  0.10000000000E+00 0.  1.
         -5    1    3    3    0  501 -0.89554358374E+02 -0.20308012176E+01  0.38304300155E+03  0.39337775521E+03  0.10000000000E+00 0.  1.
          4    1    1    2  502    0  0.49055053762E+02 -0.90512876212E+01  0.54351486935E+03  0.54579917306E+03  0.00000000000E+00 0.  1.
<mgrwt>
<rscale>  1 0.13455172E+03</rscale>
<asrwt>0</asrwt>
<pdfrwt beam="1">  1       21 0.15584420E-02 0.13455172E+03</pdfrwt>
<pdfrwt beam="2">  1        4 0.16126727E+00 0.13455172E+03</pdfrwt>
<totfact> 0.19749368E+04</totfact>
</mgrwt>
</event>
<event>
 6    2  0.1181843E-002  0.1647862E+03  0.7546771E-02  0.1183397E+00
          1   -1    0    0  503    0 -0.00000000000E+00  0.00000000000E+00  0.16513768137E+04  0.16513768137E+04  0.00000000000E+00 0. -1.
         21   -1    0    0  502  503  0.00000000000E+00 -0.00000000000E+00 -0.13910633189E+02  0.13910633189E+02  0.00000000000E+00 0. -1.
         25    2    1    2    0    0  0.35042342263E+02 -0.10144009997E+03  0.13183281175E+04  0.13285870417E+04  0.12504576038E+03 0.  0.
          5    1    3    3  501    0  0.18748885236E+02  0.27046192193E+02  0.18748378387E+03  0.19035019418E+03  0.10000000000E+00 0.  1.
         -5    1    3    3    0  501  0.16293457027E+02 -0.12848629216E+03  0.11308443337E+04  0.11382368475E+04  0.10000000000E+00 0.  1.
          1    1    1    2  502    0 -0.35042342263E+02  0.10144009997E+03  0.31913806302E+03  0.33670040526E+03  0.00000000000E+00 0. -1.
<mgrwt>
<rscale>  1 0.16478623E+03</rscale>
<asrwt>0</asrwt>
<pdfrwt beam="1">  1       21 0.21400987E-02 0.16478623E+03</pdfrwt>
<pdfrwt beam="2">  1        1 0.25405782E+00 0.16478623E+03</pdfrwt>
<totfact> 0.71636312E+04</totfact>
</mgrwt>
</event>
<event>
 6    2  0.1181843E-002  0.1313334E+03  0.7546771E-02  0.1225491E+00
         21   -1    0    0  502  503  0.00000000000E+00  0.00000000000E+00  0.69782898191E+01  0.69782898191E+01  0.00000000000E+00 0.  1.
          1   -1    0    0  503    0 -0.00000000000E+00 -0.00000000000E+00 -0.15023004955E+04  0.15023004955E+04  0.00000000000E+00 0.  1.
         25    2    1    2    0    0  0.48820264447E+01 -0.40105449696E+02 -0.65779555786E+03  0.67077823846E+03  0.12496466689E+03 0.  0.
          5    1    3    3  501    0  0.11966579360E+02 -0.49135738694E+02 -0.92957457294E+02  0.10582352624E+03  0.10000000000E+00 0. -1.
         -5    1    3    3    0  501 -0.70845529155E+01  0.90302889973E+01 -0.56483810057E+03  0.56495471222E+03  0.10000000000E+00 0. -1.
          1    1    1    2  502    0 -0.48820264447E+01  0.40105449696E+02 -0.83752664779E+03  0.83850054683E+03  0.00000000000E+00 0.  1.
<mgrwt>
<rscale>  1 0.13133335E+03</rscale>
<asrwt>0</asrwt>
<pdfrwt beam="1">  1       21 0.10735819E-02 0.13133335E+03</pdfrwt>
<pdfrwt beam="2">  1        1 0.23112341E+00 0.13133335E+03</pdfrwt>
<totfact> 0.26985393E+05</totfact>
</mgrwt>
</event>
<event>
 6    2  0.1181843E-002  0.1628953E+03  0.7546771E-02  0.1185466E+00
         21   -1    0    0  502  503  0.00000000000E+00  0.00000000000E+00  0.13265293722E+02  0.13265293722E+02  0.00000000000E+00 0.  1.
          2   -1    0    0  503    0 -0.00000000000E+00 -0.00000000000E+00 -0.15401473753E+04  0.15401473753E+04  0.00000000000E+00 0.  1.
         25    2    1    2    0    0 -0.33877546741E+02  0.98804024641E+02 -0.64016795632E+03  0.66056785418E+03  0.12499981688E+03 0.  0.
          5    1    3    3  501    0  0.32203306609E+02 -0.11167402410E+02 -0.11418632824E+03  0.11916497552E+03  0.10000000000E+00 0. -1.
         -5    1    3    3    0  501 -0.66080853350E+02  0.10997142705E+03 -0.52598162808E+03  0.54140287866E+03  0.10000000000E+00 0. -1.
          2    1    1    2  502    0  0.33877546741E+02 -0.98804024641E+02 -0.88671412528E+03  0.89284481486E+03  0.00000000000E+00 0.  1.
<mgrwt>
<rscale>  1 0.16289530E+03</rscale>
<asrwt>0</asrwt>
<pdfrwt beam="1">  1       21 0.20408132E-02 0.16289530E+03</pdfrwt>
<pdfrwt beam="2">  1        2 0.23694589E+00 0.16289530E+03</pdfrwt>
<totfact> 0.19912232E+05</totfact>
</mgrwt>
</event>
<event>
 6    2  0.1181843E-002  0.1677462E+03  0.7546771E-02  0.1180219E+00
         21   -1    0    0  502  503  0.00000000000E+00  0.00000000000E+00  0.65398955649E+02  0.65398955649E+02  0.00000000000E+00 0.  1.
          2   -1    0    0  503    0 -0.00000000000E+00 -0.00000000000E+00 -0.72203189269E+03  0.72203189269E+03  0.00000000000E+00 0. -1.
         25    2    1    2    0    0 -0.93570131715E+02  0.61287604477E+02 -0.56564577968E+02  0.17702641227E+03  0.12500903627E+03 0.  0.
          5    1    3    3  501    0 -0.90616889479E+01  0.21745927882E+02 -0.77842257415E+02  0.81329125321E+02  0.10000000000E+00 0. -1.
         -5    1    3    3    0  501 -0.84508442768E+02  0.39541676595E+02  0.21277679447E+02  0.95697286950E+02  0.10000000000E+00 0. -1.
          2    1    1    2  502    0  0.93570131715E+02 -0.61287604477E+02 -0.60006835907E+03  0.61040443607E+03  0.00000000000E+00 0. -1.
<mgrwt>
<rscale>  1 0.16774623E+03</rscale>
<asrwt>0</asrwt>
<pdfrwt beam="1">  1       21 0.10061377E-01 0.16774623E+03</pdfrwt>
<pdfrwt beam="2">  1        2 0.11108184E+00 0.16774623E+03</pdfrwt>
<totfact> 0.40984648E+04</totfact>
</mgrwt>
</event>
<event>
 6    2  0.1181843E-002  0.1443134E+03  0.7546771E-02  0.1207640E+00
          2   -1    0    0  503    0 -0.00000000000E+00  0.00000000000E+00  0.40883227969E+03  0.40883227969E+03  0.00000000000E+00 0. -1.
         21   -1    0    0  502  503  0.00000000000E+00 -0.00000000000E+00 -0.39583358354E+02  0.39583358354E+02  0.00000000000E+00 0.  1.
         25    2    1    2    0    0  0.32720853552E+02 -0.64449121843E+02  0.11630186902E+03  0.18534425070E+03  0.12490805805E+03 0.  0.
          5    1    3    3  501    0 -0.35465212645E+02 -0.32916412350E+02  0.18281642877E+01  0.48421314467E+02  0.10000000000E+00 0.  1.
         -5    1    3    3    0  501  0.68186066197E+02 -0.31532709493E+02  0.11447370473E+03  0.13692293623E+03  0.10000000000E+00 0.  1.
          2    1    1    2  502    0 -0.32720853552E+02  0.64449121843E+02  0.25294705232E+03  0.26307138735E+03  0.00000000000E+00 0. -1.
<mgrwt>
<rscale>  1 0.14431343E+03</rscale>
<asrwt>0</asrwt>
<pdfrwt beam="1">  1       21 0.60897477E-02 0.14431343E+03</pdfrwt>
<pdfrwt beam="2">  1        2 0.62897271E-01 0.14431343E+03</pdfrwt>
<totfact> 0.18508676E+05</totfact>
</mgrwt>
</event>
<event>
 6    2  0.1181843E-002  0.1268876E+03  0.7546771E-02  0.1232148E+00
          2   -1    0    0  503    0 -0.00000000000E+00  0.00000000000E+00  0.48723447119E+03  0.48723447119E+03  0.00000000000E+00 0. -1.
         21   -1    0    0  502  503  0.00000000000E+00 -0.00000000000E+00 -0.62702988842E+02  0.62702988842E+02  0.00000000000E+00 0.  1.
         25    2    1    2    0    0 -0.10406421458E+02 -0.19050456165E+02  0.20556271900E+01  0.12690429150E+03  0.12501703928E+03 0.  0.
          5    1    3    3  501    0  0.37485225976E+02  0.11100145940E+02  0.42195279386E+02  0.57522230562E+02  0.10000000000E+00 0. -1.
         -5    1    3    3    0  501 -0.47891647434E+02 -0.30150602105E+02 -0.40139652196E+02  0.69382060936E+02  0.10000000000E+00 0. -1.
          2    1    1    2  502    0  0.10406421458E+02  0.19050456165E+02  0.42247585516E+03  0.42303316853E+03  0.00000000000E+00 0. -1.
<mgrwt>
<rscale>  1 0.12688764E+03</rscale>
<asrwt>0</asrwt>
<pdfrwt beam="1">  1       21 0.96466140E-02 0.12688764E+03</pdfrwt>
<pdfrwt beam="2">  1        2 0.74959147E-01 0.12688764E+03</pdfrwt>
<totfact> 0.69078219E+04</totfact>
</mgrwt>
</event>
<event>
 6    2  0.1181843E-002  0.1399221E+03  0.7546771E-02  0.1213434E+00
         21   -1    0    0  502  503  0.00000000000E+00  0.00000000000E+00  0.12243875780E+02  0.12243875780E+02  0.00000000000E+00 0. -1.
          2   -1    0    0  503    0 -0.00000000000E+00 -0.00000000000E+00 -0.17088368931E+04  0.17088368931E+04  0.00000000000E+00 0. -1.
         25    2    1    2    0    0 -0.36238295730E+02 -0.51386457117E+02 -0.41514156883E+03  0.43808755109E+03  0.12499759277E+03 0.  0.
          5    1    3    3  501    0  0.17992643452E+02 -0.22853397094E+02 -0.33947744449E+03  0.34072123252E+03  0.10000000000E+00 0. -1.
         -5    1    3    3    0  501 -0.54230939182E+02 -0.28533060024E+02 -0.75664124340E+02  0.97366318565E+02  0.10000000000E+00 0. -1.
          2    1    1    2  502    0  0.36238295730E+02  0.51386457117E+02 -0.12814514485E+04  0.12829932178E+04  0.00000000000E+00 0. -1.
<mgrwt>
<rscale>  1 0.13992205E+03</rscale>
<asrwt>0</asrwt>
<pdfrwt beam="1">  1       21 0.18836726E-02 0.13992205E+03</pdfrwt>
<pdfrwt beam="2">  1        2 0.26289807E+00 0.13992205E+03</pdfrwt>
<totfact> 0.18528591E+05</totfact>
</mgrwt>
</event>
<event>
 6    2  0.1181843E-002  0.1465556E+03  0.7546771E-02  0.1204770E+00
          2   -1    0    0  503    0 -0.00000000000E+00  0.00000000000E+00  0.25513446811E+04  0.25513446811E+04  0.00000000000E+00 0. -1.
         21   -1    0    0  502  503  0.00000000000E+00 -0.00000000000E+00 -0.92343996319E+02  0.92343996319E+02  0.00000000000E+00 0.  1.
         25    2    1    2    0    0 -0.56746938679E+02 -0.51312955040E+02 -0.33236803233E+02  0.15027717286E+03  0.12500123675E+03 0.  0.
          5    1    3    3  501    0  0.19904252341E+02  0.99169283937E+01 -0.46244838319E+02  0.51313933792E+02  0.10000000000E+00 0. -1.
         -5    1    3    3    0  501 -0.76651191020E+02 -0.61229883433E+02  0.13008035086E+02  0.98963239068E+02  0.10000000000E+00 0. -1.
          2    1    1    2  502    0  0.56746938679E+02  0.51312955040E+02  0.24922374880E+04  0.24934115046E+04  0.00000000000E+00 0. -1.
<mgrwt>
<rscale>  1 0.14655560E+03</rscale>
<asrwt>0</asrwt>
<pdfrwt beam="1">  1       21 0.14206771E-01 0.14655560E+03</pdfrwt>
<pdfrwt beam="2">  1        2 0.39251451E+00 0.14655560E+03</pdfrwt>
<totfact> 0.22037803E+03</totfact>
</mgrwt>
</event>
<event>
 6    2  0.1181843E-002  0.1508639E+03  0.7546771E-02  0.1199416E+00
          1   -1    0    0  503    0 -0.00000000000E+00  0.00000000000E+00  0.11915918810E+04  0.11915918810E+04  0.00000000000E+00 0. -1.
         21   -1    0    0  502  503  0.00000000000E+00 -0.00000000000E+00 -0.24103328657E+02  0.24103328657E+02  0.00000000000E+00 0. -1.
         25    2    1    2    0    0 -0.63100935656E+02  0.56154385074E+02  0.23415473065E+03  0.27854684053E+03  0.12499944575E+03 0.  0.
          5    1    3    3  501    0 -0.88697516026E+02  0.38238117175E+02  0.22670995863E+03  0.24642811994E+03  0.10000000000E+00 0. -1.
         -5    1    3    3    0  501  0.25596580369E+02  0.17916267899E+02  0.74447720226E+01  0.32118720593E+02  0.10000000000E+00 0. -1.
          1    1    1    2  502    0  0.63100935656E+02 -0.56154385074E+02  0.93333382170E+03  0.93714836913E+03  0.00000000000E+00 0. -1.
<mgrwt>
<rscale>  1 0.15086386E+03</rscale>
<asrwt>0</asrwt>
<pdfrwt beam="1">  1       21 0.37082053E-02 0.15086386E+03</pdfrwt>
<pdfrwt beam="2">  1        1 0.18332178E+00 0.15086386E+03</pdfrwt>
<totfact> 0.58500183E+04</totfact>
</mgrwt>
</event>
<event>
 6    2  0.1181843E-002  0.1381871E+03  0.7546771E-02  0.1215789E+00
          1   -1    0    0  503    0 -0.00000000000E+00  0.00000000000E+00  0.22316584507E+04  0.22316584507E+04  0.00000000000E+00 0. -1.
         21   -1    0    0  502  503  0.00000000000E+00 -0.00000000000E+00 -0.99153619686E+01  0.99153619686E+01  0.00000000000E+00 0. -1.
         25    2    1    2    0    0 -0.44598480912E+02  0.38478055482E+02  0.49778384026E+03  0.51660857370E+03  0.12500432610E+03 0.  0.
          5    1    3    3  501    0 -0.79673706340E+02 -0.78476194306E+01  0.28393904609E+03  0.29500996001E+03  0.10000000000E+00 0.  1.
         -5    1    3    3    0  501  0.35075225428E+02  0.46325674913E+02  0.21384479417E+03  0.22159861369E+03  0.10000000000E+00 0.  1.
          1    1    1    2  502    0  0.44598480912E+02 -0.38478055482E+02  0.17239592485E+04  0.17249652390E+04  0.00000000000E+00 0. -1.
<mgrwt>
<rscale>  1 0.13818707E+03</rscale>
<asrwt>0</asrwt>
<pdfrwt beam="1">  1       21 0.15254421E-02 0.13818707E+03</pdfrwt>
<pdfrwt beam="2">  1        1 0.34333167E+00 0.13818707E+03</pdfrwt>
<totfact> 0.52854594E+04</totfact>
</mgrwt>
</event>
<event>
 6    2  0.1181843E-002  0.1363136E+03  0.7546771E-02  0.1218377E+00
          1   -1    0    0  503    0 -0.00000000000E+00  0.00000000000E+00  0.12405642896E+03  0.12405642896E+03  0.00000000000E+00 0. -1.
         21   -1    0    0  502  503  0.00000000000E+00 -0.00000000000E+00 -0.47780549044E+03  0.47780549044E+03  0.00000000000E+00 0. -1.
         25    2    1    2    0    0 -0.49736057080E+02  0.21965155392E+02 -0.46147837213E+03  0.48118985220E+03  0.12500096996E+03 0.  0.
          5    1    3    3  501    0  0.39550328550E+02 -0.47854296221E+01 -0.19074568563E+03  0.19486163145E+03  0.10000000000E+00 0.  1.
         -5    1    3    3    0  501 -0.89286385631E+02  0.26750585014E+02 -0.27073268650E+03  0.28632822075E+03  0.10000000000E+00 0.  1.
          1    1    1    2  502    0  0.49736057080E+02 -0.21965155392E+02  0.10772931066E+03  0.12067206720E+03  0.00000000000E+00 0. -1.
<mgrwt>
<rscale>  1 0.13631356E+03</rscale>
<asrwt>0</asrwt>
<pdfrwt beam="1">  1       21 0.73508539E-01 0.13631356E+03</pdfrwt>
<pdfrwt beam="2">  1        1 0.19085604E-01 0.13631356E+03</pdfrwt>
<totfact> 0.49327922E+03</totfact>
</mgrwt>
</event>
<event>
 6    2  0.1181843E-002  0.1763520E+03  0.7546771E-02  0.1171381E+00
         21   -1    0    0  502  503  0.00000000000E+00  0.00000000000E+00  0.46124140387E+03  0.46124140387E+03  0.00000000000E+00 0.  1.
          4   -1    0    0  503    0 -0.00000000000E+00 -0.00000000000E+00 -0.80530583552E+03  0.80530583552E+03  0.00000000000E+00 0.  1.
         25    2    1    2    0    0 -0.11493688589E+02  0.12387553830E+03  0.43929474762E+03  0.47337080402E+03  0.12499115547E+03 0.  0.
          5    1    3    3  501    0 -0.39968282523E+02  0.73725481483E+02  0.38546356700E+03  0.39448077483E+03  0.10000000000E+00 0.  1.
         -5    1    3    3    0  501  0.28474593934E+02  0.50150056817E+02  0.53831180621E+02  0.78890029189E+02  0.10000000000E+00 0.  1.
          4    1    1    2  502    0  0.11493688589E+02 -0.12387553830E+03 -0.78335917927E+03  0.79317643537E+03  0.00000000000E+00 0.  1.
<mgrwt>
<rscale>  1 0.17635204E+03</rscale>
<asrwt>0</asrwt>
<pdfrwt beam="1">  1       21 0.70960217E-01 0.17635204E+03</pdfrwt>
<pdfrwt beam="2">  1        4 0.12389320E+00 0.17635204E+03</pdfrwt>
<totfact> 0.39000845E+01</totfact>
</mgrwt>
</event>
<event>
 6    2  0.1181843E-002  0.1585130E+03  0.7546771E-02  0.1190386E+00
         21   -1    0    0  502  503  0.00000000000E+00  0.00000000000E+00  0.24775285255E+02  0.24775285255E+02  0.00000000000E+00 0.  1.
          2   -1    0    0  503    0 -0.00000000000E+00 -0.00000000000E+00 -0.15573428390E+04  0.15573428390E+04  0.00000000000E+00 0.  1.
         25    2    1    2    0    0 -0.27302943362E+02  0.93575752700E+02 -0.25109070185E+03  0.29693922848E+03  0.12499797056E+03 0.  0.
          5    1    3    3  501    0 -0.41431543679E+02  0.31389543451E+02 -0.21987950324E+03  0.22593999689E+03  0.10000000000E+00 0. -1.
         -5    1    3    3    0  501  0.14128600317E+02  0.62186209249E+02 -0.31211198615E+02  0.70999231592E+02  0.10000000000E+00 0. -1.
          2    1    1    2  502    0  0.27302943362E+02 -0.93575752700E+02 -0.12814768519E+04  0.12851788958E+04  0.00000000000E+00 0.  1.
<mgrwt>
<rscale>  1 0.15851298E+03</rscale>
<asrwt>0</asrwt>
<pdfrwt beam="1">  1       21 0.38115821E-02 0.15851298E+03</pdfrwt>
<pdfrwt beam="2">  1        2 0.23959122E+00 0.15851298E+03</pdfrwt>
<totfact> 0.69875894E+04</totfact>
</mgrwt>
</event>
<event>
 6    2  0.1181843E-002  0.1507300E+03  0.7546771E-02  0.1199579E+00
          2   -1    0    0  503    0 -0.00000000000E+00  0.00000000000E+00  0.46433360272E+03  0.46433360272E+03  0.00000000000E+00 0. -1.
         21   -1    0    0  502  503  0.00000000000E+00 -0.00000000000E+00 -0.68330868553E+02  0.68330868553E+02  0.00000000000E+00 0. -1.
         25    2    1    2    0    0  0.65068344653E+02  0.53495630842E+02  0.25704464782E+02  0.15290602133E+03  0.12499543933E+03 0.  0.
          5    1    3    3  501    0  0.82977726134E+02 -0.11052212350E+02  0.12688561671E+02  0.84666782326E+02  0.10000000000E+00 0. -1.
         -5    1    3    3    0  501 -0.17909381481E+02  0.64547843192E+02  0.13015903111E+02  0.68239239002E+02  0.10000000000E+00 0. -1.
          2    1    1    2  502    0 -0.65068344653E+02 -0.53495630842E+02  0.37029826939E+03  0.37975844995E+03  0.00000000000E+00 0. -1.
<mgrwt>
<rscale>  1 0.15073000E+03</rscale>
<asrwt>0</asrwt>
<pdfrwt beam="1">  1       21 0.10512442E-01 0.15073000E+03</pdfrwt>
<pdfrwt beam="2">  1        2 0.71435937E-01 0.15073000E+03</pdfrwt>
<totfact> 0.62769868E+04</totfact>
</mgrwt>
</event>
<event>
 6    2  0.1181843E-002  0.1331753E+03  0.7546771E-02  0.1222819E+00
          2   -1    0    0  503    0 -0.00000000000E+00  0.00000000000E+00  0.63009946905E+03  0.63009946905E+03  0.00000000000E+00 0. -1.
         21   -1    0    0  502  503  0.00000000000E+00 -0.00000000000E+00 -0.34510543335E+03  0.34510543335E+03  0.00000000000E+00 0. -1.
         25    2    1    2    0    0  0.27241039191E+02  0.36947520500E+02 -0.33137207466E+03  0.35713178738E+03  0.12501387205E+03 0.  0.
          5    1    3    3  501    0  0.24169385437E+02 -0.27680238691E+01 -0.31180241241E+03  0.31275002083E+03  0.10000000000E+00 0. -1.
         -5    1    3    3    0  501  0.30716537541E+01  0.39715544369E+02 -0.19569662257E+02  0.44381766551E+02  0.10000000000E+00 0. -1.
          2    1    1    2  502    0 -0.27241039191E+02 -0.36947520500E+02  0.61636611037E+03  0.61807311501E+03  0.00000000000E+00 0. -1.
<mgrwt>
<rscale>  1 0.13317530E+03</rscale>
<asrwt>0</asrwt>
<pdfrwt beam="1">  1       21 0.53093144E-01 0.13317530E+03</pdfrwt>
<pdfrwt beam="2">  1        2 0.96938380E-01 0.13317530E+03</pdfrwt>
<totfact> 0.20770208E+03</totfact>
</mgrwt>
</event>
<event>
 6    2  0.1181843E-002  0.1305666E+03  0.7546771E-02  0.1226617E+00
          2   -1    0    0  503    0 -0.00000000000E+00  0.00000000000E+00  0.10723755764E+04  0.10723755764E+04  0.00000000000E+00 0.  1.
         21   -1    0    0  502  503  0.00000000000E+00 -0.00000000000E+00 -0.19141496113E+02  0.19141496113E+02  0.00000000000E+00 0.  1.
         25    2    1    2    0    0 -0.13368564323E+02 -0.35270254833E+02  0.20894026101E+03  0.24638112922E+03  0.12499967509E+03 0.  0.
          5    1    3    3  501    0  0.28362606397E+02  0.32047141686E+00 -0.19922958464E+01  0.28434475312E+02  0.10000000000E+00 0.  1.
         -5    1    3    3    0  501 -0.41731170720E+02 -0.35590726250E+02  0.21093255686E+03  0.21794665390E+03  0.10000000000E+00 0.  1.
          2    1    1    2  502    0  0.13368564323E+02  0.35270254833E+02  0.84429381924E+03  0.84513594327E+03  0.00000000000E+00 0.  1.
<mgrwt>
<rscale>  1 0.13056657E+03</rscale>
<asrwt>0</asrwt>
<pdfrwt beam="1">  1       21 0.29448464E-02 0.13056657E+03</pdfrwt>
<pdfrwt beam="2">  1        2 0.16498081E+00 0.13056657E+03</pdfrwt>
<totfact> 0.19593436E+05</totfact>
</mgrwt>
</event>
<event>
 6    2  0.1181843E-002  0.1366193E+03  0.7546771E-02  0.1217952E+00
         21   -1    0    0  502  503  0.00000000000E+00  0.00000000000E+00  0.14449902745E+03  0.14449902745E+03  0.00000000000E+00 0.  1.
          2   -1    0    0  503    0 -0.00000000000E+00 -0.00000000000E+00 -0.87635798084E+03  0.87635798084E+03  0.00000000000E+00 0.  1.
         25    2    1    2    0    0 -0.46611876884E+02 -0.29599241960E+02  0.11110038656E+03  0.17609122359E+03  0.12496415863E+03 0.  0.
          5    1    3    3  501    0 -0.22878378224E+02 -0.17330072654E+02 -0.24590578792E+02  0.37794949050E+02  0.10000000000E+00 0.  1.
         -5    1    3    3    0  501 -0.23733498660E+02 -0.12269169306E+02  0.13569096535E+03  0.13829627454E+03  0.10000000000E+00 0.  1.
          2    1    1    2  502    0  0.46611876884E+02  0.29599241960E+02 -0.84295933995E+03  0.84476578470E+03  0.00000000000E+00 0.  1.
<mgrwt>
<rscale>  1 0.13661926E+03</rscale>
<asrwt>0</asrwt>
<pdfrwt beam="1">  1       21 0.22230620E-01 0.13661926E+03</pdfrwt>
<pdfrwt beam="2">  1        2 0.13482431E+00 0.13661926E+03</pdfrwt>
<totfact> 0.77020571E+03</totfact>
</mgrwt>
</event>
<event>
 6    2  0.1181843E-002  0.1340283E+03  0.7546771E-02  0.1221598E+00
          2   -1    0    0  503    0 -0.00000000000E+00  0.00000000000E+00  0.26945577489E+02  0.26945577489E+02  0.00000000000E+00 0. -1.
         21   -1    0    0  502  503  0.00000000000E+00 -0.00000000000E+00 -0.35072938532E+03  0.35072938532E+03  0.00000000000E+00 0. -1.
         25    2    1    2    0    0 -0.47929136239E+02 -0.64390842395E+01 -0.28753462029E+03  0.31723766056E+03  0.12499964601E+03 0.  0.
          5    1    3    3  501    0 -0.82635817943E+02 -0.40310994929E+01 -0.11765350090E+03  0.14383074930E+03  0.10000000000E+00 0. -1.
         -5    1    3    3    0  501  0.34706681704E+02 -0.24079847466E+01 -0.16988111939E+03  0.17340691125E+03  0.10000000000E+00 0. -1.
          2    1    1    2  502    0  0.47929136239E+02  0.64390842395E+01 -0.36249187537E+02  0.60437302252E+02  0.00000000000E+00 0. -1.
<mgrwt>
<rscale>  1 0.13402826E+03</rscale>
<asrwt>0</asrwt>
<pdfrwt beam="1">  1       21 0.53958360E-01 0.13402826E+03</pdfrwt>
<pdfrwt beam="2">  1        2 0.41454740E-02 0.13402826E+03</pdfrwt>
<totfact> 0.77720680E+04</totfact>
</mgrwt>
</event>
<event>
 6    2  0.1181843E-002  0.1270736E+03  0.7546771E-02  0.1231864E+00
         21   -1    0    0  502  503  0.00000000000E+00  0.00000000000E+00  0.35159875390E+02  0.35159875390E+02  0.00000000000E+00 0. -1.
          2   -1    0    0  503    0 -0.00000000000E+00 -0.00000000000E+00 -0.17852062010E+04  0.17852062010E+04  0.00000000000E+00 0. -1.
         25    2    1    2    0    0 -0.18686842779E+02 -0.13180572011E+02 -0.79990774077E+02  0.15015397286E+03  0.12499906422E+03 0.  0.
          5    1    3    3  501    0 -0.87628932832E+01 -0.51316436578E+02 -0.94721275300E+02  0.10808466569E+03  0.10000000000E+00 0.  1.
         -5    1    3    3    0  501 -0.99239494961E+01  0.38135864567E+02  0.14730501224E+02  0.42069307175E+02  0.10000000000E+00 0.  1.
          2    1    1    2  502    0  0.18686842779E+02  0.13180572011E+02 -0.16700555516E+04  0.16702121036E+04  0.00000000000E+00 0. -1.
<mgrwt>
<rscale>  1 0.12707357E+03</rscale>
<asrwt>0</asrwt>
<pdfrwt beam="1">  1       21 0.54092114E-02 0.12707357E+03</pdfrwt>
<pdfrwt beam="2">  1        2 0.27464712E+00 0.12707357E+03</pdfrwt>
<totfact> 0.29856843E+04</totfact>
</mgrwt>
</event>
<event>
 6    2  0.1181843E-002  0.1265789E+03  0.7546771E-02  0.1232622E+00
         21   -1    0    0  502  503  0.00000000000E+00  0.00000000000E+00  0.25017037770E+03  0.25017037770E+03  0.00000000000E+00 0. -1.
          2   -1    0    0  503    0 -0.00000000000E+00 -0.00000000000E+00 -0.44397359902E+03  0.44397359902E+03  0.00000000000E+00 0.  1.
         25    2    1    2    0    0  0.19227750032E+02  0.53039366989E+01  0.23391176195E+03  0.26596417216E+03  0.12499756149E+03 0.  0.
          5    1    3    3  501    0 -0.51271410781E+02  0.86658197812E+01  0.67519630034E+02  0.85221854215E+02  0.10000000000E+00 0.  1.
         -5    1    3    3    0  501  0.70499160813E+02 -0.33618830823E+01  0.16639213192E+03  0.18074231795E+03  0.10000000000E+00 0.  1.
          2    1    1    2  502    0 -0.19227750032E+02 -0.53039366989E+01 -0.42771498327E+03  0.42817980456E+03  0.00000000000E+00 0.  1.
<mgrwt>
<rscale>  1 0.12657894E+03</rscale>
<asrwt>0</asrwt>
<pdfrwt beam="1">  1       21 0.38487751E-01 0.12657894E+03</pdfrwt>
<pdfrwt beam="2">  1        2 0.68303630E-01 0.12657894E+03</pdfrwt>
<totfact> 0.59114341E+03</totfact>
</mgrwt>
</event>
<event>
 6    2  0.1181843E-002  0.1272275E+03  0.7546771E-02  0.1231629E+00
          1   -1    0    0  503    0 -0.00000000000E+00  0.00000000000E+00  0.76601505880E+03  0.76601505880E+03  0.00000000000E+00 0. -1.
         21   -1    0    0  502  503  0.00000000000E+00 -0.00000000000E+00 -0.76599157612E+01  0.76599157612E+01  0.00000000000E+00 0. -1.
         25    2    1    2    0    0 -0.22769176561E+02 -0.65514727198E+01  0.68062633162E+03  0.69241535778E+03  0.12500186874E+03 0.  0.
          5    1    3    3  501    0 -0.41298715931E+01 -0.49730966189E+02  0.57034933061E+03  0.57252824713E+03  0.10000000000E+00 0.  1.
         -5    1    3    3    0  501 -0.18639304968E+02  0.43179493469E+02  0.11027700102E+03  0.11988711065E+03  0.10000000000E+00 0.  1.
          1    1    1    2  502    0  0.22769176561E+02  0.65514727198E+01  0.77728811412E+02  0.81259616783E+02  0.00000000000E+00 0. -1.
<mgrwt>
<rscale>  1 0.12722745E+03</rscale>
<asrwt>0</asrwt>
<pdfrwt beam="1">  1       21 0.11784492E-02 0.12722745E+03</pdfrwt>
<pdfrwt beam="2">  1        1 0.11784841E+00 0.12722745E+03</pdfrwt>
<totfact> 0.77515380E+05</totfact>
</mgrwt>
</event>
<event>
 6    2  0.1181843E-002  0.1273459E+03  0.7546771E-02  0.1231448E+00
          2   -1    0    0  503    0 -0.00000000000E+00  0.00000000000E+00  0.88576180867E+03  0.88576180867E+03  0.00000000000E+00 0.  1.
         21   -1    0    0  502  503  0.00000000000E+00 -0.00000000000E+00 -0.72482031524E+02  0.72482031524E+02  0.00000000000E+00 0. -1.
         25    2    1    2    0    0  0.33146805379E+00  0.24328595627E+02 -0.16231224357E+02  0.12837608443E+03  0.12499990390E+03 0.  0.
          5    1    3    3  501    0 -0.19582428639E+02 -0.47216464697E+02  0.43813740941E+01  0.51303727826E+02  0.10000000000E+00 0.  1.
         -5    1    3    3    0  501  0.19913896693E+02  0.71545060323E+02 -0.20612598451E+02  0.77072356608E+02  0.10000000000E+00 0.  1.
          2    1    1    2  502    0 -0.33146805379E+00 -0.24328595627E+02  0.82951100150E+03  0.82986775576E+03  0.00000000000E+00 0.  1.
<mgrwt>
<rscale>  1 0.12734585E+03</rscale>
<asrwt>0</asrwt>
<pdfrwt beam="1">  1       21 0.11151082E-01 0.12734585E+03</pdfrwt>
<pdfrwt beam="2">  1        2 0.13627104E+00 0.12734585E+03</pdfrwt>
<totfact> 0.26595587E+04</totfact>
</mgrwt>
</event>
<event>
 6    2  0.1181843E-002  0.1266709E+03  0.7546771E-02  0.1232481E+00
          2   -1    0    0  503    0 -0.00000000000E+00  0.00000000000E+00  0.34831751969E+03  0.34831751969E+03  0.00000000000E+00 0. -1.
         21   -1    0    0  502  503  0.00000000000E+00 -0.00000000000E+00 -0.99480134908E+02  0.99480134908E+02  0.00000000000E+00 0.  1.
         25    2    1    2    0    0  0.33013475085E+01 -0.20244944334E+02 -0.58676084193E+02  0.13960081771E+03  0.12499899513E+03 0.  0.
          5    1    3    3  501    0  0.52128502656E+02 -0.41876545856E+02 -0.54081621851E+02  0.85999172694E+02  0.10000000000E+00 0.  1.
         -5    1    3    3    0  501 -0.48827155148E+02  0.21631601522E+02 -0.45944623414E+01  0.53601645016E+02  0.10000000000E+00 0.  1.
          2    1    1    2  502    0 -0.33013475085E+01  0.20244944334E+02  0.30751346897E+03  0.30819683689E+03  0.00000000000E+00 0. -1.
<mgrwt>
<rscale>  1 0.12667085E+03</rscale>
<asrwt>0</asrwt>
<pdfrwt beam="1">  1       21 0.15304636E-01 0.12667085E+03</pdfrwt>
<pdfrwt beam="2">  1        2 0.53587310E-01 0.12667085E+03</pdfrwt>
<totfact> 0.43651927E+04</totfact>
</mgrwt>
</event>
<event>
 6    2  0.1181843E-002  0.1340489E+03  0.7546771E-02  0.1221569E+00
          2   -1    0    0  503    0 -0.00000000000E+00  0.00000000000E+00  0.10668002676E+04  0.10668002676E+04  0.00000000000E+00 0.  1.
         21   -1    0    0  502  503  0.00000000000E+00 -0.00000000000E+00 -0.86288062464E+01  0.86288062464E+01  0.00000000000E+00 0.  1.
         25    2    1    2    0    0  0.48116452895E+02  0.53430421550E+01  0.90257609507E+03  0.91247613847E+03  0.12500141899E+03 0.  0.
          5    1    3    3  501    0  0.52130566201E+02  0.56676468469E+02  0.66121084502E+03  0.66567981010E+03  0.10000000000E+00 0. -1.
         -5    1    3    3    0  501 -0.40141133059E+01 -0.51333426314E+02  0.24136525005E+03  0.24679632837E+03  0.10000000000E+00 0. -1.
          2    1    1    2  502    0 -0.48116452895E+02 -0.53430421550E+01  0.15559536629E+03  0.16295293539E+03  0.00000000000E+00 0.  1.
<mgrwt>
<rscale>  1 0.13404886E+03</rscale>
<asrwt>0</asrwt>
<pdfrwt beam="1">  1       21 0.13275095E-02 0.13404886E+03</pdfrwt>
<pdfrwt beam="2">  1        2 0.16412301E+00 0.13404886E+03</pdfrwt>
<totfact> 0.71513007E+05</totfact>
</mgrwt>
</event>
<event>
 6    2  0.1181843E-002  0.1267215E+03  0.7546771E-02  0.1232403E+00
         21   -1    0    0  502  503  0.00000000000E+00  0.00000000000E+00  0.25012539290E+02  0.25012539290E+02  0.00000000000E+00 0.  1.
          4   -1    0    0  503    0 -0.00000000000E+00 -0.00000000000E+00 -0.57980871310E+03  0.57980871310E+03  0.00000000000E+00 0.  1.
         25    2    1    2    0    0 -0.12745593166E+01  0.20795789516E+02 -0.13743516374E+03  0.18694052528E+03  0.12499698555E+03 0.  0.
          5    1    3    3  501    0  0.44525779355E+02  0.41125553137E+02 -0.11900012019E+03  0.13354735023E+03  0.10000000000E+00 0.  1.
         -5    1    3    3    0  501 -0.45800338671E+02 -0.20329763622E+02 -0.18435043549E+02  0.53393175050E+02  0.10000000000E+00 0.  1.
          4    1    1    2  502    0  0.12745593166E+01 -0.20795789516E+02 -0.41736101007E+03  0.41788072711E+03  0.00000000000E+00 0.  1.
<mgrwt>
<rscale>  1 0.12672149E+03</rscale>
<asrwt>0</asrwt>
<pdfrwt beam="1">  1       21 0.38480830E-02 0.12672149E+03</pdfrwt>
<pdfrwt beam="2">  1        4 0.89201339E-01 0.12672149E+03</pdfrwt>
<totfact> 0.18778885E+04</totfact>
</mgrwt>
</event>
<event>
 6    2  0.1181843E-002  0.1325645E+03  0.7546771E-02  0.1223699E+00
         21   -1    0    0  502  503  0.00000000000E+00  0.00000000000E+00  0.24231598976E+03  0.24231598976E+03  0.00000000000E+00 0.  1.
          2   -1    0    0  503    0 -0.00000000000E+00 -0.00000000000E+00 -0.41178906388E+02  0.41178906388E+02  0.00000000000E+00 0.  1.
         25    2    1    2    0    0 -0.18812258382E+02 -0.39923252651E+02  0.19925175779E+03  0.23932112995E+03  0.12500229234E+03 0.  0.
          5    1    3    3  501    0 -0.20457533736E+02  0.43426104805E+02  0.88741178712E+02  0.10089273544E+03  0.10000000000E+00 0. -1.
         -5    1    3    3    0  501  0.16452753534E+01 -0.83349357456E+02  0.11051057908E+03  0.13842839451E+03  0.10000000000E+00 0. -1.
          2    1    1    2  502    0  0.18812258382E+02  0.39923252651E+02  0.18853255849E+01  0.44173766199E+02  0.00000000000E+00 0.  1.
<mgrwt>
<rscale>  1 0.13256448E+03</rscale>
<asrwt>0</asrwt>
<pdfrwt beam="1">  1       21 0.37279382E-01 0.13256448E+03</pdfrwt>
<pdfrwt beam="2">  1        2 0.63352165E-02 0.13256448E+03</pdfrwt>
<totfact> 0.94874418E+04</totfact>
</mgrwt>
</event>
<event>
 6    2  0.1181843E-002  0.1591429E+03  0.7546771E-02  0.1189668E+00
         21   -1    0    0  502  503  0.00000000000E+00  0.00000000000E+00  0.32033782617E+02  0.32033782617E+02  0.00000000000E+00 0.  1.
          2   -1    0    0  503    0 -0.00000000000E+00 -0.00000000000E+00 -0.24486752330E+04  0.24486752330E+04  0.00000000000E+00 0.  1.
         25    2    1    2    0    0  0.79372494430E+02  0.58309710929E+02 -0.17360139555E+03  0.23550775452E+03  0.12500577043E+03 0.  0.
          5    1    3    3  501    0  0.57564110047E+02  0.66210534576E+02 -0.34160901969E+02  0.94151149105E+02  0.10000000000E+00 0. -1.
         -5    1    3    3    0  501  0.21808384383E+02 -0.79008236471E+01 -0.13944049358E+03  0.14135660541E+03  0.10000000000E+00 0. -1.
          2    1    1    2  502    0 -0.79372494430E+02 -0.58309710929E+02 -0.22430400548E+04  0.22452012611E+04  0.00000000000E+00 0.  1.
<mgrwt>
<rscale>  1 0.15914289E+03</rscale>
<asrwt>0</asrwt>
<pdfrwt beam="1">  1       21 0.49282750E-02 0.15914289E+03</pdfrwt>
<pdfrwt beam="2">  1        2 0.37671921E+00 0.15914289E+03</pdfrwt>
<totfact> 0.15641331E+04</totfact>
</mgrwt>
</event>
<event>
 6    2  0.1181843E-002  0.1261872E+03  0.7546771E-02  0.1233225E+00
          2   -1    0    0  503    0 -0.00000000000E+00  0.00000000000E+00  0.13241608713E+04  0.13241608713E+04  0.00000000000E+00 0.  1.
         21   -1    0    0  502  503  0.00000000000E+00 -0.00000000000E+00 -0.61312145701E+01  0.61312145701E+01  0.00000000000E+00 0.  1.
         25    2    1    2    0    0  0.14984998524E+02 -0.81042048806E+01  0.65504431265E+03  0.66708789802E+03  0.12503193125E+03 0.  0.
          5    1    3    3  501    0  0.62298482800E+02 -0.74745785483E+01  0.20053176072E+03  0.21011893618E+03  0.10000000000E+00 0. -1.
         -5    1    3    3    0  501 -0.47313484276E+02 -0.62962633225E+00  0.45451255193E+03  0.45696896184E+03  0.10000000000E+00 0. -1.
          2    1    1    2  502    0 -0.14984998524E+02  0.81042048806E+01  0.66298534409E+03  0.66320418786E+03  0.00000000000E+00 0.  1.
<mgrwt>
<rscale>  1 0.12618721E+03</rscale>
<asrwt>0</asrwt>
<pdfrwt beam="1">  1       21 0.94326484E-03 0.12618721E+03</pdfrwt>
<pdfrwt beam="2">  1        2 0.20371683E+00 0.12618721E+03</pdfrwt>
<totfact> 0.88112515E+05</totfact>
</mgrwt>
</event>
<event>
 6    2  0.1181843E-002  0.1305801E+03  0.7546771E-02  0.1226597E+00
          1   -1    0    0  503    0 -0.00000000000E+00  0.00000000000E+00  0.23178497337E+04  0.23178497337E+04  0.00000000000E+00 0.  1.
         21   -1    0    0  502  503  0.00000000000E+00 -0.00000000000E+00 -0.19018219516E+02  0.19018219516E+02  0.00000000000E+00 0. -1.
         25    2    1    2    0    0  0.37320834972E+02 -0.57832269817E+01  0.20732206719E+03  0.24501756246E+03  0.12499950373E+03 0.  0.
          5    1    3    3  501    0 -0.80068309147E+01 -0.58969865092E+02  0.79070657541E+02  0.98963292256E+02  0.10000000000E+00 0. -1.
         -5    1    3    3    0  501  0.45327665887E+02  0.53186638110E+02  0.12825140965E+03  0.14605427020E+03  0.10000000000E+00 0. -1.
          1    1    1    2  502    0 -0.37320834972E+02  0.57832269817E+01  0.20915094470E+04  0.20918503907E+04  0.00000000000E+00 0.  1.
<mgrwt>
<rscale>  1 0.13058011E+03</rscale>
<asrwt>0</asrwt>
<pdfrwt beam="1">  1       21 0.29258818E-02 0.13058011E+03</pdfrwt>
<pdfrwt beam="2">  1        1 0.35659204E+00 0.13058011E+03</pdfrwt>
<totfact> 0.16250648E+04</totfact>
</mgrwt>
</event>
<event>
 6    2  0.1181843E-002  0.1262613E+03  0.7546771E-02  0.1233111E+00
          2   -1    0    0  503    0 -0.00000000000E+00  0.00000000000E+00  0.70174417138E+03  0.70174417138E+03  0.00000000000E+00 0. -1.
         21   -1    0    0  502  503  0.00000000000E+00 -0.00000000000E+00 -0.54620060810E+02  0.54620060810E+02  0.00000000000E+00 0. -1.
         25    2    1    2    0    0 -0.71665882107E+01  0.16300911489E+02  0.18642155807E+02  0.12763006963E+03  0.12499930000E+03 0.  0.
          5    1    3    3  501    0  0.56408666795E+02 -0.18498039368E+01  0.23931513056E+02  0.61303236304E+02  0.10000000000E+00 0. -1.
         -5    1    3    3    0  501 -0.63575255006E+02  0.18150715426E+02 -0.52893572495E+01  0.66326833330E+02  0.10000000000E+00 0. -1.
          2    1    1    2  502    0  0.71665882107E+01 -0.16300911489E+02  0.62848195476E+03  0.62873416255E+03  0.00000000000E+00 0. -1.
<mgrwt>
<rscale>  1 0.12626126E+03</rscale>
<asrwt>0</asrwt>
<pdfrwt beam="1">  1       21 0.84030868E-02 0.12626126E+03</pdfrwt>
<pdfrwt beam="2">  1        2 0.10796064E+00 0.12626126E+03</pdfrwt>
<totfact> 0.58096660E+04</totfact>
</mgrwt>
</event>
<event>
 6    2  0.1181843E-002  0.1295358E+03  0.7546771E-02  0.1228146E+00
          1   -1    0    0  503    0 -0.00000000000E+00  0.00000000000E+00  0.94473857610E+02  0.94473857610E+02  0.00000000000E+00 0.  1.
         21   -1    0    0  502  503  0.00000000000E+00 -0.00000000000E+00 -0.71813556236E+02  0.71813556236E+02  0.00000000000E+00 0.  1.
         25    2    1    2    0    0 -0.31462146133E+02 -0.12765488261E+02  0.95376937620E+01  0.12988649133E+03  0.12500683460E+03 0.  0.
          5    1    3    3  501    0  0.30732394218E+02  0.35718963601E+02  0.18282790307E+02  0.50542999876E+02  0.10000000000E+00 0.  1.
         -5    1    3    3    0  501 -0.62194540351E+02 -0.48484451861E+02 -0.87450965452E+01  0.79343491449E+02  0.10000000000E+00 0.  1.
          1    1    1    2  502    0  0.31462146133E+02  0.12765488261E+02  0.13122607611E+02  0.36400922521E+02  0.00000000000E+00 0.  1.
<mgrwt>
<rscale>  1 0.12953584E+03</rscale>
<asrwt>0</asrwt>
<pdfrwt beam="1">  1       21 0.11048239E-01 0.12953584E+03</pdfrwt>
<pdfrwt beam="2">  1        1 0.14534440E-01 0.12953584E+03</pdfrwt>
<totfact> 0.27618395E+05</totfact>
</mgrwt>
</event>
<event>
 6    2  0.1181843E-002  0.1805912E+03  0.7546771E-02  0.1167232E+00
          1   -1    0    0  503    0 -0.00000000000E+00  0.00000000000E+00  0.13293988554E+04  0.13293988554E+04  0.00000000000E+00 0. -1.
         21   -1    0    0  502  503  0.00000000000E+00 -0.00000000000E+00 -0.34074933687E+02  0.34074933687E+02  0.00000000000E+00 0. -1.
         25    2    1    2    0    0  0.24021240015E+02  0.12810487164E+03  0.24115932625E+03  0.30128224683E+03  0.12500117403E+03 0.  0.
          5    1    3    3  501    0  0.35486993463E+02  0.17359507208E+02  0.45248759013E+01  0.39763849128E+02  0.10000000000E+00 0.  1.
         -5    1    3    3    0  501 -0.11465753448E+02  0.11074536444E+03  0.23663445035E+03  0.26151839770E+03  0.10000000000E+00 0.  1.
          1    1    1    2  502    0 -0.24021240015E+02 -0.12810487164E+03  0.10541645955E+04  0.10621915423E+04  0.00000000000E+00 0. -1.
<mgrwt>
<rscale>  1 0.18059117E+03</rscale>
<asrwt>0</asrwt>
<pdfrwt beam="1">  1       21 0.52422985E-02 0.18059117E+03</pdfrwt>
<pdfrwt beam="2">  1        1 0.20452286E+00 0.18059117E+03</pdfrwt>
<totfact> 0.26256756E+04</totfact>
</mgrwt>
</event>
<event>
 6    2  0.1181843E-002  0.1259097E+03  0.7546771E-02  0.1233654E+00
          1   -1    0    0  503    0 -0.00000000000E+00  0.00000000000E+00  0.25419377294E+03  0.25419377294E+03  0.00000000000E+00 0.  1.
         21   -1    0    0  502  503  0.00000000000E+00 -0.00000000000E+00 -0.23229514164E+02  0.23229514164E+02  0.00000000000E+00 0.  1.
         25    2    1    2    0    0  0.62491985171E+01  0.13737596233E+02  0.15364818442E+03  0.19864797760E+03  0.12500192158E+03 0.  0.
          5    1    3    3  501    0 -0.21948746987E+02  0.55056701421E+02  0.32540623418E+02  0.67615752884E+02  0.10000000000E+00 0.  1.
         -5    1    3    3    0  501  0.28197945504E+02 -0.41319105187E+02  0.12110756100E+03  0.13103222472E+03  0.10000000000E+00 0.  1.
          1    1    1    2  502    0 -0.62491985171E+01 -0.13737596233E+02  0.77316074358E+02  0.78775309498E+02  0.00000000000E+00 0.  1.
<mgrwt>
<rscale>  1 0.12590971E+03</rscale>
<asrwt>0</asrwt>
<pdfrwt beam="1">  1       21 0.35737716E-02 0.12590971E+03</pdfrwt>
<pdfrwt beam="2">  1        1 0.39106732E-01 0.12590971E+03</pdfrwt>
<totfact> 0.54140688E+05</totfact>
</mgrwt>
</event>
<event>
 6    2  0.1181843E-002  0.1637093E+03  0.7546771E-02  0.1184571E+00
          2   -1    0    0  503    0 -0.00000000000E+00  0.00000000000E+00  0.27028895112E+04  0.27028895112E+04  0.00000000000E+00 0.  1.
         21   -1    0    0  502  503  0.00000000000E+00 -0.00000000000E+00 -0.87405892093E+01  0.87405892093E+01  0.00000000000E+00 0. -1.
         25    2    1    2    0    0 -0.10048284085E+03 -0.32844794570E+02  0.92868974698E+03  0.94300869364E+03  0.12500067323E+03 0.  0.
          5    1    3    3  501    0 -0.77668132609E+02  0.18455771251E+02  0.77995429818E+03  0.78402912673E+03  0.10000000000E+00 0.  1.
         -5    1    3    3    0  501 -0.22814708245E+02 -0.51300565821E+02  0.14873544880E+03  0.15897956691E+03  0.10000000000E+00 0.  1.
          2    1    1    2  502    0  0.10048284085E+03  0.32844794570E+02  0.17654591751E+04  0.17686214068E+04  0.00000000000E+00 0.  1.
<mgrwt>
<rscale>  1 0.16370935E+03</rscale>
<asrwt>0</asrwt>
<pdfrwt beam="1">  1       21 0.13447082E-02 0.16370935E+03</pdfrwt>
<pdfrwt beam="2">  1        2 0.41582849E+00 0.16370935E+03</pdfrwt>
<totfact> 0.95573359E+04</totfact>
</mgrwt>
</event>
<event>
 6    2  0.1181843E-002  0.1270302E+03  0.7546771E-02  0.1231930E+00
         21   -1    0    0  502  503  0.00000000000E+00  0.00000000000E+00  0.96476936168E+01  0.96476936168E+01  0.00000000000E+00 0. -1.
          2   -1    0    0  503    0 -0.00000000000E+00 -0.00000000000E+00 -0.77376568272E+03  0.77376568272E+03  0.00000000000E+00 0. -1.
         25    2    1    2    0    0  0.13219476100E+02 -0.18208970049E+02 -0.42572130879E+03  0.44426940339E+03  0.12502139374E+03 0.  0.
          5    1    3    3  501    0  0.13175554010E+02 -0.71596479196E+02 -0.27043195810E+03  0.28005910987E+03  0.10000000000E+00 0. -1.
         -5    1    3    3    0  501  0.43922089334E-01  0.53387509146E+02 -0.15528935069E+03  0.16421029352E+03  0.10000000000E+00 0. -1.
          2    1    1    2  502    0 -0.13219476100E+02  0.18208970049E+02 -0.33839668032E+03  0.33914397295E+03  0.00000000000E+00 0. -1.
<mgrwt>
<rscale>  1 0.12703019E+03</rscale>
<asrwt>0</asrwt>
<pdfrwt beam="1">  1       21 0.14842607E-02 0.12703019E+03</pdfrwt>
<pdfrwt beam="2">  1        2 0.11904087E+00 0.12703019E+03</pdfrwt>
<totfact> 0.90997011E+05</totfact>
</mgrwt>
</event>
<event>
 6    2  0.1181843E-002  0.1565803E+03  0.7546771E-02  0.1192613E+00
          2   -1    0    0  503    0 -0.00000000000E+00  0.00000000000E+00  0.11939831025E+03  0.11939831025E+03  0.00000000000E+00 0.  1.
         21   -1    0    0  502  503  0.00000000000E+00 -0.00000000000E+00 -0.18568525350E+03  0.18568525350E+03  0.00000000000E+00 0. -1.
         25    2    1    2    0    0 -0.93797240347E+02  0.96618090461E+01 -0.11935423817E+03  0.19688277521E+03  0.12500448054E+03 0.  0.
          5    1    3    3  501    0  0.47196383715E+01  0.37366434516E+02  0.25106524305E+01  0.37747036843E+02  0.10000000000E+00 0.  1.
         -5    1    3    3    0  501 -0.98516878719E+02 -0.27704625470E+02 -0.12186489060E+03  0.15913573837E+03  0.10000000000E+00 0.  1.
          2    1    1    2  502    0  0.93797240347E+02 -0.96618090461E+01  0.53067294924E+02  0.10820078854E+03  0.00000000000E+00 0.  1.
<mgrwt>
<rscale>  1 0.15658031E+03</rscale>
<asrwt>0</asrwt>
<pdfrwt beam="1">  1       21 0.28566962E-01 0.15658031E+03</pdfrwt>
<pdfrwt beam="2">  1        2 0.18368971E-01 0.15658031E+03</pdfrwt>
<totfact> 0.43858192E+04</totfact>
</mgrwt>
</event>
<event>
 6    2  0.1181843E-002  0.1705509E+03  0.7546771E-02  0.1177275E+00
          1   -1    0    0  503    0 -0.00000000000E+00  0.00000000000E+00  0.10514857089E+04  0.10514857089E+04  0.00000000000E+00 0. -1.
         21   -1    0    0  502  503  0.00000000000E+00 -0.00000000000E+00 -0.29938999915E+02  0.29938999915E+02  0.00000000000E+00 0. -1.
         25    2    1    2    0    0  0.10256750725E+03  0.54250520068E+02  0.25906467819E+03  0.31016466204E+03  0.12499759046E+03 0.  0.
          5    1    3    3  501    0  0.11918110783E+03  0.63188906457E+01  0.17093656079E+03  0.20847873431E+03  0.10000000000E+00 0. -1.
         -5    1    3    3    0  501 -0.16613600578E+02  0.47931629422E+02  0.88128117398E+02  0.10168592773E+03  0.10000000000E+00 0. -1.
          1    1    1    2  502    0 -0.10256750725E+03 -0.54250520068E+02  0.76248203083E+03  0.77126004682E+03  0.00000000000E+00 0. -1.
<mgrwt>
<rscale>  1 0.17055090E+03</rscale>
<asrwt>0</asrwt>
<pdfrwt beam="1">  1       21 0.46060008E-02 0.17055090E+03</pdfrwt>
<pdfrwt beam="2">  1        1 0.16176700E+00 0.17055090E+03</pdfrwt>
<totfact> 0.51024553E+04</totfact>
</mgrwt>
</event>
<event>
 6    2  0.1181843E-002  0.1722581E+03  0.7546771E-02  0.1175513E+00
          4   -1    0    0  503    0 -0.00000000000E+00  0.00000000000E+00  0.83469715780E+02  0.83469715780E+02  0.00000000000E+00 0. -1.
         21   -1    0    0  502  503  0.00000000000E+00 -0.00000000000E+00 -0.25479870894E+03  0.25479870894E+03  0.00000000000E+00 0.  1.
         25    2    1    2    0    0 -0.57121263252E+02  0.10396427120E+03 -0.11360122297E+03  0.20634456845E+03  0.12490570311E+03 0.  0.
          5    1    3    3  501    0  0.39073054956E+02  0.43191974667E+02 -0.33447607935E+02  0.67163999105E+02  0.10000000000E+00 0.  1.
         -5    1    3    3    0  501 -0.96194318208E+02  0.60772296529E+02 -0.80153615032E+02  0.13918056935E+03  0.10000000000E+00 0.  1.
          4    1    1    2  502    0  0.57121263252E+02 -0.10396427120E+03 -0.57727770189E+02  0.13192385626E+03  0.00000000000E+00 0. -1.
<mgrwt>
<rscale>  1 0.17225807E+03</rscale>
<asrwt>0</asrwt>
<pdfrwt beam="1">  1       21 0.39199801E-01 0.17225807E+03</pdfrwt>
<pdfrwt beam="2">  1        4 0.12841495E-01 0.17225807E+03</pdfrwt>
<totfact> 0.12954748E+04</totfact>
</mgrwt>
</event>
<event>
 6    2  0.1181843E-002  0.1330049E+03  0.7546771E-02  0.1223064E+00
         21   -1    0    0  502  503  0.00000000000E+00  0.00000000000E+00  0.32517422524E+01  0.32517422524E+01  0.00000000000E+00 0. -1.
          2   -1    0    0  503    0 -0.00000000000E+00 -0.00000000000E+00 -0.25149308632E+04  0.25149308632E+04  0.00000000000E+00 0. -1.
         25    2    1    2    0    0  0.45443908874E+02 -0.15245865855E+01 -0.16771245262E+04  0.16823902600E+04  0.12499134814E+03 0.  0.
          5    1    3    3  501    0  0.78330700369E+02 -0.31157787288E+02 -0.12879944474E+04  0.12907502519E+04  0.10000000000E+00 0. -1.
         -5    1    3    3    0  501 -0.32886791495E+02  0.29633200702E+02 -0.38913007885E+03  0.39164000805E+03  0.10000000000E+00 0. -1.
          2    1    1    2  502    0 -0.45443908874E+02  0.15245865855E+01 -0.83455459472E+03  0.83579234549E+03  0.00000000000E+00 0. -1.
<mgrwt>
<rscale>  1 0.13300493E+03</rscale>
<asrwt>0</asrwt>
<pdfrwt beam="1">  1       21 0.50026748E-03 0.13300493E+03</pdfrwt>
<pdfrwt beam="2">  1        2 0.38691287E+00 0.13300493E+03</pdfrwt>
<totfact> 0.57352508E+05</totfact>
</mgrwt>
</event>
<event>
 6    2  0.1181843E-002  0.1311184E+03  0.7546771E-02  0.1225806E+00
          1   -1    0    0  503    0 -0.00000000000E+00  0.00000000000E+00  0.51975351983E+03  0.51975351983E+03  0.00000000000E+00 0. -1.
         21   -1    0    0  502  503  0.00000000000E+00 -0.00000000000E+00 -0.45054793316E+02  0.45054793316E+02  0.00000000000E+00 0.  1.
         25    2    1    2    0    0  0.19822258548E+02 -0.34470646730E+02  0.53299995395E+02  0.14153766922E+03  0.12494348674E+03 0.  0.
          5    1    3    3  501    0  0.36492591673E+02 -0.69320585684E+02  0.64323657193E+02  0.10136368048E+03  0.10000000000E+00 0.  1.
         -5    1    3    3    0  501 -0.16670333124E+02  0.34849938954E+02 -0.11023661798E+02  0.40173988736E+02  0.10000000000E+00 0.  1.
          1    1    1    2  502    0 -0.19822258548E+02  0.34470646730E+02  0.42139873112E+03  0.42327064392E+03  0.00000000000E+00 0. -1.
<mgrwt>
<rscale>  1 0.13111835E+03</rscale>
<asrwt>0</asrwt>
<pdfrwt beam="1">  1       21 0.69315070E-02 0.13111835E+03</pdfrwt>
<pdfrwt beam="2">  1        1 0.79962076E-01 0.13111835E+03</pdfrwt>
<totfact> 0.72616479E+04</totfact>
</mgrwt>
</event>
<event>
 6    2  0.1181843E-002  0.1261842E+03  0.7546771E-02  0.1233230E+00
         21   -1    0    0  502  503  0.00000000000E+00  0.00000000000E+00  0.39160969750E+01  0.39160969750E+01  0.00000000000E+00 0. -1.
          2   -1    0    0  503    0 -0.00000000000E+00 -0.00000000000E+00 -0.19005902441E+04  0.19005902441E+04  0.00000000000E+00 0. -1.
         25    2    1    2    0    0 -0.24757829015E+01  0.17071249066E+02 -0.10355711690E+04  0.10432306036E+04  0.12499955662E+03 0.  0.
          5    1    3    3  501    0  0.45758553075E+02 -0.29852862198E+02 -0.60123120528E+03  0.60370854786E+03  0.10000000000E+00 0. -1.
         -5    1    3    3    0  501 -0.48234335977E+02  0.46924111264E+02 -0.43433996371E+03  0.43952205571E+03  0.10000000000E+00 0. -1.
          2    1    1    2  502    0  0.24757829015E+01 -0.17071249066E+02 -0.86110297812E+03  0.86127573748E+03  0.00000000000E+00 0. -1.
<mgrwt>
<rscale>  1 0.12618418E+03</rscale>
<asrwt>0</asrwt>
<pdfrwt beam="1">  1       21 0.60247582E-03 0.12618418E+03</pdfrwt>
<pdfrwt beam="2">  1        2 0.29239881E+00 0.12618418E+03</pdfrwt>
<totfact> 0.89455492E+05</totfact>
</mgrwt>
</event>
<event>
 6    2  0.1181843E-002  0.1307054E+03  0.7546771E-02  0.1226413E+00
          2   -1    0    0  503    0 -0.00000000000E+00  0.00000000000E+00  0.13642638764E+04  0.13642638764E+04  0.00000000000E+00 0. -1.
         21   -1    0    0  502  503  0.00000000000E+00 -0.00000000000E+00 -0.33015074304E+02  0.33015074304E+02  0.00000000000E+00 0.  1.
         25    2    1    2    0    0  0.22991396022E+01  0.38121060413E+02  0.97813345094E+02  0.16325239998E+03  0.12500157732E+03 0.  0.
          5    1    3    3  501    0 -0.14317593217E+01  0.74743201310E+02  0.20334613533E+02  0.77473237859E+02  0.10000000000E+00 0. -1.
         -5    1    3    3    0  501  0.37308989239E+01 -0.36622140897E+02  0.77478731561E+02  0.85779162126E+02  0.10000000000E+00 0. -1.
          2    1    1    2  502    0 -0.22991396022E+01 -0.38121060413E+02  0.12334354570E+04  0.12340265507E+04  0.00000000000E+00 0. -1.
<mgrwt>
<rscale>  1 0.13070538E+03</rscale>
<asrwt>0</asrwt>
<pdfrwt beam="1">  1       21 0.50792433E-02 0.13070538E+03</pdfrwt>
<pdfrwt beam="2">  1        2 0.20988671E+00 0.13070538E+03</pdfrwt>
<totfact> 0.54748721E+04</totfact>
</mgrwt>
</event>
<event>
 6    2  0.1181843E-002  0.1394952E+03  0.7546771E-02  0.1214010E+00
         21   -1    0    0  502  503  0.00000000000E+00  0.00000000000E+00  0.82761170993E+03  0.82761170993E+03  0.00000000000E+00 0. -1.
          1   -1    0    0  503    0 -0.00000000000E+00 -0.00000000000E+00 -0.48064632790E+02  0.48064632790E+02  0.00000000000E+00 0.  1.
         25    2    1    2    0    0  0.16945588755E+02  0.59529551350E+02  0.79877504477E+03  0.81086403524E+03  0.12501196357E+03 0.  0.
          5    1    3    3  501    0 -0.77054685824E+01  0.20960529499E+01 -0.15222892128E+01  0.81298861302E+01  0.10000000000E+00 0.  1.
         -5    1    3    3    0  501  0.24651057337E+02  0.57433498400E+02  0.80029733398E+03  0.80273414911E+03  0.10000000000E+00 0.  1.
          1    1    1    2  502    0 -0.16945588755E+02 -0.59529551350E+02 -0.19227967629E+02  0.64812307483E+02  0.00000000000E+00 0.  1.
<mgrwt>
<rscale>  1 0.13949520E+03</rscale>
<asrwt>0</asrwt>
<pdfrwt beam="1">  1       21 0.12732487E+00 0.13949520E+03</pdfrwt>
<pdfrwt beam="2">  1        1 0.73945595E-02 0.13949520E+03</pdfrwt>
<totfact> 0.47498867E+03</totfact>
</mgrwt>
</event>
<event>
 6    2  0.1181843E-002  0.1316918E+03  0.7546771E-02  0.1224967E+00
          2   -1    0    0  503    0 -0.00000000000E+00  0.00000000000E+00  0.76473559306E+03  0.76473559306E+03  0.00000000000E+00 0.  1.
         21   -1    0    0  502  503  0.00000000000E+00 -0.00000000000E+00 -0.23137765639E+02  0.23137765639E+02  0.00000000000E+00 0.  1.
         25    2    1    2    0    0  0.59063796030E+01  0.41041710303E+02  0.17130135550E+03  0.21607149337E+03  0.12499371403E+03 0.  0.
          5    1    3    3  501    0 -0.30955686544E+02  0.20242541552E+01  0.15766750440E+03  0.16069039821E+03  0.10000000000E+00 0. -1.
         -5    1    3    3    0  501  0.36862066147E+02  0.39017456148E+02  0.13633851097E+02  0.55381095155E+02  0.10000000000E+00 0. -1.
          2    1    1    2  502    0 -0.59063796030E+01 -0.41041710303E+02  0.57029647193E+03  0.57180186533E+03  0.00000000000E+00 0.  1.
<mgrwt>
<rscale>  1 0.13169182E+03</rscale>
<asrwt>0</asrwt>
<pdfrwt beam="1">  1       21 0.35596568E-02 0.13169182E+03</pdfrwt>
<pdfrwt beam="2">  1        2 0.11765161E+00 0.13169182E+03</pdfrwt>
<totfact> 0.22363519E+05</totfact>
</mgrwt>
</event>
<event>
 6    2  0.1181843E-002  0.1265769E+03  0.7546771E-02  0.1232625E+00
         21   -1    0    0  502  503  0.00000000000E+00  0.00000000000E+00  0.62010951083E+02  0.62010951083E+02  0.00000000000E+00 0.  1.
          1   -1    0    0  503    0 -0.00000000000E+00 -0.00000000000E+00 -0.55902322348E+03  0.55902322348E+03  0.00000000000E+00 0. -1.
         25    2    1    2    0    0  0.18107689217E+02  0.82414185054E+01 -0.29907467835E+01  0.12661221191E+03  0.12500359295E+03 0.  0.
          5    1    3    3  501    0 -0.23393538341E+02 -0.27494090989E+02  0.42252961118E+02  0.55574323196E+02  0.10000000000E+00 0.  1.
         -5    1    3    3    0  501  0.41501227558E+02  0.35735509494E+02 -0.45243707902E+02  0.71037888710E+02  0.10000000000E+00 0.  1.
          1    1    1    2  502    0 -0.18107689217E+02 -0.82414185054E+01 -0.49402152561E+03  0.49442196265E+03  0.00000000000E+00 0. -1.
<mgrwt>
<rscale>  1 0.12657688E+03</rscale>
<asrwt>0</asrwt>
<pdfrwt beam="1">  1       21 0.95401468E-02 0.12657688E+03</pdfrwt>
<pdfrwt beam="2">  1        1 0.86003568E-01 0.12657688E+03</pdfrwt>
<totfact> 0.37980889E+04</totfact>
</mgrwt>
</event>
<event>
 6    2  0.1181843E-002  0.1306990E+03  0.7546771E-02  0.1226422E+00
         21   -1    0    0  502  503  0.00000000000E+00  0.00000000000E+00  0.98487903346E+02  0.98487903346E+02  0.00000000000E+00 0.  1.
          2   -1    0    0  503    0 -0.00000000000E+00 -0.00000000000E+00 -0.12743605095E+03  0.12743605095E+03  0.00000000000E+00 0.  1.
         25    2    1    2    0    0  0.26450954663E+02  0.27599432972E+02  0.48618362230E+02  0.13944884140E+03  0.12498340897E+03 0.  0.
          5    1    3    3  501    0 -0.34491020784E+02 -0.18923619435E+02 -0.12628754314E+02  0.41318631667E+02  0.10000000000E+00 0. -1.
         -5    1    3    3    0  501  0.60941975447E+02  0.46523052407E+02  0.61247116544E+02  0.98130209730E+02  0.10000000000E+00 0. -1.
          2    1    1    2  502    0 -0.26450954663E+02 -0.27599432972E+02 -0.77566509832E+02  0.86475112897E+02  0.00000000000E+00 0.  1.
<mgrwt>
<rscale>  1 0.13069902E+03</rscale>
<asrwt>0</asrwt>
<pdfrwt beam="1">  1       21 0.15151985E-01 0.13069902E+03</pdfrwt>
<pdfrwt beam="2">  1        2 0.19605546E-01 0.13069902E+03</pdfrwt>
<totfact> 0.13200203E+05</totfact>
</mgrwt>
</event>
<event>
 6    2  0.1181843E-002  0.1438629E+03  0.7546771E-02  0.1208224E+00
         21   -1    0    0  502  503  0.00000000000E+00  0.00000000000E+00  0.26257401011E+02  0.26257401011E+02  0.00000000000E+00 0. -1.
          2   -1    0    0  503    0 -0.00000000000E+00 -0.00000000000E+00 -0.84257802303E+03  0.84257802303E+03  0.00000000000E+00 0. -1.
         25    2    1    2    0    0  0.67364866489E+02  0.23036831027E+02 -0.18918199647E+03  0.23766858676E+03  0.12501123360E+03 0.  0.
          5    1    3    3  501    0 -0.25250571647E+02 -0.62294484108E+01 -0.11518433441E+01  0.26033327468E+02  0.10000000000E+00 0.  1.
         -5    1    3    3    0  501  0.92615438136E+02  0.29266279438E+02 -0.18803015312E+03  0.21163525929E+03  0.10000000000E+00 0.  1.
          2    1    1    2  502    0 -0.67364866489E+02 -0.23036831027E+02 -0.62713862556E+03  0.63116683728E+03  0.00000000000E+00 0. -1.
<mgrwt>
<rscale>  1 0.14386288E+03</rscale>
<asrwt>0</asrwt>
<pdfrwt beam="1">  1       21 0.40395999E-02 0.14386288E+03</pdfrwt>
<pdfrwt beam="2">  1        2 0.12962740E+00 0.14386288E+03</pdfrwt>
<totfact> 0.16108246E+05</totfact>
</mgrwt>
</event>
<event>
 6    2  0.1181843E-002  0.1473972E+03  0.7546771E-02  0.1203708E+00
         21   -1    0    0  502  503  0.00000000000E+00  0.00000000000E+00  0.22401341971E+03  0.22401341971E+03  0.00000000000E+00 0.  1.
          1   -1    0    0  503    0 -0.00000000000E+00 -0.00000000000E+00 -0.34317867736E+03  0.34317867736E+03  0.00000000000E+00 0.  1.
         25    2    1    2    0    0 -0.75432746934E+02 -0.20281357325E+02  0.19444666804E+03  0.24399885349E+03  0.12499800411E+03 0.  0.
          5    1    3    3  501    0 -0.42728314547E+01  0.17317202065E+01  0.16313184761E+03  0.16319701483E+03  0.10000000000E+00 0.  1.
         -5    1    3    3    0  501 -0.71159915479E+02 -0.22013077532E+02  0.31314820421E+02  0.80801838663E+02  0.10000000000E+00 0.  1.
          1    1    1    2  502    0  0.75432746934E+02  0.20281357325E+02 -0.31361192568E+03  0.32319324358E+03  0.00000000000E+00 0.  1.
<mgrwt>
<rscale>  1 0.14739720E+03</rscale>
<asrwt>0</asrwt>
<pdfrwt beam="1">  1       21 0.34463603E-01 0.14739720E+03</pdfrwt>
<pdfrwt beam="2">  1        1 0.52796719E-01 0.14739720E+03</pdfrwt>
<totfact> 0.66452827E+03</totfact>
</mgrwt>
</event>
<event>
 6    2  0.1181843E-002  0.1291571E+03  0.7546771E-02  0.1228712E+00
          2   -1    0    0  503    0 -0.00000000000E+00  0.00000000000E+00  0.17159345509E+03  0.17159345509E+03  0.00000000000E+00 0. -1.
         21   -1    0    0  502  503  0.00000000000E+00 -0.00000000000E+00 -0.54590278093E+02  0.54590278093E+02  0.00000000000E+00 0.  1.
         25    2    1    2    0    0 -0.13973670146E+02 -0.29374477892E+02  0.29016266742E+02  0.13237637854E+03  0.12499375365E+03 0.  0.
          5    1    3    3  501    0  0.17286802874E+02  0.37558616584E+02  0.40192758518E+02  0.57662388700E+02  0.10000000000E+00 0.  1.
         -5    1    3    3    0  501 -0.31260473019E+02 -0.66933094476E+02 -0.11176491776E+02  0.74713989841E+02  0.10000000000E+00 0.  1.
          2    1    1    2  502    0  0.13973670146E+02  0.29374477892E+02  0.87986910256E+02  0.93807354644E+02  0.00000000000E+00 0. -1.
<mgrwt>
<rscale>  1 0.12915712E+03</rscale>
<asrwt>0</asrwt>
<pdfrwt beam="1">  1       21 0.83985044E-02 0.12915712E+03</pdfrwt>
<pdfrwt beam="2">  1        2 0.26398993E-01 0.12915712E+03</pdfrwt>
<totfact> 0.26844310E+05</totfact>
</mgrwt>
</event>
<event>
 6    2  0.1181843E-002  0.1260914E+03  0.7546771E-02  0.1233373E+00
         21   -1    0    0  502  503  0.00000000000E+00  0.00000000000E+00  0.33930177011E+03  0.33930177011E+03  0.00000000000E+00 0.  1.
          2   -1    0    0  503    0 -0.00000000000E+00 -0.00000000000E+00 -0.29410119487E+02  0.29410119487E+02  0.00000000000E+00 0.  1.
         25    2    1    2    0    0  0.15366121341E+02 -0.60849886888E+01  0.32356262783E+03  0.34726333744E+03  0.12500362646E+03 0.  0.
          5    1    3    3  501    0  0.77951472332E+01  0.53113981009E+02  0.78929259696E+02  0.95455211147E+02  0.10000000000E+00 0.  1.
         -5    1    3    3    0  501  0.75709741073E+01 -0.59198969697E+02  0.24463336813E+03  0.25180812629E+03  0.10000000000E+00 0.  1.
          2    1    1    2  502    0 -0.15366121341E+02  0.60849886888E+01 -0.13670977200E+02  0.21448552166E+02  0.00000000000E+00 0.  1.
<mgrwt>
<rscale>  1 0.12609144E+03</rscale>
<asrwt>0</asrwt>
<pdfrwt beam="1">  1       21 0.52200270E-01 0.12609144E+03</pdfrwt>
<pdfrwt beam="2">  1        2 0.45246340E-02 0.12609144E+03</pdfrwt>
<totfact> 0.74056657E+04</totfact>
</mgrwt>
</event>
<event>
 6    2  0.1181843E-002  0.1302236E+03  0.7546771E-02  0.1227124E+00
         21   -1    0    0  502  503  0.00000000000E+00  0.00000000000E+00  0.35371914849E+02  0.35371914849E+02  0.00000000000E+00 0. -1.
          2   -1    0    0  503    0 -0.00000000000E+00 -0.00000000000E+00 -0.53308762649E+03  0.53308762649E+03  0.00000000000E+00 0. -1.
         25    2    1    2    0    0 -0.27966731945E+02 -0.23453341533E+02 -0.88110208039E+02  0.15723105752E+03  0.12500399739E+03 0.  0.
          5    1    3    3  501    0  0.12930905514E+02 -0.42709225006E+02 -0.10083687701E+03  0.11026954241E+03  0.10000000000E+00 0. -1.
         -5    1    3    3    0  501 -0.40897637459E+02  0.19255883473E+02  0.12726668973E+02  0.46961515108E+02  0.10000000000E+00 0. -1.
          2    1    1    2  502    0  0.27966731945E+02  0.23453341533E+02 -0.40960550360E+03  0.41122848382E+03  0.00000000000E+00 0. -1.
<mgrwt>
<rscale>  1 0.13022364E+03</rscale>
<asrwt>0</asrwt>
<pdfrwt beam="1">  1       21 0.54418336E-02 0.13022364E+03</pdfrwt>
<pdfrwt beam="2">  1        2 0.82013472E-01 0.13022364E+03</pdfrwt>
<totfact> 0.16710336E+05</totfact>
</mgrwt>
</event>
<event>
 6    2  0.1181843E-002  0.1392818E+03  0.7546771E-02  0.1214299E+00
         21   -1    0    0  502  503  0.00000000000E+00  0.00000000000E+00  0.19267334603E+02  0.19267334603E+02  0.00000000000E+00 0.  1.
          1   -1    0    0  503    0 -0.00000000000E+00 -0.00000000000E+00 -0.52363240045E+03  0.52363240045E+03  0.00000000000E+00 0.  1.
         25    2    1    2    0    0 -0.52220548547E+02  0.32358921803E+02 -0.36019653286E+03  0.38618773356E+03  0.12500135100E+03 0.  0.
          5    1    3    3  501    0 -0.44927815942E+02 -0.56814787378E+01 -0.31374438029E+02  0.55092224566E+02  0.10000000000E+00 0.  1.
         -5    1    3    3    0  501 -0.72927326053E+01  0.38040400540E+02 -0.32882209483E+03  0.33109550899E+03  0.10000000000E+00 0.  1.
          1    1    1    2  502    0  0.52220548547E+02 -0.32358921803E+02 -0.14416853299E+03  0.15671200150E+03  0.00000000000E+00 0.  1.
<mgrwt>
<rscale>  1 0.13928181E+03</rscale>
<asrwt>0</asrwt>
<pdfrwt beam="1">  1       21 0.29642052E-02 0.13928181E+03</pdfrwt>
<pdfrwt beam="2">  1        1 0.80558834E-01 0.13928181E+03</pdfrwt>
<totfact> 0.29876354E+05</totfact>
</mgrwt>
</event>
<event>
 6    2  0.1181843E-002  0.1291176E+03  0.7546771E-02  0.1228771E+00
         21   -1    0    0  502  503  0.00000000000E+00  0.00000000000E+00  0.68152116836E+03  0.68152116836E+03  0.00000000000E+00 0. -1.
          2   -1    0    0  503    0 -0.00000000000E+00 -0.00000000000E+00 -0.22398381144E+02  0.22398381144E+02  0.00000000000E+00 0.  1.
         25    2    1    2    0    0 -0.67969907437E+01  0.31621983568E+02  0.65904622720E+03  0.67157523332E+03  0.12500086198E+03 0.  0.
          5    1    3    3  501    0 -0.11363692807E+02  0.24093380251E+02  0.22223884740E+02  0.34692009729E+02  0.10000000000E+00 0.  1.
         -5    1    3    3    0  501  0.45667020631E+01  0.75286033169E+01  0.63682234246E+03  0.63688322359E+03  0.10000000000E+00 0.  1.
          2    1    1    2  502    0  0.67969907437E+01 -0.31621983568E+02  0.76560015874E-01  0.32344316183E+02  0.00000000000E+00 0.  1.
<mgrwt>
<rscale>  1 0.12911764E+03</rscale>
<asrwt>0</asrwt>
<pdfrwt beam="1">  1       21 0.10484939E+00 0.12911764E+03</pdfrwt>
<pdfrwt beam="2">  1        2 0.34459053E-02 0.12911764E+03</pdfrwt>
<totfact> 0.22776822E+04</totfact>
</mgrwt>
</event>
<event>
 6    2  0.1181843E-002  0.1293705E+03  0.7546771E-02  0.1228393E+00
         21   -1    0    0  502  503  0.00000000000E+00  0.00000000000E+00  0.33908541827E+02  0.33908541827E+02  0.00000000000E+00 0.  1.
          1   -1    0    0  503    0 -0.00000000000E+00 -0.00000000000E+00 -0.37850386906E+03  0.37850386906E+03  0.00000000000E+00 0.  1.
         25    2    1    2    0    0  0.25401379897E+02 -0.21607626177E+02 -0.94763572764E+02  0.16036474645E+03  0.12499839027E+03 0.  0.
          5    1    3    3  501    0 -0.22018767787E+02  0.46216723491E+01  0.22106615095E+02  0.31542010417E+02  0.10000000000E+00 0. -1.
         -5    1    3    3    0  501  0.47420147684E+02 -0.26229298526E+02 -0.11687018786E+03  0.12882273603E+03  0.10000000000E+00 0. -1.
          1    1    1    2  502    0 -0.25401379897E+02  0.21607626177E+02 -0.24983175446E+03  0.25204766444E+03  0.00000000000E+00 0.  1.
<mgrwt>
<rscale>  1 0.12937046E+03</rscale>
<asrwt>0</asrwt>
<pdfrwt beam="1">  1       21 0.52166987E-02 0.12937046E+03</pdfrwt>
<pdfrwt beam="2">  1        1 0.58231365E-01 0.12937046E+03</pdfrwt>
<totfact> 0.17629358E+05</totfact>
</mgrwt>
</event>
<event>
 6    2  0.1181843E-002  0.1848890E+03  0.7546771E-02  0.1163154E+00
          2   -1    0    0  503    0 -0.00000000000E+00  0.00000000000E+00  0.11025647763E+04  0.11025647763E+04  0.00000000000E+00 0.  1.
         21   -1    0    0  502  503  0.00000000000E+00 -0.00000000000E+00 -0.39976460203E+02  0.39976460203E+02  0.00000000000E+00 0.  1.
         25    2    1    2    0    0 -0.55793521564E+02 -0.12429041594E+03  0.21279585399E+03  0.28189714444E+03  0.12499159983E+03 0.  0.
          5    1    3    3  501    0  0.26627048502E+02 -0.90077765536E+02  0.12824019452E+03  0.15896087898E+03  0.10000000000E+00 0. -1.
         -5    1    3    3    0  501 -0.82420570065E+02 -0.34212650404E+02  0.84555659473E+02  0.12293626546E+03  0.10000000000E+00 0. -1.
          2    1    1    2  502    0  0.55793521564E+02  0.12429041594E+03  0.84979246207E+03  0.86064409202E+03  0.00000000000E+00 0.  1.
<mgrwt>
<rscale>  1 0.18488895E+03</rscale>
<asrwt>0</asrwt>
<pdfrwt beam="1">  1       21 0.61502255E-02 0.18488895E+03</pdfrwt>
<pdfrwt beam="2">  1        2 0.16962533E+00 0.18488895E+03</pdfrwt>
<totfact> 0.54904701E+04</totfact>
</mgrwt>
</event>
<event>
 6    2  0.1181843E-002  0.1297165E+03  0.7546771E-02  0.1227877E+00
         21   -1    0    0  502  503  0.00000000000E+00  0.00000000000E+00  0.44159665991E+01  0.44159665991E+01  0.00000000000E+00 0. -1.
          1   -1    0    0  503    0 -0.00000000000E+00 -0.00000000000E+00 -0.32451860010E+04  0.32451860010E+04  0.00000000000E+00 0.  1.
         25    2    1    2    0    0  0.29177265762E+02  0.18728612685E+02 -0.97783662326E+03  0.98640297126E+03  0.12499714458E+03 0.  0.
          5    1    3    3  501    0  0.21505539966E+02 -0.81278532646E+01 -0.93488993571E+03  0.93517257880E+03  0.10000000000E+00 0. -1.
         -5    1    3    3    0  501  0.76717257953E+01  0.26856465950E+02 -0.42946687542E+02  0.51230392453E+02  0.10000000000E+00 0. -1.
          1    1    1    2  502    0 -0.29177265762E+02 -0.18728612685E+02 -0.22629334111E+04  0.22631989963E+04  0.00000000000E+00 0.  1.
<mgrwt>
<rscale>  1 0.12971646E+03</rscale>
<asrwt>0</asrwt>
<pdfrwt beam="1">  1       21 0.67937706E-03 0.12971646E+03</pdfrwt>
<pdfrwt beam="2">  1        1 0.49926116E+00 0.12971646E+03</pdfrwt>
<totfact> 0.39800789E+04</totfact>
</mgrwt>
</event>
<event>
 6    2  0.1181843E-002  0.1785313E+03  0.7546771E-02  0.1169232E+00
         21   -1    0    0  502  503  0.00000000000E+00  0.00000000000E+00  0.73577020050E+02  0.73577020050E+02  0.00000000000E+00 0. -1.
          2   -1    0    0  503    0 -0.00000000000E+00 -0.00000000000E+00 -0.33131116898E+03  0.33131116898E+03  0.00000000000E+00 0. -1.
         25    2    1    2    0    0  0.72877850948E+02 -0.10455475114E+03 -0.18938703297E+03  0.26027074401E+03  0.12502213717E+03 0.  0.
          5    1    3    3  501    0  0.62685553432E+02 -0.80375229034E+02 -0.20556202057E+03  0.22944587674E+03  0.10000000000E+00 0.  1.
         -5    1    3    3    0  501  0.10192297516E+02 -0.24179522110E+02  0.16174987601E+02  0.30824867266E+02  0.10000000000E+00 0.  1.
          2    1    1    2  502    0 -0.72877850948E+02  0.10455475114E+03 -0.68347115961E+02  0.14461744503E+03  0.00000000000E+00 0. -1.
<mgrwt>
<rscale>  1 0.17853126E+03</rscale>
<asrwt>0</asrwt>
<pdfrwt beam="1">  1       21 0.11319541E-01 0.17853126E+03</pdfrwt>
<pdfrwt beam="2">  1        2 0.50970950E-01 0.17853126E+03</pdfrwt>
<totfact> 0.79339068E+04</totfact>
</mgrwt>
</event>
<event>
 6    2  0.1181843E-002  0.1269400E+03  0.7546771E-02  0.1232068E+00
         21   -1    0    0  502  503  0.00000000000E+00  0.00000000000E+00  0.20772394306E+03  0.20772394306E+03  0.00000000000E+00 0. -1.
          2   -1    0    0  503    0 -0.00000000000E+00 -0.00000000000E+00 -0.16643244379E+03  0.16643244379E+03  0.00000000000E+00 0. -1.
         25    2    1    2    0    0  0.18139536488E+02 -0.12672388175E+02  0.18741970026E+03  0.22636232968E+03  0.12499651214E+03 0.  0.
          5    1    3    3  501    0  0.38095433994E+01 -0.45830178543E+02  0.12367773791E+02  0.47622365698E+02  0.10000000000E+00 0. -1.
         -5    1    3    3    0  501  0.14329993088E+02  0.33157790368E+02  0.17505192647E+03  0.17873996399E+03  0.10000000000E+00 0. -1.
          2    1    1    2  502    0 -0.18139536488E+02  0.12672388175E+02 -0.14612820099E+03  0.14779405716E+03  0.00000000000E+00 0. -1.
<mgrwt>
<rscale>  1 0.12693999E+03</rscale>
<asrwt>0</asrwt>
<pdfrwt beam="1">  1       21 0.31957530E-01 0.12693999E+03</pdfrwt>
<pdfrwt beam="2">  1        2 0.25604991E-01 0.12693999E+03</pdfrwt>
<totfact> 0.24298361E+04</totfact>
</mgrwt>
</event>
<event>
 6    2  0.1181843E-002  0.1263088E+03  0.7546771E-02  0.1233038E+00
          1   -1    0    0  503    0 -0.00000000000E+00  0.00000000000E+00  0.81167711593E+03  0.81167711593E+03  0.00000000000E+00 0.  1.
         21   -1    0    0  502  503  0.00000000000E+00 -0.00000000000E+00 -0.52659070535E+02  0.52659070535E+02  0.00000000000E+00 0. -1.
         25    2    1    2    0    0 -0.16653802313E+02 -0.71788292798E+01  0.23355310296E+02  0.12844995576E+03  0.12500014358E+03 0.  0.
          5    1    3    3  501    0 -0.56602164652E+02  0.34368495262E+02  0.25020289357E+02  0.70788582337E+02  0.10000000000E+00 0. -1.
         -5    1    3    3    0  501  0.39948362339E+02 -0.41547324542E+02 -0.16649790611E+01  0.57661373426E+02  0.10000000000E+00 0. -1.
          1    1    1    2  502    0  0.16653802313E+02  0.71788292798E+01  0.73566273510E+03  0.73588623070E+03  0.00000000000E+00 0.  1.
<mgrwt>
<rscale>  1 0.12630883E+03</rscale>
<asrwt>0</asrwt>
<pdfrwt beam="1">  1       21 0.81013960E-02 0.12630883E+03</pdfrwt>
<pdfrwt beam="2">  1        1 0.12487339E+00 0.12630883E+03</pdfrwt>
<totfact> 0.29785569E+04</totfact>
</mgrwt>
</event>
<event>
 6    2  0.1181843E-002  0.1260713E+03  0.7546771E-02  0.1233404E+00
          2   -1    0    0  503    0 -0.00000000000E+00  0.00000000000E+00  0.59594358318E+03  0.59594358318E+03  0.00000000000E+00 0.  1.
         21   -1    0    0  502  503  0.00000000000E+00 -0.00000000000E+00 -0.17042199231E+02  0.17042199231E+02  0.00000000000E+00 0. -1.
         25    2    1    2    0    0  0.16311873428E+02  0.19468984480E+01  0.21889235927E+03  0.25260214588E+03  0.12499644606E+03 0.  0.
          5    1    3    3  501    0  0.54571269076E+00 -0.18416642961E+02 -0.10875644646E+02  0.21395330957E+02  0.10000000000E+00 0. -1.
         -5    1    3    3    0  501  0.15766160737E+02  0.20363541409E+02  0.22976800391E+03  0.23120681492E+03  0.10000000000E+00 0. -1.
          2    1    1    2  502    0 -0.16311873428E+02 -0.19468984480E+01  0.36000902468E+03  0.36038363653E+03  0.00000000000E+00 0.  1.
<mgrwt>
<rscale>  1 0.12607133E+03</rscale>
<asrwt>0</asrwt>
<pdfrwt beam="1">  1       21 0.26218773E-02 0.12607133E+03</pdfrwt>
<pdfrwt beam="2">  1        2 0.91683612E-01 0.12607133E+03</pdfrwt>
<totfact> 0.49388493E+05</totfact>
</mgrwt>
</event>
<event>
 6    2  0.1181843E-002  0.1260315E+03  0.7546771E-02  0.1233466E+00
         21   -1    0    0  502  503  0.00000000000E+00  0.00000000000E+00  0.95987464481E+01  0.95987464481E+01  0.00000000000E+00 0.  1.
          1   -1    0    0  503    0 -0.00000000000E+00 -0.00000000000E+00 -0.82721533715E+03  0.82721533715E+03  0.00000000000E+00 0. -1.
         25    2    1    2    0    0 -0.57041423516E+01  0.14992651640E+02 -0.41119081556E+03  0.43007187096E+03  0.12500644202E+03 0.  0.
          5    1    3    3  501    0  0.30022471697E+02  0.25078059835E+02 -0.36359582366E+02  0.53406807822E+02  0.10000000000E+00 0.  1.
         -5    1    3    3    0  501 -0.35726614049E+02 -0.10085408195E+02 -0.37483123320E+03  0.37666506314E+03  0.10000000000E+00 0.  1.
          1    1    1    2  502    0  0.57041423516E+01 -0.14992651640E+02 -0.40642577513E+03  0.40674221263E+03  0.00000000000E+00 0. -1.
<mgrwt>
<rscale>  1 0.12603145E+03</rscale>
<asrwt>0</asrwt>
<pdfrwt beam="1">  1       21 0.14767309E-02 0.12603145E+03</pdfrwt>
<pdfrwt beam="2">  1        1 0.12726384E+00 0.12603145E+03</pdfrwt>
<totfact> 0.48231740E+05</totfact>
</mgrwt>
</event>
<event>
 6    2  0.1181843E-002  0.1265837E+03  0.7546771E-02  0.1232615E+00
         21   -1    0    0  502  503  0.00000000000E+00  0.00000000000E+00  0.21750056311E+04  0.21750056311E+04  0.00000000000E+00 0. -1.
          2   -1    0    0  503    0 -0.00000000000E+00 -0.00000000000E+00 -0.41811177004E+03  0.41811177004E+03  0.00000000000E+00 0. -1.
         25    2    1    2    0    0 -0.57568899864E+01 -0.19067198776E+02  0.21729254129E+04  0.21766093555E+04  0.12500694603E+03 0.  0.
          5    1    3    3  501    0 -0.41519159073E+02 -0.47072606633E+02  0.65404160663E+03  0.65704650069E+03  0.10000000000E+00 0. -1.
         -5    1    3    3    0  501  0.35762269087E+02  0.28005407857E+02  0.15188838063E+04  0.15195628548E+04  0.10000000000E+00 0. -1.
          2    1    1    2  502    0  0.57568899864E+01  0.19067198776E+02 -0.41603155191E+03  0.41650804558E+03  0.00000000000E+00 0. -1.
<mgrwt>
<rscale>  1 0.12658371E+03</rscale>
<asrwt>0</asrwt>
<pdfrwt beam="1">  1       21 0.33461624E+00 0.12658371E+03</pdfrwt>
<pdfrwt beam="2">  1        2 0.64324889E-01 0.12658371E+03</pdfrwt>
<totfact> 0.23035605E+01</totfact>
</mgrwt>
</event>
<event>
 6    2  0.1181843E-002  0.1529920E+03  0.7546771E-02  0.1196844E+00
         21   -1    0    0  502  503  0.00000000000E+00  0.00000000000E+00  0.41193213547E+03  0.41193213547E+03  0.00000000000E+00 0.  1.
          4   -1    0    0  503    0 -0.00000000000E+00 -0.00000000000E+00 -0.16923993600E+03  0.16923993600E+03  0.00000000000E+00 0. -1.
         25    2    1    2    0    0 -0.73303019313E+02  0.49047256151E+02  0.38469907052E+03  0.41400473794E+03  0.12501032838E+03 0.  0.
          5    1    3    3  501    0  0.71315193263E+01  0.69592053818E+02  0.17272723952E+03  0.18635616919E+03  0.10000000000E+00 0.  1.
         -5    1    3    3    0  501 -0.80434538639E+02 -0.20544797667E+02  0.21197183099E+03  0.22764856875E+03  0.10000000000E+00 0.  1.
          4    1    1    2  502    0  0.73303019313E+02 -0.49047256151E+02 -0.14200687105E+03  0.16716733354E+03  0.00000000000E+00 0. -1.
<mgrwt>
<rscale>  1 0.15299199E+03</rscale>
<asrwt>0</asrwt>
<pdfrwt beam="1">  1       21 0.63374174E-01 0.15299199E+03</pdfrwt>
<pdfrwt beam="2">  1        4 0.26036913E-01 0.15299199E+03</pdfrwt>
<totfact> 0.13405794E+03</totfact>
</mgrwt>
</event>
<event>
 6    2  0.1181843E-002  0.1376585E+03  0.7546771E-02  0.1216515E+00
          2   -1    0    0  503    0 -0.00000000000E+00  0.00000000000E+00  0.39007515282E+04  0.39007515282E+04  0.00000000000E+00 0.  1.
         21   -1    0    0  502  503  0.00000000000E+00 -0.00000000000E+00 -0.25029857740E+01  0.25029857740E+01  0.00000000000E+00 0.  1.
         25    2    1    2    0    0  0.56987815361E+02  0.92882865204E+01  0.24615354639E+04  0.24653816568E+04  0.12496395610E+03 0.  0.
          5    1    3    3  501    0 -0.35905073176E+02 -0.15071600416E+02  0.50982713220E+03  0.51131207902E+03  0.10000000000E+00 0.  1.
         -5    1    3    3    0  501  0.92892888537E+02  0.24359886937E+02  0.19517083317E+04  0.19540695778E+04  0.10000000000E+00 0.  1.
          2    1    1    2  502    0 -0.56987815361E+02 -0.92882865204E+01  0.14367130785E+04  0.14378728572E+04  0.00000000000E+00 0.  1.
<mgrwt>
<rscale>  1 0.13765854E+03</rscale>
<asrwt>0</asrwt>
<pdfrwt beam="1">  1       21 0.38507786E-03 0.13765854E+03</pdfrwt>
<pdfrwt beam="2">  1        2 0.60011075E+00 0.13765854E+03</pdfrwt>
<totfact> 0.12153417E+05</totfact>
</mgrwt>
</event>
<event>
 6    2  0.1181843E-002  0.1800698E+03  0.7546771E-02  0.1167735E+00
         21   -1    0    0  502  503  0.00000000000E+00  0.00000000000E+00  0.26529059344E+02  0.26529059344E+02  0.00000000000E+00 0.  1.
          2   -1    0    0  503    0 -0.00000000000E+00 -0.00000000000E+00 -0.36019740570E+04  0.36019740570E+04  0.00000000000E+00 0.  1.
         25    2    1    2    0    0 -0.20944628921E+02  0.12790670444E+03 -0.29580443312E+03  0.34630247728E+03  0.12500536226E+03 0.  0.
          5    1    3    3  501    0  0.32731399652E+02 -0.75787329505E+01 -0.43896157268E+02  0.55278063816E+02  0.10000000000E+00 0. -1.
         -5    1    3    3    0  501 -0.53676028574E+02  0.13548543739E+03 -0.25190827585E+03  0.29102441346E+03  0.10000000000E+00 0. -1.
          2    1    1    2  502    0  0.20944628921E+02 -0.12790670444E+03 -0.32796405645E+04  0.32822006390E+04  0.00000000000E+00 0.  1.
<mgrwt>
<rscale>  1 0.18006983E+03</rscale>
<asrwt>0</asrwt>
<pdfrwt beam="1">  1       21 0.40813931E-02 0.18006983E+03</pdfrwt>
<pdfrwt beam="2">  1        2 0.55414995E+00 0.18006983E+03</pdfrwt>
<totfact> 0.44087535E+03</totfact>
</mgrwt>
</event>
<event>
 6    2  0.1181843E-002  0.1645125E+03  0.7546771E-02  0.1183694E+00
          2   -1    0    0  503    0 -0.00000000000E+00  0.00000000000E+00  0.16952342851E+04  0.16952342851E+04  0.00000000000E+00 0.  1.
         21   -1    0    0  502  503  0.00000000000E+00 -0.00000000000E+00 -0.10944332907E+02  0.10944332907E+02  0.00000000000E+00 0.  1.
         25    2    1    2    0    0  0.34636013024E+02 -0.10119246108E+03  0.94980593314E+03  0.96394796530E+03  0.12499920638E+03 0.  0.
          5    1    3    3  501    0  0.72944394350E+02 -0.23735252133E+02  0.38469566566E+03  0.39226905568E+03  0.10000000000E+00 0. -1.
         -5    1    3    3    0  501 -0.38308381326E+02 -0.77457208944E+02  0.56511026748E+03  0.57167890962E+03  0.10000000000E+00 0. -1.
          2    1    1    2  502    0 -0.34636013024E+02  0.10119246108E+03  0.73448401902E+03  0.74223065268E+03  0.00000000000E+00 0.  1.
<mgrwt>
<rscale>  1 0.16451252E+03</rscale>
<asrwt>0</asrwt>
<pdfrwt beam="1">  1       21 0.16837449E-02 0.16451252E+03</pdfrwt>
<pdfrwt beam="2">  1        2 0.26080507E+00 0.16451252E+03</pdfrwt>
<totfact> 0.22578006E+05</totfact>
</mgrwt>
</event>
<event>
 6    2  0.1181843E-002  0.2198888E+03  0.7546771E-02  0.1133966E+00
         21   -1    0    0  502  503  0.00000000000E+00  0.00000000000E+00  0.78699796645E+02  0.78699796645E+02  0.00000000000E+00 0. -1.
          1   -1    0    0  503    0 -0.00000000000E+00 -0.00000000000E+00 -0.90390803274E+03  0.90390803274E+03  0.00000000000E+00 0. -1.
         25    2    1    2    0    0 -0.66907390311E+01 -0.18076513777E+03 -0.11190573131E+03  0.24672654524E+03  0.12502117583E+03 0.  0.
          5    1    3    3  501    0  0.24365198959E+02 -0.14895146370E+03 -0.30515364523E+02  0.15398506073E+03  0.10000000000E+00 0. -1.
         -5    1    3    3    0  501 -0.31055937990E+02 -0.31813674077E+02 -0.81390366792E+02  0.92741484510E+02  0.10000000000E+00 0. -1.
          1    1    1    2  502    0  0.66907390311E+01  0.18076513777E+03 -0.71330250478E+03  0.73588128414E+03  0.00000000000E+00 0. -1.
<mgrwt>
<rscale>  1 0.21988883E+03</rscale>
<asrwt>0</asrwt>
<pdfrwt beam="1">  1       21 0.12107660E-01 0.21988883E+03</pdfrwt>
<pdfrwt beam="2">  1        1 0.13906278E+00 0.21988883E+03</pdfrwt>
<totfact> 0.12191520E+04</totfact>
</mgrwt>
</event>
<event>
 6    2  0.1181843E-002  0.1373079E+03  0.7546771E-02  0.1216998E+00
         21   -1    0    0  502  503  0.00000000000E+00  0.00000000000E+00  0.14065656038E+02  0.14065656038E+02  0.00000000000E+00 0.  1.
          2   -1    0    0  503    0 -0.00000000000E+00 -0.00000000000E+00 -0.14356855831E+04  0.14356855831E+04  0.00000000000E+00 0.  1.
         25    2    1    2    0    0 -0.28360262279E+01  0.56687929752E+02 -0.34050300856E+03  0.36714542172E+03  0.12502758668E+03 0.  0.
          5    1    3    3  501    0 -0.22791082586E+02 -0.34589526795E+02 -0.74954264949E+02  0.85638896790E+02  0.10000000000E+00 0. -1.
         -5    1    3    3    0  501  0.19955056358E+02  0.91277456546E+02 -0.26554874361E+03  0.28150652493E+03  0.10000000000E+00 0. -1.
          2    1    1    2  502    0  0.28360262279E+01 -0.56687929752E+02 -0.10811169185E+04  0.10826058174E+04  0.00000000000E+00 0.  1.
<mgrwt>
<rscale>  1 0.13730791E+03</rscale>
<asrwt>0</asrwt>
<pdfrwt beam="1">  1       21 0.21639462E-02 0.13730791E+03</pdfrwt>
<pdfrwt beam="2">  1        2 0.22087479E+00 0.13730791E+03</pdfrwt>
<totfact> 0.20504252E+05</totfact>
</mgrwt>
</event>
<event>
 6    2  0.1181843E-002  0.1443620E+03  0.7546771E-02  0.1207577E+00
          1   -1    0    0  503    0 -0.00000000000E+00  0.00000000000E+00  0.13508842227E+04  0.13508842227E+04  0.00000000000E+00 0.  1.
         21   -1    0    0  502  503  0.00000000000E+00 -0.00000000000E+00 -0.17179536212E+02  0.17179536212E+02  0.00000000000E+00 0.  1.
         25    2    1    2    0    0  0.53501360051E+02 -0.48513833611E+02  0.31166561694E+03  0.34347611148E+03  0.12499757917E+03 0.  0.
          5    1    3    3  501    0  0.39803243136E+02 -0.89820864101E+02  0.18383180354E+03  0.20843758726E+03  0.10000000000E+00 0. -1.
         -5    1    3    3    0  501  0.13698116915E+02  0.41307030490E+02  0.12783381340E+03  0.13503852422E+03  0.10000000000E+00 0. -1.
          1    1    1    2  502    0 -0.53501360051E+02  0.48513833611E+02  0.10220390696E+04  0.10245876475E+04  0.00000000000E+00 0.  1.
<mgrwt>
<rscale>  1 0.14436198E+03</rscale>
<asrwt>0</asrwt>
<pdfrwt beam="1">  1       21 0.26430066E-02 0.14436198E+03</pdfrwt>
<pdfrwt beam="2">  1        1 0.20782826E+00 0.14436198E+03</pdfrwt>
<totfact> 0.79825977E+04</totfact>
</mgrwt>
</event>
<event>
 6    2  0.1181843E-002  0.1290206E+03  0.7546771E-02  0.1228916E+00
          2   -1    0    0  503    0 -0.00000000000E+00  0.00000000000E+00  0.97822008371E+03  0.97822008371E+03  0.00000000000E+00 0. -1.
         21   -1    0    0  502  503  0.00000000000E+00 -0.00000000000E+00 -0.66315536411E+01  0.66315536411E+01  0.00000000000E+00 0. -1.
         25    2    1    2    0    0 -0.11060833738E+02 -0.30045515146E+02  0.76865921394E+03  0.77941215145E+03  0.12498495760E+03 0.  0.
          5    1    3    3  501    0  0.16071868088E+02 -0.74238623528E+02  0.40326210838E+03  0.41035352590E+03  0.10000000000E+00 0. -1.
         -5    1    3    3    0  501 -0.27132701826E+02  0.44193108381E+02  0.36539710556E+03  0.36905862555E+03  0.10000000000E+00 0. -1.
          2    1    1    2  502    0  0.11060833738E+02  0.30045515146E+02  0.20292931613E+03  0.20543948590E+03  0.00000000000E+00 0. -1.
<mgrwt>
<rscale>  1 0.12902060E+03</rscale>
<asrwt>0</asrwt>
<pdfrwt beam="1">  1       21 0.10202398E-02 0.12902060E+03</pdfrwt>
<pdfrwt beam="2">  1        2 0.15049528E+00 0.12902060E+03</pdfrwt>
<totfact> 0.12211664E+06</totfact>
</mgrwt>
</event>
<event>
 6    2  0.1181843E-002  0.1292092E+03  0.7546771E-02  0.1228634E+00
          1   -1    0    0  503    0 -0.00000000000E+00  0.00000000000E+00  0.21711026572E+03  0.21711026572E+03  0.00000000000E+00 0.  1.
         21   -1    0    0  502  503  0.00000000000E+00 -0.00000000000E+00 -0.50898003473E+02  0.50898003473E+02  0.00000000000E+00 0.  1.
         25    2    1    2    0    0 -0.23361797391E+02  0.22897303705E+02  0.36544135297E+02  0.13427763231E+03  0.12499979448E+03 0.  0.
          5    1    3    3  501    0 -0.47680946338E+02 -0.38592427334E+02  0.28587253923E+02  0.67676356123E+02  0.10000000000E+00 0.  1.
         -5    1    3    3    0  501  0.24319148947E+02  0.61489731039E+02  0.79568813742E+01  0.66601276188E+02  0.10000000000E+00 0.  1.
          1    1    1    2  502    0  0.23361797391E+02 -0.22897303705E+02  0.12966812695E+03  0.13373063688E+03  0.00000000000E+00 0.  1.
<mgrwt>
<rscale>  1 0.12920917E+03</rscale>
<asrwt>0</asrwt>
<pdfrwt beam="1">  1       21 0.78304622E-02 0.12920917E+03</pdfrwt>
<pdfrwt beam="2">  1        1 0.33401579E-01 0.12920917E+03</pdfrwt>
<totfact> 0.17575029E+05</totfact>
</mgrwt>
</event>
<event>
 6    2  0.1181843E-002  0.1278002E+03  0.7546771E-02  0.1230757E+00
         21   -1    0    0  502  503  0.00000000000E+00  0.00000000000E+00  0.97863651858E+02  0.97863651858E+02  0.00000000000E+00 0.  1.
          2   -1    0    0  503    0 -0.00000000000E+00 -0.00000000000E+00 -0.12940601476E+04  0.12940601476E+04  0.00000000000E+00 0.  1.
         25    2    1    2    0    0 -0.20107559472E+01 -0.26580408608E+02  0.55937671657E+02  0.13950592414E+03  0.12498927353E+03 0.  0.
          5    1    3    3  501    0 -0.67169345185E+01 -0.71563711067E+02  0.59964217150E+01  0.72128004439E+02  0.10000000000E+00 0.  1.
         -5    1    3    3    0  501  0.47061785714E+01  0.44983302458E+02  0.49941249942E+02  0.67377919696E+02  0.10000000000E+00 0.  1.
          2    1    1    2  502    0  0.20107559472E+01  0.26580408608E+02 -0.12521341674E+04  0.12524178753E+04  0.00000000000E+00 0.  1.
<mgrwt>
<rscale>  1 0.12780016E+03</rscale>
<asrwt>0</asrwt>
<pdfrwt beam="1">  1       21 0.15055946E-01 0.12780016E+03</pdfrwt>
<pdfrwt beam="2">  1        2 0.19908618E+00 0.12780016E+03</pdfrwt>
<totfact> 0.90512016E+03</totfact>
</mgrwt>
</event>
<event>
 6    2  0.1181843E-002  0.1271277E+03  0.7546771E-02  0.1231781E+00
         21   -1    0    0  502  503  0.00000000000E+00  0.00000000000E+00  0.74499091859E+02  0.74499091859E+02  0.00000000000E+00 0. -1.
          2   -1    0    0  503    0 -0.00000000000E+00 -0.00000000000E+00 -0.10268417672E+04  0.10268417672E+04  0.00000000000E+00 0.  1.
         25    2    1    2    0    0 -0.23065781109E+02  0.20486180306E+01  0.20026964266E+02  0.12869552641E+03  0.12500092850E+03 0.  0.
          5    1    3    3  501    0  0.28461594237E+02 -0.78114772088E+01  0.57222268562E+02  0.64385398516E+02  0.10000000000E+00 0. -1.
         -5    1    3    3    0  501 -0.51527375346E+02  0.98600952393E+01 -0.37195304296E+02  0.64310127895E+02  0.10000000000E+00 0. -1.
          2    1    1    2  502    0  0.23065781109E+02 -0.20486180306E+01 -0.97236963961E+03  0.97264533265E+03  0.00000000000E+00 0.  1.
<mgrwt>
<rscale>  1 0.12712773E+03</rscale>
<asrwt>0</asrwt>
<pdfrwt beam="1">  1       21 0.11461400E-01 0.12712773E+03</pdfrwt>
<pdfrwt beam="2">  1        2 0.15797564E+00 0.12712773E+03</pdfrwt>
<totfact> 0.20787090E+04</totfact>
</mgrwt>
</event>
<event>
 6    2  0.1181843E-002  0.1284103E+03  0.7546771E-02  0.1229834E+00
          2   -1    0    0  503    0 -0.00000000000E+00  0.00000000000E+00  0.38583639783E+03  0.38583639783E+03  0.00000000000E+00 0. -1.
         21   -1    0    0  502  503  0.00000000000E+00 -0.00000000000E+00 -0.17495193559E+02  0.17495193559E+02  0.00000000000E+00 0. -1.
         25    2    1    2    0    0  0.20567185422E+02  0.20722881273E+02  0.24534585363E+03  0.27691836738E+03  0.12504698067E+03 0.  0.
          5    1    3    3  501    0  0.41987217785E+02  0.14096545681E+02  0.16947710852E+02  0.47422293920E+02  0.10000000000E+00 0. -1.
         -5    1    3    3    0  501 -0.21420032364E+02  0.66263355914E+01  0.22839814278E+03  0.22949607346E+03  0.10000000000E+00 0. -1.
          2    1    1    2  502    0 -0.20567185422E+02 -0.20722881273E+02  0.12299535064E+03  0.12641322401E+03  0.00000000000E+00 0. -1.
<mgrwt>
<rscale>  1 0.12841026E+03</rscale>
<asrwt>0</asrwt>
<pdfrwt beam="1">  1       21 0.26915685E-02 0.12841026E+03</pdfrwt>
<pdfrwt beam="2">  1        2 0.59359440E-01 0.12841026E+03</pdfrwt>
<totfact> 0.76155542E+05</totfact>
</mgrwt>
</event>
<event>
 6    2  0.1181843E-002  0.1260680E+03  0.7546771E-02  0.1233410E+00
          1   -1    0    0  503    0 -0.00000000000E+00  0.00000000000E+00  0.10528018018E+04  0.10528018018E+04  0.00000000000E+00 0.  1.
         21   -1    0    0  502  503  0.00000000000E+00 -0.00000000000E+00 -0.69956823506E+01  0.69956823506E+01  0.00000000000E+00 0.  1.
         25    2    1    2    0    0  0.15218912709E+02 -0.62754842533E+01  0.57298288325E+03  0.58668776147E+03  0.12498859129E+03 0.  0.
          5    1    3    3  501    0 -0.20815518746E+02  0.23039301934E+02  0.35343722512E+02  0.47045552131E+02  0.10000000000E+00 0.  1.
         -5    1    3    3    0  501  0.36034431455E+02 -0.29314786187E+02  0.53763916074E+03  0.53964220934E+03  0.10000000000E+00 0.  1.
          1    1    1    2  502    0 -0.15218912709E+02  0.62754842533E+01  0.47282323623E+03  0.47310972271E+03  0.00000000000E+00 0.  1.
<mgrwt>
<rscale>  1 0.12606802E+03</rscale>
<asrwt>0</asrwt>
<pdfrwt beam="1">  1       21 0.10762597E-02 0.12606802E+03</pdfrwt>
<pdfrwt beam="2">  1        1 0.16196938E+00 0.12606802E+03</pdfrwt>
<totfact> 0.53895345E+05</totfact>
</mgrwt>
</event>
<event>
 6    2  0.1181843E-002  0.1265599E+03  0.7546771E-02  0.1232651E+00
         21   -1    0    0  502  503  0.00000000000E+00  0.00000000000E+00  0.22756241441E+02  0.22756241441E+02  0.00000000000E+00 0.  1.
          2   -1    0    0  503    0 -0.00000000000E+00 -0.00000000000E+00 -0.25829513982E+03  0.25829513982E+03  0.00000000000E+00 0.  1.
         25    2    1    2    0    0  0.19799826969E+02  0.95628722079E+00 -0.22606549709E+03  0.25908110668E+03  0.12499785290E+03 0.  0.
          5    1    3    3  501    0 -0.31095665995E+02  0.24308229497E+02 -0.17582100586E+02  0.43208456648E+02  0.10000000000E+00 0. -1.
         -5    1    3    3    0  501  0.50895492964E+02 -0.23351942276E+02 -0.20848339651E+03  0.21587265003E+03  0.10000000000E+00 0. -1.
          2    1    1    2  502    0 -0.19799826969E+02 -0.95628722079E+00 -0.94734012856E+01  0.21970274581E+02  0.00000000000E+00 0.  1.
<mgrwt>
<rscale>  1 0.12655991E+03</rscale>
<asrwt>0</asrwt>
<pdfrwt beam="1">  1       21 0.35009599E-02 0.12655991E+03</pdfrwt>
<pdfrwt beam="2">  1        2 0.39737717E-01 0.12655991E+03</pdfrwt>
<totfact> 0.75571969E+05</totfact>
</mgrwt>
</event>
<event>
 6    2  0.1181843E-002  0.1364750E+03  0.7546771E-02  0.1218152E+00
         21   -1    0    0  502  503  0.00000000000E+00  0.00000000000E+00  0.31120936723E+02  0.31120936723E+02  0.00000000000E+00 0. -1.
          2   -1    0    0  503    0 -0.00000000000E+00 -0.00000000000E+00 -0.23618602506E+04  0.23618602506E+04  0.00000000000E+00 0. -1.
         25    2    1    2    0    0 -0.41093621170E+02 -0.36201591338E+02 -0.12048830053E+03  0.18205179385E+03  0.12500473656E+03 0.  0.
          5    1    3    3  501    0  0.18428033652E+02  0.24366142560E+02  0.45666129230E+01  0.30889565894E+02  0.10000000000E+00 0. -1.
         -5    1    3    3    0  501 -0.59521654822E+02 -0.60567733898E+02 -0.12505491345E+03  0.15116222796E+03  0.10000000000E+00 0. -1.
          2    1    1    2  502    0  0.41093621170E+02  0.36201591338E+02 -0.22102510133E+04  0.22109293934E+04  0.00000000000E+00 0. -1.
<mgrwt>
<rscale>  1 0.13647500E+03</rscale>
<asrwt>0</asrwt>
<pdfrwt beam="1">  1       21 0.47878353E-02 0.13647500E+03</pdfrwt>
<pdfrwt beam="2">  1        2 0.36336320E+00 0.13647500E+03</pdfrwt>
<totfact> 0.18447170E+04</totfact>
</mgrwt>
</event>
<event>
 6    2  0.1181843E-002  0.1356001E+03  0.7546771E-02  0.1219375E+00
          3   -1    0    0  503    0 -0.00000000000E+00  0.00000000000E+00  0.87554653411E+02  0.87554653411E+02  0.00000000000E+00 0.  1.
         21   -1    0    0  502  503  0.00000000000E+00 -0.00000000000E+00 -0.22540006769E+03  0.22540006769E+03  0.00000000000E+00 0. -1.
         25    2    1    2    0    0  0.44095908308E+02  0.28627803666E+02 -0.19357229874E+03  0.23634215082E+03  0.12499350839E+03 0.  0.
          5    1    3    3  501    0  0.23628234621E+02  0.53875435026E+02 -0.19512762235E+03  0.20380298078E+03  0.10000000000E+00 0. -1.
         -5    1    3    3    0  501  0.20467673687E+02 -0.25247631360E+02  0.15553236042E+01  0.32539170041E+02  0.10000000000E+00 0. -1.
          3    1    1    2  502    0 -0.44095908308E+02 -0.28627803666E+02  0.55726884468E+02  0.76612570279E+02  0.00000000000E+00 0.  1.
<mgrwt>
<rscale>  1 0.13560006E+03</rscale>
<asrwt>0</asrwt>
<pdfrwt beam="1">  1       21 0.34676933E-01 0.13560006E+03</pdfrwt>
<pdfrwt beam="2">  1        3 0.13469947E-01 0.13560006E+03</pdfrwt>
<totfact> 0.17292988E+04</totfact>
</mgrwt>
</event>
<event>
 6    2  0.1181843E-002  0.1275015E+03  0.7546771E-02  0.1231211E+00
          1   -1    0    0  503    0 -0.00000000000E+00  0.00000000000E+00  0.76905879475E+02  0.76905879475E+02  0.00000000000E+00 0.  1.
         21   -1    0    0  502  503  0.00000000000E+00 -0.00000000000E+00 -0.34364946510E+03  0.34364946510E+03  0.00000000000E+00 0. -1.
         25    2    1    2    0    0 -0.28864928765E+01  0.25064988728E+02 -0.32928952383E+03  0.35311218416E+03  0.12498015279E+03 0.  0.
          5    1    3    3  501    0  0.38773530962E+01  0.18956867100E+00 -0.32722805701E+03  0.32725109793E+03  0.10000000000E+00 0. -1.
         -5    1    3    3    0  501 -0.67638459726E+01  0.24875420057E+02 -0.20614668274E+01  0.25861086227E+02  0.10000000000E+00 0. -1.
          1    1    1    2  502    0  0.28864928765E+01 -0.25064988728E+02  0.62545938209E+02  0.67443160420E+02  0.00000000000E+00 0.  1.
<mgrwt>
<rscale>  1 0.12750147E+03</rscale>
<asrwt>0</asrwt>
<pdfrwt beam="1">  1       21 0.52869149E-01 0.12750147E+03</pdfrwt>
<pdfrwt beam="2">  1        1 0.11831674E-01 0.12750147E+03</pdfrwt>
<totfact> 0.18557675E+04</totfact>
</mgrwt>
</event>
<event>
 6    2  0.1181843E-002  0.1934463E+03  0.7546771E-02  0.1155389E+00
          1   -1    0    0  503    0 -0.00000000000E+00  0.00000000000E+00  0.57222459514E+03  0.57222459514E+03  0.00000000000E+00 0.  1.
         21   -1    0    0  502  503  0.00000000000E+00 -0.00000000000E+00 -0.35849724121E+03  0.35849724121E+03  0.00000000000E+00 0. -1.
         25    2    1    2    0    0 -0.13757635165E+03 -0.53557418342E+02 -0.32166200811E+03  0.37535041236E+03  0.12500333996E+03 0.  0.
          5    1    3    3  501    0 -0.12090268440E+03 -0.47649145711E+02 -0.33082116445E+03  0.35543009584E+03  0.10000000000E+00 0.  1.
         -5    1    3    3    0  501 -0.16673667256E+02 -0.59082726307E+01  0.91591563387E+01  0.19920316515E+02  0.10000000000E+00 0.  1.
          1    1    1    2  502    0  0.13757635165E+03  0.53557418342E+02  0.53538936205E+03  0.55537142399E+03  0.00000000000E+00 0.  1.
<mgrwt>
<rscale>  1 0.19344634E+03</rscale>
<asrwt>0</asrwt>
<pdfrwt beam="1">  1       21 0.55153422E-01 0.19344634E+03</pdfrwt>
<pdfrwt beam="2">  1        1 0.88034553E-01 0.19344634E+03</pdfrwt>
<totfact> 0.12911366E+03</totfact>
</mgrwt>
</event>
<event>
 6    2  0.1181843E-002  0.1400858E+03  0.7546771E-02  0.1213214E+00
         21   -1    0    0  502  503  0.00000000000E+00  0.00000000000E+00  0.62757260220E+02  0.62757260220E+02  0.00000000000E+00 0.  1.
          2   -1    0    0  503    0 -0.00000000000E+00 -0.00000000000E+00 -0.19675499010E+04  0.19675499010E+04  0.00000000000E+00 0.  1.
         25    2    1    2    0    0  0.16882568384E+02 -0.60946158053E+02 -0.16611516361E+02  0.14106725747E+03  0.12499829342E+03 0.  0.
          5    1    3    3  501    0 -0.41506647519E+02  0.14978016920E+02 -0.19307324016E+01  0.44168772982E+02  0.10000000000E+00 0.  1.
         -5    1    3    3    0  501  0.58389215903E+02 -0.75924174973E+02 -0.14680783959E+02  0.96898484491E+02  0.10000000000E+00 0.  1.
          2    1    1    2  502    0 -0.16882568384E+02  0.60946158053E+02 -0.18881811244E+04  0.18892399037E+04  0.00000000000E+00 0.  1.
<mgrwt>
<rscale>  1 0.14008579E+03</rscale>
<asrwt>0</asrwt>
<pdfrwt beam="1">  1       21 0.96549618E-02 0.14008579E+03</pdfrwt>
<pdfrwt beam="2">  1        2 0.30270003E+00 0.14008579E+03</pdfrwt>
<totfact> 0.88685872E+03</totfact>
</mgrwt>
</event>
<event>
 6    2  0.1181843E-002  0.1604646E+03  0.7546771E-02  0.1188173E+00
          2   -1    0    0  503    0 -0.00000000000E+00  0.00000000000E+00  0.14551513714E+04  0.14551513714E+04  0.00000000000E+00 0. -1.
         21   -1    0    0  502  503  0.00000000000E+00 -0.00000000000E+00 -0.12475480143E+02  0.12475480143E+02  0.00000000000E+00 0. -1.
         25    2    1    2    0    0  0.68479537819E+02  0.73701946198E+02  0.69931153609E+03  0.71748553918E+03  0.12500980145E+03 0.  0.
          5    1    3    3  501    0  0.31003468087E+02  0.94410476769E+02  0.61445643733E+03  0.62243977744E+03  0.10000000000E+00 0.  1.
         -5    1    3    3    0  501  0.37476069733E+02 -0.20708530571E+02  0.84855098756E+02  0.95045761747E+02  0.10000000000E+00 0.  1.
          2    1    1    2  502    0 -0.68479537819E+02 -0.73701946198E+02  0.74336435516E+03  0.75014131235E+03  0.00000000000E+00 0. -1.
<mgrwt>
<rscale>  1 0.16046456E+03</rscale>
<asrwt>0</asrwt>
<pdfrwt beam="1">  1       21 0.19193058E-02 0.16046456E+03</pdfrwt>
<pdfrwt beam="2">  1        2 0.22386931E+00 0.16046456E+03</pdfrwt>
<totfact> 0.24375209E+05</totfact>
</mgrwt>
</event>
<event>
 6    2  0.1181843E-002  0.1275918E+03  0.7546771E-02  0.1231073E+00
         21   -1    0    0  502  503  0.00000000000E+00  0.00000000000E+00  0.24478868266E+04  0.24478868266E+04  0.00000000000E+00 0.  1.
          2   -1    0    0  503    0 -0.00000000000E+00 -0.00000000000E+00 -0.16813474095E+03  0.16813474095E+03  0.00000000000E+00 0. -1.
         25    2    1    2    0    0  0.68050501206E+01  0.24664980761E+02  0.24452403764E+04  0.24485669638E+04  0.12500003164E+03 0.  0.
          5    1    3    3  501    0  0.30026764495E+02  0.60477450465E+02  0.20333942338E+04  0.20345149910E+04  0.10000000000E+00 0. -1.
         -5    1    3    3    0  501 -0.23221714375E+02 -0.35812469704E+02  0.41184614253E+03  0.41405197273E+03  0.10000000000E+00 0. -1.
          2    1    1    2  502    0 -0.68050501206E+01 -0.24664980761E+02 -0.16548829069E+03  0.16745460381E+03  0.00000000000E+00 0. -1.
<mgrwt>
<rscale>  1 0.12759184E+03</rscale>
<asrwt>0</asrwt>
<pdfrwt beam="1">  1       21 0.37659795E+00 0.12759184E+03</pdfrwt>
<pdfrwt beam="2">  1        2 0.25866885E-01 0.12759184E+03</pdfrwt>
<totfact> 0.34697908E+01</totfact>
</mgrwt>
</event>
<event>
 6    2  0.1181843E-002  0.1756657E+03  0.7546771E-02  0.1172065E+00
          3   -1    0    0  503    0 -0.00000000000E+00  0.00000000000E+00  0.13457889552E+04  0.13457889552E+04  0.00000000000E+00 0. -1.
         21   -1    0    0  502  503  0.00000000000E+00 -0.00000000000E+00 -0.25948989353E+02  0.25948989353E+02  0.00000000000E+00 0. -1.
         25    2    1    2    0    0 -0.10451313029E+03  0.65648857107E+02  0.32647314801E+03  0.37073324845E+03  0.12500263314E+03 0.  0.
          5    1    3    3  501    0 -0.13087201082E+03  0.38774260113E+02  0.27445460501E+03  0.30652286485E+03  0.10000000000E+00 0. -1.
         -5    1    3    3    0  501  0.26358880529E+02  0.26874596994E+02  0.52018543005E+02  0.64210383605E+02  0.10000000000E+00 0. -1.
          3    1    1    2  502    0  0.10451313029E+03 -0.65648857107E+02  0.99336681781E+03  0.10010046961E+04  0.00000000000E+00 0. -1.
<mgrwt>
<rscale>  1 0.17566566E+03</rscale>
<asrwt>0</asrwt>
<pdfrwt beam="1">  1       21 0.39921533E-02 0.17566566E+03</pdfrwt>
<pdfrwt beam="2">  1        3 0.20704440E+00 0.17566566E+03</pdfrwt>
<totfact> 0.28438898E+03</totfact>
</mgrwt>
</event>
<event>
 6    2  0.1181843E-002  0.1266902E+03  0.7546771E-02  0.1232451E+00
         21   -1    0    0  502  503  0.00000000000E+00  0.00000000000E+00  0.15488141519E+04  0.15488141519E+04  0.00000000000E+00 0.  1.
          2   -1    0    0  503    0 -0.00000000000E+00 -0.00000000000E+00 -0.11065679925E+03  0.11065679925E+03  0.00000000000E+00 0.  1.
         25    2    1    2    0    0 -0.19735243621E+02  0.59680405572E+01  0.15452383124E+04  0.15504231209E+04  0.12500125702E+03 0.  0.
          5    1    3    3  501    0  0.38861633938E+02  0.20738795820E+02  0.25545898228E+03  0.25922890632E+03  0.10000000000E+00 0.  1.
         -5    1    3    3    0  501 -0.58596877558E+02 -0.14770755263E+02  0.12897793302E+04  0.12911942146E+04  0.10000000000E+00 0.  1.
          2    1    1    2  502    0  0.19735243621E+02 -0.59680405572E+01 -0.10708095975E+03  0.10904783028E+03  0.00000000000E+00 0.  1.
<mgrwt>
<rscale>  1 0.12669022E+03</rscale>
<asrwt>0</asrwt>
<pdfrwt beam="1">  1       21 0.23827908E+00 0.12669022E+03</pdfrwt>
<pdfrwt beam="2">  1        2 0.17024124E-01 0.12669022E+03</pdfrwt>
<totfact> 0.34183198E+02</totfact>
</mgrwt>
</event>
<event>
 6    2  0.1181843E-002  0.1857226E+03  0.7546771E-02  0.1162377E+00
          2   -1    0    0  503    0 -0.00000000000E+00  0.00000000000E+00  0.16966757541E+04  0.16966757541E+04  0.00000000000E+00 0.  1.
         21   -1    0    0  502  503  0.00000000000E+00 -0.00000000000E+00 -0.20560857263E+02  0.20560857263E+02  0.00000000000E+00 0.  1.
         25    2    1    2    0    0  0.99619762232E+02 -0.94564230390E+02  0.50453153921E+03  0.53762902637E+03  0.12500562086E+03 0.  0.
          5    1    3    3  501    0  0.12555053204E+03 -0.57569714097E+02  0.33937630519E+03  0.36640618799E+03  0.10000000000E+00 0. -1.
         -5    1    3    3    0  501 -0.25930769807E+02 -0.36994516293E+02  0.16515523402E+03  0.17122283838E+03  0.10000000000E+00 0. -1.
          2    1    1    2  502    0 -0.99619762232E+02  0.94564230390E+02  0.11715833576E+04  0.11796075850E+04  0.00000000000E+00 0.  1.
<mgrwt>
<rscale>  1 0.18572263E+03</rscale>
<asrwt>0</asrwt>
<pdfrwt beam="1">  1       21 0.31632102E-02 0.18572263E+03</pdfrwt>
<pdfrwt beam="2">  1        2 0.26102693E+00 0.18572263E+03</pdfrwt>
<totfact> 0.80309733E+04</totfact>
</mgrwt>
</event>
<event>
 6    2  0.1181843E-002  0.1489693E+03  0.7546771E-02  0.1201745E+00
          1   -1    0    0  503    0 -0.00000000000E+00  0.00000000000E+00  0.73197524854E+03  0.73197524854E+03  0.00000000000E+00 0.  1.
         21   -1    0    0  502  503  0.00000000000E+00 -0.00000000000E+00 -0.14889418962E+03  0.14889418962E+03  0.00000000000E+00 0. -1.
         25    2    1    2    0    0  0.43005483040E+02  0.68680031551E+02 -0.10866662488E+03  0.18439167373E+03  0.12500174267E+03 0.  0.
          5    1    3    3  501    0  0.39469240241E+02 -0.30374012910E+02 -0.34136152994E+02  0.60379537318E+02  0.10000000000E+00 0. -1.
         -5    1    3    3    0  501  0.35362427995E+01  0.99054044461E+02 -0.74530471889E+02  0.12401213641E+03  0.10000000000E+00 0. -1.
          1    1    1    2  502    0 -0.43005483040E+02 -0.68680031551E+02  0.69174768380E+03  0.69647776444E+03  0.00000000000E+00 0.  1.
<mgrwt>
<rscale>  1 0.14896931E+03</rscale>
<asrwt>0</asrwt>
<pdfrwt beam="1">  1       21 0.22906799E-01 0.14896931E+03</pdfrwt>
<pdfrwt beam="2">  1        1 0.11261157E+00 0.14896931E+03</pdfrwt>
<totfact> 0.53442415E+03</totfact>
</mgrwt>
</event>
<event>
 6    2  0.1181843E-002  0.1311893E+03  0.7546771E-02  0.1225702E+00
         21   -1    0    0  502  503  0.00000000000E+00  0.00000000000E+00  0.52878216657E+01  0.52878216657E+01  0.00000000000E+00 0. -1.
          2   -1    0    0  503    0 -0.00000000000E+00 -0.00000000000E+00 -0.16333307878E+04  0.16333307878E+04  0.00000000000E+00 0. -1.
         25    2    1    2    0    0  0.33361361825E+02  0.21674771324E+02 -0.90243526557E+03  0.91192107177E+03  0.12501142515E+03 0.  0.
          5    1    3    3  501    0  0.11585380188E+02  0.59741557623E+02 -0.77026088741E+03  0.77266106373E+03  0.10000000000E+00 0.  1.
         -5    1    3    3    0  501  0.21775981637E+02 -0.38066786299E+02 -0.13217437816E+03  0.13926000803E+03  0.10000000000E+00 0.  1.
          2    1    1    2  502    0 -0.33361361825E+02 -0.21674771324E+02 -0.72560770058E+03  0.72669753771E+03  0.00000000000E+00 0. -1.
<mgrwt>
<rscale>  1 0.13118930E+03</rscale>
<asrwt>0</asrwt>
<pdfrwt beam="1">  1       21 0.81350975E-03 0.13118930E+03</pdfrwt>
<pdfrwt beam="2">  1        2 0.25128205E+00 0.13118930E+03</pdfrwt>
<totfact> 0.76790346E+05</totfact>
</mgrwt>
</event>
<event>
 6    2  0.1181843E-002  0.1362379E+03  0.7546771E-02  0.1218483E+00
          2   -1    0    0  503    0 -0.00000000000E+00  0.00000000000E+00  0.26455462315E+04  0.26455462315E+04  0.00000000000E+00 0.  1.
         21   -1    0    0  502  503  0.00000000000E+00 -0.00000000000E+00 -0.25537409886E+02  0.25537409886E+02  0.00000000000E+00 0. -1.
         25    2    1    2    0    0 -0.54011115760E+02  0.27655956274E+01  0.15859960174E+03  0.20908035203E+03  0.12504363553E+03 0.  0.
          5    1    3    3  501    0 -0.30410912314E+02 -0.59604141171E+02  0.99903960543E+02  0.12024262374E+03  0.10000000000E+00 0. -1.
         -5    1    3    3    0  501 -0.23600203446E+02  0.62369736799E+02  0.58695641201E+02  0.88837728286E+02  0.10000000000E+00 0. -1.
          2    1    1    2  502    0  0.54011115760E+02 -0.27655956274E+01  0.24614092199E+04  0.24620032894E+04  0.00000000000E+00 0.  1.
<mgrwt>
<rscale>  1 0.13623788E+03</rscale>
<asrwt>0</asrwt>
<pdfrwt beam="1">  1       21 0.39288344E-02 0.13623788E+03</pdfrwt>
<pdfrwt beam="2">  1        2 0.40700690E+00 0.13623788E+03</pdfrwt>
<totfact> 0.18102835E+04</totfact>
</mgrwt>
</event>
<event>
 6    2  0.1181843E-002  0.1260023E+03  0.7546771E-02  0.1233511E+00
         21   -1    0    0  502  503  0.00000000000E+00  0.00000000000E+00  0.69175747341E+01  0.69175747341E+01  0.00000000000E+00 0. -1.
          2   -1    0    0  503    0 -0.00000000000E+00 -0.00000000000E+00 -0.16489692982E+04  0.16489692982E+04  0.00000000000E+00 0. -1.
         25    2    1    2    0    0 -0.71856817396E+01 -0.14159035706E+02 -0.16325037206E+04  0.16373591458E+04  0.12499784904E+03 0.  0.
          5    1    3    3  501    0 -0.45402049480E+00 -0.69508151059E+02 -0.99262313668E+03  0.99505391345E+03  0.10000000000E+00 0.  1.
         -5    1    3    3    0  501 -0.67316612448E+01  0.55349115354E+02 -0.63988058393E+03  0.64230523237E+03  0.10000000000E+00 0.  1.
          2    1    1    2  502    0  0.71856817396E+01  0.14159035706E+02 -0.95480028842E+01  0.18527727148E+02  0.00000000000E+00 0. -1.
<mgrwt>
<rscale>  1 0.12600228E+03</rscale>
<asrwt>0</asrwt>
<pdfrwt beam="1">  1       21 0.10642427E-02 0.12600228E+03</pdfrwt>
<pdfrwt beam="2">  1        2 0.25368748E+00 0.12600228E+03</pdfrwt>
<totfact> 0.49343463E+05</totfact>
</mgrwt>
</event>
<event>
 6    2  0.1181843E-002  0.1397273E+03  0.7546771E-02  0.1213696E+00
          2   -1    0    0  503    0 -0.00000000000E+00  0.00000000000E+00  0.97560515830E+03  0.97560515830E+03  0.00000000000E+00 0. -1.
         21   -1    0    0  502  503  0.00000000000E+00 -0.00000000000E+00 -0.26534597310E+02  0.26534597310E+02  0.00000000000E+00 0.  1.
         25    2    1    2    0    0 -0.36804237265E+02 -0.50447380615E+02  0.16771791498E+03  0.21829573572E+03  0.12499695651E+03 0.  0.
          5    1    3    3  501    0 -0.73588364168E+02 -0.27869832659E+02  0.15411619610E+03  0.17304273118E+03  0.10000000000E+00 0.  1.
         -5    1    3    3    0  501  0.36784126902E+02 -0.22577547955E+02  0.13601718881E+02  0.45253004543E+02  0.10000000000E+00 0.  1.
          2    1    1    2  502    0  0.36804237265E+02  0.50447380615E+02  0.78135264600E+03  0.78384401988E+03  0.00000000000E+00 0. -1.
<mgrwt>
<rscale>  1 0.13972734E+03</rscale>
<asrwt>0</asrwt>
<pdfrwt beam="1">  1       21 0.40822465E-02 0.13972734E+03</pdfrwt>
<pdfrwt beam="2">  1        2 0.15009307E+00 0.13972734E+03</pdfrwt>
<totfact> 0.13047097E+05</totfact>
</mgrwt>
</event>
<event>
 6    2  0.1181843E-002  0.1286363E+03  0.7546771E-02  0.1229493E+00
         21   -1    0    0  502  503  0.00000000000E+00  0.00000000000E+00  0.13976425946E+02  0.13976425946E+02  0.00000000000E+00 0.  1.
          2   -1    0    0  503    0 -0.00000000000E+00 -0.00000000000E+00 -0.54710723017E+03  0.54710723017E+03  0.00000000000E+00 0.  1.
         25    2    1    2    0    0  0.10435755688E+02  0.28534131684E+02 -0.30612906015E+03  0.33205768929E+03  0.12499682348E+03 0.  0.
          5    1    3    3  501    0 -0.31696668026E+02 -0.29214720546E+02 -0.19656255557E+03  0.20123376186E+03  0.10000000000E+00 0.  1.
         -5    1    3    3    0  501  0.42132423714E+02  0.57748852230E+02 -0.10956650457E+03  0.13082392742E+03  0.10000000000E+00 0.  1.
          2    1    1    2  502    0 -0.10435755688E+02 -0.28534131684E+02 -0.22700174408E+03  0.22902596683E+03  0.00000000000E+00 0.  1.
<mgrwt>
<rscale>  1 0.12863634E+03</rscale>
<asrwt>0</asrwt>
<pdfrwt beam="1">  1       21 0.21502194E-02 0.12863634E+03</pdfrwt>
<pdfrwt beam="2">  1        2 0.84170341E-01 0.12863634E+03</pdfrwt>
<totfact> 0.75121483E+05</totfact>
</mgrwt>
</event>
<event>
 6    2  0.1181843E-002  0.1265725E+03  0.7546771E-02  0.1232632E+00
          1   -1    0    0  503    0 -0.00000000000E+00  0.00000000000E+00  0.13487436840E+04  0.13487436840E+04  0.00000000000E+00 0. -1.
         21   -1    0    0  502  503  0.00000000000E+00 -0.00000000000E+00 -0.12462568286E+02  0.12462568286E+02  0.00000000000E+00 0. -1.
         25    2    1    2    0    0 -0.19791008719E+02 -0.16163537260E+01  0.31150762985E+03  0.33624040215E+03  0.12500523171E+03 0.  0.
          5    1    3    3  501    0 -0.12922783250E+02 -0.58651456570E+02  0.22120842693E+03  0.22921642574E+03  0.10000000000E+00 0.  1.
         -5    1    3    3    0  501 -0.68682254683E+01  0.57035102844E+02  0.90299202924E+02  0.10702397641E+03  0.10000000000E+00 0.  1.
          1    1    1    2  502    0  0.19791008719E+02  0.16163537260E+01  0.10247734858E+04  0.10249658501E+04  0.00000000000E+00 0. -1.
<mgrwt>
<rscale>  1 0.12657253E+03</rscale>
<asrwt>0</asrwt>
<pdfrwt beam="1">  1       21 0.19173193E-02 0.12657253E+03</pdfrwt>
<pdfrwt beam="2">  1        1 0.20749891E+00 0.12657253E+03</pdfrwt>
<totfact> 0.13475009E+05</totfact>
</mgrwt>
</event>
<event>
 6    2  0.1181843E-002  0.1322803E+03  0.7546771E-02  0.1224111E+00
          1   -1    0    0  503    0 -0.00000000000E+00  0.00000000000E+00  0.34912868107E+03  0.34912868107E+03  0.00000000000E+00 0. -1.
         21   -1    0    0  502  503  0.00000000000E+00 -0.00000000000E+00 -0.18346327294E+03  0.18346327294E+03  0.00000000000E+00 0.  1.
         25    2    1    2    0    0 -0.28696843625E+02  0.32391835583E+02 -0.15799037246E+03  0.20605588532E+03  0.12500132096E+03 0.  0.
          5    1    3    3  501    0 -0.44478427067E+02  0.20851223054E+02 -0.23365753136E+01  0.49178995124E+02  0.10000000000E+00 0. -1.
         -5    1    3    3    0  501  0.15781583442E+02  0.11540612529E+02 -0.15565379714E+03  0.15687689020E+03  0.10000000000E+00 0. -1.
          1    1    1    2  502    0  0.28696843625E+02 -0.32391835583E+02  0.32365578058E+03  0.32653606868E+03  0.00000000000E+00 0. -1.
<mgrwt>
<rscale>  1 0.13228027E+03</rscale>
<asrwt>0</asrwt>
<pdfrwt beam="1">  1       21 0.28225119E-01 0.13228027E+03</pdfrwt>
<pdfrwt beam="2">  1        1 0.53712105E-01 0.13228027E+03</pdfrwt>
<totfact> 0.96214345E+03</totfact>
</mgrwt>
</event>
<event>
 6    2  0.1181843E-002  0.1262260E+03  0.7546771E-02  0.1233166E+00
          4   -1    0    0  503    0 -0.00000000000E+00  0.00000000000E+00  0.17292205385E+03  0.17292205385E+03  0.00000000000E+00 0. -1.
         21   -1    0    0  502  503  0.00000000000E+00 -0.00000000000E+00 -0.30361911159E+02  0.30361911159E+02  0.00000000000E+00 0. -1.
         25    2    1    2    0    0 -0.14577637846E+02  0.97917266521E+01  0.11592971750E+03  0.17138467063E+03  0.12499848196E+03 0.  0.
          5    1    3    3  501    0 -0.49559317443E+02 -0.24702746410E+01 -0.54389125005E-01  0.49620975004E+02  0.10000000000E+00 0.  1.
         -5    1    3    3    0  501  0.34981679597E+02  0.12262001293E+02  0.11598410662E+03  0.12176369562E+03  0.10000000000E+00 0.  1.
          4    1    1    2  502    0  0.14577637846E+02 -0.97917266521E+01  0.26630425191E+02  0.31899294379E+02  0.00000000000E+00 0. -1.
<mgrwt>
<rscale>  1 0.12622601E+03</rscale>
<asrwt>0</asrwt>
<pdfrwt beam="1">  1       21 0.46710634E-02 0.12622601E+03</pdfrwt>
<pdfrwt beam="2">  1        4 0.26603392E-01 0.12622601E+03</pdfrwt>
<totfact> 0.15951400E+05</totfact>
</mgrwt>
</event>
<event>
 6    2  0.1181843E-002  0.1530005E+03  0.7546771E-02  0.1196834E+00
         21   -1    0    0  502  503  0.00000000000E+00  0.00000000000E+00  0.35701048118E+02  0.35701048118E+02  0.00000000000E+00 0.  1.
          1   -1    0    0  503    0 -0.00000000000E+00 -0.00000000000E+00 -0.54096433198E+03  0.54096433198E+03  0.00000000000E+00 0. -1.
         25    2    1    2    0    0  0.63809636600E+02  0.60917628209E+02 -0.16444101711E+03  0.22461077544E+03  0.12500610059E+03 0.  0.
          5    1    3    3  501    0  0.67266953559E+02  0.84177238785E+02 -0.16922046018E+03  0.20061461740E+03  0.10000000000E+00 0.  1.
         -5    1    3    3    0  501 -0.34573169583E+01 -0.23259610575E+02  0.47794430679E+01  0.23996158040E+02  0.10000000000E+00 0.  1.
          1    1    1    2  502    0 -0.63809636600E+02 -0.60917628209E+02 -0.34082226675E+03  0.35205460466E+03  0.00000000000E+00 0. -1.
<mgrwt>
<rscale>  1 0.15300050E+03</rscale>
<asrwt>0</asrwt>
<pdfrwt beam="1">  1       21 0.54924692E-02 0.15300050E+03</pdfrwt>
<pdfrwt beam="2">  1        1 0.83225278E-01 0.15300050E+03</pdfrwt>
<totfact> 0.10268009E+05</totfact>
</mgrwt>
</event>
<event>
 6    2  0.1181843E-002  0.2124207E+03  0.7546771E-02  0.1139663E+00
         21   -1    0    0  502  503  0.00000000000E+00  0.00000000000E+00  0.19027428147E+04  0.19027428147E+04  0.00000000000E+00 0. -1.
          3   -1    0    0  503    0 -0.00000000000E+00 -0.00000000000E+00 -0.30610407210E+02  0.30610407210E+02  0.00000000000E+00 0. -1.
         25    2    1    2    0    0 -0.55116985802E+02  0.16266683126E+03  0.15819859668E+04  0.15961836249E+04  0.12499674037E+03 0.  0.
          5    1    3    3  501    0 -0.26216701939E+02  0.15053431783E+01  0.61026843099E+02  0.66436940758E+02  0.10000000000E+00 0.  1.
         -5    1    3    3    0  501 -0.28900283863E+02  0.16116148808E+03  0.15209591237E+04  0.15297466841E+04  0.10000000000E+00 0.  1.
          3    1    1    2  502    0  0.55116985802E+02 -0.16266683126E+03  0.29014644077E+03  0.33716959710E+03  0.00000000000E+00 0. -1.
<mgrwt>
<rscale>  1 0.21242073E+03</rscale>
<asrwt>0</asrwt>
<pdfrwt beam="1">  1       21 0.29272957E+00 0.21242073E+03</pdfrwt>
<pdfrwt beam="2">  1        3 0.47092949E-02 0.21242073E+03</pdfrwt>
<totfact> 0.45827511E+02</totfact>
</mgrwt>
</event>
<event>
 6    2  0.1181843E-002  0.1269566E+03  0.7546771E-02  0.1232043E+00
         21   -1    0    0  502  503  0.00000000000E+00  0.00000000000E+00  0.10786472033E+03  0.10786472033E+03  0.00000000000E+00 0. -1.
          4   -1    0    0  503    0 -0.00000000000E+00 -0.00000000000E+00 -0.11559008601E+03  0.11559008601E+03  0.00000000000E+00 0. -1.
         25    2    1    2    0    0 -0.20856246895E+02  0.75666083757E+01  0.68366709855E+02  0.14419421994E+03  0.12500291777E+03 0.  0.
          5    1    3    3  501    0 -0.42369974732E+02  0.25072613973E+02  0.94200697419E+02  0.10629031999E+03  0.10000000000E+00 0. -1.
         -5    1    3    3    0  501  0.21513727837E+02 -0.17506005597E+02 -0.25833987565E+02  0.37903899943E+02  0.10000000000E+00 0. -1.
          4    1    1    2  502    0  0.20856246895E+02 -0.75666083757E+01 -0.76092075533E+02  0.79260586396E+02  0.00000000000E+00 0. -1.
<mgrwt>
<rscale>  1 0.12695655E+03</rscale>
<asrwt>0</asrwt>
<pdfrwt beam="1">  1       21 0.16594572E-01 0.12695655E+03</pdfrwt>
<pdfrwt beam="2">  1        4 0.17783090E-01 0.12695655E+03</pdfrwt>
<totfact> 0.36636209E+04</totfact>
</mgrwt>
</event>
<event>
 6    2  0.1181843E-002  0.1296513E+03  0.7546771E-02  0.1227974E+00
          2   -1    0    0  503    0 -0.00000000000E+00  0.00000000000E+00  0.17356966764E+04  0.17356966764E+04  0.00000000000E+00 0.  1.
         21   -1    0    0  502  503  0.00000000000E+00 -0.00000000000E+00 -0.27732909076E+02  0.27732909076E+02  0.00000000000E+00 0. -1.
         25    2    1    2    0    0 -0.93622705666E+01  0.33098199405E+02  0.12501154295E+03  0.18010369118E+03  0.12500524305E+03 0.  0.
          5    1    3    3  501    0 -0.50599645979E+02  0.20774409976E+02  0.78147287520E+01  0.55253780582E+02  0.10000000000E+00 0.  1.
         -5    1    3    3    0  501  0.41237375413E+02  0.12323789429E+02  0.11719681420E+03  0.12484991059E+03  0.10000000000E+00 0.  1.
          2    1    1    2  502    0  0.93622705666E+01 -0.33098199405E+02  0.15829522244E+04  0.15833258943E+04  0.00000000000E+00 0.  1.
<mgrwt>
<rscale>  1 0.12965128E+03</rscale>
<asrwt>0</asrwt>
<pdfrwt beam="1">  1       21 0.42666028E-02 0.12965128E+03</pdfrwt>
<pdfrwt beam="2">  1        2 0.26703017E+00 0.12965128E+03</pdfrwt>
<totfact> 0.47067988E+04</totfact>
</mgrwt>
</event>
<event>
 6    2  0.1181843E-002  0.1719341E+03  0.7546771E-02  0.1175846E+00
          1   -1    0    0  503    0 -0.00000000000E+00  0.00000000000E+00  0.13610269711E+03  0.13610269711E+03  0.00000000000E+00 0.  1.
         21   -1    0    0  502  503  0.00000000000E+00 -0.00000000000E+00 -0.19049681468E+03  0.19049681468E+03  0.00000000000E+00 0.  1.
         25    2    1    2    0    0  0.31816244673E+02 -0.11368621949E+03 -0.10131249683E+03  0.19956343723E+03  0.12499805414E+03 0.  0.
          5    1    3    3  501    0 -0.10623613904E+02 -0.53154018256E+02  0.19768516546E+02  0.57697617590E+02  0.10000000000E+00 0.  1.
         -5    1    3    3    0  501  0.42439858577E+02 -0.60532201234E+02 -0.12108101337E+03  0.14186581964E+03  0.10000000000E+00 0.  1.
          1    1    1    2  502    0 -0.31816244673E+02  0.11368621949E+03  0.46918379265E+02  0.12703607456E+03  0.00000000000E+00 0.  1.
<mgrwt>
<rscale>  1 0.17193413E+03</rscale>
<asrwt>0</asrwt>
<pdfrwt beam="1">  1       21 0.29307202E-01 0.17193413E+03</pdfrwt>
<pdfrwt beam="2">  1        1 0.20938877E-01 0.17193413E+03</pdfrwt>
<totfact> 0.28908776E+04</totfact>
</mgrwt>
</event>
<event>
 6    2  0.1181843E-002  0.1775989E+03  0.7546771E-02  0.1170147E+00
         21   -1    0    0  502  503  0.00000000000E+00  0.00000000000E+00  0.58299823456E+02  0.58299823456E+02  0.00000000000E+00 0.  1.
          1   -1    0    0  503    0 -0.00000000000E+00 -0.00000000000E+00 -0.11072457270E+04  0.11072457270E+04  0.00000000000E+00 0. -1.
         25    2    1    2    0    0  0.60108806151E+02  0.11092464723E+03 -0.91426658304E+02  0.19975030769E+03  0.12499602248E+03 0.  0.
          5    1    3    3  501    0  0.14459258026E+02 -0.40482343715E+01 -0.73183970830E+02  0.74708513107E+02  0.10000000000E+00 0. -1.
         -5    1    3    3    0  501  0.45649548124E+02  0.11497288160E+03 -0.18242687474E+02  0.12504179459E+03  0.10000000000E+00 0. -1.
          1    1    1    2  502    0 -0.60108806151E+02 -0.11092464723E+03 -0.95751924526E+03  0.96579524278E+03  0.00000000000E+00 0. -1.
<mgrwt>
<rscale>  1 0.17759885E+03</rscale>
<asrwt>0</asrwt>
<pdfrwt beam="1">  1       21 0.89692037E-02 0.17759885E+03</pdfrwt>
<pdfrwt beam="2">  1        1 0.17034549E+00 0.17759885E+03</pdfrwt>
<totfact> 0.14819506E+04</totfact>
</mgrwt>
</event>
<event>
 6    2  0.1181843E-002  0.1534877E+03  0.7546771E-02  0.1196252E+00
          2   -1    0    0  503    0 -0.00000000000E+00  0.00000000000E+00  0.37764562207E+03  0.37764562207E+03  0.00000000000E+00 0.  1.
         21   -1    0    0  502  503  0.00000000000E+00 -0.00000000000E+00 -0.11345574351E+03  0.11345574351E+03  0.00000000000E+00 0.  1.
         25    2    1    2    0    0 -0.88497132321E+02 -0.10105973010E+02 -0.52426523906E+02  0.16219435830E+03  0.12499838534E+03 0.  0.
          5    1    3    3  501    0 -0.22124006405E+02 -0.17799269627E+02 -0.83725391124E+02  0.88409483527E+02  0.10000000000E+00 0.  1.
         -5    1    3    3    0  501 -0.66373125916E+02  0.76932966162E+01  0.31298867218E+02  0.73784874777E+02  0.10000000000E+00 0.  1.
          2    1    1    2  502    0  0.88497132321E+02  0.10105973010E+02  0.31661640246E+03  0.32890700727E+03  0.00000000000E+00 0.  1.
<mgrwt>
<rscale>  1 0.15348769E+03</rscale>
<asrwt>0</asrwt>
<pdfrwt beam="1">  1       21 0.17454730E-01 0.15348769E+03</pdfrwt>
<pdfrwt beam="2">  1        2 0.58099326E-01 0.15348769E+03</pdfrwt>
<totfact> 0.31548916E+04</totfact>
</mgrwt>
</event>
<event>
 6    2  0.1181843E-002  0.1450993E+03  0.7546771E-02  0.1206628E+00
         21   -1    0    0  502  503  0.00000000000E+00  0.00000000000E+00  0.11181424712E+03  0.11181424712E+03  0.00000000000E+00 0. -1.
          4   -1    0    0  503    0 -0.00000000000E+00 -0.00000000000E+00 -0.13682216772E+03  0.13682216772E+03  0.00000000000E+00 0.  1.
         25    2    1    2    0    0  0.42406655878E+02  0.60249191048E+02  0.39857725514E+02  0.15047409248E+03  0.12500209894E+03 0.  0.
          5    1    3    3  501    0  0.46987350011E+02  0.81944623273E+02  0.66716148480E+02  0.11564508988E+03  0.10000000000E+00 0. -1.
         -5    1    3    3    0  501 -0.45806941330E+01 -0.21695432226E+02 -0.26858422966E+02  0.34829002604E+02  0.10000000000E+00 0. -1.
          4    1    1    2  502    0 -0.42406655878E+02 -0.60249191048E+02 -0.64865646118E+02  0.98162322359E+02  0.00000000000E+00 0.  1.
<mgrwt>
<rscale>  1 0.14509933E+03</rscale>
<asrwt>0</asrwt>
<pdfrwt beam="1">  1       21 0.17202192E-01 0.14509933E+03</pdfrwt>
<pdfrwt beam="2">  1        4 0.21049564E-01 0.14509933E+03</pdfrwt>
<totfact> 0.25727664E+04</totfact>
</mgrwt>
</event>
<event>
 6    2  0.1181843E-002  0.1530171E+03  0.7546771E-02  0.1196814E+00
         21   -1    0    0  502  503  0.00000000000E+00  0.00000000000E+00  0.91446207088E+01  0.91446207088E+01  0.00000000000E+00 0. -1.
          2   -1    0    0  503    0 -0.00000000000E+00 -0.00000000000E+00 -0.17532737782E+04  0.17532737782E+04  0.00000000000E+00 0. -1.
         25    2    1    2    0    0  0.79990507134E+02 -0.37308205936E+02 -0.82577351655E+03  0.83983102271E+03  0.12499545039E+03 0.  0.
          5    1    3    3  501    0  0.93708922310E+02 -0.61994678645E+00 -0.34614596130E+03  0.35860672468E+03  0.10000000000E+00 0. -1.
         -5    1    3    3    0  501 -0.13718415176E+02 -0.36688259149E+02 -0.47962755524E+03  0.48122429804E+03  0.10000000000E+00 0. -1.
          2    1    1    2  502    0 -0.79990507134E+02  0.37308205936E+02 -0.91835564091E+03  0.92258737616E+03  0.00000000000E+00 0. -1.
<mgrwt>
<rscale>  1 0.15301714E+03</rscale>
<asrwt>0</asrwt>
<pdfrwt beam="1">  1       21 0.14068656E-02 0.15301714E+03</pdfrwt>
<pdfrwt beam="2">  1        2 0.26973426E+00 0.15301714E+03</pdfrwt>
<totfact> 0.28112414E+05</totfact>
</mgrwt>
</event>
<event>
 6    2  0.1181843E-002  0.1725233E+03  0.7546771E-02  0.1175242E+00
         21   -1    0    0  502  503  0.00000000000E+00  0.00000000000E+00  0.47546849186E+03  0.47546849186E+03  0.00000000000E+00 0.  1.
          1   -1    0    0  503    0 -0.00000000000E+00 -0.00000000000E+00 -0.87061794488E+03  0.87061794488E+03  0.00000000000E+00 0. -1.
         25    2    1    2    0    0  0.77384191853E+02 -0.90296646641E+02  0.45554533509E+03  0.48711995308E+03  0.12498999490E+03 0.  0.
          5    1    3    3  501    0  0.19155819209E+02  0.27880258197E+02  0.47353494227E+02  0.58194652866E+02  0.10000000000E+00 0.  1.
         -5    1    3    3    0  501  0.58228372644E+02 -0.11817690484E+03  0.40819184086E+03  0.42892530021E+03  0.10000000000E+00 0.  1.
          1    1    1    2  502    0 -0.77384191853E+02  0.90296646641E+02 -0.85069478810E+03  0.85896648366E+03  0.00000000000E+00 0. -1.
<mgrwt>
<rscale>  1 0.17252332E+03</rscale>
<asrwt>0</asrwt>
<pdfrwt beam="1">  1       21 0.73148999E-01 0.17252332E+03</pdfrwt>
<pdfrwt beam="2">  1        1 0.13394122E+00 0.17252332E+03</pdfrwt>
<totfact> 0.38511190E+02</totfact>
</mgrwt>
</event>
<event>
 6    2  0.1181843E-002  0.1660502E+03  0.7546771E-02  0.1182031E+00
          2   -1    0    0  503    0 -0.00000000000E+00  0.00000000000E+00  0.17701830174E+03  0.17701830174E+03  0.00000000000E+00 0. -1.
         21   -1    0    0  502  503  0.00000000000E+00 -0.00000000000E+00 -0.12061408408E+03  0.12061408408E+03  0.00000000000E+00 0. -1.
         25    2    1    2    0    0 -0.43093806283E+02 -0.10045264917E+03  0.82261634772E+02  0.18530956141E+03  0.12499938452E+03 0.  0.
          5    1    3    3  501    0 -0.31454878680E+02  0.23685646557E+02  0.32529410625E+02  0.51074375192E+02  0.10000000000E+00 0.  1.
         -5    1    3    3    0  501 -0.11638927603E+02 -0.12413829572E+03  0.49732224147E+02  0.13423518622E+03  0.10000000000E+00 0.  1.
          2    1    1    2  502    0  0.43093806283E+02  0.10045264917E+03 -0.25857417113E+02  0.11232282441E+03  0.00000000000E+00 0. -1.
<mgrwt>
<rscale>  1 0.16605016E+03</rscale>
<asrwt>0</asrwt>
<pdfrwt beam="1">  1       21 0.18556013E-01 0.16605016E+03</pdfrwt>
<pdfrwt beam="2">  1        2 0.27233585E-01 0.16605016E+03</pdfrwt>
<totfact> 0.63639552E+04</totfact>
</mgrwt>
</event>
<event>
 6    2  0.1181843E-002  0.1422633E+03  0.7546771E-02  0.1210316E+00
          2   -1    0    0  503    0 -0.00000000000E+00  0.00000000000E+00  0.52891849126E+03  0.52891849126E+03  0.00000000000E+00 0. -1.
         21   -1    0    0  502  503  0.00000000000E+00 -0.00000000000E+00 -0.29493985305E+02  0.29493985305E+02  0.00000000000E+00 0.  1.
         25    2    1    2    0    0  0.64799149472E+02  0.20376240037E+02  0.16820474334E+03  0.22029910493E+03  0.12499895608E+03 0.  0.
          5    1    3    3  501    0  0.14418011178E+02  0.12846114724E+02  0.16825365746E+03  0.16935821491E+03  0.10000000000E+00 0. -1.
         -5    1    3    3    0  501  0.50381138294E+02  0.75301253128E+01 -0.48914122199E-01  0.50940890016E+02  0.10000000000E+00 0. -1.
          2    1    1    2  502    0 -0.64799149472E+02 -0.20376240037E+02  0.33121976261E+03  0.33811337163E+03  0.00000000000E+00 0. -1.
<mgrwt>
<rscale>  1 0.14226335E+03</rscale>
<asrwt>0</asrwt>
<pdfrwt beam="1">  1       21 0.45375366E-02 0.14226335E+03</pdfrwt>
<pdfrwt beam="2">  1        2 0.81372068E-01 0.14226335E+03</pdfrwt>
<totfact> 0.22959709E+05</totfact>
</mgrwt>
</event>
<event>
 6    2  0.1181843E-002  0.2024570E+03  0.7546771E-02  0.1147682E+00
         21   -1    0    0  502  503  0.00000000000E+00  0.00000000000E+00  0.71920470611E+03  0.71920470611E+03  0.00000000000E+00 0. -1.
          1   -1    0    0  503    0 -0.00000000000E+00 -0.00000000000E+00 -0.75788567423E+02  0.75788567423E+02  0.00000000000E+00 0. -1.
         25    2    1    2    0    0  0.15762905177E+03 -0.22816915903E+02  0.59503633205E+03  0.62853566541E+03  0.12498526560E+03 0.  0.
          5    1    3    3  501    0  0.84991067697E+02 -0.51745560769E+02  0.47479218289E+03  0.48510690737E+03  0.10000000000E+00 0.  1.
         -5    1    3    3    0  501  0.72637984075E+02  0.28928644866E+02  0.12024414916E+03  0.14342875803E+03  0.10000000000E+00 0.  1.
          1    1    1    2  502    0 -0.15762905177E+03  0.22816915903E+02  0.48379806643E+02  0.16645760813E+03  0.00000000000E+00 0. -1.
<mgrwt>
<rscale>  1 0.20245702E+03</rscale>
<asrwt>0</asrwt>
<pdfrwt beam="1">  1       21 0.11064687E+00 0.20245702E+03</pdfrwt>
<pdfrwt beam="2">  1        1 0.11659780E-01 0.20245702E+03</pdfrwt>
<totfact> 0.35666530E+03</totfact>
</mgrwt>
</event>
<event>
 6    2  0.1181843E-002  0.1544302E+03  0.7546771E-02  0.1195132E+00
          1   -1    0    0  503    0 -0.00000000000E+00  0.00000000000E+00  0.26881983416E+03  0.26881983416E+03  0.00000000000E+00 0. -1.
         21   -1    0    0  502  503  0.00000000000E+00 -0.00000000000E+00 -0.11506532948E+03  0.11506532948E+03  0.00000000000E+00 0. -1.
         25    2    1    2    0    0 -0.79769941096E+02  0.43105081853E+02 -0.48804473936E+02  0.16195852847E+03  0.12500958637E+03 0.  0.
          5    1    3    3  501    0 -0.86334258156E+02  0.40876045412E+02  0.15940849879E+02  0.96843047839E+02  0.10000000000E+00 0.  1.
         -5    1    3    3    0  501  0.65643170594E+01  0.22290364413E+01 -0.64745323815E+02  0.65115480631E+02  0.10000000000E+00 0.  1.
          1    1    1    2  502    0  0.79769941096E+02 -0.43105081853E+02  0.20255897862E+03  0.22192663518E+03  0.00000000000E+00 0. -1.
<mgrwt>
<rscale>  1 0.15443021E+03</rscale>
<asrwt>0</asrwt>
<pdfrwt beam="1">  1       21 0.17702358E-01 0.15443021E+03</pdfrwt>
<pdfrwt beam="2">  1        1 0.41356897E-01 0.15443021E+03</pdfrwt>
<totfact> 0.31848149E+04</totfact>
</mgrwt>
</event>
<event>
 6    2  0.1181843E-002  0.1265214E+03  0.7546771E-02  0.1232711E+00
          2   -1    0    0  503    0 -0.00000000000E+00  0.00000000000E+00  0.55858481728E+02  0.55858481728E+02  0.00000000000E+00 0. -1.
         21   -1    0    0  502  503  0.00000000000E+00 -0.00000000000E+00 -0.99740707641E+02  0.99740707641E+02  0.00000000000E+00 0. -1.
         25    2    1    2    0    0 -0.81937232770E+01  0.17747594884E+02 -0.48524982609E+02  0.13550766342E+03  0.12500215471E+03 0.  0.
          5    1    3    3  501    0 -0.57174773455E+02 -0.22096864935E+02 -0.11667867385E+02  0.62396917303E+02  0.10000000000E+00 0. -1.
         -5    1    3    3    0  501  0.48981050178E+02  0.39844459819E+02 -0.36857115223E+02  0.73110746115E+02  0.10000000000E+00 0. -1.
          2    1    1    2  502    0  0.81937232770E+01 -0.17747594884E+02  0.46427566956E+01  0.20091525951E+02  0.00000000000E+00 0. -1.
<mgrwt>
<rscale>  1 0.12652135E+03</rscale>
<asrwt>0</asrwt>
<pdfrwt beam="1">  1       21 0.15344724E-01 0.12652135E+03</pdfrwt>
<pdfrwt beam="2">  1        2 0.85936127E-02 0.12652135E+03</pdfrwt>
<totfact> 0.34329014E+05</totfact>
</mgrwt>
</event>
<event>
 6    2  0.1181843E-002  0.1436657E+03  0.7546771E-02  0.1208480E+00
          1   -1    0    0  503    0 -0.00000000000E+00  0.00000000000E+00  0.82460967729E+03  0.82460967729E+03  0.00000000000E+00 0.  1.
         21   -1    0    0  502  503  0.00000000000E+00 -0.00000000000E+00 -0.14019121243E+02  0.14019121243E+02  0.00000000000E+00 0.  1.
         25    2    1    2    0    0  0.10667695937E+02  0.70032801753E+02  0.56993313826E+03  0.58776153125E+03  0.12498576909E+03 0.  0.
          5    1    3    3  501    0 -0.37492880490E+02  0.84150423310E+02  0.32887656484E+03  0.34153596404E+03  0.10000000000E+00 0.  1.
         -5    1    3    3    0  501  0.48160576427E+02 -0.14117621557E+02  0.24105657342E+03  0.24622556722E+03  0.10000000000E+00 0.  1.
          1    1    1    2  502    0 -0.10667695937E+02 -0.70032801753E+02  0.24065741778E+03  0.25086726728E+03  0.00000000000E+00 0.  1.
<mgrwt>
<rscale>  1 0.14366571E+03</rscale>
<asrwt>0</asrwt>
<pdfrwt beam="1">  1       21 0.21567885E-02 0.14366571E+03</pdfrwt>
<pdfrwt beam="2">  1        1 0.12686299E+00 0.14366571E+03</pdfrwt>
<totfact> 0.26514129E+05</totfact>
</mgrwt>
</event>
