<event>
 6    1  0.4241465E-002  0.1273724E+03  0.7546771E-02  0.1231408E+00
         21   -1    0    0  503  502  0.00000000000E+00  0.00000000000E+00  0.28436255568E+03  0.28436255568E+03  0.00000000000E+00 0. -1.
         21   -1    0    0  504  503 -0.00000000000E+00 -0.00000000000E+00 -0.58485725635E+02  0.58485725635E+02  0.00000000000E+00 0. -1.
         25    2    1    2    0    0 -0.21796735597E+02  0.11167046635E+02  0.12403729115E+02  0.12797491062E+03  0.12499569848E+03 0.  0.
          5    1    3    3  501    0 -0.64880672849E+02  0.18032874912E+02 -0.23655455997E+02  0.71374203221E+02  0.10000000000E+00 0.  1.
         -5    1    3    3    0  501  0.43083937253E+02 -0.68658282765E+01  0.36059185112E+02  0.56600707399E+02  0.10000000000E+00 0.  1.
         21    1    1    2  504  502  0.21796735597E+02 -0.11167046635E+02  0.21347310093E+03  0.21487337069E+03  0.00000000000E+00 0. -1.
<mgrwt>
<rscale>  1 0.12737239E+03</rscale>
<asrwt>0</asrwt>
<pdfrwt beam="1">  1       21 0.43748085E-01 0.12737239E+03</pdfrwt>
<pdfrwt beam="2">  1       21 0.89978041E-02 0.12737239E+03</pdfrwt>
<totfact> 0.49496235E+05</totfact>
</mgrwt>
</event>
<event>
 6    1  0.4241465E-002  0.1262856E+03  0.7546771E-02  0.1233074E+00
         21   -1    0    0  503  502  0.00000000000E+00  0.00000000000E+00  0.37185111645E+03  0.37185111645E+03  0.00000000000E+00 0.  1.
         21   -1    0    0  504  503 -0.00000000000E+00 -0.00000000000E+00 -0.19965797878E+03  0.19965797878E+03  0.00000000000E+00 0.  1.
         25    2    1    2    0    0  0.18608494519E+01  0.17888194659E+02 -0.17943592209E+03  0.21942040478E+03  0.12499845450E+03 0.  0.
          5    1    3    3  501    0  0.31334950938E+02 -0.46040253478E+02 -0.85384581217E+02  0.10194175200E+03  0.10000000000E+00 0.  1.
         -5    1    3    3    0  501 -0.29474101486E+02  0.63928448137E+02 -0.94051340876E+02  0.11747865278E+03  0.10000000000E+00 0.  1.
         21    1    1    2  504  502 -0.18608494519E+01 -0.17888194659E+02  0.35162905977E+03  0.35208869045E+03  0.00000000000E+00 0.  1.
<mgrwt>
<rscale>  1 0.12628564E+03</rscale>
<asrwt>0</asrwt>
<pdfrwt beam="1">  1       21 0.57207864E-01 0.12628564E+03</pdfrwt>
<pdfrwt beam="2">  1       21 0.30716612E-01 0.12628564E+03</pdfrwt>
<totfact> 0.30359437E+04</totfact>
</mgrwt>
</event>
<event>
 6    1  0.4241465E-002  0.1387097E+03  0.7546771E-02  0.1215076E+00
         21   -1    0    0  504  502  0.00000000000E+00  0.00000000000E+00  0.54642213960E+03  0.54642213960E+03  0.00000000000E+00 0. -1.
         21   -1    0    0  502  503 -0.00000000000E+00 -0.00000000000E+00 -0.18337763645E+02  0.18337763645E+02  0.00000000000E+00 0. -1.
         25    2    1    2    0    0 -0.57834456251E+02 -0.16432698428E+02  0.33666909293E+03  0.36412424220E+03  0.12500211085E+03 0.  0.
          5    1    3    3  501    0  0.25414263115E+02  0.32841029420E+02  0.11491948400E+03  0.12219212653E+03  0.10000000000E+00 0. -1.
         -5    1    3    3    0  501 -0.83248719366E+02 -0.49273727847E+02  0.22174960893E+03  0.24193211567E+03  0.10000000000E+00 0. -1.
         21    1    1    2  504  503  0.57834456251E+02  0.16432698428E+02  0.19141528302E+03  0.20063566104E+03  0.00000000000E+00 0. -1.
<mgrwt>
<rscale>  1 0.13870972E+03</rscale>
<asrwt>0</asrwt>
<pdfrwt beam="1">  1       21 0.84064932E-01 0.13870972E+03</pdfrwt>
<pdfrwt beam="2">  1       21 0.28211948E-02 0.13870972E+03</pdfrwt>
<totfact> 0.86529520E+05</totfact>
</mgrwt>
</event>
<event>
 6    1  0.4241465E-002  0.1288081E+03  0.7546771E-02  0.1229235E+00
         21   -1    0    0  504  502  0.00000000000E+00  0.00000000000E+00  0.12977989316E+04  0.12977989316E+04  0.00000000000E+00 0. -1.
         21   -1    0    0  502  503 -0.00000000000E+00 -0.00000000000E+00 -0.49818668869E+01  0.49818668869E+01  0.00000000000E+00 0. -1.
         25    2    1    2    0    0  0.19045936868E+01  0.31041729212E+02  0.98203231183E+03  0.99044383453E+03  0.12499724577E+03 0.  0.
          5    1    3    3  501    0  0.59405923226E+02  0.99514060667E+01  0.65201191844E+03  0.65478824515E+03  0.10000000000E+00 0.  1.
         -5    1    3    3    0  501 -0.57501329539E+02  0.21090323145E+02  0.33002039339E+03  0.33565558938E+03  0.10000000000E+00 0.  1.
         21    1    1    2  504  503 -0.19045936868E+01 -0.31041729212E+02  0.31078475284E+03  0.31233696391E+03  0.00000000000E+00 0. -1.
<mgrwt>
<rscale>  1 0.12880810E+03</rscale>
<asrwt>0</asrwt>
<pdfrwt beam="1">  1       21 0.19966110E+00 0.12880810E+03</pdfrwt>
<pdfrwt beam="2">  1       21 0.76644209E-03 0.12880810E+03</pdfrwt>
<totfact> 0.78792008E+05</totfact>
</mgrwt>
</event>
<event>
 6    1  0.4241465E-002  0.1318573E+03  0.7546771E-02  0.1224726E+00
         21   -1    0    0  504  502  0.00000000000E+00  0.00000000000E+00  0.13741561846E+04  0.13741561846E+04  0.00000000000E+00 0. -1.
         21   -1    0    0  502  503 -0.00000000000E+00 -0.00000000000E+00 -0.55469356296E+01  0.55469356296E+01  0.00000000000E+00 0. -1.
         25    2    1    2    0    0 -0.27730867906E+02 -0.31503626447E+02  0.97897602467E+03  0.98781598215E+03  0.12499951279E+03 0.  0.
          5    1    3    3  501    0 -0.66199181431E+02  0.53720193948E+01  0.32765618290E+03  0.33431986840E+03  0.10000000000E+00 0. -1.
         -5    1    3    3    0  501  0.38468313525E+02 -0.36875645842E+02  0.65131984178E+03  0.65349611376E+03  0.10000000000E+00 0. -1.
         21    1    1    2  504  503  0.27730867906E+02  0.31503626447E+02  0.38963322431E+03  0.39188713809E+03  0.00000000000E+00 0.  1.
<mgrwt>
<rscale>  1 0.13185734E+03</rscale>
<asrwt>0</asrwt>
<pdfrwt beam="1">  1       21 0.21140837E+00 0.13185734E+03</pdfrwt>
<pdfrwt beam="2">  1       21 0.85337581E-03 0.13185734E+03</pdfrwt>
<totfact> 0.56240711E+05</totfact>
</mgrwt>
</event>
<event>
 6    1  0.4241465E-002  0.1272561E+03  0.7546771E-02  0.1231585E+00
         21   -1    0    0  503  502  0.00000000000E+00  0.00000000000E+00  0.87160100240E+03  0.87160100240E+03  0.00000000000E+00 0.  1.
         21   -1    0    0  504  503 -0.00000000000E+00 -0.00000000000E+00 -0.23641752185E+02  0.23641752185E+02  0.00000000000E+00 0. -1.
         25    2    1    2    0    0 -0.17235789990E+02 -0.16502257294E+02  0.14929507532E+03  0.19617120872E+03  0.12499890665E+03 0.  0.
          5    1    3    3  501    0  0.31403673631E+02  0.16055690516E+02 -0.57750673945E+00  0.35274912183E+02  0.10000000000E+00 0.  1.
         -5    1    3    3    0  501 -0.48639463621E+02 -0.32557947810E+02  0.14987258205E+03  0.16089629654E+03  0.10000000000E+00 0.  1.
         21    1    1    2  504  502  0.17235789990E+02  0.16502257294E+02  0.69866417490E+03  0.69907154586E+03  0.00000000000E+00 0.  1.
<mgrwt>
<rscale>  1 0.12725613E+03</rscale>
<asrwt>0</asrwt>
<pdfrwt beam="1">  1       21 0.13409244E+00 0.12725613E+03</pdfrwt>
<pdfrwt beam="2">  1       21 0.36371933E-02 0.12725613E+03</pdfrwt>
<totfact> 0.18820957E+05</totfact>
</mgrwt>
</event>
<event>
 6    1  0.4241465E-002  0.1299438E+03  0.7546771E-02  0.1227539E+00
         21   -1    0    0  504  502  0.00000000000E+00  0.00000000000E+00  0.50833103819E+02  0.50833103819E+02  0.00000000000E+00 0.  1.
         21   -1    0    0  502  503 -0.00000000000E+00 -0.00000000000E+00 -0.13462730962E+03  0.13462730962E+03  0.00000000000E+00 0.  1.
         25    2    1    2    0    0  0.31920392206E+02  0.15528436635E+02 -0.64962416935E+02  0.14527733174E+03  0.12500137488E+03 0.  0.
          5    1    3    3  501    0  0.62325191877E+02  0.20137176587E+02 -0.85938301408E+02  0.10805247370E+03  0.10000000000E+00 0.  1.
         -5    1    3    3    0  501 -0.30404799670E+02 -0.46087399528E+01  0.20975884473E+02  0.37224858044E+02  0.10000000000E+00 0.  1.
         21    1    1    2  504  503 -0.31920392206E+02 -0.15528436635E+02 -0.18831788870E+02  0.40183081701E+02  0.00000000000E+00 0.  1.
<mgrwt>
<rscale>  1 0.12994379E+03</rscale>
<asrwt>0</asrwt>
<pdfrwt beam="1">  1       21 0.78204776E-02 0.12994379E+03</pdfrwt>
<pdfrwt beam="2">  1       21 0.20711894E-01 0.12994379E+03</pdfrwt>
<totfact> 0.26762313E+06</totfact>
</mgrwt>
</event>
<event>
 6    1  0.4241465E-002  0.1261933E+03  0.7546771E-02  0.1233216E+00
         21   -1    0    0  503  502  0.00000000000E+00  0.00000000000E+00  0.75415751223E+02  0.75415751223E+02  0.00000000000E+00 0.  1.
         21   -1    0    0  504  503 -0.00000000000E+00 -0.00000000000E+00 -0.68284522526E+02  0.68284522526E+02  0.00000000000E+00 0.  1.
         25    2    1    2    0    0  0.15444484686E+02 -0.78132019191E+01  0.54585077403E+01  0.12631130521E+03  0.12500068914E+03 0.  0.
          5    1    3    3  501    0  0.74198897362E+01  0.54154249400E+02  0.26010275692E+02  0.60533312592E+02  0.10000000000E+00 0. -1.
         -5    1    3    3    0  501  0.80245949502E+01 -0.61967451319E+02 -0.20551767952E+02  0.65777992619E+02  0.10000000000E+00 0. -1.
         21    1    1    2  504  502 -0.15444484686E+02  0.78132019191E+01  0.16727209566E+01  0.17388968539E+02  0.00000000000E+00 0.  1.
<mgrwt>
<rscale>  1 0.12619331E+03</rscale>
<asrwt>0</asrwt>
<pdfrwt beam="1">  1       21 0.11602423E-01 0.12619331E+03</pdfrwt>
<pdfrwt beam="2">  1       21 0.10505311E-01 0.12619331E+03</pdfrwt>
<totfact> 0.45639921E+06</totfact>
</mgrwt>
</event>
<event>
 6    1  0.4241465E-002  0.1285123E+03  0.7546771E-02  0.1229680E+00
         21   -1    0    0  504  502  0.00000000000E+00  0.00000000000E+00  0.13916854833E+02  0.13916854833E+02  0.00000000000E+00 0. -1.
         21   -1    0    0  502  503 -0.00000000000E+00 -0.00000000000E+00 -0.45103473398E+03  0.45103473398E+03  0.00000000000E+00 0. -1.
         25    2    1    2    0    0  0.10456242121E+02  0.27951187383E+02 -0.36101712824E+03  0.38320853918E+03  0.12499926295E+03 0.  0.
          5    1    3    3  501    0  0.37114178033E+01  0.71170297069E+02 -0.29861904512E+03  0.30700542326E+03  0.10000000000E+00 0. -1.
         -5    1    3    3    0  501  0.67448243181E+01 -0.43219109686E+02 -0.62398083126E+02  0.76203115914E+02  0.10000000000E+00 0. -1.
         21    1    1    2  504  503 -0.10456242121E+02 -0.27951187383E+02 -0.76100750904E+02  0.81743049635E+02  0.00000000000E+00 0. -1.
<mgrwt>
<rscale>  1 0.12851232E+03</rscale>
<asrwt>0</asrwt>
<pdfrwt beam="1">  1       21 0.21410546E-02 0.12851232E+03</pdfrwt>
<pdfrwt beam="2">  1       21 0.69389958E-01 0.12851232E+03</pdfrwt>
<totfact> 0.20735325E+06</totfact>
</mgrwt>
</event>
<event>
 6    1  0.4241465E-002  0.1292902E+03  0.7546771E-02  0.1228513E+00
         21   -1    0    0  503  502  0.00000000000E+00  0.00000000000E+00  0.37055252000E+03  0.37055252000E+03  0.00000000000E+00 0.  1.
         21   -1    0    0  504  503 -0.00000000000E+00 -0.00000000000E+00 -0.25804713820E+02  0.25804713820E+02  0.00000000000E+00 0.  1.
         25    2    1    2    0    0  0.15589652130E+02  0.29118563991E+02  0.14656585874E+03  0.19544179809E+03  0.12500006988E+03 0.  0.
          5    1    3    3  501    0 -0.30951690045E+02  0.34282573565E+02  0.14089522071E+03  0.14827263802E+03  0.10000000000E+00 0.  1.
         -5    1    3    3    0  501  0.46541342175E+02 -0.51640095739E+01  0.56706380309E+01  0.47169160073E+02  0.10000000000E+00 0.  1.
         21    1    1    2  504  502 -0.15589652130E+02 -0.29118563991E+02  0.19818194745E+03  0.20091543573E+03  0.00000000000E+00 0.  1.
<mgrwt>
<rscale>  1 0.12929016E+03</rscale>
<asrwt>0</asrwt>
<pdfrwt beam="1">  1       21 0.57008076E-01 0.12929016E+03</pdfrwt>
<pdfrwt beam="2">  1       21 0.39699562E-02 0.12929016E+03</pdfrwt>
<totfact> 0.11485710E+06</totfact>
</mgrwt>
</event>
<event>
 6    1  0.4241465E-002  0.1284651E+03  0.7546771E-02  0.1229751E+00
         21   -1    0    0  504  502  0.00000000000E+00  0.00000000000E+00  0.38925937370E+02  0.38925937370E+02  0.00000000000E+00 0. -1.
         21   -1    0    0  502  503 -0.00000000000E+00 -0.00000000000E+00 -0.16616761796E+03  0.16616761796E+03  0.00000000000E+00 0. -1.
         25    2    1    2    0    0  0.48350301843E+01  0.29211826423E+02 -0.11701090731E+03  0.17376661737E+03  0.12500630610E+03 0.  0.
          5    1    3    3  501    0  0.58565896849E+02  0.38051281312E+02 -0.43486966406E+02  0.82273875139E+02  0.10000000000E+00 0.  1.
         -5    1    3    3    0  501 -0.53730866665E+02 -0.88394548891E+01 -0.73523940905E+02  0.91492742234E+02  0.10000000000E+00 0.  1.
         21    1    1    2  504  503 -0.48350301843E+01 -0.29211826423E+02 -0.10230773279E+02  0.31326937957E+02  0.00000000000E+00 0. -1.
<mgrwt>
<rscale>  1 0.12846511E+03</rscale>
<asrwt>0</asrwt>
<pdfrwt beam="1">  1       21 0.59886058E-02 0.12846511E+03</pdfrwt>
<pdfrwt beam="2">  1       21 0.25564249E-01 0.12846511E+03</pdfrwt>
<totfact> 0.28447949E+06</totfact>
</mgrwt>
</event>
<event>
 6    1  0.4241465E-002  0.1265672E+03  0.7546771E-02  0.1232640E+00
         21   -1    0    0  503  502  0.00000000000E+00  0.00000000000E+00  0.15992676954E+03  0.15992676954E+03  0.00000000000E+00 0.  1.
         21   -1    0    0  504  503 -0.00000000000E+00 -0.00000000000E+00 -0.34243771942E+02  0.34243771942E+02  0.00000000000E+00 0.  1.
         25    2    1    2    0    0  0.19848378032E+02 -0.10920674011E+00  0.97829327713E+02  0.15996824678E+03  0.12500117032E+03 0.  0.
          5    1    3    3  501    0  0.33396907580E+02 -0.37496161675E+02 -0.42739444337E+01  0.50394366523E+02  0.10000000000E+00 0.  1.
         -5    1    3    3    0  501 -0.13548529548E+02  0.37386954935E+02  0.10210327215E+03  0.10957388026E+03  0.10000000000E+00 0.  1.
         21    1    1    2  504  502 -0.19848378032E+02  0.10920674011E+00  0.27853669884E+02  0.34202294698E+02  0.00000000000E+00 0.  1.
<mgrwt>
<rscale>  1 0.12656723E+03</rscale>
<asrwt>0</asrwt>
<pdfrwt beam="1">  1       21 0.24604118E-01 0.12656723E+03</pdfrwt>
<pdfrwt beam="2">  1       21 0.52682727E-02 0.12656723E+03</pdfrwt>
<totfact> 0.37950445E+06</totfact>
</mgrwt>
</event>
<event>
 6    1  0.4241465E-002  0.1262773E+03  0.7546771E-02  0.1233086E+00
         21   -1    0    0  503  502  0.00000000000E+00  0.00000000000E+00  0.95616753905E+02  0.95616753905E+02  0.00000000000E+00 0.  1.
         21   -1    0    0  504  503 -0.00000000000E+00 -0.00000000000E+00 -0.68997943357E+02  0.68997943357E+02  0.00000000000E+00 0.  1.
         25    2    1    2    0    0 -0.15343628695E+02  0.92024710720E+01 -0.70641434694E+01  0.12647477321E+03  0.12500341483E+03 0.  0.
          5    1    3    3  501    0 -0.24614336650E+02  0.59478904471E+02 -0.29298511365E+02  0.70724949021E+02  0.10000000000E+00 0.  1.
         -5    1    3    3    0  501  0.92707079550E+01 -0.50276433399E+02  0.22234367896E+02  0.55749824188E+02  0.10000000000E+00 0.  1.
         21    1    1    2  504  502  0.15343628695E+02 -0.92024710720E+01  0.33682954017E+02  0.38139924052E+02  0.00000000000E+00 0. -1.
<mgrwt>
<rscale>  1 0.12627734E+03</rscale>
<asrwt>0</asrwt>
<pdfrwt beam="1">  1       21 0.14710270E-01 0.12627734E+03</pdfrwt>
<pdfrwt beam="2">  1       21 0.10615068E-01 0.12627734E+03</pdfrwt>
<totfact> 0.29358616E+06</totfact>
</mgrwt>
</event>
<event>
 6    1  0.4241465E-002  0.1366677E+03  0.7546771E-02  0.1217884E+00
         21   -1    0    0  503  502  0.00000000000E+00  0.00000000000E+00  0.44369209137E+02  0.44369209137E+02  0.00000000000E+00 0.  1.
         21   -1    0    0  504  503 -0.00000000000E+00 -0.00000000000E+00 -0.32493244114E+03  0.32493244114E+03  0.00000000000E+00 0.  1.
         25    2    1    2    0    0 -0.28093850223E+02 -0.47477743413E+02 -0.28279691193E+03  0.31408942458E+03  0.12503868481E+03 0.  0.
          5    1    3    3  501    0 -0.52627011933E+02  0.26296578864E+02 -0.12747933633E+03  0.14039979927E+03  0.10000000000E+00 0.  1.
         -5    1    3    3    0  501  0.24533161709E+02 -0.73774322276E+02 -0.15531757560E+03  0.17368962531E+03  0.10000000000E+00 0.  1.
         21    1    1    2  504  502  0.28093850223E+02  0.47477743413E+02  0.22336799249E+01  0.55212225693E+02  0.00000000000E+00 0.  1.
<mgrwt>
<rscale>  1 0.13666775E+03</rscale>
<asrwt>0</asrwt>
<pdfrwt beam="1">  1       21 0.68260320E-02 0.13666775E+03</pdfrwt>
<pdfrwt beam="2">  1       21 0.49989608E-01 0.13666775E+03</pdfrwt>
<totfact> 0.60615817E+05</totfact>
</mgrwt>
</event>
<event>
 6    1  0.4241465E-002  0.1262309E+03  0.7546771E-02  0.1233158E+00
         21   -1    0    0  503  502  0.00000000000E+00  0.00000000000E+00  0.46990893209E+02  0.46990893209E+02  0.00000000000E+00 0.  1.
         21   -1    0    0  504  503 -0.00000000000E+00 -0.00000000000E+00 -0.25307150515E+04  0.25307150515E+04  0.00000000000E+00 0. -1.
         25    2    1    2    0    0  0.15866251770E+02  0.75543472709E+01 -0.25274400246E+04  0.25305903095E+04  0.12500172079E+03 0.  0.
          5    1    3    3  501    0  0.14447415476E+01 -0.11587169222E+02 -0.20941450236E+02  0.23977158020E+02  0.10000000000E+00 0.  1.
         -5    1    3    3    0  501  0.14421510222E+02  0.19141516493E+02 -0.25064985744E+04  0.25066131515E+04  0.10000000000E+00 0.  1.
         21    1    1    2  504  502 -0.15866251770E+02 -0.75543472709E+01  0.43715866371E+02  0.47115635202E+02  0.00000000000E+00 0.  1.
<mgrwt>
<rscale>  1 0.12623088E+03</rscale>
<asrwt>0</asrwt>
<pdfrwt beam="1">  1       21 0.72293654E-02 0.12623088E+03</pdfrwt>
<pdfrwt beam="2">  1       21 0.38934093E+00 0.12623088E+03</pdfrwt>
<totfact> 0.16346650E+03</totfact>
</mgrwt>
</event>
<event>
 6    1  0.4241465E-002  0.1269253E+03  0.7546771E-02  0.1232091E+00
         21   -1    0    0  504  502  0.00000000000E+00  0.00000000000E+00  0.25311821084E+02  0.25311821084E+02  0.00000000000E+00 0. -1.
         21   -1    0    0  502  503 -0.00000000000E+00 -0.00000000000E+00 -0.21993701399E+03  0.21993701399E+03  0.00000000000E+00 0. -1.
         25    2    1    2    0    0 -0.67651058505E+01  0.20948279012E+02 -0.17099163934E+03  0.21295112765E+03  0.12500177996E+03 0.  0.
          5    1    3    3  501    0  0.42176044055E+02 -0.30177155803E+02 -0.10032904104E+03  0.11293983310E+03  0.10000000000E+00 0. -1.
         -5    1    3    3    0  501 -0.48941149906E+02  0.51125434815E+02 -0.70662598300E+02  0.10001129455E+03  0.10000000000E+00 0. -1.
         21    1    1    2  504  503  0.67651058505E+01 -0.20948279012E+02 -0.23633553566E+02  0.32297707424E+02  0.00000000000E+00 0. -1.
<mgrwt>
<rscale>  1 0.12692534E+03</rscale>
<asrwt>0</asrwt>
<pdfrwt beam="1">  1       21 0.38941263E-02 0.12692534E+03</pdfrwt>
<pdfrwt beam="2">  1       21 0.33836463E-01 0.12692534E+03</pdfrwt>
<totfact> 0.34112857E+06</totfact>
</mgrwt>
</event>
<event>
 6    1  0.4241465E-002  0.1285315E+03  0.7546771E-02  0.1229651E+00
         21   -1    0    0  503  502  0.00000000000E+00  0.00000000000E+00  0.60915791460E+03  0.60915791460E+03  0.00000000000E+00 0.  1.
         21   -1    0    0  504  503 -0.00000000000E+00 -0.00000000000E+00 -0.41817695542E+02  0.41817695542E+02  0.00000000000E+00 0. -1.
         25    2    1    2    0    0  0.28702825122E+02  0.84302419914E+01  0.58434128329E+02  0.14119101805E+03  0.12500174029E+03 0.  0.
          5    1    3    3  501    0 -0.24774251934E+02 -0.39528158624E+02  0.50775304054E+02  0.68952015089E+02  0.10000000000E+00 0.  1.
         -5    1    3    3    0  501  0.53477077057E+02  0.47958400615E+02  0.76588242751E+01  0.72239002965E+02  0.10000000000E+00 0.  1.
         21    1    1    2  504  502 -0.28702825122E+02 -0.84302419914E+01  0.50890609073E+03  0.50978459209E+03  0.00000000000E+00 0.  1.
<mgrwt>
<rscale>  1 0.12853154E+03</rscale>
<asrwt>0</asrwt>
<pdfrwt beam="1">  1       21 0.93716595E-01 0.12853154E+03</pdfrwt>
<pdfrwt beam="2">  1       21 0.64334921E-02 0.12853154E+03</pdfrwt>
<totfact> 0.17094905E+05</totfact>
</mgrwt>
</event>
<event>
 6    1  0.4241465E-002  0.1260389E+03  0.7546771E-02  0.1233454E+00
         21   -1    0    0  504  502  0.00000000000E+00  0.00000000000E+00  0.50529919158E+03  0.50529919158E+03  0.00000000000E+00 0.  1.
         21   -1    0    0  502  503 -0.00000000000E+00 -0.00000000000E+00 -0.14208716761E+02  0.14208716761E+02  0.00000000000E+00 0.  1.
         25    2    1    2    0    0 -0.11282435576E+02 -0.11554111262E+02  0.27155468864E+03  0.29937896373E+03  0.12500009666E+03 0.  0.
          5    1    3    3  501    0 -0.49022179738E+01 -0.68511153307E+02  0.14430797403E+03  0.15982055950E+03  0.10000000000E+00 0.  1.
         -5    1    3    3    0  501 -0.63802176021E+01  0.56957042045E+02  0.12724671460E+03  0.13955840424E+03  0.10000000000E+00 0.  1.
         21    1    1    2  504  503  0.11282435576E+02  0.11554111262E+02  0.21953578619E+03  0.22012894461E+03  0.00000000000E+00 0.  1.
<mgrwt>
<rscale>  1 0.12603894E+03</rscale>
<asrwt>0</asrwt>
<pdfrwt beam="1">  1       21 0.77738323E-01 0.12603894E+03</pdfrwt>
<pdfrwt beam="2">  1       21 0.21859568E-02 0.12603894E+03</pdfrwt>
<totfact> 0.15614144E+06</totfact>
</mgrwt>
</event>
<event>
 6    1  0.4241465E-002  0.1475765E+03  0.7546771E-02  0.1203483E+00
         21   -1    0    0  504  502  0.00000000000E+00  0.00000000000E+00  0.41527608585E+02  0.41527608585E+02  0.00000000000E+00 0. -1.
         21   -1    0    0  502  503 -0.00000000000E+00 -0.00000000000E+00 -0.30733584896E+03  0.30733584896E+03  0.00000000000E+00 0. -1.
         25    2    1    2    0    0 -0.38631900211E+02  0.68178625265E+02 -0.17489960495E+03  0.22884209007E+03  0.12505231592E+03 0.  0.
          5    1    3    3  501    0  0.39752295547E+01  0.94640767835E+02 -0.13413278475E+03  0.16420807328E+03  0.10000000000E+00 0.  1.
         -5    1    3    3    0  501 -0.42607129766E+02 -0.26462142570E+02 -0.40766820205E+02  0.64634016786E+02  0.10000000000E+00 0.  1.
         21    1    1    2  504  503  0.38631900211E+02 -0.68178625265E+02 -0.90908635420E+02  0.12002136748E+03  0.00000000000E+00 0. -1.
<mgrwt>
<rscale>  1 0.14757652E+03</rscale>
<asrwt>0</asrwt>
<pdfrwt beam="1">  1       21 0.63888628E-02 0.14757652E+03</pdfrwt>
<pdfrwt beam="2">  1       21 0.47282439E-01 0.14757652E+03</pdfrwt>
<totfact> 0.76085909E+05</totfact>
</mgrwt>
</event>
<event>
 6    1  0.4241465E-002  0.1340807E+03  0.7546771E-02  0.1221523E+00
         21   -1    0    0  504  502  0.00000000000E+00  0.00000000000E+00  0.36380204876E+02  0.36380204876E+02  0.00000000000E+00 0.  1.
         21   -1    0    0  502  503 -0.00000000000E+00 -0.00000000000E+00 -0.23708083713E+03  0.23708083713E+03  0.00000000000E+00 0.  1.
         25    2    1    2    0    0  0.29110225291E+02 -0.38762601468E+02 -0.12343035131E+03  0.18224349541E+03  0.12501078156E+03 0.  0.
          5    1    3    3  501    0 -0.20498477654E+02 -0.53025382293E+02 -0.10138743046E+02  0.57746713015E+02  0.10000000000E+00 0. -1.
         -5    1    3    3    0  501  0.49608702945E+02  0.14262780825E+02 -0.11329160826E+03  0.12449678240E+03  0.10000000000E+00 0. -1.
         21    1    1    2  504  503 -0.29110225291E+02  0.38762601468E+02 -0.77270280950E+02  0.91217546597E+02  0.00000000000E+00 0.  1.
<mgrwt>
<rscale>  1 0.13408072E+03</rscale>
<asrwt>0</asrwt>
<pdfrwt beam="1">  1       21 0.55969547E-02 0.13408072E+03</pdfrwt>
<pdfrwt beam="2">  1       21 0.36473974E-01 0.13408072E+03</pdfrwt>
<totfact> 0.16060007E+06</totfact>
</mgrwt>
</event>
<event>
 6    1  0.4241465E-002  0.1344314E+03  0.7546771E-02  0.1221025E+00
         21   -1    0    0  503  502  0.00000000000E+00  0.00000000000E+00  0.31352039698E+02  0.31352039698E+02  0.00000000000E+00 0.  1.
         21   -1    0    0  504  503 -0.00000000000E+00 -0.00000000000E+00 -0.59490965765E+03  0.59490965765E+03  0.00000000000E+00 0. -1.
         25    2    1    2    0    0 -0.19213099129E+01  0.49248170630E+02 -0.56103017511E+03  0.57691130009E+03  0.12507084808E+03 0.  0.
          5    1    3    3  501    0  0.38389487704E+02 -0.21160866234E+02 -0.31031023775E+03  0.31339111136E+03  0.10000000000E+00 0.  1.
         -5    1    3    3    0  501 -0.40310797617E+02  0.70409036864E+02 -0.25071993736E+03  0.26352018873E+03  0.10000000000E+00 0.  1.
         21    1    1    2  504  502  0.19213099129E+01 -0.49248170630E+02 -0.25274428367E+01  0.49350397257E+02  0.00000000000E+00 0.  1.
<mgrwt>
<rscale>  1 0.13443136E+03</rscale>
<asrwt>0</asrwt>
<pdfrwt beam="1">  1       21 0.48233904E-02 0.13443136E+03</pdfrwt>
<pdfrwt beam="2">  1       21 0.91524568E-01 0.13443136E+03</pdfrwt>
<totfact> 0.29321089E+05</totfact>
</mgrwt>
</event>
<event>
 6    1  0.4241465E-002  0.1286173E+03  0.7546771E-02  0.1229522E+00
         21   -1    0    0  503  502  0.00000000000E+00  0.00000000000E+00  0.65696958284E+02  0.65696958284E+02  0.00000000000E+00 0. -1.
         21   -1    0    0  504  503 -0.00000000000E+00 -0.00000000000E+00 -0.16374913560E+03  0.16374913560E+03  0.00000000000E+00 0. -1.
         25    2    1    2    0    0  0.60115358038E+01 -0.29695825668E+02 -0.13175649370E+03  0.18412544111E+03  0.12499769521E+03 0.  0.
          5    1    3    3  501    0 -0.24330767012E+02 -0.70064193050E+02 -0.55379563544E+02  0.92562862043E+02  0.10000000000E+00 0.  1.
         -5    1    3    3    0  501  0.30342302816E+02  0.40368367383E+02 -0.76376930154E+02  0.91562579065E+02  0.10000000000E+00 0.  1.
         21    1    1    2  504  502 -0.60115358038E+01  0.29695825668E+02  0.33704316385E+02  0.45320652773E+02  0.00000000000E+00 0. -1.
<mgrwt>
<rscale>  1 0.12861728E+03</rscale>
<asrwt>0</asrwt>
<pdfrwt beam="1">  1       21 0.10107224E-01 0.12861728E+03</pdfrwt>
<pdfrwt beam="2">  1       21 0.25192175E-01 0.12861728E+03</pdfrwt>
<totfact> 0.11878109E+06</totfact>
</mgrwt>
</event>
<event>
 6    1  0.4241465E-002  0.1278131E+03  0.7546771E-02  0.1230737E+00
         21   -1    0    0  503  502  0.00000000000E+00  0.00000000000E+00  0.25617309145E+02  0.25617309145E+02  0.00000000000E+00 0.  1.
         21   -1    0    0  504  503 -0.00000000000E+00 -0.00000000000E+00 -0.41074640626E+03  0.41074640626E+03  0.00000000000E+00 0.  1.
         25    2    1    2    0    0 -0.26263338072E+02 -0.44437504506E+01 -0.38898873090E+03  0.40944891245E+03  0.12500667701E+03 0.  0.
          5    1    3    3  501    0 -0.43723303368E+01  0.35836119377E+02 -0.34164269543E+03  0.34354488217E+03  0.10000000000E+00 0. -1.
         -5    1    3    3    0  501 -0.21891007736E+02 -0.40279869828E+02 -0.47346035471E+02  0.65904030285E+02  0.10000000000E+00 0. -1.
         21    1    1    2  504  502  0.26263338072E+02  0.44437504506E+01  0.38596337867E+01  0.26914802948E+02  0.00000000000E+00 0.  1.
<mgrwt>
<rscale>  1 0.12781306E+03</rscale>
<asrwt>0</asrwt>
<pdfrwt beam="1">  1       21 0.39411243E-02 0.12781306E+03</pdfrwt>
<pdfrwt beam="2">  1       21 0.63191757E-01 0.12781306E+03</pdfrwt>
<totfact> 0.93410132E+05</totfact>
</mgrwt>
</event>
<event>
 6    1  0.4241465E-002  0.1296003E+03  0.7546771E-02  0.1228050E+00
         21   -1    0    0  504  502  0.00000000000E+00  0.00000000000E+00  0.47277113695E+03  0.47277113695E+03  0.00000000000E+00 0. -1.
         21   -1    0    0  502  503 -0.00000000000E+00 -0.00000000000E+00 -0.37511836496E+02  0.37511836496E+02  0.00000000000E+00 0. -1.
         25    2    1    2    0    0  0.33519128183E+02  0.69617333502E+01  0.77739792274E+02  0.15112813718E+03  0.12499696340E+03 0.  0.
          5    1    3    3  501    0  0.60603708020E+02  0.86824245988E+01 -0.74924880733E+01  0.61679342572E+02  0.10000000000E+00 0. -1.
         -5    1    3    3    0  501 -0.27084579837E+02 -0.17206912486E+01  0.85232280348E+02  0.89448794607E+02  0.10000000000E+00 0. -1.
         21    1    1    2  504  503 -0.33519128183E+02 -0.69617333502E+01  0.35751950818E+03  0.35915483626E+03  0.00000000000E+00 0. -1.
<mgrwt>
<rscale>  1 0.12960030E+03</rscale>
<asrwt>0</asrwt>
<pdfrwt beam="1">  1       21 0.72734017E-01 0.12960030E+03</pdfrwt>
<pdfrwt beam="2">  1       21 0.57710521E-02 0.12960030E+03</pdfrwt>
<totfact> 0.36339071E+05</totfact>
</mgrwt>
</event>
<event>
 6    1  0.4241465E-002  0.1259956E+03  0.7546771E-02  0.1233521E+00
         21   -1    0    0  504  502  0.00000000000E+00  0.00000000000E+00  0.17762649406E+03  0.17762649406E+03  0.00000000000E+00 0.  1.
         21   -1    0    0  502  503 -0.00000000000E+00 -0.00000000000E+00 -0.32029934428E+02  0.32029934428E+02  0.00000000000E+00 0.  1.
         25    2    1    2    0    0 -0.30462248386E+01  0.15514073227E+02  0.98354541567E+02  0.15983901964E+03  0.12499972159E+03 0.  0.
          5    1    3    3  501    0 -0.35294757149E+02 -0.25413850560E+02  0.98562885829E+02  0.10773224283E+03  0.10000000000E+00 0. -1.
         -5    1    3    3    0  501  0.32248532310E+02  0.40927923787E+02 -0.20834426242E+00  0.52106776805E+02  0.10000000000E+00 0. -1.
         21    1    1    2  504  503  0.30462248386E+01 -0.15514073227E+02  0.47242018065E+02  0.49817408852E+02  0.00000000000E+00 0.  1.
<mgrwt>
<rscale>  1 0.12599562E+03</rscale>
<asrwt>0</asrwt>
<pdfrwt beam="1">  1       21 0.27327152E-01 0.12599562E+03</pdfrwt>
<pdfrwt beam="2">  1       21 0.49276823E-02 0.12599562E+03</pdfrwt>
<totfact> 0.34791529E+06</totfact>
</mgrwt>
</event>
<event>
 6    1  0.4241465E-002  0.1261329E+03  0.7546771E-02  0.1233309E+00
         21   -1    0    0  504  502  0.00000000000E+00  0.00000000000E+00  0.60827707907E+02  0.60827707907E+02  0.00000000000E+00 0.  1.
         21   -1    0    0  502  503 -0.00000000000E+00 -0.00000000000E+00 -0.88253102430E+02  0.88253102430E+02  0.00000000000E+00 0.  1.
         25    2    1    2    0    0 -0.65886995196E+01  0.15546001458E+02 -0.34512167582E+02  0.13076929824E+03  0.12499772210E+03 0.  0.
          5    1    3    3  501    0 -0.58290537758E+02  0.16878053591E+02 -0.47939035220E+02  0.77335739364E+02  0.10000000000E+00 0.  1.
         -5    1    3    3    0  501  0.51701838238E+02 -0.13320521332E+01  0.13426867638E+02  0.53433558881E+02  0.10000000000E+00 0.  1.
         21    1    1    2  504  503  0.65886995196E+01 -0.15546001458E+02  0.70867730591E+01  0.18311512092E+02  0.00000000000E+00 0.  1.
<mgrwt>
<rscale>  1 0.12613294E+03</rscale>
<asrwt>0</asrwt>
<pdfrwt beam="1">  1       21 0.93581090E-02 0.12613294E+03</pdfrwt>
<pdfrwt beam="2">  1       21 0.13577400E-01 0.12613294E+03</pdfrwt>
<totfact> 0.42247942E+06</totfact>
</mgrwt>
</event>
<event>
 6    1  0.4241465E-002  0.1370042E+03  0.7546771E-02  0.1217418E+00
         21   -1    0    0  503  502  0.00000000000E+00  0.00000000000E+00  0.22911204851E+03  0.22911204851E+03  0.00000000000E+00 0. -1.
         21   -1    0    0  504  503 -0.00000000000E+00 -0.00000000000E+00 -0.64918930193E+02  0.64918930193E+02  0.00000000000E+00 0.  1.
         25    2    1    2    0    0  0.12796094021E+02  0.54567323345E+02  0.18899309994E+02  0.13830165091E+03  0.12501531876E+03 0.  0.
          5    1    3    3  501    0  0.86113040430E+01  0.91641599553E+02 -0.78711141427E+01  0.92381284706E+02  0.10000000000E+00 0.  1.
         -5    1    3    3    0  501  0.41847899782E+01 -0.37074276208E+02  0.26770424137E+02  0.45920366201E+02  0.10000000000E+00 0.  1.
         21    1    1    2  504  502 -0.12796094021E+02 -0.54567323345E+02  0.14529380833E+03  0.15572932780E+03  0.00000000000E+00 0. -1.
<mgrwt>
<rscale>  1 0.13700424E+03</rscale>
<asrwt>0</asrwt>
<pdfrwt beam="1">  1       21 0.35248007E-01 0.13700424E+03</pdfrwt>
<pdfrwt beam="2">  1       21 0.99875278E-02 0.13700424E+03</pdfrwt>
<totfact> 0.63459032E+05</totfact>
</mgrwt>
</event>
<event>
 6    1  0.4241465E-002  0.1275095E+03  0.7546771E-02  0.1231199E+00
         21   -1    0    0  503  502  0.00000000000E+00  0.00000000000E+00  0.30154102998E+03  0.30154102998E+03  0.00000000000E+00 0. -1.
         21   -1    0    0  504  503 -0.00000000000E+00 -0.00000000000E+00 -0.20794544574E+02  0.20794544574E+02  0.00000000000E+00 0. -1.
         25    2    1    2    0    0 -0.18208245872E+02 -0.17426362123E+02  0.19521945978E+03  0.23317229496E+03  0.12499385324E+03 0.  0.
          5    1    3    3  501    0  0.43040310892E+02 -0.43015416386E+02  0.85676485006E+02  0.10508693778E+03  0.10000000000E+00 0. -1.
         -5    1    3    3    0  501 -0.61248556764E+02  0.25589054263E+02  0.10954297477E+03  0.12808535718E+03  0.10000000000E+00 0. -1.
         21    1    1    2  504  502  0.18208245872E+02  0.17426362123E+02  0.85527025633E+02  0.89163279595E+02  0.00000000000E+00 0. -1.
<mgrwt>
<rscale>  1 0.12750954E+03</rscale>
<asrwt>0</asrwt>
<pdfrwt beam="1">  1       21 0.46390924E-01 0.12750954E+03</pdfrwt>
<pdfrwt beam="2">  1       21 0.31991609E-02 0.12750954E+03</pdfrwt>
<totfact> 0.25140182E+06</totfact>
</mgrwt>
</event>
<event>
 6    1  0.4241465E-002  0.1269274E+03  0.7546771E-02  0.1232087E+00
         21   -1    0    0  503  502  0.00000000000E+00  0.00000000000E+00  0.12134125053E+03  0.12134125053E+03  0.00000000000E+00 0.  1.
         21   -1    0    0  504  503 -0.00000000000E+00 -0.00000000000E+00 -0.85550724638E+02  0.85550724638E+02  0.00000000000E+00 0. -1.
         25    2    1    2    0    0  0.15811771068E+02 -0.15382491885E+02 -0.35881665428E+02  0.13190173467E+03  0.12499576207E+03 0.  0.
          5    1    3    3  501    0  0.37521925381E+02  0.32533762155E+02 -0.56657939498E+02  0.75342369703E+02  0.10000000000E+00 0.  1.
         -5    1    3    3    0  501 -0.21710154313E+02 -0.47916254040E+02  0.20776274070E+02  0.56559364969E+02  0.10000000000E+00 0.  1.
         21    1    1    2  504  502 -0.15811771068E+02  0.15382491885E+02  0.71672191318E+02  0.74990240493E+02  0.00000000000E+00 0.  1.
<mgrwt>
<rscale>  1 0.12692743E+03</rscale>
<asrwt>0</asrwt>
<pdfrwt beam="1">  1       21 0.18667885E-01 0.12692743E+03</pdfrwt>
<pdfrwt beam="2">  1       21 0.13161650E-01 0.12692743E+03</pdfrwt>
<totfact> 0.13020028E+06</totfact>
</mgrwt>
</event>
<event>
 6    1  0.4241465E-002  0.1309042E+03  0.7546771E-02  0.1226120E+00
         21   -1    0    0  504  502  0.00000000000E+00  0.00000000000E+00  0.13046717247E+04  0.13046717247E+04  0.00000000000E+00 0. -1.
         21   -1    0    0  502  503 -0.00000000000E+00 -0.00000000000E+00 -0.61079966288E+01  0.61079966288E+01  0.00000000000E+00 0. -1.
         25    2    1    2    0    0  0.14978081773E+02  0.35861818669E+02  0.79371760759E+03  0.80443989637E+03  0.12500197321E+03 0.  0.
          5    1    3    3  501    0 -0.51487959325E+02 -0.47391735911E+01  0.26261307086E+03  0.26765482381E+03  0.10000000000E+00 0.  1.
         -5    1    3    3    0  501  0.66466041098E+02  0.40600992260E+02  0.53110453673E+03  0.53678507256E+03  0.10000000000E+00 0.  1.
         21    1    1    2  504  503 -0.14978081773E+02 -0.35861818669E+02  0.50484612051E+03  0.50633982498E+03  0.00000000000E+00 0. -1.
<mgrwt>
<rscale>  1 0.13090419E+03</rscale>
<asrwt>0</asrwt>
<pdfrwt beam="1">  1       21 0.20071851E+00 0.13090419E+03</pdfrwt>
<pdfrwt beam="2">  1       21 0.93969283E-03 0.13090419E+03</pdfrwt>
<totfact> 0.56325944E+05</totfact>
</mgrwt>
</event>
<event>
 6    1  0.4241465E-002  0.1264858E+03  0.7546771E-02  0.1232765E+00
         21   -1    0    0  504  502  0.00000000000E+00  0.00000000000E+00  0.65160714614E+03  0.65160714614E+03  0.00000000000E+00 0. -1.
         21   -1    0    0  502  503 -0.00000000000E+00 -0.00000000000E+00 -0.84907006232E+01  0.84907006232E+01  0.00000000000E+00 0. -1.
         25    2    1    2    0    0  0.14875852719E+02  0.12353425331E+02  0.50329068373E+03  0.51894140245E+03  0.12499907495E+03 0.  0.
          5    1    3    3  501    0  0.19558834796E+01 -0.55205255934E+02  0.27588601959E+03  0.28136195828E+03  0.10000000000E+00 0.  1.
         -5    1    3    3    0  501  0.12919969239E+02  0.67558681264E+02  0.22740466414E+03  0.23757944417E+03  0.10000000000E+00 0.  1.
         21    1    1    2  504  503 -0.14875852719E+02 -0.12353425331E+02  0.13982576179E+03  0.14115644432E+03  0.00000000000E+00 0.  1.
<mgrwt>
<rscale>  1 0.12648584E+03</rscale>
<asrwt>0</asrwt>
<pdfrwt beam="1">  1       21 0.10024721E+00 0.12648584E+03</pdfrwt>
<pdfrwt beam="2">  1       21 0.13062621E-02 0.12648584E+03</pdfrwt>
<totfact> 0.19976104E+06</totfact>
</mgrwt>
</event>
<event>
 6    1  0.4241465E-002  0.1269549E+03  0.7546771E-02  0.1232045E+00
         21   -1    0    0  503  502  0.00000000000E+00  0.00000000000E+00  0.15098035391E+02  0.15098035391E+02  0.00000000000E+00 0.  1.
         21   -1    0    0  504  503 -0.00000000000E+00 -0.00000000000E+00 -0.37409477584E+03  0.37409477584E+03  0.00000000000E+00 0.  1.
         25    2    1    2    0    0 -0.13917935031E+02  0.17283558207E+02 -0.32095823925E+03  0.34515467011E+03  0.12500049863E+03 0.  0.
          5    1    3    3  501    0  0.44924283538E+02  0.33464598819E+02 -0.87851031493E+02  0.10419157528E+03  0.10000000000E+00 0. -1.
         -5    1    3    3    0  501 -0.58842218569E+02 -0.16181040612E+02 -0.23310720776E+03  0.24096309483E+03  0.10000000000E+00 0. -1.
         21    1    1    2  504  502  0.13917935031E+02 -0.17283558207E+02 -0.38038501197E+02  0.44038141118E+02  0.00000000000E+00 0.  1.
<mgrwt>
<rscale>  1 0.12695493E+03</rscale>
<asrwt>0</asrwt>
<pdfrwt beam="1">  1       21 0.23227745E-02 0.12695493E+03</pdfrwt>
<pdfrwt beam="2">  1       21 0.57553046E-01 0.12695493E+03</pdfrwt>
<totfact> 0.27117554E+06</totfact>
</mgrwt>
</event>
<event>
 6    1  0.4241465E-002  0.1262873E+03  0.7546771E-02  0.1233071E+00
         21   -1    0    0  503  502  0.00000000000E+00  0.00000000000E+00  0.35827804678E+02  0.35827804678E+02  0.00000000000E+00 0.  1.
         21   -1    0    0  504  503 -0.00000000000E+00 -0.00000000000E+00 -0.15749881604E+03  0.15749881604E+03  0.00000000000E+00 0.  1.
         25    2    1    2    0    0 -0.16882280313E+02  0.63367395811E+01 -0.12157095115E+03  0.17529399281E+03  0.12499328820E+03 0.  0.
          5    1    3    3  501    0 -0.31668680546E+02 -0.49530041824E+02 -0.94927500675E+02  0.11165738110E+03  0.10000000000E+00 0. -1.
         -5    1    3    3    0  501  0.14786400233E+02  0.55866781405E+02 -0.26643450472E+02  0.63636611706E+02  0.10000000000E+00 0. -1.
         21    1    1    2  504  502  0.16882280313E+02 -0.63367395811E+01 -0.10006021198E+00  0.18032627904E+02  0.00000000000E+00 0. -1.
<mgrwt>
<rscale>  1 0.12628732E+03</rscale>
<asrwt>0</asrwt>
<pdfrwt beam="1">  1       21 0.55119700E-02 0.12628732E+03</pdfrwt>
<pdfrwt beam="2">  1       21 0.24230587E-01 0.12628732E+03</pdfrwt>
<totfact> 0.36190983E+06</totfact>
</mgrwt>
</event>
<event>
 6    1  0.4241465E-002  0.1268133E+03  0.7546771E-02  0.1232262E+00
         21   -1    0    0  503  502  0.00000000000E+00  0.00000000000E+00  0.23527661520E+02  0.23527661520E+02  0.00000000000E+00 0. -1.
         21   -1    0    0  504  503 -0.00000000000E+00 -0.00000000000E+00 -0.37571489593E+03  0.37571489593E+03  0.00000000000E+00 0. -1.
         25    2    1    2    0    0 -0.21250734189E+02 -0.20378036329E+01 -0.35567977723E+03  0.37761053945E+03  0.12500347686E+03 0.  0.
          5    1    3    3  501    0 -0.27588920271E+02  0.46155117017E+02 -0.29500817055E+03  0.29986876136E+03  0.10000000000E+00 0. -1.
         -5    1    3    3    0  501  0.63381860824E+01 -0.48192920650E+02 -0.60671606677E+02  0.77741778088E+02  0.10000000000E+00 0. -1.
         21    1    1    2  504  502  0.21250734189E+02  0.20378036329E+01  0.34925428223E+01  0.21632017996E+02  0.00000000000E+00 0. -1.
<mgrwt>
<rscale>  1 0.12681331E+03</rscale>
<asrwt>0</asrwt>
<pdfrwt beam="1">  1       21 0.36196405E-02 0.12681331E+03</pdfrwt>
<pdfrwt beam="2">  1       21 0.57802287E-01 0.12681331E+03</pdfrwt>
<totfact> 0.12997746E+06</totfact>
</mgrwt>
</event>
<event>
 6    1  0.4241465E-002  0.1261054E+03  0.7546771E-02  0.1233352E+00
         21   -1    0    0  503  502  0.00000000000E+00  0.00000000000E+00  0.16921884827E+02  0.16921884827E+02  0.00000000000E+00 0.  1.
         21   -1    0    0  504  503 -0.00000000000E+00 -0.00000000000E+00 -0.30145941730E+03  0.30145941730E+03  0.00000000000E+00 0.  1.
         25    2    1    2    0    0  0.16522831547E+02 -0.20745256564E+01 -0.25480690588E+03  0.28430465650E+03  0.12500108323E+03 0.  0.
          5    1    3    3  501    0  0.69789523579E+02 -0.13796072101E+02 -0.13257014990E+03  0.15045186556E+03  0.10000000000E+00 0. -1.
         -5    1    3    3    0  501 -0.53266692032E+02  0.11721546445E+02 -0.12223675598E+03  0.13385279094E+03  0.10000000000E+00 0. -1.
         21    1    1    2  504  502 -0.16522831547E+02  0.20745256564E+01 -0.29730626594E+02  0.34076645620E+02  0.00000000000E+00 0.  1.
<mgrwt>
<rscale>  1 0.12610543E+03</rscale>
<asrwt>0</asrwt>
<pdfrwt beam="1">  1       21 0.26033670E-02 0.12610543E+03</pdfrwt>
<pdfrwt beam="2">  1       21 0.46378370E-01 0.12610543E+03</pdfrwt>
<totfact> 0.35230889E+06</totfact>
</mgrwt>
</event>
<event>
 6    1  0.4241465E-002  0.1263652E+03  0.7546771E-02  0.1232951E+00
         21   -1    0    0  503  502  0.00000000000E+00  0.00000000000E+00  0.20830912983E+03  0.20830912983E+03  0.00000000000E+00 0. -1.
         21   -1    0    0  504  503 -0.00000000000E+00 -0.00000000000E+00 -0.38853071468E+02  0.38853071468E+02  0.00000000000E+00 0. -1.
         25    2    1    2    0    0  0.15558087580E+02 -0.10034736989E+02  0.66964431106E+02  0.14301190752E+03  0.12500168249E+03 0.  0.
          5    1    3    3  501    0  0.32020216307E+02 -0.32231739927E+02 -0.21548973592E+02  0.50284665396E+02  0.10000000000E+00 0.  1.
         -5    1    3    3    0  501 -0.16462128727E+02  0.22197002937E+02  0.88513404698E+02  0.92727242129E+02  0.10000000000E+00 0.  1.
         21    1    1    2  504  502 -0.15558087580E+02  0.10034736989E+02  0.10249162725E+03  0.10415029377E+03  0.00000000000E+00 0. -1.
<mgrwt>
<rscale>  1 0.12636523E+03</rscale>
<asrwt>0</asrwt>
<pdfrwt beam="1">  1       21 0.32047558E-01 0.12636523E+03</pdfrwt>
<pdfrwt beam="2">  1       21 0.59773957E-02 0.12636523E+03</pdfrwt>
<totfact> 0.18489973E+06</totfact>
</mgrwt>
</event>
<event>
 6    1  0.4241465E-002  0.1641249E+03  0.7546771E-02  0.1184117E+00
         21   -1    0    0  504  502  0.00000000000E+00  0.00000000000E+00  0.26304137413E+03  0.26304137413E+03  0.00000000000E+00 0.  1.
         21   -1    0    0  502  503 -0.00000000000E+00 -0.00000000000E+00 -0.77468760006E+02  0.77468760006E+02  0.00000000000E+00 0. -1.
         25    2    1    2    0    0  0.10275178456E+03  0.27473265885E+02  0.57215398964E+02  0.17381195102E+03  0.12499713145E+03 0.  0.
          5    1    3    3  501    0  0.75176763778E+02 -0.36635701625E+02  0.95448454318E-01  0.83628580976E+02  0.10000000000E+00 0. -1.
         -5    1    3    3    0  501  0.27575020787E+02  0.64108967510E+02  0.57119950509E+02  0.90183370046E+02  0.10000000000E+00 0. -1.
         21    1    1    2  504  503 -0.10275178456E+03 -0.27473265885E+02  0.12835721516E+03  0.16669818311E+03  0.00000000000E+00 0.  1.
<mgrwt>
<rscale>  1 0.16412493E+03</rscale>
<asrwt>0</asrwt>
<pdfrwt beam="1">  1       21 0.40467903E-01 0.16412493E+03</pdfrwt>
<pdfrwt beam="2">  1       21 0.11918271E-01 0.16412493E+03</pdfrwt>
<totfact> 0.35167999E+05</totfact>
</mgrwt>
</event>
<event>
 6    1  0.4241465E-002  0.1317021E+03  0.7546771E-02  0.1224952E+00
         21   -1    0    0  503  502  0.00000000000E+00  0.00000000000E+00  0.20451394900E+03  0.20451394900E+03  0.00000000000E+00 0. -1.
         21   -1    0    0  504  503 -0.00000000000E+00 -0.00000000000E+00 -0.40202183264E+02  0.40202183264E+02  0.00000000000E+00 0. -1.
         25    2    1    2    0    0 -0.29145207489E+02  0.29508382693E+02  0.89685840427E+02  0.15933922381E+03  0.12500100201E+03 0.  0.
          5    1    3    3  501    0  0.12061585083E+02  0.34837213326E+02 -0.20074621823E+02  0.41977538141E+02  0.10000000000E+00 0. -1.
         -5    1    3    3    0  501 -0.41206792572E+02 -0.53288306327E+01  0.10976046225E+03  0.11736168567E+03  0.10000000000E+00 0. -1.
         21    1    1    2  504  502  0.29145207489E+02 -0.29508382693E+02  0.74625925306E+02  0.85376908450E+02  0.00000000000E+00 0. -1.
<mgrwt>
<rscale>  1 0.13170208E+03</rscale>
<asrwt>0</asrwt>
<pdfrwt beam="1">  1       21 0.31463684E-01 0.13170208E+03</pdfrwt>
<pdfrwt beam="2">  1       21 0.61849514E-02 0.13170208E+03</pdfrwt>
<totfact> 0.18102149E+06</totfact>
</mgrwt>
</event>
<event>
 6    1  0.4241465E-002  0.1273650E+03  0.7546771E-02  0.1231419E+00
         21   -1    0    0  503  502  0.00000000000E+00  0.00000000000E+00  0.14885111690E+02  0.14885111690E+02  0.00000000000E+00 0.  1.
         21   -1    0    0  504  503 -0.00000000000E+00 -0.00000000000E+00 -0.38809207025E+03  0.38809207025E+03  0.00000000000E+00 0.  1.
         25    2    1    2    0    0  0.10941782394E+02 -0.21822589607E+02 -0.32100299800E+03  0.34534731540E+03  0.12500358199E+03 0.  0.
          5    1    3    3  501    0 -0.23262373776E+02 -0.53500009270E+02 -0.27007270959E+03  0.27630176888E+03  0.10000000000E+00 0. -1.
         -5    1    3    3    0  501  0.34204156170E+02  0.31677419664E+02 -0.50930288415E+02  0.69045546518E+02  0.10000000000E+00 0. -1.
         21    1    1    2  504  502 -0.10941782394E+02  0.21822589607E+02 -0.52203960564E+02  0.57629866543E+02  0.00000000000E+00 0.  1.
<mgrwt>
<rscale>  1 0.12736500E+03</rscale>
<asrwt>0</asrwt>
<pdfrwt beam="1">  1       21 0.22900170E-02 0.12736500E+03</pdfrwt>
<pdfrwt beam="2">  1       21 0.59706476E-01 0.12736500E+03</pdfrwt>
<totfact> 0.25677631E+06</totfact>
</mgrwt>
</event>
<event>
 6    1  0.4241465E-002  0.1262112E+03  0.7546771E-02  0.1233188E+00
         21   -1    0    0  504  502  0.00000000000E+00  0.00000000000E+00  0.28020326107E+03  0.28020326107E+03  0.00000000000E+00 0. -1.
         21   -1    0    0  502  503 -0.00000000000E+00 -0.00000000000E+00 -0.39108759822E+02  0.39108759822E+02  0.00000000000E+00 0. -1.
         25    2    1    2    0    0 -0.14960278851E+01  0.17365757850E+02  0.64274589949E+02  0.14163509871E+03  0.12500188250E+03 0.  0.
          5    1    3    3  501    0 -0.21693488585E+02 -0.34185964951E+02 -0.16487511443E+02  0.43716537834E+02  0.10000000000E+00 0.  1.
         -5    1    3    3    0  501  0.20197460700E+02  0.51551722800E+02  0.80762101392E+02  0.97918560874E+02  0.10000000000E+00 0.  1.
         21    1    1    2  504  503  0.14960278851E+01 -0.17365757850E+02  0.17681991130E+03  0.17767692218E+03  0.00000000000E+00 0. -1.
<mgrwt>
<rscale>  1 0.12621124E+03</rscale>
<asrwt>0</asrwt>
<pdfrwt beam="1">  1       21 0.43108193E-01 0.12621124E+03</pdfrwt>
<pdfrwt beam="2">  1       21 0.60167325E-02 0.12621124E+03</pdfrwt>
<totfact> 0.10168737E+06</totfact>
</mgrwt>
</event>
<event>
 6    1  0.4241465E-002  0.1276133E+03  0.7546771E-02  0.1231041E+00
         21   -1    0    0  504  502  0.00000000000E+00  0.00000000000E+00  0.10929433585E+02  0.10929433585E+02  0.00000000000E+00 0. -1.
         21   -1    0    0  502  503 -0.00000000000E+00 -0.00000000000E+00 -0.11742078411E+04  0.11742078411E+04  0.00000000000E+00 0. -1.
         25    2    1    2    0    0 -0.67392402078E+01  0.24809772737E+02 -0.11483288250E+04  0.11553978699E+04  0.12499682057E+03 0.  0.
          5    1    3    3  501    0 -0.18277722294E+02  0.74271478790E+02 -0.73051261715E+03  0.73450597105E+03  0.10000000000E+00 0. -1.
         -5    1    3    3    0  501  0.11538482087E+02 -0.49461706053E+02 -0.41781620790E+03  0.42089189885E+03  0.10000000000E+00 0. -1.
         21    1    1    2  504  503  0.67392402078E+01 -0.24809772737E+02 -0.14949582496E+02  0.29739404813E+02  0.00000000000E+00 0. -1.
<mgrwt>
<rscale>  1 0.12761327E+03</rscale>
<asrwt>0</asrwt>
<pdfrwt beam="1">  1       21 0.16814507E-02 0.12761327E+03</pdfrwt>
<pdfrwt beam="2">  1       21 0.18064743E+00 0.12761327E+03</pdfrwt>
<totfact> 0.30179686E+05</totfact>
</mgrwt>
</event>
<event>
 6    1  0.4241465E-002  0.1495005E+03  0.7546771E-02  0.1201088E+00
         21   -1    0    0  504  502  0.00000000000E+00  0.00000000000E+00  0.41218154906E+03  0.41218154906E+03  0.00000000000E+00 0.  1.
         21   -1    0    0  502  503 -0.00000000000E+00 -0.00000000000E+00 -0.35126957956E+03  0.35126957956E+03  0.00000000000E+00 0.  1.
         25    2    1    2    0    0  0.78415093228E+02 -0.24024179696E+02 -0.33092269004E+03  0.36312565044E+03  0.12499729265E+03 0.  0.
          5    1    3    3  501    0  0.47189819456E+02  0.49367029994E+02 -0.17804238705E+03  0.19069107032E+03  0.10000000000E+00 0. -1.
         -5    1    3    3    0  501  0.31225273772E+02 -0.73391209690E+02 -0.15288030299E+03  0.17243458013E+03  0.10000000000E+00 0. -1.
         21    1    1    2  504  503 -0.78415093228E+02  0.24024179696E+02  0.39183465955E+03  0.40032547818E+03  0.00000000000E+00 0.  1.
<mgrwt>
<rscale>  1 0.14950054E+03</rscale>
<asrwt>0</asrwt>
<pdfrwt beam="1">  1       21 0.63412546E-01 0.14950054E+03</pdfrwt>
<pdfrwt beam="2">  1       21 0.54041473E-01 0.14950054E+03</pdfrwt>
<totfact> 0.76985713E+03</totfact>
</mgrwt>
</event>
<event>
 6    1  0.4241465E-002  0.1261237E+03  0.7546771E-02  0.1233324E+00
         21   -1    0    0  503  502  0.00000000000E+00  0.00000000000E+00  0.40407266303E+02  0.40407266303E+02  0.00000000000E+00 0. -1.
         21   -1    0    0  504  503 -0.00000000000E+00 -0.00000000000E+00 -0.12928616972E+03  0.12928616972E+03  0.00000000000E+00 0. -1.
         25    2    1    2    0    0 -0.12861791332E+02  0.10814926127E+02 -0.85975573216E+02  0.15264006012E+03  0.12499920184E+03 0.  0.
          5    1    3    3  501    0 -0.14149096885E+02  0.13409350801E+02  0.30462446888E+02  0.36165982663E+02  0.10000000000E+00 0. -1.
         -5    1    3    3    0  501  0.12873055536E+01 -0.25944246742E+01 -0.11643802010E+03  0.11647407746E+03  0.10000000000E+00 0. -1.
         21    1    1    2  504  502  0.12861791332E+02 -0.10814926127E+02 -0.29033302052E+01  0.17053375902E+02  0.00000000000E+00 0. -1.
<mgrwt>
<rscale>  1 0.12612370E+03</rscale>
<asrwt>0</asrwt>
<pdfrwt beam="1">  1       21 0.62165024E-02 0.12612370E+03</pdfrwt>
<pdfrwt beam="2">  1       21 0.19890180E-01 0.12612370E+03</pdfrwt>
<totfact> 0.42657666E+06</totfact>
</mgrwt>
</event>
<event>
 6    1  0.4241465E-002  0.1260518E+03  0.7546771E-02  0.1233435E+00
         21   -1    0    0  504  502  0.00000000000E+00  0.00000000000E+00  0.14782821753E+03  0.14782821753E+03  0.00000000000E+00 0. -1.
         21   -1    0    0  502  503 -0.00000000000E+00 -0.00000000000E+00 -0.34441897297E+02  0.34441897297E+02  0.00000000000E+00 0. -1.
         25    2    1    2    0    0  0.16130342429E+02 -0.18652622077E+01  0.95729527968E+02  0.15828200396E+03  0.12500153240E+03 0.  0.
          5    1    3    3  501    0 -0.22792627880E+02 -0.21603302141E+02  0.10838456898E+03  0.11284250681E+03  0.10000000000E+00 0.  1.
         -5    1    3    3    0  501  0.38922970309E+02  0.19738039934E+02 -0.12655041015E+02  0.45439497149E+02  0.10000000000E+00 0.  1.
         21    1    1    2  504  503 -0.16130342429E+02  0.18652622077E+01  0.17656792261E+02  0.23988110866E+02  0.00000000000E+00 0. -1.
<mgrwt>
<rscale>  1 0.12605178E+03</rscale>
<asrwt>0</asrwt>
<pdfrwt beam="1">  1       21 0.22742802E-01 0.12605178E+03</pdfrwt>
<pdfrwt beam="2">  1       21 0.52987535E-02 0.12605178E+03</pdfrwt>
<totfact> 0.43559273E+06</totfact>
</mgrwt>
</event>
<event>
 6    1  0.4241465E-002  0.1299096E+03  0.7546771E-02  0.1227590E+00
         21   -1    0    0  503  502  0.00000000000E+00  0.00000000000E+00  0.19800481780E+03  0.19800481780E+03  0.00000000000E+00 0.  1.
         21   -1    0    0  504  503 -0.00000000000E+00 -0.00000000000E+00 -0.18564163582E+03  0.18564163582E+03  0.00000000000E+00 0.  1.
         25    2    1    2    0    0 -0.38947420998E+01  0.35219956382E+02 -0.16089955128E+03  0.20679739628E+03  0.12498353158E+03 0.  0.
          5    1    3    3  501    0 -0.22493611050E+02  0.46753879012E+02 -0.17380958931E+03  0.18138817789E+03  0.10000000000E+00 0.  1.
         -5    1    3    3    0  501  0.18598868950E+02 -0.11533922630E+02  0.12910038035E+02  0.25409218397E+02  0.10000000000E+00 0.  1.
         21    1    1    2  504  502  0.38947420998E+01 -0.35219956382E+02  0.17326273325E+03  0.17684905733E+03  0.00000000000E+00 0.  1.
<mgrwt>
<rscale>  1 0.12990957E+03</rscale>
<asrwt>0</asrwt>
<pdfrwt beam="1">  1       21 0.30462280E-01 0.12990957E+03</pdfrwt>
<pdfrwt beam="2">  1       21 0.28560252E-01 0.12990957E+03</pdfrwt>
<totfact> 0.12396605E+05</totfact>
</mgrwt>
</event>
<event>
 6    1  0.4241465E-002  0.1416645E+03  0.7546771E-02  0.1211107E+00
         21   -1    0    0  503  502  0.00000000000E+00  0.00000000000E+00  0.71202041226E+03  0.71202041226E+03  0.00000000000E+00 0. -1.
         21   -1    0    0  504  503 -0.00000000000E+00 -0.00000000000E+00 -0.15425811513E+02  0.15425811513E+02  0.00000000000E+00 0. -1.
         25    2    1    2    0    0  0.34654588331E+02  0.56943765908E+02  0.43469232396E+03  0.45719386846E+03  0.12500113550E+03 0.  0.
          5    1    3    3  501    0  0.36521332199E+02 -0.31809121120E+02  0.21195552136E+03  0.21741844661E+03  0.10000000000E+00 0. -1.
         -5    1    3    3    0  501 -0.18667438675E+01  0.88752887027E+02  0.22273680260E+03  0.23977542184E+03  0.10000000000E+00 0. -1.
         21    1    1    2  504  502 -0.34654588331E+02 -0.56943765908E+02  0.26190227678E+03  0.27025235531E+03  0.00000000000E+00 0. -1.
<mgrwt>
<rscale>  1 0.14166445E+03</rscale>
<asrwt>0</asrwt>
<pdfrwt beam="1">  1       21 0.10954158E+00 0.14166445E+03</pdfrwt>
<pdfrwt beam="2">  1       21 0.23732023E-02 0.14166445E+03</pdfrwt>
<totfact> 0.61969360E+05</totfact>
</mgrwt>
</event>
<event>
 6    1  0.4241465E-002  0.1260226E+03  0.7546771E-02  0.1233480E+00
         21   -1    0    0  503  502  0.00000000000E+00  0.00000000000E+00  0.19095249671E+02  0.19095249671E+02  0.00000000000E+00 0. -1.
         21   -1    0    0  504  503 -0.00000000000E+00 -0.00000000000E+00 -0.34817399935E+03  0.34817399935E+03  0.00000000000E+00 0. -1.
         25    2    1    2    0    0 -0.10062715904E+02  0.12500148035E+02 -0.32777776129E+03  0.35116941911E+03  0.12499675264E+03 0.  0.
          5    1    3    3  501    0 -0.25857209564E+02  0.63822003280E+02 -0.22365521054E+03  0.23401603918E+03  0.10000000000E+00 0. -1.
         -5    1    3    3    0  501  0.15794493660E+02 -0.51321855245E+02 -0.10412255075E+03  0.11715337993E+03  0.10000000000E+00 0. -1.
         21    1    1    2  504  502  0.10062715904E+02 -0.12500148035E+02 -0.13009883844E+01  0.16099829907E+02  0.00000000000E+00 0. -1.
<mgrwt>
<rscale>  1 0.12602262E+03</rscale>
<asrwt>0</asrwt>
<pdfrwt beam="1">  1       21 0.29377311E-02 0.12602262E+03</pdfrwt>
<pdfrwt beam="2">  1       21 0.53565224E-01 0.12602262E+03</pdfrwt>
<totfact> 0.21491162E+06</totfact>
</mgrwt>
</event>
<event>
 6    1  0.4241465E-002  0.1273829E+03  0.7546771E-02  0.1231391E+00
         21   -1    0    0  503  502  0.00000000000E+00  0.00000000000E+00  0.24734670396E+02  0.24734670396E+02  0.00000000000E+00 0. -1.
         21   -1    0    0  504  503 -0.00000000000E+00 -0.00000000000E+00 -0.41935256734E+03  0.41935256734E+03  0.00000000000E+00 0. -1.
         25    2    1    2    0    0  0.60860834002E+01  0.23762220273E+02 -0.39929016098E+03  0.41911698394E+03  0.12499892021E+03 0.  0.
          5    1    3    3  501    0  0.54738928008E+02  0.20821395135E+02 -0.32520066590E+03  0.33043208657E+03  0.10000000000E+00 0. -1.
         -5    1    3    3    0  501 -0.48652844608E+02  0.29408251380E+01 -0.74089495080E+02  0.88684897374E+02  0.10000000000E+00 0. -1.
         21    1    1    2  504  502 -0.60860834002E+01 -0.23762220273E+02  0.46722640300E+01  0.24970253795E+02  0.00000000000E+00 0. -1.
<mgrwt>
<rscale>  1 0.12738294E+03</rscale>
<asrwt>0</asrwt>
<pdfrwt beam="1">  1       21 0.38053340E-02 0.12738294E+03</pdfrwt>
<pdfrwt beam="2">  1       21 0.64515779E-01 0.12738294E+03</pdfrwt>
<totfact> 0.94693033E+05</totfact>
</mgrwt>
</event>
<event>
 6    1  0.4241465E-002  0.1272694E+03  0.7546771E-02  0.1231565E+00
         21   -1    0    0  504  502  0.00000000000E+00  0.00000000000E+00  0.44533019994E+01  0.44533019994E+01  0.00000000000E+00 0. -1.
         21   -1    0    0  502  503 -0.00000000000E+00 -0.00000000000E+00 -0.13520665257E+04  0.13520665257E+04  0.00000000000E+00 0. -1.
         25    2    1    2    0    0 -0.12295763803E+02  0.20889145682E+02 -0.12203768135E+04  0.12269951339E+04  0.12493978370E+03 0.  0.
          5    1    3    3  501    0 -0.11900710960E+02 -0.97378469676E+01 -0.11516405171E+04  0.11517431759E+04  0.10000000000E+00 0.  1.
         -5    1    3    3    0  501 -0.39505284253E+00  0.30626992650E+02 -0.68736296340E+02  0.75251957982E+02  0.10000000000E+00 0.  1.
         21    1    1    2  504  503  0.12295763803E+02 -0.20889145682E+02 -0.12723641024E+03  0.12952469380E+03  0.00000000000E+00 0. -1.
<mgrwt>
<rscale>  1 0.12726937E+03</rscale>
<asrwt>0</asrwt>
<pdfrwt beam="1">  1       21 0.68512358E-03 0.12726937E+03</pdfrwt>
<pdfrwt beam="2">  1       21 0.20801018E+00 0.12726937E+03</pdfrwt>
<totfact> 0.83330492E+05</totfact>
</mgrwt>
</event>
<event>
 6    1  0.4241465E-002  0.1307415E+03  0.7546771E-02  0.1226360E+00
         21   -1    0    0  503  502  0.00000000000E+00  0.00000000000E+00  0.20129509189E+03  0.20129509189E+03  0.00000000000E+00 0.  1.
         21   -1    0    0  504  503 -0.00000000000E+00 -0.00000000000E+00 -0.40246730722E+02  0.40246730722E+02  0.00000000000E+00 0.  1.
         25    2    1    2    0    0  0.11999008041E+02 -0.36392438473E+02  0.83747256213E+02  0.15526409316E+03  0.12499979972E+03 0.  0.
          5    1    3    3  501    0 -0.15921342682E+02 -0.46755532881E+02  0.10675686712E+03  0.11762911071E+03  0.10000000000E+00 0. -1.
         -5    1    3    3    0  501  0.27920350723E+02  0.10363094408E+02 -0.23009610909E+02  0.37634982455E+02  0.10000000000E+00 0. -1.
         21    1    1    2  504  502 -0.11999008041E+02  0.36392438473E+02  0.77301104960E+02  0.86277729455E+02  0.00000000000E+00 0.  1.
<mgrwt>
<rscale>  1 0.13074148E+03</rscale>
<asrwt>0</asrwt>
<pdfrwt beam="1">  1       21 0.30968475E-01 0.13074148E+03</pdfrwt>
<pdfrwt beam="2">  1       21 0.61918048E-02 0.13074148E+03</pdfrwt>
<totfact> 0.18629052E+06</totfact>
</mgrwt>
</event>
<event>
 6    1  0.4241465E-002  0.1973963E+03  0.7546771E-02  0.1151955E+00
         21   -1    0    0  503  502  0.00000000000E+00  0.00000000000E+00  0.90664153284E+03  0.90664153284E+03  0.00000000000E+00 0.  1.
         21   -1    0    0  504  503 -0.00000000000E+00 -0.00000000000E+00 -0.86602695576E+02  0.86602695576E+02  0.00000000000E+00 0. -1.
         25    2    1    2    0    0  0.91359658401E+02  0.12244569291E+03  0.43908301698E+02  0.20222075017E+03  0.12500303175E+03 0.  0.
          5    1    3    3  501    0  0.12723142401E+02  0.11655670651E+03  0.14874328818E+02  0.11818883129E+03  0.10000000000E+00 0.  1.
         -5    1    3    3    0  501  0.78636516000E+02  0.58889863991E+01  0.29033972879E+02  0.84031918879E+02  0.10000000000E+00 0.  1.
         21    1    1    2  504  502 -0.91359658401E+02 -0.12244569291E+03  0.77613053556E+03  0.79102347824E+03  0.00000000000E+00 0.  1.
<mgrwt>
<rscale>  1 0.19739628E+03</rscale>
<asrwt>0</asrwt>
<pdfrwt beam="1">  1       21 0.13948331E+00 0.19739628E+03</pdfrwt>
<pdfrwt beam="2">  1       21 0.13323492E-01 0.19739628E+03</pdfrwt>
<totfact> 0.17511354E+04</totfact>
</mgrwt>
</event>
<event>
 6    1  0.4241465E-002  0.1260144E+03  0.7546771E-02  0.1233492E+00
         21   -1    0    0  503  502  0.00000000000E+00  0.00000000000E+00  0.27982072703E+02  0.27982072703E+02  0.00000000000E+00 0. -1.
         21   -1    0    0  504  503 -0.00000000000E+00 -0.00000000000E+00 -0.18242555161E+03  0.18242555161E+03  0.00000000000E+00 0. -1.
         25    2    1    2    0    0 -0.15476753121E+02  0.38296862152E+01 -0.14398074639E+03  0.19133761761E+03  0.12500172879E+03 0.  0.
          5    1    3    3  501    0 -0.59603405874E+02 -0.36300897361E+01 -0.25952679049E+02  0.65109869398E+02  0.10000000000E+00 0.  1.
         -5    1    3    3    0  501  0.44126652753E+02  0.74597759513E+01 -0.11802806734E+03  0.12622774822E+03  0.10000000000E+00 0.  1.
         21    1    1    2  504  502  0.15476753121E+02 -0.38296862152E+01 -0.10462732519E+02  0.19070006697E+02  0.00000000000E+00 0. -1.
<mgrwt>
<rscale>  1 0.12601440E+03</rscale>
<asrwt>0</asrwt>
<pdfrwt beam="1">  1       21 0.43049342E-02 0.12601440E+03</pdfrwt>
<pdfrwt beam="2">  1       21 0.28065470E-01 0.12601440E+03</pdfrwt>
<totfact> 0.41443234E+06</totfact>
</mgrwt>
</event>
<event>
 6    1  0.4241465E-002  0.1271511E+03  0.7546771E-02  0.1231745E+00
         21   -1    0    0  503  502  0.00000000000E+00  0.00000000000E+00  0.17719440637E+03  0.17719440637E+03  0.00000000000E+00 0.  1.
         21   -1    0    0  504  503 -0.00000000000E+00 -0.00000000000E+00 -0.33664425413E+02  0.33664425413E+02  0.00000000000E+00 0.  1.
         25    2    1    2    0    0  0.18599250261E+02  0.14005668483E+02  0.10104186402E+03  0.16240957027E+03  0.12500127748E+03 0.  0.
          5    1    3    3  501    0  0.25678805308E+02  0.63238119410E+02  0.87286827052E+02  0.11080370466E+03  0.10000000000E+00 0.  1.
         -5    1    3    3    0  501 -0.70795550474E+01 -0.49232450927E+02  0.13755036964E+02  0.51605865615E+02  0.10000000000E+00 0.  1.
         21    1    1    2  504  502 -0.18599250261E+02 -0.14005668483E+02  0.42488116939E+02  0.48449261511E+02  0.00000000000E+00 0.  1.
<mgrwt>
<rscale>  1 0.12715113E+03</rscale>
<asrwt>0</asrwt>
<pdfrwt beam="1">  1       21 0.27260677E-01 0.12715113E+03</pdfrwt>
<pdfrwt beam="2">  1       21 0.51791425E-02 0.12715113E+03</pdfrwt>
<totfact> 0.32162233E+06</totfact>
</mgrwt>
</event>
<event>
 6    1  0.4241465E-002  0.1266836E+03  0.7546771E-02  0.1232461E+00
         21   -1    0    0  503  502  0.00000000000E+00  0.00000000000E+00  0.49087267441E+02  0.49087267441E+02  0.00000000000E+00 0. -1.
         21   -1    0    0  504  503 -0.00000000000E+00 -0.00000000000E+00 -0.17370455234E+03  0.17370455234E+03  0.00000000000E+00 0. -1.
         25    2    1    2    0    0 -0.18950264243E+02  0.64087118396E+01 -0.14614174135E+03  0.19340668191E+03  0.12509417229E+03 0.  0.
          5    1    3    3  501    0 -0.54819801257E+02  0.62295948177E+01 -0.14753057758E+03  0.15750968155E+03  0.10000000000E+00 0. -1.
         -5    1    3    3    0  501  0.35869537015E+02  0.17911702183E+00  0.13888362299E+01  0.35897000357E+02  0.10000000000E+00 0. -1.
         21    1    1    2  504  502  0.18950264243E+02 -0.64087118396E+01  0.21524456450E+02  0.29385137873E+02  0.00000000000E+00 0. -1.
<mgrwt>
<rscale>  1 0.12668361E+03</rscale>
<asrwt>0</asrwt>
<pdfrwt beam="1">  1       21 0.75518874E-02 0.12668361E+03</pdfrwt>
<pdfrwt beam="2">  1       21 0.26723777E-01 0.12668361E+03</pdfrwt>
<totfact> 0.17596393E+06</totfact>
</mgrwt>
</event>
<event>
 6    1  0.4241465E-002  0.1283201E+03  0.7546771E-02  0.1229970E+00
         21   -1    0    0  503  502  0.00000000000E+00  0.00000000000E+00  0.26857823435E+02  0.26857823435E+02  0.00000000000E+00 0. -1.
         21   -1    0    0  504  503 -0.00000000000E+00 -0.00000000000E+00 -0.24013168350E+03  0.24013168350E+03  0.00000000000E+00 0. -1.
         25    2    1    2    0    0  0.27478261597E+02 -0.92395215531E+01 -0.19240299073E+03  0.23126812950E+03  0.12500245303E+03 0.  0.
          5    1    3    3  501    0  0.36739554743E+02  0.50255547193E+02 -0.63134257862E+02  0.88664307488E+02  0.10000000000E+00 0.  1.
         -5    1    3    3    0  501 -0.92612931459E+01 -0.59495068747E+02 -0.12926873287E+03  0.14260382201E+03  0.10000000000E+00 0.  1.
         21    1    1    2  504  502 -0.27478261597E+02  0.92395215531E+01 -0.20870869337E+02  0.35721377435E+02  0.00000000000E+00 0. -1.
<mgrwt>
<rscale>  1 0.12832006E+03</rscale>
<asrwt>0</asrwt>
<pdfrwt beam="1">  1       21 0.41319728E-02 0.12832006E+03</pdfrwt>
<pdfrwt beam="2">  1       21 0.36943336E-01 0.12832006E+03</pdfrwt>
<totfact> 0.26020332E+06</totfact>
</mgrwt>
</event>
<event>
 6    1  0.4241465E-002  0.1294933E+03  0.7546771E-02  0.1228210E+00
         21   -1    0    0  504  502  0.00000000000E+00  0.00000000000E+00  0.35995429194E+03  0.35995429194E+03  0.00000000000E+00 0.  1.
         21   -1    0    0  502  503 -0.00000000000E+00 -0.00000000000E+00 -0.62591602417E+02  0.62591602417E+02  0.00000000000E+00 0.  1.
         25    2    1    2    0    0 -0.33202363913E+02  0.61737136276E+01  0.64227460825E+01  0.12965246254E+03  0.12501199009E+03 0.  0.
          5    1    3    3  501    0 -0.77832511846E+02  0.22702126246E+02 -0.30205372079E+01  0.81132114982E+02  0.10000000000E+00 0. -1.
         -5    1    3    3    0  501  0.44630147934E+02 -0.16528412619E+02  0.94432832904E+01  0.48520347563E+02  0.10000000000E+00 0. -1.
         21    1    1    2  504  503  0.33202363913E+02 -0.61737136276E+01  0.29093994344E+03  0.29289343181E+03  0.00000000000E+00 0.  1.
<mgrwt>
<rscale>  1 0.12949328E+03</rscale>
<asrwt>0</asrwt>
<pdfrwt beam="1">  1       21 0.55377582E-01 0.12949328E+03</pdfrwt>
<pdfrwt beam="2">  1       21 0.96294775E-02 0.12949328E+03</pdfrwt>
<totfact> 0.27064933E+05</totfact>
</mgrwt>
</event>
<event>
 6    1  0.4241465E-002  0.1270410E+03  0.7546771E-02  0.1231914E+00
         21   -1    0    0  503  502  0.00000000000E+00  0.00000000000E+00  0.29106382090E+02  0.29106382090E+02  0.00000000000E+00 0. -1.
         21   -1    0    0  504  503 -0.00000000000E+00 -0.00000000000E+00 -0.21017213859E+03  0.21017213859E+03  0.00000000000E+00 0. -1.
         25    2    1    2    0    0  0.13741190359E+02 -0.18047056146E+02 -0.17415233123E+03  0.21556540201E+03  0.12499956610E+03 0.  0.
          5    1    3    3  501    0  0.92332203182E+01  0.32930617937E+02 -0.15817322731E+00  0.34201066854E+02  0.10000000000E+00 0.  1.
         -5    1    3    3    0  501  0.45079700411E+01 -0.50977674083E+02 -0.17399415800E+03  0.18136433515E+03  0.10000000000E+00 0.  1.
         21    1    1    2  504  502 -0.13741190359E+02  0.18047056146E+02 -0.69134252726E+01  0.23713118669E+02  0.00000000000E+00 0. -1.
<mgrwt>
<rscale>  1 0.12704097E+03</rscale>
<asrwt>0</asrwt>
<pdfrwt beam="1">  1       21 0.44779050E-02 0.12704097E+03</pdfrwt>
<pdfrwt beam="2">  1       21 0.32334175E-01 0.12704097E+03</pdfrwt>
<totfact> 0.29542800E+06</totfact>
</mgrwt>
</event>
<event>
 6    1  0.4241465E-002  0.1265015E+03  0.7546771E-02  0.1232741E+00
         21   -1    0    0  503  502  0.00000000000E+00  0.00000000000E+00  0.40666323592E+03  0.40666323592E+03  0.00000000000E+00 0. -1.
         21   -1    0    0  504  503 -0.00000000000E+00 -0.00000000000E+00 -0.32360110705E+02  0.32360110705E+02  0.00000000000E+00 0. -1.
         25    2    1    2    0    0 -0.12627195028E+02  0.14814510185E+02  0.92903476527E+02  0.15695123165E+03  0.12499486949E+03 0.  0.
          5    1    3    3  501    0  0.42588205052E+02  0.14374145166E+02  0.91237665625E+02  0.10170886337E+03  0.10000000000E+00 0.  1.
         -5    1    3    3    0  501 -0.55215400079E+02  0.44036501934E+00  0.16658109018E+01  0.55242368280E+02  0.10000000000E+00 0.  1.
         21    1    1    2  504  502  0.12627195028E+02 -0.14814510185E+02  0.28139964869E+03  0.28207211498E+03  0.00000000000E+00 0. -1.
<mgrwt>
<rscale>  1 0.12650151E+03</rscale>
<asrwt>0</asrwt>
<pdfrwt beam="1">  1       21 0.62563571E-01 0.12650151E+03</pdfrwt>
<pdfrwt beam="2">  1       21 0.49784789E-02 0.12650151E+03</pdfrwt>
<totfact> 0.64613905E+05</totfact>
</mgrwt>
</event>
<event>
 6    1  0.4241465E-002  0.1266990E+03  0.7546771E-02  0.1232438E+00
         21   -1    0    0  503  502  0.00000000000E+00  0.00000000000E+00  0.74822036086E+02  0.74822036086E+02  0.00000000000E+00 0.  1.
         21   -1    0    0  504  503 -0.00000000000E+00 -0.00000000000E+00 -0.90568245824E+02  0.90568245824E+02  0.00000000000E+00 0.  1.
         25    2    1    2    0    0  0.20531532298E+02  0.26195174946E+01 -0.40601327327E+02  0.13304553642E+03  0.12499696512E+03 0.  0.
          5    1    3    3  501    0 -0.15215038552E+02 -0.50958773040E+02 -0.43300957485E+02  0.68580440849E+02  0.10000000000E+00 0. -1.
         -5    1    3    3    0  501  0.35746570850E+02  0.53578290535E+02  0.26996301582E+01  0.64465095572E+02  0.10000000000E+00 0. -1.
         21    1    1    2  504  502 -0.20531532298E+02 -0.26195174946E+01  0.24855117589E+02  0.32344745489E+02  0.00000000000E+00 0.  1.
<mgrwt>
<rscale>  1 0.12669904E+03</rscale>
<asrwt>0</asrwt>
<pdfrwt beam="1">  1       21 0.11511082E-01 0.12669904E+03</pdfrwt>
<pdfrwt beam="2">  1       21 0.13933576E-01 0.12669904E+03</pdfrwt>
<totfact> 0.28062605E+06</totfact>
</mgrwt>
</event>
<event>
 6    1  0.4241465E-002  0.1422618E+03  0.7546771E-02  0.1210318E+00
         21   -1    0    0  503  502  0.00000000000E+00  0.00000000000E+00  0.31377960698E+03  0.31377960698E+03  0.00000000000E+00 0.  1.
         21   -1    0    0  504  503 -0.00000000000E+00 -0.00000000000E+00 -0.36791389331E+02  0.36791389331E+02  0.00000000000E+00 0.  1.
         25    2    1    2    0    0 -0.67068096610E+02 -0.10702234210E+02  0.15110979817E+03  0.20753937781E+03  0.12500301932E+03 0.  0.
          5    1    3    3  501    0  0.35366862550E+02 -0.27781914209E+01  0.19197476843E+02  0.40337159436E+02  0.10000000000E+00 0. -1.
         -5    1    3    3    0  501 -0.10243495916E+03 -0.79240427896E+01  0.13191232133E+03  0.16720221838E+03  0.10000000000E+00 0. -1.
         21    1    1    2  504  502  0.67068096610E+02  0.10702234210E+02  0.12587841948E+03  0.14303161850E+03  0.00000000000E+00 0.  1.
<mgrwt>
<rscale>  1 0.14226181E+03</rscale>
<asrwt>0</asrwt>
<pdfrwt beam="1">  1       21 0.48273784E-01 0.14226181E+03</pdfrwt>
<pdfrwt beam="2">  1       21 0.56602140E-02 0.14226181E+03</pdfrwt>
<totfact> 0.89587638E+05</totfact>
</mgrwt>
</event>
<event>
 6    1  0.4241465E-002  0.1268665E+03  0.7546771E-02  0.1232181E+00
         21   -1    0    0  503  502  0.00000000000E+00  0.00000000000E+00  0.68797763049E+02  0.68797763049E+02  0.00000000000E+00 0.  1.
         21   -1    0    0  504  503 -0.00000000000E+00 -0.00000000000E+00 -0.80122044465E+02  0.80122044465E+02  0.00000000000E+00 0.  1.
         25    2    1    2    0    0  0.18111763092E+02 -0.11810060839E+02 -0.97369182004E+01  0.12723955795E+03  0.12501033570E+03 0.  0.
          5    1    3    3  501    0  0.51373945006E+02 -0.28951073393E+02 -0.46260768851E+02  0.74950087463E+02  0.10000000000E+00 0.  1.
         -5    1    3    3    0  501 -0.33262181915E+02  0.17141012554E+02  0.36523850650E+02  0.52289470483E+02  0.10000000000E+00 0.  1.
         21    1    1    2  504  502 -0.18111763092E+02  0.11810060839E+02 -0.15873632152E+01  0.21680249567E+02  0.00000000000E+00 0.  1.
<mgrwt>
<rscale>  1 0.12686646E+03</rscale>
<asrwt>0</asrwt>
<pdfrwt beam="1">  1       21 0.10584271E-01 0.12686646E+03</pdfrwt>
<pdfrwt beam="2">  1       21 0.12326468E-01 0.12686646E+03</pdfrwt>
<totfact> 0.40477504E+06</totfact>
</mgrwt>
</event>
<event>
 6    1  0.4241465E-002  0.1259051E+03  0.7546771E-02  0.1233662E+00
         21   -1    0    0  503  502  0.00000000000E+00  0.00000000000E+00  0.15792141141E+03  0.15792141141E+03  0.00000000000E+00 0. -1.
         21   -1    0    0  504  503 -0.00000000000E+00 -0.00000000000E+00 -0.65917050073E+02  0.65917050073E+02  0.00000000000E+00 0. -1.
         25    2    1    2    0    0 -0.51662550495E+01 -0.14752244861E+02 -0.45889254334E+01  0.12598866859E+03  0.12493105081E+03 0.  0.
          5    1    3    3  501    0  0.39761911797E+02 -0.30657592188E+01  0.43591890238E+02  0.59081904200E+02  0.10000000000E+00 0. -1.
         -5    1    3    3    0  501 -0.44928166847E+02 -0.11686485642E+02 -0.48180815671E+02  0.66906764393E+02  0.10000000000E+00 0. -1.
         21    1    1    2  504  502  0.51662550495E+01  0.14752244861E+02  0.96593286771E+02  0.97849792891E+02  0.00000000000E+00 0. -1.
<mgrwt>
<rscale>  1 0.12590507E+03</rscale>
<asrwt>0</asrwt>
<pdfrwt beam="1">  1       21 0.24295602E-01 0.12590507E+03</pdfrwt>
<pdfrwt beam="2">  1       21 0.10141085E-01 0.12590507E+03</pdfrwt>
<totfact> 0.12640376E+06</totfact>
</mgrwt>
</event>
<event>
 6    1  0.4241465E-002  0.1261964E+03  0.7546771E-02  0.1233211E+00
         21   -1    0    0  504  502  0.00000000000E+00  0.00000000000E+00  0.14953951964E+03  0.14953951964E+03  0.00000000000E+00 0.  1.
         21   -1    0    0  502  503 -0.00000000000E+00 -0.00000000000E+00 -0.78162539054E+02  0.78162539054E+02  0.00000000000E+00 0.  1.
         25    2    1    2    0    0  0.84965727135E+01 -0.15116643855E+02 -0.25954589218E+02  0.12883781263E+03  0.12499934637E+03 0.  0.
          5    1    3    3  501    0  0.16427372198E+02  0.40092360987E+02 -0.51659470522E+02  0.67423785576E+02  0.10000000000E+00 0. -1.
         -5    1    3    3    0  501 -0.79307994849E+01 -0.55209004842E+02  0.25704881303E+02  0.61414027054E+02  0.10000000000E+00 0. -1.
         21    1    1    2  504  503 -0.84965727135E+01  0.15116643855E+02  0.97331569801E+02  0.98864246061E+02  0.00000000000E+00 0.  1.
<mgrwt>
<rscale>  1 0.12619644E+03</rscale>
<asrwt>0</asrwt>
<pdfrwt beam="1">  1       21 0.23006080E-01 0.12619644E+03</pdfrwt>
<pdfrwt beam="2">  1       21 0.12025006E-01 0.12619644E+03</pdfrwt>
<totfact> 0.10375208E+06</totfact>
</mgrwt>
</event>
<event>
 6    1  0.4241465E-002  0.1845727E+03  0.7546771E-02  0.1163450E+00
         21   -1    0    0  504  502  0.00000000000E+00  0.00000000000E+00  0.20736924840E+04  0.20736924840E+04  0.00000000000E+00 0. -1.
         21   -1    0    0  502  503 -0.00000000000E+00 -0.00000000000E+00 -0.32482364526E+02  0.32482364526E+02  0.00000000000E+00 0. -1.
         25    2    1    2    0    0  0.12813066093E+03  0.45040298180E+02  0.25489443735E+03  0.31470343906E+03  0.12498394151E+03 0.  0.
          5    1    3    3  501    0  0.13932604775E+03  0.36761560637E+02  0.14675101724E+03  0.20566728223E+03  0.10000000000E+00 0.  1.
         -5    1    3    3    0  501 -0.11195386821E+02  0.82787375437E+01  0.10814342012E+03  0.10903615683E+03  0.10000000000E+00 0.  1.
         21    1    1    2  504  503 -0.12813066093E+03 -0.45040298180E+02  0.17863156821E+04  0.17914714094E+04  0.00000000000E+00 0. -1.
<mgrwt>
<rscale>  1 0.18457270E+03</rscale>
<asrwt>0</asrwt>
<pdfrwt beam="1">  1       21 0.31902951E+00 0.18457270E+03</pdfrwt>
<pdfrwt beam="2">  1       21 0.49972885E-02 0.18457270E+03</pdfrwt>
<totfact> 0.72073574E+03</totfact>
</mgrwt>
</event>
<event>
 6    1  0.4241465E-002  0.1265022E+03  0.7546771E-02  0.1232740E+00
         21   -1    0    0  503  502  0.00000000000E+00  0.00000000000E+00  0.28044439948E+03  0.28044439948E+03  0.00000000000E+00 0.  1.
         21   -1    0    0  504  503 -0.00000000000E+00 -0.00000000000E+00 -0.47845585517E+02  0.47845585517E+02  0.00000000000E+00 0. -1.
         25    2    1    2    0    0  0.28709389498E+00 -0.19448493349E+02  0.37106023396E+02  0.13183195518E+03  0.12499792445E+03 0.  0.
          5    1    3    3  501    0 -0.52391000735E+02 -0.42633396584E+02  0.29757329330E+02  0.73810108462E+02  0.10000000000E+00 0.  1.
         -5    1    3    3    0  501  0.52678094630E+02  0.23184903235E+02  0.73486940659E+01  0.58021846716E+02  0.10000000000E+00 0.  1.
         21    1    1    2  504  502 -0.28709389498E+00  0.19448493349E+02  0.19549279057E+03  0.19645802982E+03  0.00000000000E+00 0.  1.
<mgrwt>
<rscale>  1 0.12650220E+03</rscale>
<asrwt>0</asrwt>
<pdfrwt beam="1">  1       21 0.43145291E-01 0.12650220E+03</pdfrwt>
<pdfrwt beam="2">  1       21 0.73608594E-02 0.12650220E+03</pdfrwt>
<totfact> 0.71981741E+05</totfact>
</mgrwt>
</event>
<event>
 6    1  0.4241465E-002  0.1290455E+03  0.7546771E-02  0.1228879E+00
         21   -1    0    0  504  502  0.00000000000E+00  0.00000000000E+00  0.10004693359E+03  0.10004693359E+03  0.00000000000E+00 0.  1.
         21   -1    0    0  502  503 -0.00000000000E+00 -0.00000000000E+00 -0.69430480857E+02  0.69430480857E+02  0.00000000000E+00 0.  1.
         25    2    1    2    0    0  0.17017147785E+02 -0.27180265038E+02  0.41593104898E+02  0.13558291609E+03  0.12499756251E+03 0.  0.
          5    1    3    3  501    0 -0.46287060078E+02 -0.27120364413E+02  0.47959572257E+02  0.71959270894E+02  0.10000000000E+00 0.  1.
         -5    1    3    3    0  501  0.63304207862E+02 -0.59900624852E-01 -0.63664673593E+01  0.63623645194E+02  0.10000000000E+00 0.  1.
         21    1    1    2  504  503 -0.17017147785E+02  0.27180265038E+02 -0.10976652164E+02  0.33894498359E+02  0.00000000000E+00 0.  1.
<mgrwt>
<rscale>  1 0.12904550E+03</rscale>
<asrwt>0</asrwt>
<pdfrwt beam="1">  1       21 0.15391836E-01 0.12904550E+03</pdfrwt>
<pdfrwt beam="2">  1       21 0.10681612E-01 0.12904550E+03</pdfrwt>
<totfact> 0.26783322E+06</totfact>
</mgrwt>
</event>
<event>
 6    1  0.4241465E-002  0.1463949E+03  0.7546771E-02  0.1204974E+00
         21   -1    0    0  503  502  0.00000000000E+00  0.00000000000E+00  0.42633505858E+03  0.42633505858E+03  0.00000000000E+00 0.  1.
         21   -1    0    0  504  503 -0.00000000000E+00 -0.00000000000E+00 -0.29287521057E+02  0.29287521057E+02  0.00000000000E+00 0.  1.
         25    2    1    2    0    0  0.18879886375E+02  0.73828465141E+02  0.24139828362E+03  0.28232000431E+03  0.12499744447E+03 0.  0.
          5    1    3    3  501    0  0.61490978026E+02  0.60143488278E+02  0.21196999946E+03  0.22875679275E+03  0.10000000000E+00 0.  1.
         -5    1    3    3    0  501 -0.42611091651E+02  0.13684976863E+02  0.29428284161E+02  0.53563211555E+02  0.10000000000E+00 0.  1.
         21    1    1    2  504  502 -0.18879886375E+02 -0.73828465141E+02  0.15564925391E+03  0.17330257533E+03  0.00000000000E+00 0.  1.
<mgrwt>
<rscale>  1 0.14639485E+03</rscale>
<asrwt>0</asrwt>
<pdfrwt beam="1">  1       21 0.65590004E-01 0.14639485E+03</pdfrwt>
<pdfrwt beam="2">  1       21 0.45057728E-02 0.14639485E+03</pdfrwt>
<totfact> 0.68928246E+05</totfact>
</mgrwt>
</event>
<event>
 6    1  0.4241465E-002  0.1265893E+03  0.7546771E-02  0.1232606E+00
         21   -1    0    0  503  502  0.00000000000E+00  0.00000000000E+00  0.13334101153E+02  0.13334101153E+02  0.00000000000E+00 0.  1.
         21   -1    0    0  504  503 -0.00000000000E+00 -0.00000000000E+00 -0.40286401767E+03  0.40286401767E+03  0.00000000000E+00 0.  1.
         25    2    1    2    0    0 -0.18242051638E+01 -0.19910611810E+02 -0.33717520472E+03  0.36015549188E+03  0.12500039787E+03 0.  0.
          5    1    3    3  501    0 -0.11992710206E+02  0.16045768563E+02  0.86994661864E+00  0.20051398804E+02  0.10000000000E+00 0. -1.
         -5    1    3    3    0  501  0.10168505042E+02 -0.35956380373E+02 -0.33804515134E+03  0.34010409308E+03  0.10000000000E+00 0. -1.
         21    1    1    2  504  502  0.18242051638E+01  0.19910611810E+02 -0.52354711798E+02  0.56042626942E+02  0.00000000000E+00 0. -1.
<mgrwt>
<rscale>  1 0.12658933E+03</rscale>
<asrwt>0</asrwt>
<pdfrwt beam="1">  1       21 0.20514005E-02 0.12658933E+03</pdfrwt>
<pdfrwt beam="2">  1       21 0.61979071E-01 0.12658933E+03</pdfrwt>
<totfact> 0.28332337E+06</totfact>
</mgrwt>
</event>
<event>
 6    1  0.4241465E-002  0.1347809E+03  0.7546771E-02  0.1220529E+00
         21   -1    0    0  503  502  0.00000000000E+00  0.00000000000E+00  0.47223327597E+03  0.47223327597E+03  0.00000000000E+00 0.  1.
         21   -1    0    0  504  503 -0.00000000000E+00 -0.00000000000E+00 -0.25594881159E+02  0.25594881159E+02  0.00000000000E+00 0.  1.
         25    2    1    2    0    0 -0.49921799149E+02 -0.68423580745E+01  0.17155259580E+03  0.21816550193E+03  0.12500755663E+03 0.  0.
          5    1    3    3  501    0 -0.52759643575E+02  0.37887814042E+02  0.15879328569E+03  0.17156451854E+03  0.10000000000E+00 0. -1.
         -5    1    3    3    0  501  0.28378444262E+01 -0.44730172117E+02  0.12759310115E+02  0.46600983393E+02  0.10000000000E+00 0. -1.
         21    1    1    2  504  502  0.49921799149E+02  0.68423580745E+01  0.27508579901E+03  0.27966265520E+03  0.00000000000E+00 0.  1.
<mgrwt>
<rscale>  1 0.13478091E+03</rscale>
<asrwt>0</asrwt>
<pdfrwt beam="1">  1       21 0.72651267E-01 0.13478091E+03</pdfrwt>
<pdfrwt beam="2">  1       21 0.39376744E-02 0.13478091E+03</pdfrwt>
<totfact> 0.69112559E+05</totfact>
</mgrwt>
</event>
<event>
 6    1  0.4241465E-002  0.1586263E+03  0.7546771E-02  0.1190256E+00
         21   -1    0    0  503  502  0.00000000000E+00  0.00000000000E+00  0.16119262890E+03  0.16119262890E+03  0.00000000000E+00 0. -1.
         21   -1    0    0  504  503 -0.00000000000E+00 -0.00000000000E+00 -0.21576127994E+03  0.21576127994E+03  0.00000000000E+00 0. -1.
         25    2    1    2    0    0 -0.97542353767E+02 -0.47420035712E+01 -0.16544398008E+03  0.22920298341E+03  0.12500119873E+03 0.  0.
          5    1    3    3  501    0 -0.65140482054E+02 -0.36298785714E+02 -0.16809725358E+03  0.18389557066E+03  0.10000000000E+00 0.  1.
         -5    1    3    3    0  501 -0.32401871713E+02  0.31556782143E+02  0.26532735085E+01  0.45307412749E+02  0.10000000000E+00 0.  1.
         21    1    1    2  504  502  0.97542353767E+02  0.47420035712E+01  0.11087532904E+03  0.14775092543E+03  0.00000000000E+00 0. -1.
<mgrwt>
<rscale>  1 0.15862628E+03</rscale>
<asrwt>0</asrwt>
<pdfrwt beam="1">  1       21 0.24798866E-01 0.15862628E+03</pdfrwt>
<pdfrwt beam="2">  1       21 0.33194043E-01 0.15862628E+03</pdfrwt>
<totfact> 0.13602632E+05</totfact>
</mgrwt>
</event>
<event>
 6    1  0.4241465E-002  0.1282492E+03  0.7546771E-02  0.1230077E+00
         21   -1    0    0  503  502  0.00000000000E+00  0.00000000000E+00  0.53794849873E+02  0.53794849873E+02  0.00000000000E+00 0. -1.
         21   -1    0    0  504  503 -0.00000000000E+00 -0.00000000000E+00 -0.42492622203E+03  0.42492622203E+03  0.00000000000E+00 0.  1.
         25    2    1    2    0    0 -0.26750944562E+00  0.28756190071E+02 -0.41044339310E+03  0.43001352608E+03  0.12498345347E+03 0.  0.
          5    1    3    3  501    0 -0.39649721382E+02 -0.33361569511E+02 -0.21589183844E+03  0.22202340109E+03  0.10000000000E+00 0. -1.
         -5    1    3    3    0  501  0.39382211936E+02  0.62117759582E+02 -0.19455155466E+03  0.20799012499E+03  0.10000000000E+00 0. -1.
         21    1    1    2  504  502  0.26750944562E+00 -0.28756190071E+02  0.39312020949E+02  0.48707545820E+02  0.00000000000E+00 0. -1.
<mgrwt>
<rscale>  1 0.12824919E+03</rscale>
<asrwt>0</asrwt>
<pdfrwt beam="1">  1       21 0.82761310E-02 0.12824919E+03</pdfrwt>
<pdfrwt beam="2">  1       21 0.65373263E-01 0.12824919E+03</pdfrwt>
<totfact> 0.24751282E+05</totfact>
</mgrwt>
</event>
<event>
 6    1  0.4241465E-002  0.1376951E+03  0.7546771E-02  0.1216464E+00
         21   -1    0    0  504  502  0.00000000000E+00  0.00000000000E+00  0.87159723763E+02  0.87159723763E+02  0.00000000000E+00 0.  1.
         21   -1    0    0  502  503 -0.00000000000E+00 -0.00000000000E+00 -0.13676155104E+03  0.13676155104E+03  0.00000000000E+00 0.  1.
         25    2    1    2    0    0 -0.44498074394E+02 -0.36805001015E+02 -0.79391758455E+02  0.15894338068E+03  0.12500104091E+03 0.  0.
          5    1    3    3  501    0 -0.64278462867E+02  0.81097627515E+01 -0.87835480909E+02  0.10914472386E+03  0.10000000000E+00 0. -1.
         -5    1    3    3    0  501  0.19780388473E+02 -0.44914763766E+02  0.84437224541E+01  0.49798656821E+02  0.10000000000E+00 0. -1.
         21    1    1    2  504  503  0.44498074394E+02  0.36805001015E+02  0.29789931179E+02  0.64977894119E+02  0.00000000000E+00 0.  1.
<mgrwt>
<rscale>  1 0.13769512E+03</rscale>
<asrwt>0</asrwt>
<pdfrwt beam="1">  1       21 0.13409188E-01 0.13769512E+03</pdfrwt>
<pdfrwt beam="2">  1       21 0.21040239E-01 0.13769512E+03</pdfrwt>
<totfact> 0.10104595E+06</totfact>
</mgrwt>
</event>
<event>
 6    1  0.4241465E-002  0.1277966E+03  0.7546771E-02  0.1230762E+00
         21   -1    0    0  504  502  0.00000000000E+00  0.00000000000E+00  0.46189949061E+02  0.46189949061E+02  0.00000000000E+00 0. -1.
         21   -1    0    0  502  503 -0.00000000000E+00 -0.00000000000E+00 -0.13189629025E+03  0.13189629025E+03  0.00000000000E+00 0. -1.
         25    2    1    2    0    0  0.11947468345E+02 -0.23793943512E+02 -0.80261314819E+02  0.15091010898E+03  0.12499235412E+03 0.  0.
          5    1    3    3  501    0 -0.21461302787E+02 -0.51667221609E+02 -0.90328354540E+02  0.10625116912E+03  0.10000000000E+00 0.  1.
         -5    1    3    3    0  501  0.33408771132E+02  0.27873278097E+02  0.10067039721E+02  0.44658939857E+02  0.10000000000E+00 0.  1.
         21    1    1    2  504  503 -0.11947468345E+02  0.23793943512E+02 -0.54450263730E+01  0.27176130334E+02  0.00000000000E+00 0. -1.
<mgrwt>
<rscale>  1 0.12779664E+03</rscale>
<asrwt>0</asrwt>
<pdfrwt beam="1">  1       21 0.71061460E-02 0.12779664E+03</pdfrwt>
<pdfrwt beam="2">  1       21 0.20291737E-01 0.12779664E+03</pdfrwt>
<totfact> 0.32746140E+06</totfact>
</mgrwt>
</event>
<event>
 6    1  0.4241465E-002  0.1346127E+03  0.7546771E-02  0.1220767E+00
         21   -1    0    0  504  502  0.00000000000E+00  0.00000000000E+00  0.75142997212E+03  0.75142997212E+03  0.00000000000E+00 0.  1.
         21   -1    0    0  502  503 -0.00000000000E+00 -0.00000000000E+00 -0.19221144816E+02  0.19221144816E+02  0.00000000000E+00 0.  1.
         25    2    1    2    0    0 -0.49947220638E+02 -0.10153405263E+01  0.23409989722E+03  0.27004322447E+03  0.12499930176E+03 0.  0.
          5    1    3    3  501    0 -0.49338304087E+02 -0.10955545574E+02  0.17903435376E+02  0.53617489938E+02  0.10000000000E+00 0. -1.
         -5    1    3    3    0  501 -0.60891655147E+00  0.99402050474E+01  0.21619646184E+03  0.21642573453E+03  0.10000000000E+00 0. -1.
         21    1    1    2  504  503  0.49947220638E+02  0.10153405263E+01  0.49810893009E+03  0.50060789246E+03  0.00000000000E+00 0.  1.
<mgrwt>
<rscale>  1 0.13461271E+03</rscale>
<asrwt>0</asrwt>
<pdfrwt beam="1">  1       21 0.11560459E+00 0.13461271E+03</pdfrwt>
<pdfrwt beam="2">  1       21 0.29570998E-02 0.13461271E+03</pdfrwt>
<totfact> 0.38054698E+05</totfact>
</mgrwt>
</event>
<event>
 6    1  0.4241465E-002  0.1264603E+03  0.7546771E-02  0.1232805E+00
         21   -1    0    0  504  502  0.00000000000E+00  0.00000000000E+00  0.16467148851E+04  0.16467148851E+04  0.00000000000E+00 0. -1.
         21   -1    0    0  502  503 -0.00000000000E+00 -0.00000000000E+00 -0.32279546384E+01  0.32279546384E+01  0.00000000000E+00 0. -1.
         25    2    1    2    0    0 -0.17396799569E+02 -0.81248715032E+01  0.14512759358E+04  0.14567752217E+04  0.12499417062E+03 0.  0.
          5    1    3    3  501    0  0.47471363889E+02  0.38680594244E+01  0.94780494913E+03  0.94900090825E+03  0.10000000000E+00 0.  1.
         -5    1    3    3    0  501 -0.64868163458E+02 -0.11992930928E+02  0.50347098663E+03  0.50777431345E+03  0.10000000000E+00 0.  1.
         21    1    1    2  504  503  0.17396799569E+02  0.81248715032E+01  0.19221099474E+03  0.19316761807E+03  0.00000000000E+00 0.  1.
<mgrwt>
<rscale>  1 0.12646029E+03</rscale>
<asrwt>0</asrwt>
<pdfrwt beam="1">  1       21 0.25334008E+00 0.12646029E+03</pdfrwt>
<pdfrwt beam="2">  1       21 0.49660972E-03 0.12646029E+03</pdfrwt>
<totfact> 0.74176939E+05</totfact>
</mgrwt>
</event>
<event>
 6    1  0.4241465E-002  0.1259264E+03  0.7546771E-02  0.1233629E+00
         21   -1    0    0  503  502  0.00000000000E+00  0.00000000000E+00  0.17092669537E+03  0.17092669537E+03  0.00000000000E+00 0. -1.
         21   -1    0    0  504  503 -0.00000000000E+00 -0.00000000000E+00 -0.31133759726E+02  0.31133759726E+02  0.00000000000E+00 0. -1.
         25    2    1    2    0    0  0.14195938678E+02 -0.55520425829E+01  0.10458050336E+03  0.16369034643E+03  0.12500039192E+03 0.  0.
          5    1    3    3  501    0  0.53367620950E+02 -0.32781778200E+02  0.18555591913E+02  0.65322798004E+02  0.10000000000E+00 0. -1.
         -5    1    3    3    0  501 -0.39171682272E+02  0.27229735617E+02  0.86024911446E+02  0.98367548425E+02  0.10000000000E+00 0. -1.
         21    1    1    2  504  502 -0.14195938678E+02  0.55520425829E+01  0.35212432288E+02  0.38370108671E+02  0.00000000000E+00 0. -1.
<mgrwt>
<rscale>  1 0.12592636E+03</rscale>
<asrwt>0</asrwt>
<pdfrwt beam="1">  1       21 0.26296414E-01 0.12592636E+03</pdfrwt>
<pdfrwt beam="2">  1       21 0.47898093E-02 0.12592636E+03</pdfrwt>
<totfact> 0.39254583E+06</totfact>
</mgrwt>
</event>
<event>
 6    1  0.4241465E-002  0.1266518E+03  0.7546771E-02  0.1232510E+00
         21   -1    0    0  504  502  0.00000000000E+00  0.00000000000E+00  0.15651929388E+02  0.15651929388E+02  0.00000000000E+00 0.  1.
         21   -1    0    0  502  503 -0.00000000000E+00 -0.00000000000E+00 -0.84520694526E+03  0.84520694526E+03  0.00000000000E+00 0.  1.
         25    2    1    2    0    0 -0.11064102518E+02  0.17133860612E+02 -0.83082563803E+03  0.84042365933E+03  0.12499881126E+03 0.  0.
          5    1    3    3  501    0  0.29017888127E+02 -0.42462458755E+02 -0.25487777587E+03  0.26001497816E+03  0.10000000000E+00 0.  1.
         -5    1    3    3    0  501 -0.40081990645E+02  0.59596319367E+02 -0.57594786216E+03  0.58040868117E+03  0.10000000000E+00 0.  1.
         21    1    1    2  504  503  0.11064102518E+02 -0.17133860612E+02  0.12706221635E+01  0.20435215308E+02  0.00000000000E+00 0.  1.
<mgrwt>
<rscale>  1 0.12665183E+03</rscale>
<asrwt>0</asrwt>
<pdfrwt beam="1">  1       21 0.24079888E-02 0.12665183E+03</pdfrwt>
<pdfrwt beam="2">  1       21 0.13003186E+00 0.12665183E+03</pdfrwt>
<totfact> 0.39949040E+05</totfact>
</mgrwt>
</event>
<event>
 6    1  0.4241465E-002  0.1269232E+03  0.7546771E-02  0.1232094E+00
         21   -1    0    0  504  502  0.00000000000E+00  0.00000000000E+00  0.74733320396E+03  0.74733320396E+03  0.00000000000E+00 0. -1.
         21   -1    0    0  502  503 -0.00000000000E+00 -0.00000000000E+00 -0.19767270181E+02  0.19767270181E+02  0.00000000000E+00 0. -1.
         25    2    1    2    0    0  0.11128275359E+02 -0.18555298385E+02  0.18644134290E+03  0.22554349610E+03  0.12506540961E+03 0.  0.
          5    1    3    3  501    0  0.65425218245E+02  0.72499195548E+01  0.11135528060E+03  0.12935620988E+03  0.10000000000E+00 0. -1.
         -5    1    3    3    0  501 -0.54296942885E+02 -0.25805217940E+02  0.75086062299E+02  0.96187286225E+02  0.10000000000E+00 0. -1.
         21    1    1    2  504  503 -0.11128275359E+02  0.18555298385E+02  0.54112459088E+03  0.54155697804E+03  0.00000000000E+00 0. -1.
<mgrwt>
<rscale>  1 0.12692318E+03</rscale>
<asrwt>0</asrwt>
<pdfrwt beam="1">  1       21 0.11497432E+00 0.12692318E+03</pdfrwt>
<pdfrwt beam="2">  1       21 0.30411191E-02 0.12692318E+03</pdfrwt>
<totfact> 0.36891144E+05</totfact>
</mgrwt>
</event>
<event>
 6    1  0.4241465E-002  0.1266646E+03  0.7546771E-02  0.1232491E+00
         21   -1    0    0  504  502  0.00000000000E+00  0.00000000000E+00  0.74071413814E+02  0.74071413814E+02  0.00000000000E+00 0. -1.
         21   -1    0    0  502  503 -0.00000000000E+00 -0.00000000000E+00 -0.10605701038E+03  0.10605701038E+03  0.00000000000E+00 0. -1.
         25    2    1    2    0    0 -0.15555518936E+02  0.13378216359E+02 -0.64145785108E+02  0.14198096596E+03  0.12499184816E+03 0.  0.
          5    1    3    3  501    0 -0.48458607037E+02  0.51509025434E+02 -0.57566770172E+02  0.91188592078E+02  0.10000000000E+00 0.  1.
         -5    1    3    3    0  501  0.32903088101E+02 -0.38130809074E+02 -0.65790149356E+01  0.50792373884E+02  0.10000000000E+00 0.  1.
         21    1    1    2  504  503  0.15555518936E+02 -0.13378216359E+02  0.32160188543E+02  0.38147458230E+02  0.00000000000E+00 0. -1.
<mgrwt>
<rscale>  1 0.12666457E+03</rscale>
<asrwt>0</asrwt>
<pdfrwt beam="1">  1       21 0.11395602E-01 0.12666457E+03</pdfrwt>
<pdfrwt beam="2">  1       21 0.16316463E-01 0.12666457E+03</pdfrwt>
<totfact> 0.21490763E+06</totfact>
</mgrwt>
</event>
<event>
 6    1  0.4241465E-002  0.1285245E+03  0.7546771E-02  0.1229662E+00
         21   -1    0    0  503  502  0.00000000000E+00  0.00000000000E+00  0.75182801266E+02  0.75182801266E+02  0.00000000000E+00 0.  1.
         21   -1    0    0  504  503 -0.00000000000E+00 -0.00000000000E+00 -0.12253766249E+03  0.12253766249E+03  0.00000000000E+00 0.  1.
         25    2    1    2    0    0 -0.24392452351E+02 -0.17313339564E+02 -0.81608276831E+02  0.15224475663E+03  0.12499524637E+03 0.  0.
          5    1    3    3  501    0  0.46247395184E+02  0.11607439546E+02 -0.51517036643E+02  0.70196647203E+02  0.10000000000E+00 0.  1.
         -5    1    3    3    0  501 -0.70639847535E+02 -0.28920779109E+02 -0.30091240188E+02  0.82048109424E+02  0.10000000000E+00 0.  1.
         21    1    1    2  504  502  0.24392452351E+02  0.17313339564E+02  0.34253415604E+02  0.45475707132E+02  0.00000000000E+00 0.  1.
<mgrwt>
<rscale>  1 0.12852453E+03</rscale>
<asrwt>0</asrwt>
<pdfrwt beam="1">  1       21 0.11566585E-01 0.12852453E+03</pdfrwt>
<pdfrwt beam="2">  1       21 0.18851948E-01 0.12852453E+03</pdfrwt>
<totfact> 0.16086700E+06</totfact>
</mgrwt>
</event>
<event>
 6    1  0.4241465E-002  0.1285703E+03  0.7546771E-02  0.1229593E+00
         21   -1    0    0  504  502  0.00000000000E+00  0.00000000000E+00  0.24705553506E+03  0.24705553506E+03  0.00000000000E+00 0.  1.
         21   -1    0    0  502  503 -0.00000000000E+00 -0.00000000000E+00 -0.70714151085E+02  0.70714151085E+02  0.00000000000E+00 0.  1.
         25    2    1    2    0    0 -0.64781129579E+01 -0.29391254663E+02 -0.10051470857E+02  0.12896262025E+03  0.12499805422E+03 0.  0.
          5    1    3    3  501    0 -0.46422002021E+02  0.30966424018E+02  0.59506374636E+00  0.55805786340E+02  0.10000000000E+00 0.  1.
         -5    1    3    3    0  501  0.39943889063E+02 -0.60357678681E+02 -0.10646534603E+02  0.73156833914E+02  0.10000000000E+00 0.  1.
         21    1    1    2  504  503  0.64781129579E+01  0.29391254663E+02  0.18639285483E+03  0.18880706589E+03  0.00000000000E+00 0.  1.
<mgrwt>
<rscale>  1 0.12857031E+03</rscale>
<asrwt>0</asrwt>
<pdfrwt beam="1">  1       21 0.38008544E-01 0.12857031E+03</pdfrwt>
<pdfrwt beam="2">  1       21 0.10879100E-01 0.12857031E+03</pdfrwt>
<totfact> 0.47076882E+05</totfact>
</mgrwt>
</event>
<event>
 6    1  0.4241465E-002  0.2221137E+03  0.7546771E-02  0.1132317E+00
         21   -1    0    0  504  502  0.00000000000E+00  0.00000000000E+00  0.14727837215E+04  0.14727837215E+04  0.00000000000E+00 0. -1.
         21   -1    0    0  502  503 -0.00000000000E+00 -0.00000000000E+00 -0.57278466452E+02  0.57278466452E+02  0.00000000000E+00 0. -1.
         25    2    1    2    0    0  0.11120306619E+03  0.14609341328E+03  0.19421736600E+03  0.29505064336E+03  0.12500035823E+03 0.  0.
          5    1    3    3  501    0  0.18070885123E+02 -0.15676652948E+01  0.89832679246E+02  0.91645702158E+02  0.10000000000E+00 0. -1.
         -5    1    3    3    0  501  0.93132181063E+02  0.14766107858E+03  0.10438468675E+03  0.20340494120E+03  0.10000000000E+00 0. -1.
         21    1    1    2  504  503 -0.11120306619E+03 -0.14609341328E+03  0.12212878890E+04  0.12350115445E+04  0.00000000000E+00 0. -1.
<mgrwt>
<rscale>  1 0.22211370E+03</rscale>
<asrwt>0</asrwt>
<pdfrwt beam="1">  1       21 0.22658208E+00 0.22211370E+03</pdfrwt>
<pdfrwt beam="2">  1       21 0.88120729E-02 0.22211370E+03</pdfrwt>
<totfact> 0.90618752E+03</totfact>
</mgrwt>
</event>
<event>
 6    1  0.4241465E-002  0.1303412E+03  0.7546771E-02  0.1226950E+00
         21   -1    0    0  504  502  0.00000000000E+00  0.00000000000E+00  0.97152685678E+02  0.97152685678E+02  0.00000000000E+00 0. -1.
         21   -1    0    0  502  503 -0.00000000000E+00 -0.00000000000E+00 -0.91611284587E+02  0.91611284587E+02  0.00000000000E+00 0. -1.
         25    2    1    2    0    0 -0.34525110648E+02 -0.12229258177E+02 -0.34164733696E+02  0.13474438899E+03  0.12508910151E+03 0.  0.
          5    1    3    3  501    0  0.90864240132E+01  0.43155737372E+02 -0.45475412414E+02  0.63348274671E+02  0.10000000000E+00 0.  1.
         -5    1    3    3    0  501 -0.43611534661E+02 -0.55384995549E+02  0.11310678719E+02  0.71396114324E+02  0.10000000000E+00 0.  1.
         21    1    1    2  504  503  0.34525110648E+02  0.12229258177E+02  0.39706134787E+02  0.54019581270E+02  0.00000000000E+00 0. -1.
<mgrwt>
<rscale>  1 0.13034117E+03</rscale>
<asrwt>0</asrwt>
<pdfrwt beam="1">  1       21 0.14946567E-01 0.13034117E+03</pdfrwt>
<pdfrwt beam="2">  1       21 0.14094044E-01 0.13034117E+03</pdfrwt>
<totfact> 0.17269616E+06</totfact>
</mgrwt>
</event>
<event>
 6    1  0.4241465E-002  0.1263576E+03  0.7546771E-02  0.1232963E+00
         21   -1    0    0  504  502  0.00000000000E+00  0.00000000000E+00  0.24950225795E+03  0.24950225795E+03  0.00000000000E+00 0. -1.
         21   -1    0    0  502  503 -0.00000000000E+00 -0.00000000000E+00 -0.45153939724E+02  0.45153939724E+02  0.00000000000E+00 0.  1.
         25    2    1    2    0    0 -0.17375505249E+02 -0.63674541690E+01  0.44839765447E+02  0.13407777115E+03  0.12499516589E+03 0.  0.
          5    1    3    3  501    0 -0.41478504587E+02  0.13795775668E+02 -0.29926816906E+02  0.52975599470E+02  0.10000000000E+00 0.  1.
         -5    1    3    3    0  501  0.24102999338E+02 -0.20163229837E+02  0.74766582353E+02  0.81102171681E+02  0.10000000000E+00 0.  1.
         21    1    1    2  504  503  0.17375505249E+02  0.63674541690E+01  0.15950855278E+03  0.16057842653E+03  0.00000000000E+00 0. -1.
<mgrwt>
<rscale>  1 0.12635760E+03</rscale>
<asrwt>0</asrwt>
<pdfrwt beam="1">  1       21 0.38384962E-01 0.12635760E+03</pdfrwt>
<pdfrwt beam="2">  1       21 0.69467601E-02 0.12635760E+03</pdfrwt>
<totfact> 0.10045073E+06</totfact>
</mgrwt>
</event>
<event>
 6    1  0.4241465E-002  0.1283826E+03  0.7546771E-02  0.1229876E+00
         21   -1    0    0  503  502  0.00000000000E+00  0.00000000000E+00  0.31392267720E+03  0.31392267720E+03  0.00000000000E+00 0.  1.
         21   -1    0    0  504  503 -0.00000000000E+00 -0.00000000000E+00 -0.28575292120E+02  0.28575292120E+02  0.00000000000E+00 0.  1.
         25    2    1    2    0    0 -0.10332474012E+02 -0.27406775924E+02  0.12391261607E+03  0.17842763065E+03  0.12499676625E+03 0.  0.
          5    1    3    3  501    0  0.34259278499E+02  0.28183575947E+02  0.12356150146E+02  0.46051021301E+02  0.10000000000E+00 0.  1.
         -5    1    3    3    0  501 -0.44591752511E+02 -0.55590351871E+02  0.11155646592E+03  0.13237660935E+03  0.10000000000E+00 0.  1.
         21    1    1    2  504  502  0.10332474012E+02  0.27406775924E+02  0.16143476901E+03  0.16407033867E+03  0.00000000000E+00 0.  1.
<mgrwt>
<rscale>  1 0.12838256E+03</rscale>
<asrwt>0</asrwt>
<pdfrwt beam="1">  1       21 0.48295794E-01 0.12838256E+03</pdfrwt>
<pdfrwt beam="2">  1       21 0.43961990E-02 0.12838256E+03</pdfrwt>
<totfact> 0.13679679E+06</totfact>
</mgrwt>
</event>
<event>
 6    1  0.4241465E-002  0.1276029E+03  0.7546771E-02  0.1231057E+00
         21   -1    0    0  504  502  0.00000000000E+00  0.00000000000E+00  0.69199075789E+03  0.69199075789E+03  0.00000000000E+00 0.  1.
         21   -1    0    0  502  503 -0.00000000000E+00 -0.00000000000E+00 -0.16263964612E+02  0.16263964612E+02  0.00000000000E+00 0.  1.
         25    2    1    2    0    0 -0.13737720761E+02  0.21624844143E+02  0.24032948674E+03  0.27210432023E+03  0.12500456007E+03 0.  0.
          5    1    3    3  501    0  0.27012779352E+01 -0.51230212099E+02  0.77211539764E+02  0.92700935307E+02  0.10000000000E+00 0.  1.
         -5    1    3    3    0  501 -0.16438998696E+02  0.72855056242E+02  0.16311794697E+03  0.17940338493E+03  0.10000000000E+00 0.  1.
         21    1    1    2  504  503  0.13737720761E+02 -0.21624844143E+02  0.43539730654E+03  0.43615040227E+03  0.00000000000E+00 0.  1.
<mgrwt>
<rscale>  1 0.12760290E+03</rscale>
<asrwt>0</asrwt>
<pdfrwt beam="1">  1       21 0.10646009E+00 0.12760290E+03</pdfrwt>
<pdfrwt beam="2">  1       21 0.25021489E-02 0.12760290E+03</pdfrwt>
<totfact> 0.60969578E+05</totfact>
</mgrwt>
</event>
<event>
 6    1  0.4241465E-002  0.1267310E+03  0.7546771E-02  0.1232389E+00
         21   -1    0    0  503  502  0.00000000000E+00  0.00000000000E+00  0.13889832304E+02  0.13889832304E+02  0.00000000000E+00 0.  1.
         21   -1    0    0  504  503 -0.00000000000E+00 -0.00000000000E+00 -0.39361302978E+03  0.39361302978E+03  0.00000000000E+00 0.  1.
         25    2    1    2    0    0  0.12173656467E+00 -0.20861017148E+02 -0.31663230866E+03  0.34105245119E+03  0.12500223486E+03 0.  0.
          5    1    3    3  501    0 -0.53848967837E+02  0.10996398750E+02 -0.21270561276E+03  0.21969141955E+03  0.10000000000E+00 0. -1.
         -5    1    3    3    0  501  0.53970704402E+02 -0.31857415898E+02 -0.10392669589E+03  0.12136103164E+03  0.10000000000E+00 0. -1.
         21    1    1    2  504  502 -0.12173656467E+00  0.20861017148E+02 -0.63090888822E+02  0.66450410898E+02  0.00000000000E+00 0.  1.
<mgrwt>
<rscale>  1 0.12673104E+03</rscale>
<asrwt>0</asrwt>
<pdfrwt beam="1">  1       21 0.21368975E-02 0.12673104E+03</pdfrwt>
<pdfrwt beam="2">  1       21 0.60555844E-01 0.12673104E+03</pdfrwt>
<totfact> 0.27869750E+06</totfact>
</mgrwt>
</event>
<event>
 6    1  0.4241465E-002  0.1267833E+03  0.7546771E-02  0.1232308E+00
         21   -1    0    0  504  502  0.00000000000E+00  0.00000000000E+00  0.66920706235E+02  0.66920706235E+02  0.00000000000E+00 0. -1.
         21   -1    0    0  502  503 -0.00000000000E+00 -0.00000000000E+00 -0.31030731338E+03  0.31030731338E+03  0.00000000000E+00 0.  1.
         25    2    1    2    0    0 -0.10790104055E+02  0.18303315380E+02 -0.29517469065E+03  0.32125085202E+03  0.12499029651E+03 0.  0.
          5    1    3    3  501    0 -0.34049897567E+02 -0.34213273666E+02 -0.22714345765E+03  0.23221564110E+03  0.10000000000E+00 0. -1.
         -5    1    3    3    0  501  0.23259793511E+02  0.52516589046E+02 -0.68031233003E+02  0.89035210917E+02  0.10000000000E+00 0. -1.
         21    1    1    2  504  503  0.10790104055E+02 -0.18303315380E+02  0.51788083504E+02  0.55977167599E+02  0.00000000000E+00 0. -1.
<mgrwt>
<rscale>  1 0.12678333E+03</rscale>
<asrwt>0</asrwt>
<pdfrwt beam="1">  1       21 0.10295493E-01 0.12678333E+03</pdfrwt>
<pdfrwt beam="2">  1       21 0.47739587E-01 0.12678333E+03</pdfrwt>
<totfact> 0.32760580E+05</totfact>
</mgrwt>
</event>
<event>
 6    1  0.4241465E-002  0.1340097E+03  0.7546771E-02  0.1221624E+00
         21   -1    0    0  504  502  0.00000000000E+00  0.00000000000E+00  0.55620356094E+03  0.55620356094E+03  0.00000000000E+00 0.  1.
         21   -1    0    0  502  503 -0.00000000000E+00 -0.00000000000E+00 -0.17930432440E+03  0.17930432440E+03  0.00000000000E+00 0. -1.
         25    2    1    2    0    0 -0.20080573102E+02 -0.43952463422E+02 -0.15301123741E+03  0.20339872468E+03  0.12499421574E+03 0.  0.
          5    1    3    3  501    0  0.22108863359E+02 -0.39278782087E+02 -0.15448428319E+03  0.16092553655E+03  0.10000000000E+00 0.  1.
         -5    1    3    3    0  501 -0.42189436461E+02 -0.46736813346E+01  0.14730457731E+01  0.42473188130E+02  0.10000000000E+00 0.  1.
         21    1    1    2  504  503  0.20080573102E+02  0.43952463422E+02  0.52991047396E+03  0.53210916067E+03  0.00000000000E+00 0.  1.
<mgrwt>
<rscale>  1 0.13400971E+03</rscale>
<asrwt>0</asrwt>
<pdfrwt beam="1">  1       21 0.85569778E-01 0.13400971E+03</pdfrwt>
<pdfrwt beam="2">  1       21 0.27585281E-01 0.13400971E+03</pdfrwt>
<totfact> 0.15416788E+04</totfact>
</mgrwt>
</event>
<event>
 6    1  0.4241465E-002  0.1303856E+03  0.7546771E-02  0.1226885E+00
         21   -1    0    0  504  502  0.00000000000E+00  0.00000000000E+00  0.12001984243E+02  0.12001984243E+02  0.00000000000E+00 0. -1.
         21   -1    0    0  502  503 -0.00000000000E+00 -0.00000000000E+00 -0.11357074036E+04  0.11357074036E+04  0.00000000000E+00 0. -1.
         25    2    1    2    0    0 -0.17023719797E+02  0.32897882189E+02 -0.10895510318E+04  0.10973248676E+04  0.12501334546E+03 0.  0.
          5    1    3    3  501    0  0.11742504441E+02 -0.42880010721E+02 -0.54020288785E+03  0.54202929051E+03  0.10000000000E+00 0. -1.
         -5    1    3    3    0  501 -0.28766224239E+02  0.75777892911E+02 -0.54934814390E+03  0.55529557707E+03  0.10000000000E+00 0. -1.
         21    1    1    2  504  503  0.17023719797E+02 -0.32897882189E+02 -0.34154387584E+02  0.50384520237E+02  0.00000000000E+00 0. -1.
<mgrwt>
<rscale>  1 0.13038564E+03</rscale>
<asrwt>0</asrwt>
<pdfrwt beam="1">  1       21 0.18464587E-02 0.13038564E+03</pdfrwt>
<pdfrwt beam="2">  1       21 0.17472426E+00 0.13038564E+03</pdfrwt>
<totfact> 0.28429519E+05</totfact>
</mgrwt>
</event>
<event>
 6    1  0.4241465E-002  0.1271197E+03  0.7546771E-02  0.1231793E+00
         21   -1    0    0  503  502  0.00000000000E+00  0.00000000000E+00  0.47311641834E+03  0.47311641834E+03  0.00000000000E+00 0.  1.
         21   -1    0    0  504  503 -0.00000000000E+00 -0.00000000000E+00 -0.19247602267E+02  0.19247602267E+02  0.00000000000E+00 0.  1.
         25    2    1    2    0    0 -0.13119466483E+02 -0.19035899668E+02  0.19697781214E+03  0.23443481757E+03  0.12499975735E+03 0.  0.
          5    1    3    3  501    0  0.13288040148E+02 -0.29162050373E+01  0.20254305022E+03  0.20299944201E+03  0.10000000000E+00 0.  1.
         -5    1    3    3    0  501 -0.26407506632E+02 -0.16119694631E+02 -0.55652380857E+01  0.31435375558E+02  0.10000000000E+00 0.  1.
         21    1    1    2  504  502  0.13119466483E+02  0.19035899668E+02  0.25689100394E+03  0.25792920304E+03  0.00000000000E+00 0.  1.
<mgrwt>
<rscale>  1 0.12711973E+03</rscale>
<asrwt>0</asrwt>
<pdfrwt beam="1">  1       21 0.72787132E-01 0.12711973E+03</pdfrwt>
<pdfrwt beam="2">  1       21 0.29611699E-02 0.12711973E+03</pdfrwt>
<totfact> 0.11016067E+06</totfact>
</mgrwt>
</event>
<event>
 6    1  0.4241465E-002  0.1279293E+03  0.7546771E-02  0.1230561E+00
         21   -1    0    0  503  502  0.00000000000E+00  0.00000000000E+00  0.88847129557E+03  0.88847129557E+03  0.00000000000E+00 0. -1.
         21   -1    0    0  504  503 -0.00000000000E+00 -0.00000000000E+00 -0.17129202030E+02  0.17129202030E+02  0.00000000000E+00 0.  1.
         25    2    1    2    0    0  0.25529947295E+02  0.96540786461E+01  0.22611123578E+03  0.25979260104E+03  0.12498369962E+03 0.  0.
          5    1    3    3  501    0  0.63049105252E+02 -0.32617272431E+02  0.13627567484E+03  0.15365593280E+03  0.10000000000E+00 0.  1.
         -5    1    3    3    0  501 -0.37519157957E+02  0.42271351077E+02  0.89835560941E+02  0.10613666824E+03  0.10000000000E+00 0.  1.
         21    1    1    2  504  502 -0.25529947295E+02 -0.96540786461E+01  0.64523085777E+03  0.64580789656E+03  0.00000000000E+00 0. -1.
<mgrwt>
<rscale>  1 0.12792930E+03</rscale>
<asrwt>0</asrwt>
<pdfrwt beam="1">  1       21 0.13668786E+00 0.12792930E+03</pdfrwt>
<pdfrwt beam="2">  1       21 0.26352625E-02 0.12792930E+03</pdfrwt>
<totfact> 0.30439304E+05</totfact>
</mgrwt>
</event>
<event>
 6    1  0.4241465E-002  0.1348291E+03  0.7546771E-02  0.1220461E+00
         21   -1    0    0  503  502  0.00000000000E+00  0.00000000000E+00  0.56944662426E+02  0.56944662426E+02  0.00000000000E+00 0. -1.
         21   -1    0    0  504  503 -0.00000000000E+00 -0.00000000000E+00 -0.16584468788E+03  0.16584468788E+03  0.00000000000E+00 0. -1.
         25    2    1    2    0    0  0.12685897055E+02 -0.48937427582E+02 -0.10712152727E+03  0.17220311840E+03  0.12499235408E+03 0.  0.
          5    1    3    3  501    0 -0.48419575322E+02 -0.49979918705E+02 -0.35725902161E+02  0.78222743709E+02  0.10000000000E+00 0. -1.
         -5    1    3    3    0  501  0.61105472377E+02  0.10424911228E+01 -0.71395625111E+02  0.93980374692E+02  0.10000000000E+00 0. -1.
         21    1    1    2  504  502 -0.12685897055E+02  0.48937427582E+02 -0.17784981792E+01  0.50586231904E+02  0.00000000000E+00 0. -1.
<mgrwt>
<rscale>  1 0.13482912E+03</rscale>
<asrwt>0</asrwt>
<pdfrwt beam="1">  1       21 0.87607175E-02 0.13482912E+03</pdfrwt>
<pdfrwt beam="2">  1       21 0.25514567E-01 0.13482912E+03</pdfrwt>
<totfact> 0.14888600E+06</totfact>
</mgrwt>
</event>
<event>
 6    1  0.4241465E-002  0.1675982E+03  0.7546771E-02  0.1180376E+00
         21   -1    0    0  504  502  0.00000000000E+00  0.00000000000E+00  0.10462286013E+03  0.10462286013E+03  0.00000000000E+00 0. -1.
         21   -1    0    0  502  503 -0.00000000000E+00 -0.00000000000E+00 -0.18932096147E+03  0.18932096147E+03  0.00000000000E+00 0. -1.
         25    2    1    2    0    0  0.66542588390E+02 -0.89642502219E+02 -0.32574648374E+02  0.17073445254E+03  0.12500180517E+03 0.  0.
          5    1    3    3  501    0  0.57519548050E+02 -0.10620195381E+03 -0.62017282304E+02  0.13577005084E+03  0.10000000000E+00 0. -1.
         -5    1    3    3    0  501  0.90230403406E+01  0.16559451589E+02  0.29442633930E+02  0.34964401705E+02  0.10000000000E+00 0. -1.
         21    1    1    2  504  503 -0.66542588390E+02  0.89642502219E+02 -0.52123452960E+02  0.12320936905E+03  0.00000000000E+00 0. -1.
<mgrwt>
<rscale>  1 0.16759817E+03</rscale>
<asrwt>0</asrwt>
<pdfrwt beam="1">  1       21 0.16095825E-01 0.16759817E+03</pdfrwt>
<pdfrwt beam="2">  1       21 0.29126301E-01 0.16759817E+03</pdfrwt>
<totfact> 0.39120822E+05</totfact>
</mgrwt>
</event>
<event>
 6    1  0.4241465E-002  0.1263840E+03  0.7546771E-02  0.1232922E+00
         21   -1    0    0  503  502  0.00000000000E+00  0.00000000000E+00  0.35813869959E+03  0.35813869959E+03  0.00000000000E+00 0.  1.
         21   -1    0    0  504  503 -0.00000000000E+00 -0.00000000000E+00 -0.20878961802E+02  0.20878961802E+02  0.00000000000E+00 0.  1.
         25    2    1    2    0    0  0.10905188985E+02 -0.15107031087E+02  0.17595497558E+03  0.21664040976E+03  0.12500307267E+03 0.  0.
          5    1    3    3  501    0 -0.31261776570E+02 -0.33486998285E+01  0.16949989945E+03  0.17239123637E+03  0.10000000000E+00 0.  1.
         -5    1    3    3    0  501  0.42166965555E+02 -0.11758331259E+02  0.64550761309E+01  0.44249173393E+02  0.10000000000E+00 0.  1.
         21    1    1    2  504  502 -0.10905188985E+02  0.15107031087E+02  0.16130476221E+03  0.16237725163E+03  0.00000000000E+00 0.  1.
<mgrwt>
<rscale>  1 0.12638399E+03</rscale>
<asrwt>0</asrwt>
<pdfrwt beam="1">  1       21 0.55098257E-01 0.12638399E+03</pdfrwt>
<pdfrwt beam="2">  1       21 0.32121482E-02 0.12638399E+03</pdfrwt>
<totfact> 0.17500884E+06</totfact>
</mgrwt>
</event>
<event>
 6    1  0.4241465E-002  0.1349329E+03  0.7546771E-02  0.1220314E+00
         21   -1    0    0  504  502  0.00000000000E+00  0.00000000000E+00  0.74052557311E+02  0.74052557311E+02  0.00000000000E+00 0.  1.
         21   -1    0    0  502  503 -0.00000000000E+00 -0.00000000000E+00 -0.21979841285E+03  0.21979841285E+03  0.00000000000E+00 0.  1.
         25    2    1    2    0    0 -0.49347563018E+02  0.11907967769E+02 -0.18549228194E+03  0.22937802945E+03  0.12501964670E+03 0.  0.
          5    1    3    3  501    0 -0.34456770010E+02 -0.15415035222E+02  0.34363401175E+01  0.37903967389E+02  0.10000000000E+00 0.  1.
         -5    1    3    3    0  501 -0.14890793008E+02  0.27323002991E+02 -0.18892862206E+03  0.19147406206E+03  0.10000000000E+00 0.  1.
         21    1    1    2  504  503  0.49347563018E+02 -0.11907967769E+02  0.39746426402E+02  0.64472940711E+02  0.00000000000E+00 0.  1.
<mgrwt>
<rscale>  1 0.13493292E+03</rscale>
<asrwt>0</asrwt>
<pdfrwt beam="1">  1       21 0.11392701E-01 0.13493292E+03</pdfrwt>
<pdfrwt beam="2">  1       21 0.33815140E-01 0.13493292E+03</pdfrwt>
<totfact> 0.54621674E+05</totfact>
</mgrwt>
</event>
<event>
 6    1  0.4241465E-002  0.1268320E+03  0.7546771E-02  0.1232234E+00
         21   -1    0    0  504  502  0.00000000000E+00  0.00000000000E+00  0.28388213281E+03  0.28388213281E+03  0.00000000000E+00 0.  1.
         21   -1    0    0  502  503 -0.00000000000E+00 -0.00000000000E+00 -0.19437071090E+02  0.19437071090E+02  0.00000000000E+00 0.  1.
         25    2    1    2    0    0 -0.69594388537E+01 -0.20312036116E+02  0.21949232501E+03  0.25350192640E+03  0.12500133338E+03 0.  0.
          5    1    3    3  501    0  0.17536981300E+02 -0.42764876213E+02  0.21506828983E+03  0.21997899818E+03  0.10000000000E+00 0. -1.
         -5    1    3    3    0  501 -0.24496420154E+02  0.22452840097E+02  0.44240351810E+01  0.33522928215E+02  0.10000000000E+00 0. -1.
         21    1    1    2  504  503  0.69594388537E+01  0.20312036116E+02  0.44952736711E+02  0.49817277506E+02  0.00000000000E+00 0.  1.
<mgrwt>
<rscale>  1 0.12683196E+03</rscale>
<asrwt>0</asrwt>
<pdfrwt beam="1">  1       21 0.43674171E-01 0.12683196E+03</pdfrwt>
<pdfrwt beam="2">  1       21 0.29903188E-02 0.12683196E+03</pdfrwt>
<totfact> 0.31744022E+06</totfact>
</mgrwt>
</event>
<event>
 6    1  0.4241465E-002  0.1703566E+03  0.7546771E-02  0.1177477E+00
         21   -1    0    0  503  502  0.00000000000E+00  0.00000000000E+00  0.19550554204E+04  0.19550554204E+04  0.00000000000E+00 0. -1.
         21   -1    0    0  504  503 -0.00000000000E+00 -0.00000000000E+00 -0.38938807639E+02  0.38938807639E+02  0.00000000000E+00 0.  1.
         25    2    1    2    0    0  0.11255900891E+03 -0.26955297656E+02  0.15886972312E+03  0.23293978547E+03  0.12500094468E+03 0.  0.
          5    1    3    3  501    0  0.19376352181E+02 -0.26939011094E+02  0.13178781507E+03  0.13590140376E+03  0.10000000000E+00 0.  1.
         -5    1    3    3    0  501  0.93182656730E+02 -0.16286561836E-01  0.27081908050E+02  0.97038381706E+02  0.10000000000E+00 0.  1.
         21    1    1    2  504  502 -0.11255900891E+03  0.26955297656E+02  0.17572468896E+04  0.17610544425E+04  0.00000000000E+00 0. -1.
<mgrwt>
<rscale>  1 0.17035655E+03</rscale>
<asrwt>0</asrwt>
<pdfrwt beam="1">  1       21 0.30077768E+00 0.17035655E+03</pdfrwt>
<pdfrwt beam="2">  1       21 0.59905873E-02 0.17035655E+03</pdfrwt>
<totfact> 0.68587362E+03</totfact>
</mgrwt>
</event>
<event>
 6    1  0.4241465E-002  0.1285155E+03  0.7546771E-02  0.1229675E+00
         21   -1    0    0  504  502  0.00000000000E+00  0.00000000000E+00  0.26022032818E+02  0.26022032818E+02  0.00000000000E+00 0. -1.
         21   -1    0    0  502  503 -0.00000000000E+00 -0.00000000000E+00 -0.53742723352E+03  0.53742723352E+03  0.00000000000E+00 0. -1.
         25    2    1    2    0    0  0.81714330996E+01  0.28716781623E+02 -0.51729249046E+03  0.53301760443E+03  0.12499928033E+03 0.  0.
          5    1    3    3  501    0 -0.92265489637E+01  0.60595403384E+02 -0.12677384956E+03  0.14081388798E+03  0.10000000000E+00 0. -1.
         -5    1    3    3    0  501  0.17397982063E+02 -0.31878621760E+02 -0.39051864090E+03  0.39220371645E+03  0.10000000000E+00 0. -1.
         21    1    1    2  504  503 -0.81714330996E+01 -0.28716781623E+02  0.58872897570E+01  0.30431661906E+02  0.00000000000E+00 0. -1.
<mgrwt>
<rscale>  1 0.12851555E+03</rscale>
<asrwt>0</asrwt>
<pdfrwt beam="1">  1       21 0.40033897E-02 0.12851555E+03</pdfrwt>
<pdfrwt beam="2">  1       21 0.82681111E-01 0.12851555E+03</pdfrwt>
<totfact> 0.50469897E+05</totfact>
</mgrwt>
</event>
<event>
 6    1  0.4241465E-002  0.1307556E+03  0.7546771E-02  0.1226339E+00
         21   -1    0    0  503  502  0.00000000000E+00  0.00000000000E+00  0.18249406514E+04  0.18249406514E+04  0.00000000000E+00 0.  1.
         21   -1    0    0  504  503 -0.00000000000E+00 -0.00000000000E+00 -0.42967536954E+01  0.42967536954E+01  0.00000000000E+00 0. -1.
         25    2    1    2    0    0  0.35799953891E+02 -0.13795525315E+02  0.15954136396E+04  0.16007628499E+04  0.12500026761E+03 0.  0.
          5    1    3    3  501    0  0.74971094381E+02  0.46864711003E+01  0.13024980249E+04  0.13046623099E+04  0.10000000000E+00 0.  1.
         -5    1    3    3    0  501 -0.39171140491E+02 -0.18481996415E+02  0.29291561471E+03  0.29610053998E+03  0.10000000000E+00 0.  1.
         21    1    1    2  504  502 -0.35799953891E+02  0.13795525315E+02  0.22523025812E+03  0.22847455523E+03  0.00000000000E+00 0. -1.
<mgrwt>
<rscale>  1 0.13075557E+03</rscale>
<asrwt>0</asrwt>
<pdfrwt beam="1">  1       21 0.28075948E+00 0.13075557E+03</pdfrwt>
<pdfrwt beam="2">  1       21 0.66104049E-03 0.13075557E+03</pdfrwt>
<totfact> 0.33197209E+05</totfact>
</mgrwt>
</event>
<event>
 6    1  0.4241465E-002  0.1298869E+03  0.7546771E-02  0.1227624E+00
         21   -1    0    0  504  502  0.00000000000E+00  0.00000000000E+00  0.12020652165E+02  0.12020652165E+02  0.00000000000E+00 0. -1.
         21   -1    0    0  502  503 -0.00000000000E+00 -0.00000000000E+00 -0.75796199070E+03  0.75796199070E+03  0.00000000000E+00 0. -1.
         25    2    1    2    0    0 -0.94839528111E+01 -0.33980439479E+02 -0.70057257942E+03  0.71251143328E+03  0.12500395147E+03 0.  0.
          5    1    3    3  501    0 -0.18921899559E+02  0.11557771404E+02 -0.61261357276E+03  0.61301469794E+03  0.10000000000E+00 0.  1.
         -5    1    3    3    0  501  0.94379467479E+01 -0.45538210884E+02 -0.87959006658E+02  0.99496735332E+02  0.10000000000E+00 0.  1.
         21    1    1    2  504  503  0.94839528111E+01  0.33980439479E+02 -0.45368759115E+02  0.57471209591E+02  0.00000000000E+00 0. -1.
<mgrwt>
<rscale>  1 0.12988689E+03</rscale>
<asrwt>0</asrwt>
<pdfrwt beam="1">  1       21 0.18493313E-02 0.12988689E+03</pdfrwt>
<pdfrwt beam="2">  1       21 0.11660953E+00 0.12988689E+03</pdfrwt>
<totfact> 0.79948210E+05</totfact>
</mgrwt>
</event>
<event>
 6    1  0.4241465E-002  0.1261735E+03  0.7546771E-02  0.1233247E+00
         21   -1    0    0  503  502  0.00000000000E+00  0.00000000000E+00  0.26434295816E+03  0.26434295816E+03  0.00000000000E+00 0. -1.
         21   -1    0    0  504  503 -0.00000000000E+00 -0.00000000000E+00 -0.76544811281E+02  0.76544811281E+02  0.00000000000E+00 0. -1.
         25    2    1    2    0    0  0.13355553862E+02  0.10795340941E+02 -0.23965181452E+02  0.12842926189E+03  0.12499934073E+03 0.  0.
          5    1    3    3  501    0  0.27780957452E+02  0.21783808251E+01 -0.72178849445E+02  0.77371333498E+02  0.10000000000E+00 0.  1.
         -5    1    3    3    0  501 -0.14425403590E+02  0.86169601157E+01  0.48213667993E+02  0.51057928392E+02  0.10000000000E+00 0.  1.
         21    1    1    2  504  502 -0.13355553862E+02 -0.10795340941E+02  0.21176332833E+03  0.21245850755E+03  0.00000000000E+00 0. -1.
<mgrwt>
<rscale>  1 0.12617347E+03</rscale>
<asrwt>0</asrwt>
<pdfrwt beam="1">  1       21 0.40668147E-01 0.12617347E+03</pdfrwt>
<pdfrwt beam="2">  1       21 0.11776125E-01 0.12617347E+03</pdfrwt>
<totfact> 0.35783614E+05</totfact>
</mgrwt>
</event>
<event>
 6    1  0.4241465E-002  0.1265153E+03  0.7546771E-02  0.1232720E+00
         21   -1    0    0  504  502  0.00000000000E+00  0.00000000000E+00  0.48684688922E+03  0.48684688922E+03  0.00000000000E+00 0.  1.
         21   -1    0    0  502  503 -0.00000000000E+00 -0.00000000000E+00 -0.10966979515E+02  0.10966979515E+02  0.00000000000E+00 0.  1.
         25    2    1    2    0    0 -0.15844924009E+02  0.11416142297E+02  0.40588000134E+03  0.42514078504E+03  0.12499888679E+03 0.  0.
          5    1    3    3  501    0  0.20206330974E+02  0.53809855597E+02  0.30071772828E+03  0.30616165415E+03  0.10000000000E+00 0. -1.
         -5    1    3    3    0  501 -0.36051254983E+02 -0.42393713300E+02  0.10516227306E+03  0.11897913089E+03  0.10000000000E+00 0. -1.
         21    1    1    2  504  503  0.15844924009E+02 -0.11416142297E+02  0.69999908366E+02  0.72673083690E+02  0.00000000000E+00 0.  1.
<mgrwt>
<rscale>  1 0.12651526E+03</rscale>
<asrwt>0</asrwt>
<pdfrwt beam="1">  1       21 0.74899505E-01 0.12651526E+03</pdfrwt>
<pdfrwt beam="2">  1       21 0.16872280E-02 0.12651526E+03</pdfrwt>
<totfact> 0.25728632E+06</totfact>
</mgrwt>
</event>
<event>
 6    1  0.4241465E-002  0.1270461E+03  0.7546771E-02  0.1231906E+00
         21   -1    0    0  504  502  0.00000000000E+00  0.00000000000E+00  0.26410807366E+02  0.26410807366E+02  0.00000000000E+00 0. -1.
         21   -1    0    0  502  503 -0.00000000000E+00 -0.00000000000E+00 -0.21317548112E+03  0.21317548112E+03  0.00000000000E+00 0. -1.
         25    2    1    2    0    0 -0.11950342458E+02  0.19334075039E+02 -0.16354875410E+03  0.20709635054E+03  0.12499634513E+03 0.  0.
          5    1    3    3  501    0 -0.14070561820E+02  0.72225342940E+02 -0.85696127701E+02  0.11295272098E+03  0.10000000000E+00 0. -1.
         -5    1    3    3    0  501  0.21202193627E+01 -0.52891267901E+02 -0.77852626395E+02  0.94143629561E+02  0.10000000000E+00 0. -1.
         21    1    1    2  504  503  0.11950342458E+02 -0.19334075039E+02 -0.23215919660E+02  0.32489937952E+02  0.00000000000E+00 0. -1.
<mgrwt>
<rscale>  1 0.12704607E+03</rscale>
<asrwt>0</asrwt>
<pdfrwt beam="1">  1       21 0.40632012E-02 0.12704607E+03</pdfrwt>
<pdfrwt beam="2">  1       21 0.32796228E-01 0.12704607E+03</pdfrwt>
<totfact> 0.33788050E+06</totfact>
</mgrwt>
</event>
<event>
 6    1  0.4241465E-002  0.1310138E+03  0.7546771E-02  0.1225959E+00
         21   -1    0    0  503  502  0.00000000000E+00  0.00000000000E+00  0.98938102177E+02  0.98938102177E+02  0.00000000000E+00 0.  1.
         21   -1    0    0  504  503 -0.00000000000E+00 -0.00000000000E+00 -0.92994528062E+02  0.92994528062E+02  0.00000000000E+00 0.  1.
         25    2    1    2    0    0 -0.38719731510E+02  0.56534105617E+01 -0.34682246437E+02  0.13552663805E+03  0.12503372643E+03 0.  0.
          5    1    3    3  501    0 -0.30541140070E+02  0.30089530825E+02 -0.75751381025E+02  0.87042649485E+02  0.10000000000E+00 0. -1.
         -5    1    3    3    0  501 -0.81785914409E+01 -0.24436120264E+02  0.41069134589E+02  0.48483988567E+02  0.10000000000E+00 0. -1.
         21    1    1    2  504  502  0.38719731510E+02 -0.56534105617E+01  0.40625820551E+02  0.56405992188E+02  0.00000000000E+00 0.  1.
<mgrwt>
<rscale>  1 0.13101378E+03</rscale>
<asrwt>0</asrwt>
<pdfrwt beam="1">  1       21 0.15221246E-01 0.13101378E+03</pdfrwt>
<pdfrwt beam="2">  1       21 0.14306850E-01 0.13101378E+03</pdfrwt>
<totfact> 0.16269779E+06</totfact>
</mgrwt>
</event>
<event>
 6    1  0.4241465E-002  0.1356443E+03  0.7546771E-02  0.1219313E+00
         21   -1    0    0  504  502  0.00000000000E+00  0.00000000000E+00  0.12110321834E+04  0.12110321834E+04  0.00000000000E+00 0. -1.
         21   -1    0    0  502  503 -0.00000000000E+00 -0.00000000000E+00 -0.10639315736E+02  0.10639315736E+02  0.00000000000E+00 0.  1.
         25    2    1    2    0    0  0.87146098938E+01  0.51937343423E+02  0.46460134137E+03  0.48399772149E+03  0.12500382367E+03 0.  0.
          5    1    3    3  501    0 -0.84128411768E+01  0.91837400153E+02  0.31482501744E+03  0.32805439422E+03  0.10000000000E+00 0.  1.
         -5    1    3    3    0  501  0.17127451071E+02 -0.39900056729E+02  0.14977632393E+03  0.15594332726E+03  0.10000000000E+00 0.  1.
         21    1    1    2  504  503 -0.87146098938E+01 -0.51937343423E+02  0.73579152626E+03  0.73767377762E+03  0.00000000000E+00 0. -1.
<mgrwt>
<rscale>  1 0.13564434E+03</rscale>
<asrwt>0</asrwt>
<pdfrwt beam="1">  1       21 0.18631254E+00 0.13564434E+03</pdfrwt>
<pdfrwt beam="2">  1       21 0.16368188E-02 0.13564434E+03</pdfrwt>
<totfact> 0.28806312E+05</totfact>
</mgrwt>
</event>
<event>
 6    1  0.4241465E-002  0.1372762E+03  0.7546771E-02  0.1217042E+00
         21   -1    0    0  503  502  0.00000000000E+00  0.00000000000E+00  0.49469743862E+03  0.49469743862E+03  0.00000000000E+00 0.  1.
         21   -1    0    0  504  503 -0.00000000000E+00 -0.00000000000E+00 -0.19820698946E+02  0.19820698946E+02  0.00000000000E+00 0.  1.
         25    2    1    2    0    0 -0.15219723474E+02 -0.54651899400E+02  0.28483648068E+03  0.31619070595E+03  0.12500508676E+03 0.  0.
          5    1    3    3  501    0  0.30599711256E+01 -0.91968251221E+02  0.15944011076E+03  0.18408878721E+03  0.10000000000E+00 0.  1.
         -5    1    3    3    0  501 -0.18279694599E+02  0.37316351822E+02  0.12539636991E+03  0.13210191874E+03  0.10000000000E+00 0.  1.
         21    1    1    2  504  502  0.15219723474E+02  0.54651899400E+02  0.19004025899E+03  0.19832743161E+03  0.00000000000E+00 0.  1.
<mgrwt>
<rscale>  1 0.13727615E+03</rscale>
<asrwt>0</asrwt>
<pdfrwt beam="1">  1       21 0.76107289E-01 0.13727615E+03</pdfrwt>
<pdfrwt beam="2">  1       21 0.30493387E-02 0.13727615E+03</pdfrwt>
<totfact> 0.95158320E+05</totfact>
</mgrwt>
</event>
<event>
 6    1  0.4241465E-002  0.1274120E+03  0.7546771E-02  0.1231347E+00
         21   -1    0    0  503  502  0.00000000000E+00  0.00000000000E+00  0.23397419381E+03  0.23397419381E+03  0.00000000000E+00 0.  1.
         21   -1    0    0  504  503 -0.00000000000E+00 -0.00000000000E+00 -0.34663388746E+02  0.34663388746E+02  0.00000000000E+00 0.  1.
         25    2    1    2    0    0  0.19131592040E+02  0.15602491424E+02  0.88555104825E+02  0.15516388213E+03  0.12499747267E+03 0.  0.
          5    1    3    3  501    0 -0.20501000591E+02  0.20826068759E+02  0.10715831273E+03  0.11107173427E+03  0.10000000000E+00 0. -1.
         -5    1    3    3    0  501  0.39632592631E+02 -0.52235773346E+01 -0.18603207908E+02  0.44092147864E+02  0.10000000000E+00 0. -1.
         21    1    1    2  504  502 -0.19131592040E+02 -0.15602491424E+02  0.11075570024E+03  0.11347370042E+03  0.00000000000E+00 0.  1.
<mgrwt>
<rscale>  1 0.12741202E+03</rscale>
<asrwt>0</asrwt>
<pdfrwt beam="1">  1       21 0.35996029E-01 0.12741202E+03</pdfrwt>
<pdfrwt beam="2">  1       21 0.53328292E-02 0.12741202E+03</pdfrwt>
<totfact> 0.17865576E+06</totfact>
</mgrwt>
</event>
<event>
 6    1  0.4241465E-002  0.1260351E+03  0.7546771E-02  0.1233460E+00
         21   -1    0    0  504  502  0.00000000000E+00  0.00000000000E+00  0.31798388286E+03  0.31798388286E+03  0.00000000000E+00 0. -1.
         21   -1    0    0  502  503 -0.00000000000E+00 -0.00000000000E+00 -0.50757235442E+02  0.50757235442E+02  0.00000000000E+00 0. -1.
         25    2    1    2    0    0 -0.11384381572E+02  0.11424308499E+02  0.28174963047E+02  0.12914598736E+03  0.12499895416E+03 0.  0.
          5    1    3    3  501    0 -0.84673220238E+01  0.31165358023E+02  0.73139390183E+02  0.79952207470E+02  0.10000000000E+00 0. -1.
         -5    1    3    3    0  501 -0.29170595486E+01 -0.19741049524E+02 -0.44964427136E+02  0.49193779895E+02  0.10000000000E+00 0. -1.
         21    1    1    2  504  503  0.11384381572E+02 -0.11424308499E+02  0.23905168437E+03  0.23959513094E+03  0.00000000000E+00 0. -1.
<mgrwt>
<rscale>  1 0.12603514E+03</rscale>
<asrwt>0</asrwt>
<pdfrwt beam="1">  1       21 0.48920596E-01 0.12603514E+03</pdfrwt>
<pdfrwt beam="2">  1       21 0.78088056E-02 0.12603514E+03</pdfrwt>
<totfact> 0.50354358E+05</totfact>
</mgrwt>
</event>
<event>
 6    1  0.4241465E-002  0.1282716E+03  0.7546771E-02  0.1230043E+00
         21   -1    0    0  504  502  0.00000000000E+00  0.00000000000E+00  0.11869245906E+04  0.11869245906E+04  0.00000000000E+00 0.  1.
         21   -1    0    0  502  503 -0.00000000000E+00 -0.00000000000E+00 -0.86500338683E+01  0.86500338683E+01  0.00000000000E+00 0.  1.
         25    2    1    2    0    0 -0.25323514619E+01  0.28668712651E+02  0.48416359422E+03  0.50086724998E+03  0.12500123298E+03 0.  0.
          5    1    3    3  501    0 -0.63494817963E+02  0.10338023966E+02  0.25993921880E+03  0.26778139240E+03  0.10000000000E+00 0.  1.
         -5    1    3    3    0  501  0.60962466501E+02  0.18330688684E+02  0.22422437543E+03  0.23308585758E+03  0.10000000000E+00 0.  1.
         21    1    1    2  504  503  0.25323514619E+01 -0.28668712651E+02  0.69411096252E+03  0.69470737450E+03  0.00000000000E+00 0.  1.
<mgrwt>
<rscale>  1 0.12827165E+03</rscale>
<asrwt>0</asrwt>
<pdfrwt beam="1">  1       21 0.18260365E+00 0.12827165E+03</pdfrwt>
<pdfrwt beam="2">  1       21 0.13307754E-02 0.12827165E+03</pdfrwt>
<totfact> 0.42539256E+05</totfact>
</mgrwt>
</event>
<event>
 6    1  0.4241465E-002  0.1549773E+03  0.7546771E-02  0.1194487E+00
         21   -1    0    0  503  502  0.00000000000E+00  0.00000000000E+00  0.55232836512E+02  0.55232836512E+02  0.00000000000E+00 0.  1.
         21   -1    0    0  504  503 -0.00000000000E+00 -0.00000000000E+00 -0.59965744509E+03  0.59965744509E+03  0.00000000000E+00 0.  1.
         25    2    1    2    0    0 -0.57510127951E+02  0.71312218269E+02 -0.54148958075E+03  0.56323079393E+03  0.12500045553E+03 0.  0.
          5    1    3    3  501    0 -0.73528916734E+02  0.97913805561E+02 -0.39757446553E+03  0.41600370258E+03  0.10000000000E+00 0.  1.
         -5    1    3    3    0  501  0.16018788782E+02 -0.26601587292E+02 -0.14391511522E+03  0.14722709135E+03  0.10000000000E+00 0.  1.
         21    1    1    2  504  502  0.57510127951E+02 -0.71312218269E+02 -0.29350278271E+01  0.91659487669E+02  0.00000000000E+00 0.  1.
<mgrwt>
<rscale>  1 0.15497729E+03</rscale>
<asrwt>0</asrwt>
<pdfrwt beam="1">  1       21 0.84973594E-02 0.15497729E+03</pdfrwt>
<pdfrwt beam="2">  1       21 0.92254992E-01 0.15497729E+03</pdfrwt>
<totfact> 0.10880217E+05</totfact>
</mgrwt>
</event>
<event>
 6    1  0.4241465E-002  0.1260134E+03  0.7546771E-02  0.1233494E+00
         21   -1    0    0  503  502  0.00000000000E+00  0.00000000000E+00  0.13297763982E+02  0.13297763982E+02  0.00000000000E+00 0.  1.
         21   -1    0    0  504  503 -0.00000000000E+00 -0.00000000000E+00 -0.58248922833E+03  0.58248922833E+03  0.00000000000E+00 0.  1.
         25    2    1    2    0    0 -0.12216748794E+02  0.10203761471E+02 -0.56560231272E+03  0.57946989365E+03  0.12500406311E+03 0.  0.
          5    1    3    3  501    0 -0.41191288255E+02  0.19092650973E+02 -0.73205295107E+02  0.86141028441E+02  0.10000000000E+00 0. -1.
         -5    1    3    3    0  501  0.28974539461E+02 -0.88888895020E+01 -0.49239701762E+03  0.49332886521E+03  0.10000000000E+00 0. -1.
         21    1    1    2  504  502  0.12216748794E+02 -0.10203761471E+02 -0.35891516229E+01  0.16317098658E+02  0.00000000000E+00 0.  1.
<mgrwt>
<rscale>  1 0.12601342E+03</rscale>
<asrwt>0</asrwt>
<pdfrwt beam="1">  1       21 0.20458101E-02 0.12601342E+03</pdfrwt>
<pdfrwt beam="2">  1       21 0.89613715E-01 0.12601342E+03</pdfrwt>
<totfact> 0.12619566E+06</totfact>
</mgrwt>
</event>
<event>
 6    1  0.4241465E-002  0.1980110E+03  0.7546771E-02  0.1151428E+00
         21   -1    0    0  503  502  0.00000000000E+00  0.00000000000E+00  0.48460375812E+03  0.48460375812E+03  0.00000000000E+00 0.  1.
         21   -1    0    0  504  503 -0.00000000000E+00 -0.00000000000E+00 -0.64029687397E+02  0.64029687397E+02  0.00000000000E+00 0.  1.
         25    2    1    2    0    0 -0.14548137971E+03 -0.49181042402E+02  0.21936309408E+03  0.29551397986E+03  0.12499895390E+03 0.  0.
          5    1    3    3  501    0 -0.17020698986E+02  0.38325277947E+02  0.37269838624E+02  0.56103315363E+02  0.10000000000E+00 0. -1.
         -5    1    3    3    0  501 -0.12846068072E+03 -0.87506320348E+02  0.18209325545E+03  0.23941066450E+03  0.10000000000E+00 0. -1.
         21    1    1    2  504  502  0.14548137971E+03  0.49181042402E+02  0.20121097664E+03  0.25311946566E+03  0.00000000000E+00 0.  1.
<mgrwt>
<rscale>  1 0.19801097E+03</rscale>
<asrwt>0</asrwt>
<pdfrwt beam="1">  1       21 0.74554422E-01 0.19801097E+03</pdfrwt>
<pdfrwt beam="2">  1       21 0.98507215E-02 0.19801097E+03</pdfrwt>
<totfact> 0.13398774E+05</totfact>
</mgrwt>
</event>
<event>
 6    1  0.4241465E-002  0.1275046E+03  0.7546771E-02  0.1231206E+00
         21   -1    0    0  503  502  0.00000000000E+00  0.00000000000E+00  0.26778480599E+02  0.26778480599E+02  0.00000000000E+00 0. -1.
         21   -1    0    0  504  503 -0.00000000000E+00 -0.00000000000E+00 -0.26274432617E+03  0.26274432617E+03  0.00000000000E+00 0. -1.
         25    2    1    2    0    0  0.24583256613E+02  0.53835715526E+01 -0.23102735308E+03  0.26387698730E+03  0.12499642877E+03 0.  0.
          5    1    3    3  501    0  0.43754951128E+02  0.25347539515E+02 -0.23071997394E+03  0.23619633757E+03  0.10000000000E+00 0.  1.
         -5    1    3    3    0  501 -0.19171694515E+02 -0.19963967963E+02 -0.30737914372E+00  0.27680649727E+02  0.10000000000E+00 0.  1.
         21    1    1    2  504  502 -0.24583256613E+02 -0.53835715526E+01 -0.49384924902E+01  0.25645819473E+02  0.00000000000E+00 0. -1.
<mgrwt>
<rscale>  1 0.12750461E+03</rscale>
<asrwt>0</asrwt>
<pdfrwt beam="1">  1       21 0.41197662E-02 0.12750461E+03</pdfrwt>
<pdfrwt beam="2">  1       21 0.40422204E-01 0.12750461E+03</pdfrwt>
<totfact> 0.21858859E+06</totfact>
</mgrwt>
</event>
<event>
 6    1  0.4241465E-002  0.1259285E+03  0.7546771E-02  0.1233625E+00
         21   -1    0    0  504  502  0.00000000000E+00  0.00000000000E+00  0.24199409475E+02  0.24199409475E+02  0.00000000000E+00 0. -1.
         21   -1    0    0  502  503 -0.00000000000E+00 -0.00000000000E+00 -0.20670962088E+03  0.20670962088E+03  0.00000000000E+00 0. -1.
         25    2    1    2    0    0 -0.14941128144E+02 -0.31806737587E+01 -0.15825124380E+03  0.20224107777E+03  0.12499857351E+03 0.  0.
          5    1    3    3  501    0 -0.63747024490E+02 -0.27133659937E+02 -0.69306908569E+02  0.97996817337E+02  0.10000000000E+00 0.  1.
         -5    1    3    3    0  501  0.48805896346E+02  0.23952986178E+02 -0.88944335227E+02  0.10424426044E+03  0.10000000000E+00 0.  1.
         21    1    1    2  504  503  0.14941128144E+02  0.31806737587E+01 -0.24258967606E+02  0.28667952580E+02  0.00000000000E+00 0.  1.
<mgrwt>
<rscale>  1 0.12592854E+03</rscale>
<asrwt>0</asrwt>
<pdfrwt beam="1">  1       21 0.37229862E-02 0.12592854E+03</pdfrwt>
<pdfrwt beam="2">  1       21 0.31801479E-01 0.12592854E+03</pdfrwt>
<totfact> 0.41455295E+06</totfact>
</mgrwt>
</event>
<event>
 6    1  0.4241465E-002  0.1262262E+03  0.7546771E-02  0.1233165E+00
         21   -1    0    0  504  502  0.00000000000E+00  0.00000000000E+00  0.69998840693E+02  0.69998840693E+02  0.00000000000E+00 0. -1.
         21   -1    0    0  502  503 -0.00000000000E+00 -0.00000000000E+00 -0.14313778425E+03  0.14313778425E+03  0.00000000000E+00 0. -1.
         25    2    1    2    0    0 -0.15807475475E+02  0.76530604000E+01 -0.11310188269E+03  0.16948479659E+03  0.12499845916E+03 0.  0.
          5    1    3    3  501    0 -0.26316681655E+02 -0.34548856631E+02  0.49167077600E+01  0.43707839606E+02  0.10000000000E+00 0. -1.
         -5    1    3    3    0  501  0.10509206180E+02  0.42201917032E+02 -0.11801859045E+03  0.12577695698E+03  0.10000000000E+00 0. -1.
         21    1    1    2  504  503  0.15807475475E+02 -0.76530604000E+01  0.39962939134E+02  0.43651828354E+02  0.00000000000E+00 0. -1.
<mgrwt>
<rscale>  1 0.12622623E+03</rscale>
<asrwt>0</asrwt>
<pdfrwt beam="1">  1       21 0.10769052E-01 0.12622623E+03</pdfrwt>
<pdfrwt beam="2">  1       21 0.22021197E-01 0.12622623E+03</pdfrwt>
<totfact> 0.13677668E+06</totfact>
</mgrwt>
</event>
<event>
 6    1  0.4241465E-002  0.1491481E+03  0.7546771E-02  0.1201524E+00
         21   -1    0    0  503  502  0.00000000000E+00  0.00000000000E+00  0.18585568202E+02  0.18585568202E+02  0.00000000000E+00 0.  1.
         21   -1    0    0  504  503 -0.00000000000E+00 -0.00000000000E+00 -0.75061170056E+03  0.75061170056E+03  0.00000000000E+00 0.  1.
         25    2    1    2    0    0 -0.53698480315E+02  0.61146258160E+02 -0.38804626489E+03  0.41572231789E+03  0.12499100054E+03 0.  0.
          5    1    3    3  501    0  0.26715115768E+02  0.61736778866E+02 -0.20601900285E+03  0.21672324935E+03  0.10000000000E+00 0. -1.
         -5    1    3    3    0  501 -0.80413596084E+02 -0.59052070645E+00 -0.18202726205E+03  0.19899906854E+03  0.10000000000E+00 0. -1.
         21    1    1    2  504  502  0.53698480315E+02 -0.61146258160E+02 -0.34397986747E+03  0.35347495088E+03  0.00000000000E+00 0.  1.
<mgrwt>
<rscale>  1 0.14914805E+03</rscale>
<asrwt>0</asrwt>
<pdfrwt beam="1">  1       21 0.28593182E-02 0.14914805E+03</pdfrwt>
<pdfrwt beam="2">  1       21 0.11547872E+00 0.14914805E+03</pdfrwt>
<totfact> 0.40193688E+05</totfact>
</mgrwt>
</event>
<event>
 6    1  0.4241465E-002  0.1272704E+03  0.7546771E-02  0.1231563E+00
         21   -1    0    0  503  502  0.00000000000E+00  0.00000000000E+00  0.46863345883E+01  0.46863345883E+01  0.00000000000E+00 0. -1.
         21   -1    0    0  504  503 -0.00000000000E+00 -0.00000000000E+00 -0.12416124345E+04  0.12416124345E+04  0.00000000000E+00 0. -1.
         25    2    1    2    0    0  0.15047017350E+02  0.18622704015E+02 -0.97285462434E+03  0.98114416881E+03  0.12499816824E+03 0.  0.
          5    1    3    3  501    0  0.48126191136E+02 -0.30545084570E+02 -0.67809940111E+03  0.68049095530E+03  0.10000000000E+00 0. -1.
         -5    1    3    3    0  501 -0.33079173786E+02  0.49167788585E+02 -0.29475522323E+03  0.30065321351E+03  0.10000000000E+00 0. -1.
         21    1    1    2  504  502 -0.15047017350E+02 -0.18622704015E+02 -0.26407147556E+03  0.26515460026E+03  0.00000000000E+00 0.  1.
<mgrwt>
<rscale>  1 0.12727042E+03</rscale>
<asrwt>0</asrwt>
<pdfrwt beam="1">  1       21 0.72097351E-03 0.12727042E+03</pdfrwt>
<pdfrwt beam="2">  1       21 0.19101757E+00 0.12727042E+03</pdfrwt>
<totfact> 0.98447426E+05</totfact>
</mgrwt>
</event>
<event>
 6    1  0.4241465E-002  0.1686357E+03  0.7546771E-02  0.1179278E+00
         21   -1    0    0  503  502  0.00000000000E+00  0.00000000000E+00  0.79219571553E+03  0.79219571553E+03  0.00000000000E+00 0.  1.
         21   -1    0    0  504  503 -0.00000000000E+00 -0.00000000000E+00 -0.25184725001E+02  0.25184725001E+02  0.00000000000E+00 0.  1.
         25    2    1    2    0    0 -0.12383950996E+02 -0.11251200198E+03  0.43100162866E+03  0.46281788738E+03  0.12500272053E+03 0.  0.
          5    1    3    3  501    0 -0.22154533162E+02 -0.47544716253E+02  0.36824829622E+03  0.37196524172E+03  0.10000000000E+00 0.  1.
         -5    1    3    3    0  501  0.97705821655E+01 -0.64967285727E+02  0.62753332446E+02  0.90852645661E+02  0.10000000000E+00 0.  1.
         21    1    1    2  504  502  0.12383950996E+02  0.11251200198E+03  0.33600936186E+03  0.35456255314E+03  0.00000000000E+00 0.  1.
<mgrwt>
<rscale>  1 0.16863568E+03</rscale>
<asrwt>0</asrwt>
<pdfrwt beam="1">  1       21 0.12187625E+00 0.16863568E+03</pdfrwt>
<pdfrwt beam="2">  1       21 0.38745737E-02 0.16863568E+03</pdfrwt>
<totfact> 0.21180377E+05</totfact>
</mgrwt>
</event>
<event>
 6    1  0.4241465E-002  0.1259103E+03  0.7546771E-02  0.1233653E+00
         21   -1    0    0  503  502  0.00000000000E+00  0.00000000000E+00  0.15651538012E+02  0.15651538012E+02  0.00000000000E+00 0.  1.
         21   -1    0    0  504  503 -0.00000000000E+00 -0.00000000000E+00 -0.35061722871E+03  0.35061722871E+03  0.00000000000E+00 0.  1.
         25    2    1    2    0    0 -0.13546224616E+02  0.67818717201E+01 -0.32388994540E+03  0.34750267711E+03  0.12499567945E+03 0.  0.
          5    1    3    3  501    0 -0.33523400285E+02 -0.19496544844E+02 -0.30876809325E+03  0.31119395726E+03  0.10000000000E+00 0.  1.
         -5    1    3    3    0  501  0.19977175669E+02  0.26278416564E+02 -0.15121852158E+02  0.36308719855E+02  0.10000000000E+00 0.  1.
         21    1    1    2  504  502  0.13546224616E+02 -0.67818717201E+01 -0.11075745294E+02  0.18766089608E+02  0.00000000000E+00 0.  1.
<mgrwt>
<rscale>  1 0.12591034E+03</rscale>
<asrwt>0</asrwt>
<pdfrwt beam="1">  1       21 0.24079289E-02 0.12591034E+03</pdfrwt>
<pdfrwt beam="2">  1       21 0.53941112E-01 0.12591034E+03</pdfrwt>
<totfact> 0.29292838E+06</totfact>
</mgrwt>
</event>
<event>
 6    1  0.4241465E-002  0.1349602E+03  0.7546771E-02  0.1220276E+00
         21   -1    0    0  503  502  0.00000000000E+00  0.00000000000E+00  0.73449034385E+02  0.73449034385E+02  0.00000000000E+00 0. -1.
         21   -1    0    0  504  503 -0.00000000000E+00 -0.00000000000E+00 -0.14086270480E+03  0.14086270480E+03  0.00000000000E+00 0. -1.
         25    2    1    2    0    0  0.20175346006E+02  0.46710891444E+02 -0.86124208095E+02  0.16009886077E+03  0.12500125613E+03 0.  0.
          5    1    3    3  501    0  0.12360545689E+02 -0.42873304958E+02 -0.22734397500E+02  0.50077601754E+02  0.10000000000E+00 0.  1.
         -5    1    3    3    0  501  0.78148003168E+01  0.89584196402E+02 -0.63389810594E+02  0.11002125902E+03  0.10000000000E+00 0.  1.
         21    1    1    2  504  502 -0.20175346006E+02 -0.46710891444E+02  0.18710537676E+02  0.54212878415E+02  0.00000000000E+00 0. -1.
<mgrwt>
<rscale>  1 0.13496024E+03</rscale>
<asrwt>0</asrwt>
<pdfrwt beam="1">  1       21 0.11299852E-01 0.13496024E+03</pdfrwt>
<pdfrwt beam="2">  1       21 0.21671185E-01 0.13496024E+03</pdfrwt>
<totfact> 0.12961607E+06</totfact>
</mgrwt>
</event>
<event>
 6    1  0.4241465E-002  0.1275016E+03  0.7546771E-02  0.1231211E+00
         21   -1    0    0  503  502  0.00000000000E+00  0.00000000000E+00  0.56163400794E+02  0.56163400794E+02  0.00000000000E+00 0. -1.
         21   -1    0    0  504  503 -0.00000000000E+00 -0.00000000000E+00 -0.10389802403E+03  0.10389802403E+03  0.00000000000E+00 0. -1.
         25    2    1    2    0    0 -0.65190197450E+01 -0.24395960506E+02 -0.40899481747E+02  0.13390077371E+03  0.12497595403E+03 0.  0.
          5    1    3    3  501    0 -0.56246651179E+02 -0.26174521828E+02 -0.54215783740E+02  0.82390245590E+02  0.10000000000E+00 0.  1.
         -5    1    3    3    0  501  0.49727631434E+02  0.17785613220E+01  0.13316301993E+02  0.51510528120E+02  0.10000000000E+00 0.  1.
         21    1    1    2  504  502  0.65190197450E+01  0.24395960506E+02 -0.68351414836E+01  0.26160651111E+02  0.00000000000E+00 0. -1.
<mgrwt>
<rscale>  1 0.12750157E+03</rscale>
<asrwt>0</asrwt>
<pdfrwt beam="1">  1       21 0.86405232E-02 0.12750157E+03</pdfrwt>
<pdfrwt beam="2">  1       21 0.15984311E-01 0.12750157E+03</pdfrwt>
<totfact> 0.36194488E+06</totfact>
</mgrwt>
</event>
<event>
 6    1  0.4241465E-002  0.1305409E+03  0.7546771E-02  0.1226655E+00
         21   -1    0    0  503  502  0.00000000000E+00  0.00000000000E+00  0.25914948997E+03  0.25914948997E+03  0.00000000000E+00 0. -1.
         21   -1    0    0  504  503 -0.00000000000E+00 -0.00000000000E+00 -0.15757462964E+03  0.15757462964E+03  0.00000000000E+00 0.  1.
         25    2    1    2    0    0 -0.45357446758E+01 -0.37353034093E+02 -0.12874718064E+03  0.18334874669E+03  0.12500041702E+03 0.  0.
          5    1    3    3  501    0  0.58021243960E+01 -0.68252137291E+02 -0.22316098531E+02  0.72041912425E+02  0.10000000000E+00 0. -1.
         -5    1    3    3    0  501 -0.10337869072E+02  0.30899103198E+02 -0.10643108211E+03  0.11130683426E+03  0.10000000000E+00 0. -1.
         21    1    1    2  504  502  0.45357446758E+01  0.37353034093E+02  0.23032204096E+03  0.23337537293E+03  0.00000000000E+00 0. -1.
<mgrwt>
<rscale>  1 0.13054090E+03</rscale>
<asrwt>0</asrwt>
<pdfrwt beam="1">  1       21 0.39869152E-01 0.13054090E+03</pdfrwt>
<pdfrwt beam="2">  1       21 0.24242251E-01 0.13054090E+03</pdfrwt>
<totfact> 0.99756184E+04</totfact>
</mgrwt>
</event>
<event>
 6    1  0.4241465E-002  0.1377859E+03  0.7546771E-02  0.1216340E+00
         21   -1    0    0  503  502  0.00000000000E+00  0.00000000000E+00  0.20664685564E+02  0.20664685564E+02  0.00000000000E+00 0.  1.
         21   -1    0    0  504  503 -0.00000000000E+00 -0.00000000000E+00 -0.76970146093E+03  0.76970146093E+03  0.00000000000E+00 0.  1.
         25    2    1    2    0    0  0.17293504978E+02  0.55325471114E+02 -0.70291059673E+03  0.71628782697E+03  0.12499988398E+03 0.  0.
          5    1    3    3  501    0 -0.25646118368E+02  0.65679438324E+02 -0.21250533852E+03  0.22389738924E+03  0.10000000000E+00 0.  1.
         -5    1    3    3    0  501  0.42939623347E+02 -0.10353967210E+02 -0.49040525821E+03  0.49239043773E+03  0.10000000000E+00 0.  1.
         21    1    1    2  504  502 -0.17293504978E+02 -0.55325471114E+02 -0.46126178630E+02  0.74078319523E+02  0.00000000000E+00 0.  1.
<mgrwt>
<rscale>  1 0.13778586E+03</rscale>
<asrwt>0</asrwt>
<pdfrwt beam="1">  1       21 0.31791828E-02 0.13778586E+03</pdfrwt>
<pdfrwt beam="2">  1       21 0.11841560E+00 0.13778586E+03</pdfrwt>
<totfact> 0.31852820E+05</totfact>
</mgrwt>
</event>
<event>
 6    1  0.4241465E-002  0.1271894E+03  0.7546771E-02  0.1231687E+00
         21   -1    0    0  504  502  0.00000000000E+00  0.00000000000E+00  0.36788984362E+01  0.36788984362E+01  0.00000000000E+00 0.  1.
         21   -1    0    0  502  503 -0.00000000000E+00 -0.00000000000E+00 -0.15968249508E+04  0.15968249508E+04  0.00000000000E+00 0.  1.
         25    2    1    2    0    0  0.19442855898E+02 -0.13298297797E+02 -0.14331854119E+04  0.14388181174E+04  0.12498912278E+03 0.  0.
          5    1    3    3  501    0 -0.41870487957E+01  0.17025683204E+02 -0.27543355379E+02  0.32650447037E+02  0.10000000000E+00 0.  1.
         -5    1    3    3    0  501  0.23629904693E+02 -0.30323981001E+02 -0.14056420565E+04  0.14061676704E+04  0.10000000000E+00 0.  1.
         21    1    1    2  504  503 -0.19442855898E+02  0.13298297797E+02 -0.15996064050E+03  0.16168573184E+03  0.00000000000E+00 0.  1.
<mgrwt>
<rscale>  1 0.12718943E+03</rscale>
<asrwt>0</asrwt>
<pdfrwt beam="1">  1       21 0.56598441E-03 0.12718943E+03</pdfrwt>
<pdfrwt beam="2">  1       21 0.24566536E+00 0.12718943E+03</pdfrwt>
<totfact> 0.67034753E+05</totfact>
</mgrwt>
</event>
<event>
 6    1  0.4241465E-002  0.1382945E+03  0.7546771E-02  0.1215642E+00
         21   -1    0    0  503  502  0.00000000000E+00  0.00000000000E+00  0.19289679413E+04  0.19289679413E+04  0.00000000000E+00 0. -1.
         21   -1    0    0  504  503 -0.00000000000E+00 -0.00000000000E+00 -0.35332683660E+03  0.35332683660E+03  0.00000000000E+00 0.  1.
         25    2    1    2    0    0 -0.44503498296E+02  0.38983287725E+02 -0.33932011664E+03  0.36641985054E+03  0.12500042893E+03 0.  0.
          5    1    3    3  501    0 -0.57249655763E+02  0.47947606244E+02 -0.34247384090E+03  0.35052080927E+03  0.10000000000E+00 0.  1.
         -5    1    3    3    0  501  0.12746157467E+02 -0.89643185190E+01  0.31537242610E+01  0.15899041273E+02  0.10000000000E+00 0.  1.
         21    1    1    2  504  502  0.44503498296E+02 -0.38983287725E+02  0.19149612213E+04  0.19158749274E+04  0.00000000000E+00 0. -1.
<mgrwt>
<rscale>  1 0.13829449E+03</rscale>
<asrwt>0</asrwt>
<pdfrwt beam="1">  1       21 0.29676429E+00 0.13829449E+03</pdfrwt>
<pdfrwt beam="2">  1       21 0.54357976E-01 0.13829449E+03</pdfrwt>
<totfact> 0.12620947E+02</totfact>
</mgrwt>
</event>
<event>
 6    1  0.4241465E-002  0.1329676E+03  0.7546771E-02  0.1223118E+00
         21   -1    0    0  504  502  0.00000000000E+00  0.00000000000E+00  0.11317956528E+02  0.11317956528E+02  0.00000000000E+00 0.  1.
         21   -1    0    0  502  503 -0.00000000000E+00 -0.00000000000E+00 -0.84760003892E+03  0.84760003892E+03  0.00000000000E+00 0.  1.
         25    2    1    2    0    0  0.40296516627E+02 -0.20807966298E+02 -0.74738312804E+03  0.75911917382E+03  0.12499439695E+03 0.  0.
          5    1    3    3  501    0  0.31238932662E+02  0.44335695985E+02 -0.50727284354E+03  0.51016396643E+03  0.10000000000E+00 0. -1.
         -5    1    3    3    0  501  0.90575839645E+01 -0.65143662283E+02 -0.24011028449E+03  0.24895520738E+03  0.10000000000E+00 0. -1.
         21    1    1    2  504  503 -0.40296516627E+02  0.20807966298E+02 -0.88898954358E+02  0.99798821635E+02  0.00000000000E+00 0.  1.
<mgrwt>
<rscale>  1 0.13296759E+03</rscale>
<asrwt>0</asrwt>
<pdfrwt beam="1">  1       21 0.17412241E-02 0.13296759E+03</pdfrwt>
<pdfrwt beam="2">  1       21 0.13040001E+00 0.13296759E+03</pdfrwt>
<totfact> 0.66885925E+05</totfact>
</mgrwt>
</event>
<event>
 6    1  0.4241465E-002  0.1264208E+03  0.7546771E-02  0.1232865E+00
         21   -1    0    0  503  502  0.00000000000E+00  0.00000000000E+00  0.10880236812E+04  0.10880236812E+04  0.00000000000E+00 0. -1.
         21   -1    0    0  504  503 -0.00000000000E+00 -0.00000000000E+00 -0.94058464065E+02  0.94058464065E+02  0.00000000000E+00 0. -1.
         25    2    1    2    0    0  0.54057064027E+01  0.18100168920E+02 -0.51455087962E+02  0.13649118696E+03  0.12500152105E+03 0.  0.
          5    1    3    3  501    0 -0.49970977833E+02 -0.12603260756E+02  0.48438380279E+01  0.51763052211E+02  0.10000000000E+00 0. -1.
         -5    1    3    3    0  501  0.55376684236E+02  0.30703429677E+02 -0.56298925989E+02  0.84728134752E+02  0.10000000000E+00 0. -1.
         21    1    1    2  504  502 -0.54057064027E+01 -0.18100168920E+02  0.10454203051E+04  0.10455909583E+04  0.00000000000E+00 0. -1.
<mgrwt>
<rscale>  1 0.12642080E+03</rscale>
<asrwt>0</asrwt>
<pdfrwt beam="1">  1       21 0.16738825E+00 0.12642080E+03</pdfrwt>
<pdfrwt beam="2">  1       21 0.14470534E-01 0.12642080E+03</pdfrwt>
<totfact> 0.98938610E+03</totfact>
</mgrwt>
</event>
<event>
 6    1  0.4241465E-002  0.1271116E+03  0.7546771E-02  0.1231806E+00
         21   -1    0    0  504  502  0.00000000000E+00  0.00000000000E+00  0.55185559402E+03  0.55185559402E+03  0.00000000000E+00 0. -1.
         21   -1    0    0  502  503 -0.00000000000E+00 -0.00000000000E+00 -0.20393540857E+02  0.20393540857E+02  0.00000000000E+00 0. -1.
         25    2    1    2    0    0 -0.21595482229E+02 -0.81013056940E+01  0.18181630628E+03  0.22184344954E+03  0.12500140346E+03 0.  0.
          5    1    3    3  501    0 -0.43160038151E+02  0.23455394309E+02  0.17655582608E+03  0.18326187312E+03  0.10000000000E+00 0. -1.
         -5    1    3    3    0  501  0.21564555922E+02 -0.31556700003E+02  0.52604802025E+01  0.38581576422E+02  0.10000000000E+00 0. -1.
         21    1    1    2  504  503  0.21595482229E+02  0.81013056940E+01  0.34964574688E+03  0.35040568534E+03  0.00000000000E+00 0. -1.
<mgrwt>
<rscale>  1 0.12711155E+03</rscale>
<asrwt>0</asrwt>
<pdfrwt beam="1">  1       21 0.84900849E-01 0.12711155E+03</pdfrwt>
<pdfrwt beam="2">  1       21 0.31374682E-02 0.12711155E+03</pdfrwt>
<totfact> 0.71118999E+05</totfact>
</mgrwt>
</event>
<event>
 6    1  0.4241465E-002  0.1261208E+03  0.7546771E-02  0.1233328E+00
         21   -1    0    0  503  502  0.00000000000E+00  0.00000000000E+00  0.46460692801E+03  0.46460692801E+03  0.00000000000E+00 0. -1.
         21   -1    0    0  504  503 -0.00000000000E+00 -0.00000000000E+00 -0.11325709477E+02  0.11325709477E+02  0.00000000000E+00 0. -1.
         25    2    1    2    0    0  0.16694387092E+02  0.18880823894E+01  0.42175990817E+03  0.44021344905E+03  0.12499677264E+03 0.  0.
          5    1    3    3  501    0 -0.50456405494E+02  0.14124075356E+02  0.24911005076E+03  0.25456073096E+03  0.10000000000E+00 0.  1.
         -5    1    3    3    0  501  0.67150792587E+02 -0.12235992967E+02  0.17264985741E+03  0.18565271808E+03  0.10000000000E+00 0.  1.
         21    1    1    2  504  502 -0.16694387092E+02 -0.18880823894E+01  0.31521310365E+02  0.35719188437E+02  0.00000000000E+00 0. -1.
<mgrwt>
<rscale>  1 0.12612082E+03</rscale>
<asrwt>0</asrwt>
<pdfrwt beam="1">  1       21 0.71477974E-01 0.12612082E+03</pdfrwt>
<pdfrwt beam="2">  1       21 0.17424172E-02 0.12612082E+03</pdfrwt>
<totfact> 0.27074667E+06</totfact>
</mgrwt>
</event>
<event>
 6    1  0.4241465E-002  0.1274505E+03  0.7546771E-02  0.1231289E+00
         21   -1    0    0  504  502  0.00000000000E+00  0.00000000000E+00  0.19146154576E+03  0.19146154576E+03  0.00000000000E+00 0.  1.
         21   -1    0    0  502  503 -0.00000000000E+00 -0.00000000000E+00 -0.42242713643E+03  0.42242713643E+03  0.00000000000E+00 0.  1.
         25    2    1    2    0    0  0.22116331040E+01  0.24775387971E+02 -0.41194379180E+03  0.43120912543E+03  0.12499964435E+03 0.  0.
          5    1    3    3  501    0  0.54473518849E+02 -0.20913565829E+00 -0.99451707543E+02  0.11339338661E+03  0.10000000000E+00 0.  1.
         -5    1    3    3    0  501 -0.52261885745E+02  0.24984523629E+02 -0.31249208426E+03  0.31781573883E+03  0.10000000000E+00 0.  1.
         21    1    1    2  504  503 -0.22116331040E+01 -0.24775387971E+02  0.18097820113E+03  0.18267955675E+03  0.00000000000E+00 0.  1.
<mgrwt>
<rscale>  1 0.12745047E+03</rscale>
<asrwt>0</asrwt>
<pdfrwt beam="1">  1       21 0.29455622E-01 0.12745047E+03</pdfrwt>
<pdfrwt beam="2">  1       21 0.64988790E-01 0.12745047E+03</pdfrwt>
<totfact> 0.25070524E+04</totfact>
</mgrwt>
</event>
<event>
 6    1  0.4241465E-002  0.1282237E+03  0.7546771E-02  0.1230115E+00
         21   -1    0    0  504  502  0.00000000000E+00  0.00000000000E+00  0.60289939132E+03  0.60289939132E+03  0.00000000000E+00 0.  1.
         21   -1    0    0  502  503 -0.00000000000E+00 -0.00000000000E+00 -0.11005728096E+02  0.11005728096E+02  0.00000000000E+00 0.  1.
         25    2    1    2    0    0 -0.11831213604E+02 -0.25994937323E+02  0.40419342485E+03  0.42404439713E+03  0.12500244662E+03 0.  0.
          5    1    3    3  501    0 -0.57093671913E+02  0.18484791437E+02  0.13969573302E+03  0.15204039829E+03  0.10000000000E+00 0. -1.
         -5    1    3    3    0  501  0.45262458309E+02 -0.44479728760E+02  0.26449769183E+03  0.27200399885E+03  0.10000000000E+00 0. -1.
         21    1    1    2  504  503  0.11831213604E+02  0.25994937323E+02  0.18770023837E+03  0.18986072229E+03  0.00000000000E+00 0.  1.
<mgrwt>
<rscale>  1 0.12822373E+03</rscale>
<asrwt>0</asrwt>
<pdfrwt beam="1">  1       21 0.92753727E-01 0.12822373E+03</pdfrwt>
<pdfrwt beam="2">  1       21 0.16931894E-02 0.12822373E+03</pdfrwt>
<totfact> 0.15812241E+06</totfact>
</mgrwt>
</event>
<event>
 6    1  0.4241465E-002  0.1276742E+03  0.7546771E-02  0.1230948E+00
         21   -1    0    0  504  502  0.00000000000E+00  0.00000000000E+00  0.63207533283E+02  0.63207533283E+02  0.00000000000E+00 0.  1.
         21   -1    0    0  502  503 -0.00000000000E+00 -0.00000000000E+00 -0.10339961854E+03  0.10339961854E+03  0.00000000000E+00 0.  1.
         25    2    1    2    0    0 -0.23858047003E+02  0.10320954686E+02 -0.52249890354E+02  0.13795197469E+03  0.12499987107E+03 0.  0.
          5    1    3    3  501    0  0.38382243159E+02  0.40114166991E+02 -0.38579714050E+02  0.67607302264E+02  0.10000000000E+00 0. -1.
         -5    1    3    3    0  501 -0.62240290162E+02 -0.29793212304E+02 -0.13670176303E+02  0.70344672428E+02  0.10000000000E+00 0. -1.
         21    1    1    2  504  503  0.23858047003E+02 -0.10320954686E+02  0.12057805100E+02  0.28655177129E+02  0.00000000000E+00 0.  1.
<mgrwt>
<rscale>  1 0.12767418E+03</rscale>
<asrwt>0</asrwt>
<pdfrwt beam="1">  1       21 0.97242358E-02 0.12767418E+03</pdfrwt>
<pdfrwt beam="2">  1       21 0.15907634E-01 0.12767418E+03</pdfrwt>
<totfact> 0.29731845E+06</totfact>
</mgrwt>
</event>
<event>
 6    1  0.4241465E-002  0.1363145E+03  0.7546771E-02  0.1218376E+00
         21   -1    0    0  503  502  0.00000000000E+00  0.00000000000E+00  0.49396900205E+03  0.49396900205E+03  0.00000000000E+00 0. -1.
         21   -1    0    0  504  503 -0.00000000000E+00 -0.00000000000E+00 -0.34957698574E+02  0.34957698574E+02  0.00000000000E+00 0. -1.
         25    2    1    2    0    0  0.31304383815E+02 -0.44497987671E+02  0.10851541411E+03  0.17423330653E+03  0.12498645787E+03 0.  0.
          5    1    3    3  501    0  0.33451381365E+02 -0.41940436762E+02 -0.10923351468E+02  0.54747828800E+02  0.10000000000E+00 0. -1.
         -5    1    3    3    0  501 -0.21469975509E+01 -0.25575509094E+01  0.11943876558E+03  0.11948547773E+03  0.10000000000E+00 0. -1.
         21    1    1    2  504  502 -0.31304383815E+02  0.44497987671E+02  0.35049588937E+03  0.35469339410E+03  0.00000000000E+00 0. -1.
<mgrwt>
<rscale>  1 0.13631453E+03</rscale>
<asrwt>0</asrwt>
<pdfrwt beam="1">  1       21 0.75995226E-01 0.13631453E+03</pdfrwt>
<pdfrwt beam="2">  1       21 0.53781078E-02 0.13631453E+03</pdfrwt>
<totfact> 0.37120068E+05</totfact>
</mgrwt>
</event>
<event>
 6    1  0.4241465E-002  0.1272554E+03  0.7546771E-02  0.1231586E+00
         21   -1    0    0  504  502  0.00000000000E+00  0.00000000000E+00  0.15623669168E+03  0.15623669168E+03  0.00000000000E+00 0. -1.
         21   -1    0    0  502  503 -0.00000000000E+00 -0.00000000000E+00 -0.24494015541E+03  0.24494015541E+03  0.00000000000E+00 0.  1.
         25    2    1    2    0    0  0.18419269849E+02  0.15102617158E+02 -0.22732710596E+03  0.26052169171E+03  0.12500632064E+03 0.  0.
          5    1    3    3  501    0  0.17368322985E+02 -0.31618041831E+02 -0.20603126628E+03  0.20916560878E+03  0.10000000000E+00 0. -1.
         -5    1    3    3    0  501  0.10509468636E+01  0.46720658989E+02 -0.21295839682E+02  0.51356082926E+02  0.10000000000E+00 0. -1.
         21    1    1    2  504  503 -0.18419269849E+02 -0.15102617158E+02  0.13862364223E+03  0.14065515537E+03  0.00000000000E+00 0. -1.
<mgrwt>
<rscale>  1 0.12725541E+03</rscale>
<asrwt>0</asrwt>
<pdfrwt beam="1">  1       21 0.24036414E-01 0.12725541E+03</pdfrwt>
<pdfrwt beam="2">  1       21 0.37683100E-01 0.12725541E+03</pdfrwt>
<totfact> 0.11355446E+05</totfact>
</mgrwt>
</event>
<event>
 6    1  0.4241465E-002  0.1312518E+03  0.7546771E-02  0.1225610E+00
         21   -1    0    0  504  502  0.00000000000E+00  0.00000000000E+00  0.14087470332E+04  0.14087470332E+04  0.00000000000E+00 0. -1.
         21   -1    0    0  502  503 -0.00000000000E+00 -0.00000000000E+00 -0.83871386340E+02  0.83871386340E+02  0.00000000000E+00 0.  1.
         25    2    1    2    0    0  0.38865008780E+02 -0.95937465080E+01 -0.32045267745E+02  0.13510713142E+03  0.12499803557E+03 0.  0.
          5    1    3    3  501    0  0.40916142569E+02 -0.46806472638E+02 -0.61617124003E+02  0.87530889256E+02  0.10000000000E+00 0. -1.
         -5    1    3    3    0  501 -0.20511337891E+01  0.37212726130E+02  0.29571856258E+02  0.47576242163E+02  0.10000000000E+00 0. -1.
         21    1    1    2  504  503 -0.38865008780E+02  0.95937465080E+01  0.13569209146E+04  0.13575112881E+04  0.00000000000E+00 0. -1.
<mgrwt>
<rscale>  1 0.13125181E+03</rscale>
<asrwt>0</asrwt>
<pdfrwt beam="1">  1       21 0.21673029E+00 0.13125181E+03</pdfrwt>
<pdfrwt beam="2">  1       21 0.12903291E-01 0.13125181E+03</pdfrwt>
<totfact> 0.58015739E+03</totfact>
</mgrwt>
</event>
<event>
 6    1  0.4241465E-002  0.1402432E+03  0.7546771E-02  0.1213002E+00
         21   -1    0    0  504  502  0.00000000000E+00  0.00000000000E+00  0.99868964305E+02  0.99868964305E+02  0.00000000000E+00 0. -1.
         21   -1    0    0  502  503 -0.00000000000E+00 -0.00000000000E+00 -0.10479326195E+03  0.10479326195E+03  0.00000000000E+00 0. -1.
         25    2    1    2    0    0 -0.18493510451E+02  0.60837621200E+02 -0.11622644723E+02  0.14072402221E+03  0.12499975390E+03 0.  0.
          5    1    3    3  501    0 -0.52223000616E+02 -0.59891368206E+00 -0.39309359787E+02  0.65366935509E+02  0.10000000000E+00 0. -1.
         -5    1    3    3    0  501  0.33729490165E+02  0.61436534882E+02  0.27686715064E+02  0.75357086702E+02  0.10000000000E+00 0. -1.
         21    1    1    2  504  503  0.18493510451E+02 -0.60837621200E+02  0.66983470827E+01  0.63938204039E+02  0.00000000000E+00 0. -1.
<mgrwt>
<rscale>  1 0.14024323E+03</rscale>
<asrwt>0</asrwt>
<pdfrwt beam="1">  1       21 0.15364456E-01 0.14024323E+03</pdfrwt>
<pdfrwt beam="2">  1       21 0.16122040E-01 0.14024323E+03</pdfrwt>
<totfact> 0.12905223E+06</totfact>
</mgrwt>
</event>
<event>
 6    1  0.4241465E-002  0.1299904E+03  0.7546771E-02  0.1227470E+00
         21   -1    0    0  503  502  0.00000000000E+00  0.00000000000E+00  0.89669985349E+02  0.89669985349E+02  0.00000000000E+00 0.  1.
         21   -1    0    0  504  503 -0.00000000000E+00 -0.00000000000E+00 -0.77759080294E+02  0.77759080294E+02  0.00000000000E+00 0.  1.
         25    2    1    2    0    0  0.12563160186E+02 -0.33383815683E+02  0.18042070450E+02  0.13123647894E+03  0.12500073981E+03 0.  0.
          5    1    3    3  501    0  0.29262766494E+02 -0.77018582907E+02  0.41554766931E+01  0.82495148963E+02  0.10000000000E+00 0. -1.
         -5    1    3    3    0  501 -0.16699606308E+02  0.43634767223E+02  0.13886593756E+02  0.48741329974E+02  0.10000000000E+00 0. -1.
         21    1    1    2  504  502 -0.12563160186E+02  0.33383815683E+02 -0.61311653939E+01  0.36192586707E+02  0.00000000000E+00 0.  1.
<mgrwt>
<rscale>  1 0.12999037E+03</rscale>
<asrwt>0</asrwt>
<pdfrwt beam="1">  1       21 0.13795382E-01 0.12999037E+03</pdfrwt>
<pdfrwt beam="2">  1       21 0.11962935E-01 0.12999037E+03</pdfrwt>
<totfact> 0.26713120E+06</totfact>
</mgrwt>
</event>
<event>
 6    1  0.4241465E-002  0.1475812E+03  0.7546771E-02  0.1203477E+00
         21   -1    0    0  504  502  0.00000000000E+00  0.00000000000E+00  0.13646299290E+04  0.13646299290E+04  0.00000000000E+00 0.  1.
         21   -1    0    0  502  503 -0.00000000000E+00 -0.00000000000E+00 -0.15208488449E+02  0.15208488449E+02  0.00000000000E+00 0.  1.
         25    2    1    2    0    0 -0.69936776190E+02 -0.35569695335E+02  0.38637657634E+03  0.41360254232E+03  0.12499539345E+03 0.  0.
          5    1    3    3  501    0 -0.13428102174E+00 -0.14528257632E+02 -0.50976605143E+01  0.15397546686E+02  0.10000000000E+00 0. -1.
         -5    1    3    3    0  501 -0.69802495168E+02 -0.21041437703E+02  0.39147423685E+03  0.39820499564E+03  0.10000000000E+00 0. -1.
         21    1    1    2  504  503  0.69936776190E+02  0.35569695335E+02  0.96304486423E+03  0.96623587514E+03  0.00000000000E+00 0.  1.
<mgrwt>
<rscale>  1 0.14758118E+03</rscale>
<asrwt>0</asrwt>
<pdfrwt beam="1">  1       21 0.20994297E+00 0.14758118E+03</pdfrwt>
<pdfrwt beam="2">  1       21 0.23397685E-02 0.14758118E+03</pdfrwt>
<totfact> 0.11372745E+05</totfact>
</mgrwt>
</event>
<event>
 6    1  0.4241465E-002  0.1357075E+03  0.7546771E-02  0.1219224E+00
         21   -1    0    0  503  502  0.00000000000E+00  0.00000000000E+00  0.20846015375E+03  0.20846015375E+03  0.00000000000E+00 0.  1.
         21   -1    0    0  504  503 -0.00000000000E+00 -0.00000000000E+00 -0.55481756698E+02  0.55481756698E+02  0.00000000000E+00 0.  1.
         25    2    1    2    0    0 -0.49029822437E+02 -0.19860036552E+02  0.43762405021E+02  0.14258921186E+03  0.12497275985E+03 0.  0.
          5    1    3    3  501    0 -0.28502785252E+02 -0.59756002105E+02 -0.15755263732E+02  0.68054587575E+02  0.10000000000E+00 0. -1.
         -5    1    3    3    0  501 -0.20527037185E+02  0.39895965553E+02  0.59517668753E+02  0.74534624281E+02  0.10000000000E+00 0. -1.
         21    1    1    2  504  502  0.49029822437E+02  0.19860036552E+02  0.10921599203E+03  0.12135269859E+03  0.00000000000E+00 0.  1.
<mgrwt>
<rscale>  1 0.13570754E+03</rscale>
<asrwt>0</asrwt>
<pdfrwt beam="1">  1       21 0.32070792E-01 0.13570754E+03</pdfrwt>
<pdfrwt beam="2">  1       21 0.85356550E-02 0.13570754E+03</pdfrwt>
<totfact> 0.10039085E+06</totfact>
</mgrwt>
</event>
<event>
 6    1  0.4241465E-002  0.1263952E+03  0.7546771E-02  0.1232905E+00
         21   -1    0    0  503  502  0.00000000000E+00  0.00000000000E+00  0.12762537981E+02  0.12762537981E+02  0.00000000000E+00 0.  1.
         21   -1    0    0  504  503 -0.00000000000E+00 -0.00000000000E+00 -0.59506309660E+03  0.59506309660E+03  0.00000000000E+00 0.  1.
         25    2    1    2    0    0  0.17865980064E+02 -0.56257960391E+01 -0.57325710529E+03  0.58702595014E+03  0.12499965818E+03 0.  0.
          5    1    3    3  501    0  0.62170663044E+02  0.20199155949E+02 -0.20381178782E+03  0.21403843603E+03  0.10000000000E+00 0. -1.
         -5    1    3    3    0  501 -0.44304682980E+02 -0.25824951988E+02 -0.36944531747E+03  0.37298751411E+03  0.10000000000E+00 0. -1.
         21    1    1    2  504  502 -0.17865980064E+02  0.56257960391E+01 -0.90434533263E+01  0.20799684439E+02  0.00000000000E+00 0.  1.
<mgrwt>
<rscale>  1 0.12639524E+03</rscale>
<asrwt>0</asrwt>
<pdfrwt beam="1">  1       21 0.19634669E-02 0.12639524E+03</pdfrwt>
<pdfrwt beam="2">  1       21 0.91548191E-01 0.12639524E+03</pdfrwt>
<totfact> 0.12841223E+06</totfact>
</mgrwt>
</event>
<event>
 6    1  0.4241465E-002  0.1315413E+03  0.7546771E-02  0.1225186E+00
         21   -1    0    0  504  502  0.00000000000E+00  0.00000000000E+00  0.20032202683E+02  0.20032202683E+02  0.00000000000E+00 0. -1.
         21   -1    0    0  502  503 -0.00000000000E+00 -0.00000000000E+00 -0.11523335775E+04  0.11523335775E+04  0.00000000000E+00 0.  1.
         25    2    1    2    0    0 -0.32920632778E+02 -0.24376564020E+02 -0.11225855788E+04  0.11302661171E+04  0.12500051561E+03 0.  0.
          5    1    3    3  501    0  0.42269533914E+02 -0.30544071980E+02 -0.60013418966E+03  0.60239580794E+03  0.10000000000E+00 0.  1.
         -5    1    3    3    0  501 -0.75190166693E+02  0.61675079600E+01 -0.52245138911E+03  0.52787030917E+03  0.10000000000E+00 0.  1.
         21    1    1    2  504  503  0.32920632778E+02  0.24376564020E+02 -0.97157960216E+01  0.42099663042E+02  0.00000000000E+00 0. -1.
<mgrwt>
<rscale>  1 0.13154130E+03</rscale>
<asrwt>0</asrwt>
<pdfrwt beam="1">  1       21 0.30818771E-02 0.13154130E+03</pdfrwt>
<pdfrwt beam="2">  1       21 0.17728210E+00 0.13154130E+03</pdfrwt>
<totfact> 0.11873214E+05</totfact>
</mgrwt>
</event>
<event>
 6    1  0.4241465E-002  0.1348092E+03  0.7546771E-02  0.1220489E+00
         21   -1    0    0  503  502  0.00000000000E+00  0.00000000000E+00  0.10145052978E+03  0.10145052978E+03  0.00000000000E+00 0.  1.
         21   -1    0    0  504  503 -0.00000000000E+00 -0.00000000000E+00 -0.21247527696E+03  0.21247527696E+03  0.00000000000E+00 0.  1.
         25    2    1    2    0    0 -0.49831755900E+02  0.80609007020E+01 -0.18221031884E+03  0.22665858708E+03  0.12500133114E+03 0.  0.
          5    1    3    3  501    0 -0.35237106464E+02 -0.53090182573E+02 -0.52676667519E+02  0.82674436548E+02  0.10000000000E+00 0.  1.
         -5    1    3    3    0  501 -0.14594649436E+02  0.61151083276E+02 -0.12953365132E+03  0.14398415053E+03  0.10000000000E+00 0.  1.
         21    1    1    2  504  502  0.49831755900E+02 -0.80609007020E+01  0.71185571658E+02  0.87267219667E+02  0.00000000000E+00 0.  1.
<mgrwt>
<rscale>  1 0.13480918E+03</rscale>
<asrwt>0</asrwt>
<pdfrwt beam="1">  1       21 0.15607774E-01 0.13480918E+03</pdfrwt>
<pdfrwt beam="2">  1       21 0.32688504E-01 0.13480918E+03</pdfrwt>
<totfact> 0.33239309E+05</totfact>
</mgrwt>
</event>
<event>
 6    1  0.4241465E-002  0.1335641E+03  0.7546771E-02  0.1222261E+00
         21   -1    0    0  504  502  0.00000000000E+00  0.00000000000E+00  0.74830238035E+03  0.74830238035E+03  0.00000000000E+00 0. -1.
         21   -1    0    0  502  503 -0.00000000000E+00 -0.00000000000E+00 -0.48812040728E+02  0.48812040728E+02  0.00000000000E+00 0. -1.
         25    2    1    2    0    0  0.66707669107E+01  0.46603323154E+02  0.45011763605E+02  0.14094479718E+03  0.12499203226E+03 0.  0.
          5    1    3    3  501    0 -0.30517807844E+02 -0.28584088698E+02 -0.67832473390E+01  0.42360467027E+02  0.10000000000E+00 0. -1.
         -5    1    3    3    0  501  0.37188574755E+02  0.75187411852E+02  0.51795010944E+02  0.98584330154E+02  0.10000000000E+00 0. -1.
         21    1    1    2  504  503 -0.66707669107E+01 -0.46603323154E+02  0.65447857602E+03  0.65616962390E+03  0.00000000000E+00 0. -1.
<mgrwt>
<rscale>  1 0.13356413E+03</rscale>
<asrwt>0</asrwt>
<pdfrwt beam="1">  1       21 0.11512344E+00 0.13356413E+03</pdfrwt>
<pdfrwt beam="2">  1       21 0.75095453E-02 0.13356413E+03</pdfrwt>
<totfact> 0.80543737E+04</totfact>
</mgrwt>
</event>
<event>
 6    1  0.4241465E-002  0.1441960E+03  0.7546771E-02  0.1207792E+00
         21   -1    0    0  503  502  0.00000000000E+00  0.00000000000E+00  0.38129381374E+02  0.38129381374E+02  0.00000000000E+00 0. -1.
         21   -1    0    0  504  503 -0.00000000000E+00 -0.00000000000E+00 -0.48857362080E+03  0.48857362080E+03  0.00000000000E+00 0. -1.
         25    2    1    2    0    0  0.63164818356E+02 -0.34385835599E+02 -0.42757768776E+03  0.45123738647E+03  0.12498127825E+03 0.  0.
          5    1    3    3  501    0  0.12767155469E+02 -0.35457446511E+02 -0.38018465579E+03  0.38204792012E+03  0.10000000000E+00 0.  1.
         -5    1    3    3    0  501  0.50397662888E+02  0.10716109117E+01 -0.47393031972E+02  0.69189466351E+02  0.10000000000E+00 0.  1.
         21    1    1    2  504  502 -0.63164818356E+02  0.34385835599E+02 -0.22866551662E+02  0.75465615699E+02  0.00000000000E+00 0. -1.
<mgrwt>
<rscale>  1 0.14419605E+03</rscale>
<asrwt>0</asrwt>
<pdfrwt beam="1">  1       21 0.58660588E-02 0.14419605E+03</pdfrwt>
<pdfrwt beam="2">  1       21 0.75165170E-01 0.14419605E+03</pdfrwt>
<totfact> 0.32786450E+05</totfact>
</mgrwt>
</event>
<event>
 6    1  0.4241465E-002  0.1262986E+03  0.7546771E-02  0.1233054E+00
         21   -1    0    0  503  502  0.00000000000E+00  0.00000000000E+00  0.35378010709E+02  0.35378010709E+02  0.00000000000E+00 0. -1.
         21   -1    0    0  504  503 -0.00000000000E+00 -0.00000000000E+00 -0.17840142297E+03  0.17840142297E+03  0.00000000000E+00 0. -1.
         25    2    1    2    0    0 -0.15757140454E+02 -0.88128118436E+01 -0.14846938369E+03  0.19492176328E+03  0.12500153111E+03 0.  0.
          5    1    3    3  501    0  0.30165976437E+02  0.38839072015E+02 -0.25788657886E+02  0.55529492388E+02  0.10000000000E+00 0. -1.
         -5    1    3    3    0  501 -0.45923116891E+02 -0.47651883858E+02 -0.12268072580E+03  0.13939227089E+03  0.10000000000E+00 0. -1.
         21    1    1    2  504  502  0.15757140454E+02  0.88128118436E+01  0.54459714329E+01  0.18857670395E+02  0.00000000000E+00 0. -1.
<mgrwt>
<rscale>  1 0.12629860E+03</rscale>
<asrwt>0</asrwt>
<pdfrwt beam="1">  1       21 0.54427708E-02 0.12629860E+03</pdfrwt>
<pdfrwt beam="2">  1       21 0.27446373E-01 0.12629860E+03</pdfrwt>
<totfact> 0.29194423E+06</totfact>
</mgrwt>
</event>
<event>
 6    1  0.4241465E-002  0.1262501E+03  0.7546771E-02  0.1233128E+00
         21   -1    0    0  503  502  0.00000000000E+00  0.00000000000E+00  0.79852613943E+03  0.79852613943E+03  0.00000000000E+00 0.  1.
         21   -1    0    0  504  503 -0.00000000000E+00 -0.00000000000E+00 -0.85687278889E+01  0.85687278889E+01  0.00000000000E+00 0.  1.
         25    2    1    2    0    0 -0.61764980271E+01 -0.16722298827E+02  0.47061043383E+03  0.48725072312E+03  0.12498520850E+03 0.  0.
          5    1    3    3  501    0 -0.35151702182E+02 -0.14985599984E+02  0.45007391756E+03  0.45169320522E+03  0.10000000000E+00 0. -1.
         -5    1    3    3    0  501  0.28975204154E+02 -0.17366988428E+01  0.20536516269E+02  0.35557517899E+02  0.10000000000E+00 0. -1.
         21    1    1    2  504  502  0.61764980271E+01  0.16722298827E+02  0.31934697771E+03  0.31984414420E+03  0.00000000000E+00 0. -1.
<mgrwt>
<rscale>  1 0.12625010E+03</rscale>
<asrwt>0</asrwt>
<pdfrwt beam="1">  1       21 0.12285012E+00 0.12625010E+03</pdfrwt>
<pdfrwt beam="2">  1       21 0.13182665E-02 0.12625010E+03</pdfrwt>
<totfact> 0.12099513E+06</totfact>
</mgrwt>
</event>
<event>
 6    1  0.4241465E-002  0.1678246E+03  0.7546771E-02  0.1180136E+00
         21   -1    0    0  503  502  0.00000000000E+00  0.00000000000E+00  0.98910095731E+02  0.98910095731E+02  0.00000000000E+00 0.  1.
         21   -1    0    0  504  503 -0.00000000000E+00 -0.00000000000E+00 -0.20799011316E+03  0.20799011316E+03  0.00000000000E+00 0.  1.
         25    2    1    2    0    0 -0.10326118297E+03  0.43327770090E+02 -0.31723633775E+02  0.17079665397E+03  0.12499976200E+03 0.  0.
          5    1    3    3  501    0 -0.10415326436E+03  0.51311609428E+02  0.20548135465E+02  0.11791106653E+03  0.10000000000E+00 0.  1.
         -5    1    3    3    0  501  0.89208139348E+00 -0.79838393378E+01 -0.52271769240E+02  0.52885587443E+02  0.10000000000E+00 0.  1.
         21    1    1    2  504  502  0.10326118297E+03 -0.43327770090E+02 -0.77356383651E+02  0.13610355491E+03  0.00000000000E+00 0.  1.
<mgrwt>
<rscale>  1 0.16782463E+03</rscale>
<asrwt>0</asrwt>
<pdfrwt beam="1">  1       21 0.15216938E-01 0.16782463E+03</pdfrwt>
<pdfrwt beam="2">  1       21 0.31998479E-01 0.16782463E+03</pdfrwt>
<totfact> 0.36083265E+05</totfact>
</mgrwt>
</event>
<event>
 6    1  0.4241465E-002  0.1260454E+03  0.7546771E-02  0.1233445E+00
         21   -1    0    0  504  502  0.00000000000E+00  0.00000000000E+00  0.13621544625E+03  0.13621544625E+03  0.00000000000E+00 0.  1.
         21   -1    0    0  502  503 -0.00000000000E+00 -0.00000000000E+00 -0.17224041751E+03  0.17224041751E+03  0.00000000000E+00 0. -1.
         25    2    1    2    0    0 -0.11437918483E+02  0.11492143053E+02 -0.14852114346E+03  0.19479723413E+03  0.12499814814E+03 0.  0.
          5    1    3    3  501    0 -0.66426631027E+02  0.17025211597E+02 -0.10000099270E+03  0.12125412851E+03  0.10000000000E+00 0.  1.
         -5    1    3    3    0  501  0.54988712544E+02 -0.55330685445E+01 -0.48520150762E+02  0.73543105624E+02  0.10000000000E+00 0.  1.
         21    1    1    2  504  503  0.11437918483E+02 -0.11492143053E+02  0.11249617219E+03  0.11365862963E+03  0.00000000000E+00 0.  1.
<mgrwt>
<rscale>  1 0.12604536E+03</rscale>
<asrwt>0</asrwt>
<pdfrwt beam="1">  1       21 0.20956222E-01 0.12604536E+03</pdfrwt>
<pdfrwt beam="2">  1       21 0.26498526E-01 0.12604536E+03</pdfrwt>
<totfact> 0.29062161E+05</totfact>
</mgrwt>
</event>
<event>
 6    1  0.4241465E-002  0.1770819E+03  0.7546771E-02  0.1170657E+00
         21   -1    0    0  503  502  0.00000000000E+00  0.00000000000E+00  0.36338752893E+03  0.36338752893E+03  0.00000000000E+00 0. -1.
         21   -1    0    0  504  503 -0.00000000000E+00 -0.00000000000E+00 -0.77514983348E+02  0.77514983348E+02  0.00000000000E+00 0. -1.
         25    2    1    2    0    0 -0.34730590613E+02 -0.12053044254E+03  0.68369380962E+02  0.18982199108E+03  0.12499685813E+03 0.  0.
          5    1    3    3  501    0  0.95178521706E+01  0.21798449816E+02 -0.40219710319E+01  0.24123602039E+02  0.10000000000E+00 0.  1.
         -5    1    3    3    0  501 -0.44248442784E+02 -0.14232889236E+03  0.72391351994E+02  0.16569838904E+03  0.10000000000E+00 0.  1.
         21    1    1    2  504  502  0.34730590613E+02  0.12053044254E+03  0.21750316462E+03  0.25108052119E+03  0.00000000000E+00 0. -1.
<mgrwt>
<rscale>  1 0.17708195E+03</rscale>
<asrwt>0</asrwt>
<pdfrwt beam="1">  1       21 0.55905773E-01 0.17708195E+03</pdfrwt>
<pdfrwt beam="2">  1       21 0.11925382E-01 0.17708195E+03</pdfrwt>
<totfact> 0.17965282E+05</totfact>
</mgrwt>
</event>
<event>
 6    1  0.4241465E-002  0.1307234E+03  0.7546771E-02  0.1226386E+00
         21   -1    0    0  503  502  0.00000000000E+00  0.00000000000E+00  0.12990704790E+03  0.12990704790E+03  0.00000000000E+00 0. -1.
         21   -1    0    0  504  503 -0.00000000000E+00 -0.00000000000E+00 -0.54953483841E+02  0.54953483841E+02  0.00000000000E+00 0. -1.
         25    2    1    2    0    0 -0.37976311500E+02  0.45746803533E+01  0.57182397107E+02  0.14268302221E+03  0.12500196140E+03 0.  0.
          5    1    3    3  501    0 -0.19451299807E+02 -0.96387951455E+00  0.96725012437E+02  0.98666205758E+02  0.10000000000E+00 0. -1.
         -5    1    3    3    0  501 -0.18525011692E+02  0.55385598678E+01 -0.39542615329E+02  0.44016816453E+02  0.10000000000E+00 0. -1.
         21    1    1    2  504  502  0.37976311500E+02 -0.45746803533E+01  0.17771166956E+02  0.42177509533E+02  0.00000000000E+00 0. -1.
<mgrwt>
<rscale>  1 0.13072344E+03</rscale>
<asrwt>0</asrwt>
<pdfrwt beam="1">  1       21 0.19985700E-01 0.13072344E+03</pdfrwt>
<pdfrwt beam="2">  1       21 0.84543822E-02 0.13072344E+03</pdfrwt>
<totfact> 0.24997648E+06</totfact>
</mgrwt>
</event>
<event>
 6    1  0.4241465E-002  0.1263057E+03  0.7546771E-02  0.1233043E+00
         21   -1    0    0  504  502  0.00000000000E+00  0.00000000000E+00  0.21567660146E+03  0.21567660146E+03  0.00000000000E+00 0.  1.
         21   -1    0    0  502  503 -0.00000000000E+00 -0.00000000000E+00 -0.26352739504E+02  0.26352739504E+02  0.00000000000E+00 0.  1.
         25    2    1    2    0    0 -0.41779277142E+01 -0.17605071581E+02  0.13546860843E+03  0.18521576901E+03  0.12500297435E+03 0.  0.
          5    1    3    3  501    0  0.59737179301E+02 -0.17963477479E+02  0.68066137166E+02  0.92326735796E+02  0.10000000000E+00 0.  1.
         -5    1    3    3    0  501 -0.63915107016E+02  0.35840589819E+00  0.67402471259E+02  0.92889033214E+02  0.10000000000E+00 0.  1.
         21    1    1    2  504  503  0.41779277142E+01  0.17605071581E+02  0.53855253535E+02  0.56813571958E+02  0.00000000000E+00 0. -1.
<mgrwt>
<rscale>  1 0.12630573E+03</rscale>
<asrwt>0</asrwt>
<pdfrwt beam="1">  1       21 0.33181014E-01 0.12630573E+03</pdfrwt>
<pdfrwt beam="2">  1       21 0.40542678E-02 0.12630573E+03</pdfrwt>
<totfact> 0.33141791E+06</totfact>
</mgrwt>
</event>
<event>
 6    1  0.4241465E-002  0.1496260E+03  0.7546771E-02  0.1200933E+00
         21   -1    0    0  503  502  0.00000000000E+00  0.00000000000E+00  0.16332741353E+04  0.16332741353E+04  0.00000000000E+00 0.  1.
         21   -1    0    0  504  503 -0.00000000000E+00 -0.00000000000E+00 -0.11173624453E+02  0.11173624453E+02  0.00000000000E+00 0.  1.
         25    2    1    2    0    0  0.28730703382E+02 -0.77025219839E+02  0.57582013552E+03  0.59494265657E+03  0.12501839197E+03 0.  0.
          5    1    3    3  501    0  0.12490045785E+00 -0.79907953741E+02  0.16721408491E+03  0.18532635232E+03  0.10000000000E+00 0.  1.
         -5    1    3    3    0  501  0.28605802924E+02  0.28827339020E+01  0.40860605061E+03  0.40961630425E+03  0.10000000000E+00 0.  1.
         21    1    1    2  504  502 -0.28730703382E+02  0.77025219839E+02  0.10462803753E+04  0.10495051032E+04  0.00000000000E+00 0.  1.
<mgrwt>
<rscale>  1 0.14962599E+03</rscale>
<asrwt>0</asrwt>
<pdfrwt beam="1">  1       21 0.25127276E+00 0.14962599E+03</pdfrwt>
<pdfrwt beam="2">  1       21 0.17190204E-02 0.14962599E+03</pdfrwt>
<totfact> 0.10617027E+05</totfact>
</mgrwt>
</event>
<event>
 6    1  0.4241465E-002  0.1288835E+03  0.7546771E-02  0.1229122E+00
         21   -1    0    0  504  502  0.00000000000E+00  0.00000000000E+00  0.11549921162E+03  0.11549921162E+03  0.00000000000E+00 0.  1.
         21   -1    0    0  502  503 -0.00000000000E+00 -0.00000000000E+00 -0.55611023272E+02  0.55611023272E+02  0.00000000000E+00 0.  1.
         25    2    1    2    0    0 -0.28059798371E+02 -0.14101578565E+02  0.48058772462E+02  0.13755219736E+03  0.12499901834E+03 0.  0.
          5    1    3    3  501    0 -0.21322286757E+01 -0.65642918584E+01 -0.42498398196E+02  0.43055315305E+02  0.10000000000E+00 0.  1.
         -5    1    3    3    0  501 -0.25927569695E+02 -0.75372867067E+01  0.90557170658E+02  0.94496882059E+02  0.10000000000E+00 0.  1.
         21    1    1    2  504  503  0.28059798371E+02  0.14101578565E+02  0.11829415888E+02  0.33558037530E+02  0.00000000000E+00 0.  1.
<mgrwt>
<rscale>  1 0.12888352E+03</rscale>
<asrwt>0</asrwt>
<pdfrwt beam="1">  1       21 0.17769109E-01 0.12888352E+03</pdfrwt>
<pdfrwt beam="2">  1       21 0.85555421E-02 0.12888352E+03</pdfrwt>
<totfact> 0.30381620E+06</totfact>
</mgrwt>
</event>
<event>
 6    1  0.4241465E-002  0.1336907E+03  0.7546771E-02  0.1222080E+00
         21   -1    0    0  504  502  0.00000000000E+00  0.00000000000E+00  0.29976848881E+03  0.29976848881E+03  0.00000000000E+00 0.  1.
         21   -1    0    0  502  503 -0.00000000000E+00 -0.00000000000E+00 -0.34385103254E+02  0.34385103254E+02  0.00000000000E+00 0.  1.
         25    2    1    2    0    0 -0.42551614635E+02  0.20912494190E+02  0.11458249317E+03  0.17607487286E+03  0.12500096316E+03 0.  0.
          5    1    3    3  501    0 -0.26947224210E+02  0.50552306236E+00  0.13842598418E+03  0.14102542871E+03  0.10000000000E+00 0.  1.
         -5    1    3    3    0  501 -0.15604390425E+02  0.20406971127E+02 -0.23843491015E+02  0.35049444145E+02  0.10000000000E+00 0.  1.
         21    1    1    2  504  503  0.42551614635E+02 -0.20912494190E+02  0.15080089239E+03  0.15807871921E+03  0.00000000000E+00 0.  1.
<mgrwt>
<rscale>  1 0.13369074E+03</rscale>
<asrwt>0</asrwt>
<pdfrwt beam="1">  1       21 0.46118227E-01 0.13369074E+03</pdfrwt>
<pdfrwt beam="2">  1       21 0.52900161E-02 0.13369074E+03</pdfrwt>
<totfact> 0.11027369E+06</totfact>
</mgrwt>
</event>
<event>
 6    1  0.4241465E-002  0.1265926E+03  0.7546771E-02  0.1232601E+00
         21   -1    0    0  504  502  0.00000000000E+00  0.00000000000E+00  0.79147269217E+03  0.79147269217E+03  0.00000000000E+00 0. -1.
         21   -1    0    0  502  503 -0.00000000000E+00 -0.00000000000E+00 -0.11911978495E+02  0.11911978495E+02  0.00000000000E+00 0. -1.
         25    2    1    2    0    0  0.12530322111E+02  0.15562895905E+02  0.33104488917E+03  0.35442402926E+03  0.12500584454E+03 0.  0.
          5    1    3    3  501    0  0.31108963268E+02  0.58569998836E+02  0.10980593513E+03  0.12827924910E+03  0.10000000000E+00 0.  1.
         -5    1    3    3    0  501 -0.18578641158E+02 -0.43007102931E+02  0.22123895404E+03  0.22614478016E+03  0.10000000000E+00 0.  1.
         21    1    1    2  504  503 -0.12530322111E+02 -0.15562895905E+02  0.44851582450E+03  0.44896064140E+03  0.00000000000E+00 0. -1.
<mgrwt>
<rscale>  1 0.12659255E+03</rscale>
<asrwt>0</asrwt>
<pdfrwt beam="1">  1       21 0.12176499E+00 0.12659255E+03</pdfrwt>
<pdfrwt beam="2">  1       21 0.18326127E-02 0.12659255E+03</pdfrwt>
<totfact> 0.73039209E+05</totfact>
</mgrwt>
</event>
<event>
 6    1  0.4241465E-002  0.1333060E+03  0.7546771E-02  0.1222631E+00
         21   -1    0    0  504  502  0.00000000000E+00  0.00000000000E+00  0.25125711505E+03  0.25125711505E+03  0.00000000000E+00 0.  1.
         21   -1    0    0  502  503 -0.00000000000E+00 -0.00000000000E+00 -0.37151568449E+02  0.37151568449E+02  0.00000000000E+00 0.  1.
         25    2    1    2    0    0  0.44608761870E+02 -0.12429694699E+02  0.10437298285E+03  0.16930505428E+03  0.12500417157E+03 0.  0.
          5    1    3    3  501    0  0.70912437346E+02  0.52350498080E+01  0.11557632765E+03  0.13569774143E+03  0.10000000000E+00 0.  1.
         -5    1    3    3    0  501 -0.26303675476E+02 -0.17664744507E+02 -0.11203344801E+02  0.33607312846E+02  0.10000000000E+00 0.  1.
         21    1    1    2  504  503 -0.44608761870E+02  0.12429694699E+02  0.10973256375E+03  0.11910362922E+03  0.00000000000E+00 0. -1.
<mgrwt>
<rscale>  1 0.13330597E+03</rscale>
<asrwt>0</asrwt>
<pdfrwt beam="1">  1       21 0.38654940E-01 0.13330597E+03</pdfrwt>
<pdfrwt beam="2">  1       21 0.57156261E-02 0.13330597E+03</pdfrwt>
<totfact> 0.13812272E+06</totfact>
</mgrwt>
</event>
<event>
 6    1  0.4241465E-002  0.1260009E+03  0.7546771E-02  0.1233513E+00
         21   -1    0    0  504  502  0.00000000000E+00  0.00000000000E+00  0.11880051820E+03  0.11880051820E+03  0.00000000000E+00 0. -1.
         21   -1    0    0  502  503 -0.00000000000E+00 -0.00000000000E+00 -0.31567349818E+03  0.31567349818E+03  0.00000000000E+00 0. -1.
         25    2    1    2    0    0  0.16979075410E+01 -0.15849818895E+02 -0.30247819084E+03  0.32767251729E+03  0.12498849148E+03 0.  0.
          5    1    3    3  501    0  0.16409841714E+02 -0.66793685862E+01 -0.30873404339E+03  0.30924200300E+03  0.10000000000E+00 0. -1.
         -5    1    3    3    0  501 -0.14711934173E+02 -0.91704503088E+01  0.62558525487E+01  0.18430514293E+02  0.10000000000E+00 0. -1.
         21    1    1    2  504  503 -0.16979075410E+01  0.15849818895E+02  0.10560521085E+03  0.10680149909E+03  0.00000000000E+00 0. -1.
<mgrwt>
<rscale>  1 0.12600088E+03</rscale>
<asrwt>0</asrwt>
<pdfrwt beam="1">  1       21 0.18277003E-01 0.12600088E+03</pdfrwt>
<pdfrwt beam="2">  1       21 0.48565154E-01 0.12600088E+03</pdfrwt>
<totfact> 0.11325113E+05</totfact>
</mgrwt>
</event>
<event>
 6    1  0.4241465E-002  0.1309765E+03  0.7546771E-02  0.1226014E+00
         21   -1    0    0  503  502  0.00000000000E+00  0.00000000000E+00  0.12214238700E+04  0.12214238700E+04  0.00000000000E+00 0. -1.
         21   -1    0    0  504  503 -0.00000000000E+00 -0.00000000000E+00 -0.97652378801E+01  0.97652378801E+01  0.00000000000E+00 0. -1.
         25    2    1    2    0    0  0.25479720545E+02 -0.29363785947E+02  0.45351905076E+03  0.47205336711E+03  0.12507359400E+03 0.  0.
          5    1    3    3  501    0  0.24724605180E+02 -0.51424317636E+02  0.44459896461E+03  0.44824548618E+03  0.10000000000E+00 0. -1.
         -5    1    3    3    0  501  0.75511536417E+00  0.22060531690E+02  0.89200861454E+01  0.23807880932E+02  0.10000000000E+00 0. -1.
         21    1    1    2  504  502 -0.25479720545E+02  0.29363785947E+02  0.75813958139E+03  0.75913574080E+03  0.00000000000E+00 0. -1.
<mgrwt>
<rscale>  1 0.13097653E+03</rscale>
<asrwt>0</asrwt>
<pdfrwt beam="1">  1       21 0.18791124E+00 0.13097653E+03</pdfrwt>
<pdfrwt beam="2">  1       21 0.15023453E-02 0.13097653E+03</pdfrwt>
<totfact> 0.32324771E+05</totfact>
</mgrwt>
</event>
<event>
 6    1  0.4241465E-002  0.1262627E+03  0.7546771E-02  0.1233109E+00
         21   -1    0    0  504  502  0.00000000000E+00  0.00000000000E+00  0.18374481304E+03  0.18374481304E+03  0.00000000000E+00 0. -1.
         21   -1    0    0  502  503 -0.00000000000E+00 -0.00000000000E+00 -0.28690249708E+02  0.28690249708E+02  0.00000000000E+00 0. -1.
         25    2    1    2    0    0  0.17830918048E+02 -0.83602284154E+00  0.12628898163E+03  0.17858097491E+03  0.12499446846E+03 0.  0.
          5    1    3    3  501    0 -0.34218185451E+02 -0.43497396787E+01 -0.72205365266E+01  0.35241319478E+02  0.10000000000E+00 0. -1.
         -5    1    3    3    0  501  0.52049103499E+02  0.35137168371E+01  0.13350951816E+03  0.14333965543E+03  0.10000000000E+00 0. -1.
         21    1    1    2  504  503 -0.17830918048E+02  0.83602284154E+00  0.28765581701E+02  0.33854087837E+02  0.00000000000E+00 0. -1.
<mgrwt>
<rscale>  1 0.12626265E+03</rscale>
<asrwt>0</asrwt>
<pdfrwt beam="1">  1       21 0.28268432E-01 0.12626265E+03</pdfrwt>
<pdfrwt beam="2">  1       21 0.44138847E-02 0.12626265E+03</pdfrwt>
<totfact> 0.39210561E+06</totfact>
</mgrwt>
</event>
<event>
 6    1  0.4241465E-002  0.1261408E+03  0.7546771E-02  0.1233297E+00
         21   -1    0    0  503  502  0.00000000000E+00  0.00000000000E+00  0.19457255167E+03  0.19457255167E+03  0.00000000000E+00 0. -1.
         21   -1    0    0  504  503 -0.00000000000E+00 -0.00000000000E+00 -0.30829902471E+02  0.30829902471E+02  0.00000000000E+00 0. -1.
         25    2    1    2    0    0 -0.10691671137E+02 -0.13015269548E+02  0.10447566052E+03  0.16378845395E+03  0.12501113923E+03 0.  0.
          5    1    3    3  501    0  0.41414122935E+02  0.32482731328E+02  0.66719618799E+02  0.84981026975E+02  0.10000000000E+00 0.  1.
         -5    1    3    3    0  501 -0.52105794072E+02 -0.45498000876E+02  0.37756041725E+02  0.78807426974E+02  0.10000000000E+00 0.  1.
         21    1    1    2  504  502  0.10691671137E+02  0.13015269548E+02  0.59266988675E+02  0.61614000192E+02  0.00000000000E+00 0.  1.
<mgrwt>
<rscale>  1 0.12614077E+03</rscale>
<asrwt>0</asrwt>
<pdfrwt beam="1">  1       21 0.29934238E-01 0.12614077E+03</pdfrwt>
<pdfrwt beam="2">  1       21 0.47430620E-02 0.12614077E+03</pdfrwt>
<totfact> 0.31146286E+06</totfact>
</mgrwt>
</event>
<event>
 6    1  0.4241465E-002  0.1281384E+03  0.7546771E-02  0.1230244E+00
         21   -1    0    0  504  502  0.00000000000E+00  0.00000000000E+00  0.91391852859E+03  0.91391852859E+03  0.00000000000E+00 0. -1.
         21   -1    0    0  502  503 -0.00000000000E+00 -0.00000000000E+00 -0.72272480412E+01  0.72272480412E+01  0.00000000000E+00 0. -1.
         25    2    1    2    0    0 -0.21055292716E+02 -0.18893061875E+02  0.62259623158E+03  0.63564574163E+03  0.12497667036E+03 0.  0.
          5    1    3    3  501    0  0.12603563524E+02 -0.39413947496E+02  0.56094036898E+03  0.56246459144E+03  0.10000000000E+00 0.  1.
         -5    1    3    3    0  501 -0.33658856240E+02  0.20520885621E+02  0.61655862601E+02  0.73181150190E+02  0.10000000000E+00 0.  1.
         21    1    1    2  504  503  0.21055292716E+02  0.18893061875E+02  0.28409504897E+03  0.28550003500E+03  0.00000000000E+00 0. -1.
<mgrwt>
<rscale>  1 0.12813837E+03</rscale>
<asrwt>0</asrwt>
<pdfrwt beam="1">  1       21 0.14060276E+00 0.12813837E+03</pdfrwt>
<pdfrwt beam="2">  1       21 0.11118850E-02 0.12813837E+03</pdfrwt>
<totfact> 0.11315398E+06</totfact>
</mgrwt>
</event>
<event>
 6    1  0.4241465E-002  0.1262603E+03  0.7546771E-02  0.1233113E+00
         21   -1    0    0  503  502  0.00000000000E+00  0.00000000000E+00  0.94969423590E+02  0.94969423590E+02  0.00000000000E+00 0. -1.
         21   -1    0    0  504  503 -0.00000000000E+00 -0.00000000000E+00 -0.64148047102E+02  0.64148047102E+02  0.00000000000E+00 0. -1.
         25    2    1    2    0    0  0.24167758592E+01 -0.17653265731E+02  0.32651588011E+01  0.12630247824E+03  0.12499670456E+03 0.  0.
          5    1    3    3  501    0 -0.24184892618E+02 -0.26416609395E+02 -0.52700934383E+02  0.63719265280E+02  0.10000000000E+00 0.  1.
         -5    1    3    3    0  501  0.26601668478E+02  0.87633436644E+01  0.55966093184E+02  0.62583212959E+02  0.10000000000E+00 0.  1.
         21    1    1    2  504  502 -0.24167758592E+01  0.17653265731E+02  0.27556217687E+02  0.32814992453E+02  0.00000000000E+00 0.  1.
<mgrwt>
<rscale>  1 0.12626027E+03</rscale>
<asrwt>0</asrwt>
<pdfrwt beam="1">  1       21 0.14610681E-01 0.12626027E+03</pdfrwt>
<pdfrwt beam="2">  1       21 0.98689303E-02 0.12626027E+03</pdfrwt>
<totfact> 0.33765030E+06</totfact>
</mgrwt>
</event>
<event>
 6    1  0.4241465E-002  0.1368788E+03  0.7546771E-02  0.1217592E+00
         21   -1    0    0  504  502  0.00000000000E+00  0.00000000000E+00  0.10512230014E+02  0.10512230014E+02  0.00000000000E+00 0. -1.
         21   -1    0    0  502  503 -0.00000000000E+00 -0.00000000000E+00 -0.19609705558E+04  0.19609705558E+04  0.00000000000E+00 0. -1.
         25    2    1    2    0    0  0.40454395860E+01 -0.55596712197E+02 -0.18613426203E+04  0.18663687099E+04  0.12501380399E+03 0.  0.
          5    1    3    3  501    0 -0.13191145303E+02  0.26981718404E+02 -0.10923657573E+04  0.10927785581E+04  0.10000000000E+00 0.  1.
         -5    1    3    3    0  501  0.17236584889E+02 -0.82578430601E+02 -0.76897686306E+03  0.77359015181E+03  0.10000000000E+00 0.  1.
         21    1    1    2  504  503 -0.40454395860E+01  0.55596712197E+02 -0.89115705461E+02  0.10511407588E+03  0.00000000000E+00 0. -1.
<mgrwt>
<rscale>  1 0.13687882E+03</rscale>
<asrwt>0</asrwt>
<pdfrwt beam="1">  1       21 0.16172668E-02 0.13687882E+03</pdfrwt>
<pdfrwt beam="2">  1       21 0.30168766E+00 0.13687882E+03</pdfrwt>
<totfact> 0.61253088E+04</totfact>
</mgrwt>
</event>
<event>
 6    1  0.4241465E-002  0.1300732E+03  0.7546771E-02  0.1227347E+00
         21   -1    0    0  504  502  0.00000000000E+00  0.00000000000E+00  0.34339197850E+03  0.34339197850E+03  0.00000000000E+00 0. -1.
         21   -1    0    0  502  503 -0.00000000000E+00 -0.00000000000E+00 -0.23767035409E+02  0.23767035409E+02  0.00000000000E+00 0. -1.
         25    2    1    2    0    0  0.26078178604E+01  0.35879576622E+02  0.17451791100E+03  0.21765919620E+03  0.12499951879E+03 0.  0.
          5    1    3    3  501    0  0.63011631360E+02  0.97450768104E+01  0.95390475472E+02  0.11473789705E+03  0.10000000000E+00 0.  1.
         -5    1    3    3    0  501 -0.60403813499E+02  0.26134499811E+02  0.79127435529E+02  0.10292129915E+03  0.10000000000E+00 0.  1.
         21    1    1    2  504  503 -0.26078178604E+01 -0.35879576622E+02  0.14510703209E+03  0.14949981771E+03  0.00000000000E+00 0. -1.
<mgrwt>
<rscale>  1 0.13007315E+03</rscale>
<asrwt>0</asrwt>
<pdfrwt beam="1">  1       21 0.52829532E-01 0.13007315E+03</pdfrwt>
<pdfrwt beam="2">  1       21 0.36564672E-02 0.13007315E+03</pdfrwt>
<totfact> 0.15437941E+06</totfact>
</mgrwt>
</event>
<event>
 6    1  0.4241465E-002  0.1262397E+03  0.7546771E-02  0.1233144E+00
         21   -1    0    0  504  502  0.00000000000E+00  0.00000000000E+00  0.11683861488E+03  0.11683861488E+03  0.00000000000E+00 0. -1.
         21   -1    0    0  502  503 -0.00000000000E+00 -0.00000000000E+00 -0.13653718882E+03  0.13653718882E+03  0.00000000000E+00 0. -1.
         25    2    1    2    0    0 -0.17046981508E+02 -0.39272299964E+01 -0.10629470271E+03  0.16503038937E+03  0.12502176961E+03 0.  0.
          5    1    3    3  501    0  0.20682211909E+02 -0.50035818297E+01 -0.12222368219E+03  0.12406219492E+03  0.10000000000E+00 0. -1.
         -5    1    3    3    0  501 -0.37729193417E+02  0.10763518333E+01  0.15928979477E+02  0.40968194448E+02  0.10000000000E+00 0. -1.
         21    1    1    2  504  503  0.17046981508E+02  0.39272299964E+01  0.86596128771E+02  0.88345414324E+02  0.00000000000E+00 0. -1.
<mgrwt>
<rscale>  1 0.12623971E+03</rscale>
<asrwt>0</asrwt>
<pdfrwt beam="1">  1       21 0.17975172E-01 0.12623971E+03</pdfrwt>
<pdfrwt beam="2">  1       21 0.21005721E-01 0.12623971E+03</pdfrwt>
<totfact> 0.59640955E+05</totfact>
</mgrwt>
</event>
<event>
 6    1  0.4241465E-002  0.1296137E+03  0.7546771E-02  0.1228030E+00
         21   -1    0    0  503  502  0.00000000000E+00  0.00000000000E+00  0.18004290643E+02  0.18004290643E+02  0.00000000000E+00 0.  1.
         21   -1    0    0  504  503 -0.00000000000E+00 -0.00000000000E+00 -0.65693145650E+03  0.65693145650E+03  0.00000000000E+00 0.  1.
         25    2    1    2    0    0 -0.27682671583E+02 -0.20177522231E+02 -0.62442727065E+03  0.63773749893E+03  0.12500495388E+03 0.  0.
          5    1    3    3  501    0  0.22473986727E+02 -0.29481553697E+02 -0.56827256785E+02  0.67849754617E+02  0.10000000000E+00 0. -1.
         -5    1    3    3    0  501 -0.50156658310E+02  0.93040314669E+01 -0.56760001387E+03  0.56988774431E+03  0.10000000000E+00 0. -1.
         21    1    1    2  504  502  0.27682671583E+02  0.20177522231E+02 -0.14499895203E+02  0.37198248215E+02  0.00000000000E+00 0.  1.
<mgrwt>
<rscale>  1 0.12961366E+03</rscale>
<asrwt>0</asrwt>
<pdfrwt beam="1">  1       21 0.27698907E-02 0.12961366E+03</pdfrwt>
<pdfrwt beam="2">  1       21 0.10106638E+00 0.12961366E+03</pdfrwt>
<totfact> 0.58398244E+05</totfact>
</mgrwt>
</event>
<event>
 6    1  0.4241465E-002  0.1273859E+03  0.7546771E-02  0.1231387E+00
         21   -1    0    0  503  502  0.00000000000E+00  0.00000000000E+00  0.17295756469E+03  0.17295756469E+03  0.00000000000E+00 0.  1.
         21   -1    0    0  504  503 -0.00000000000E+00 -0.00000000000E+00 -0.33864169003E+02  0.33864169003E+02  0.00000000000E+00 0.  1.
         25    2    1    2    0    0  0.11678030754E+02  0.21578647657E+02  0.12526379003E+03  0.17865664130E+03  0.12500065580E+03 0.  0.
          5    1    3    3  501    0  0.90506925251E+01  0.73946963110E+02  0.80853297391E+02  0.10994241260E+03  0.10000000000E+00 0.  1.
         -5    1    3    3    0  501  0.26273382292E+01 -0.52368315454E+02  0.44410492643E+02  0.68714228704E+02  0.10000000000E+00 0.  1.
         21    1    1    2  504  502 -0.11678030754E+02 -0.21578647657E+02  0.13829605652E+02  0.28165092393E+02  0.00000000000E+00 0.  1.
<mgrwt>
<rscale>  1 0.12738594E+03</rscale>
<asrwt>0</asrwt>
<pdfrwt beam="1">  1       21 0.26608855E-01 0.12738594E+03</pdfrwt>
<pdfrwt beam="2">  1       21 0.52098723E-02 0.12738594E+03</pdfrwt>
<totfact> 0.33347913E+06</totfact>
</mgrwt>
</event>
<event>
 6    1  0.4241465E-002  0.1273861E+03  0.7546771E-02  0.1231387E+00
         21   -1    0    0  503  502  0.00000000000E+00  0.00000000000E+00  0.19819736703E+03  0.19819736703E+03  0.00000000000E+00 0.  1.
         21   -1    0    0  504  503 -0.00000000000E+00 -0.00000000000E+00 -0.29827742130E+02  0.29827742130E+02  0.00000000000E+00 0.  1.
         25    2    1    2    0    0 -0.19729619604E+02 -0.14553315524E+02  0.12662582752E+03  0.17961435103E+03  0.12500463199E+03 0.  0.
          5    1    3    3  501    0 -0.67167847284E+02  0.16680776772E+01  0.10578795665E+03  0.12532120317E+03  0.10000000000E+00 0.  1.
         -5    1    3    3    0  501  0.47438227679E+02 -0.16221393201E+02  0.20837870871E+02  0.54293147866E+02  0.10000000000E+00 0.  1.
         21    1    1    2  504  502  0.19729619604E+02  0.14553315524E+02  0.41743797383E+02  0.48410758127E+02  0.00000000000E+00 0.  1.
<mgrwt>
<rscale>  1 0.12738609E+03</rscale>
<asrwt>0</asrwt>
<pdfrwt beam="1">  1       21 0.30491902E-01 0.12738609E+03</pdfrwt>
<pdfrwt beam="2">  1       21 0.45888835E-02 0.12738609E+03</pdfrwt>
<totfact> 0.31777110E+06</totfact>
</mgrwt>
</event>
<event>
 6    1  0.4241465E-002  0.1341965E+03  0.7546771E-02  0.1221358E+00
         21   -1    0    0  504  502  0.00000000000E+00  0.00000000000E+00  0.65622239260E+03  0.65622239260E+03  0.00000000000E+00 0. -1.
         21   -1    0    0  502  503 -0.00000000000E+00 -0.00000000000E+00 -0.21775405217E+03  0.21775405217E+03  0.00000000000E+00 0. -1.
         25    2    1    2    0    0 -0.27675227306E+02  0.40213125164E+02 -0.19605163487E+03  0.23758143167E+03  0.12500271797E+03 0.  0.
          5    1    3    3  501    0 -0.13358132543E+02 -0.43190190176E+02 -0.41447961804E+02  0.61333316967E+02  0.10000000000E+00 0.  1.
         -5    1    3    3    0  501 -0.14317094764E+02  0.83403315340E+02 -0.15460367306E+03  0.17624811471E+03  0.10000000000E+00 0.  1.
         21    1    1    2  504  503  0.27675227306E+02 -0.40213125164E+02  0.63451997529E+03  0.63639501309E+03  0.00000000000E+00 0. -1.
<mgrwt>
<rscale>  1 0.13419647E+03</rscale>
<asrwt>0</asrwt>
<pdfrwt beam="1">  1       21 0.10095729E+00 0.13419647E+03</pdfrwt>
<pdfrwt beam="2">  1       21 0.33500624E-01 0.13419647E+03</pdfrwt>
<totfact> 0.72301804E+03</totfact>
</mgrwt>
</event>
<event>
 6    1  0.4241465E-002  0.1261144E+03  0.7546771E-02  0.1233338E+00
         21   -1    0    0  504  502  0.00000000000E+00  0.00000000000E+00  0.54881903739E+02  0.54881903739E+02  0.00000000000E+00 0.  1.
         21   -1    0    0  502  503 -0.00000000000E+00 -0.00000000000E+00 -0.93073089537E+02  0.93073089537E+02  0.00000000000E+00 0.  1.
         25    2    1    2    0    0  0.12464403448E+02  0.11177801497E+02 -0.32063176434E+02  0.13012644599E+03  0.12499816024E+03 0.  0.
          5    1    3    3  501    0  0.34617126795E+02 -0.53526777400E+01  0.39866208957E+02  0.53069023386E+02  0.10000000000E+00 0. -1.
         -5    1    3    3    0  501 -0.22152723347E+02  0.16530479237E+02 -0.71929385391E+02  0.77057422603E+02  0.10000000000E+00 0. -1.
         21    1    1    2  504  503 -0.12464403448E+02 -0.11177801497E+02 -0.61280093639E+01  0.17828547287E+02  0.00000000000E+00 0.  1.
<mgrwt>
<rscale>  1 0.12611441E+03</rscale>
<asrwt>0</asrwt>
<pdfrwt beam="1">  1       21 0.84433698E-02 0.12611441E+03</pdfrwt>
<pdfrwt beam="2">  1       21 0.14318937E-01 0.12611441E+03</pdfrwt>
<totfact> 0.45911805E+06</totfact>
</mgrwt>
</event>
<event>
 6    1  0.4241465E-002  0.1311400E+03  0.7546771E-02  0.1225774E+00
         21   -1    0    0  503  502  0.00000000000E+00  0.00000000000E+00  0.11268328450E+03  0.11268328450E+03  0.00000000000E+00 0. -1.
         21   -1    0    0  504  503 -0.00000000000E+00 -0.00000000000E+00 -0.65503254935E+02  0.65503254935E+02  0.00000000000E+00 0. -1.
         25    2    1    2    0    0 -0.29775826928E+02 -0.26202757726E+02  0.27854585621E+02  0.13406560149E+03  0.12499809271E+03 0.  0.
          5    1    3    3  501    0 -0.50320473253E+02  0.73797050348E+01  0.63224799908E+02  0.81141822744E+02  0.10000000000E+00 0.  1.
         -5    1    3    3    0  501  0.20544646325E+02 -0.33582462761E+02 -0.35370214287E+02  0.52923778743E+02  0.10000000000E+00 0.  1.
         21    1    1    2  504  502  0.29775826928E+02  0.26202757726E+02  0.19325443943E+02  0.44120937946E+02  0.00000000000E+00 0. -1.
<mgrwt>
<rscale>  1 0.13114003E+03</rscale>
<asrwt>0</asrwt>
<pdfrwt beam="1">  1       21 0.17335890E-01 0.13114003E+03</pdfrwt>
<pdfrwt beam="2">  1       21 0.10077424E-01 0.13114003E+03</pdfrwt>
<totfact> 0.23914960E+06</totfact>
</mgrwt>
</event>
<event>
 6    1  0.4241465E-002  0.1315964E+03  0.7546771E-02  0.1225106E+00
         21   -1    0    0  503  502  0.00000000000E+00  0.00000000000E+00  0.16303949271E+03  0.16303949271E+03  0.00000000000E+00 0.  1.
         21   -1    0    0  504  503 -0.00000000000E+00 -0.00000000000E+00 -0.11123390419E+03  0.11123390419E+03  0.00000000000E+00 0.  1.
         25    2    1    2    0    0  0.39528614383E+02 -0.11469281793E+02 -0.67620934671E+02  0.14795336594E+03  0.12499420750E+03 0.  0.
          5    1    3    3  501    0  0.63766299575E+02  0.34556379510E+02 -0.15199921777E+02  0.74103521835E+02  0.10000000000E+00 0. -1.
         -5    1    3    3    0  501 -0.24237685192E+02 -0.46025661303E+02 -0.52421012894E+02  0.73849844108E+02  0.10000000000E+00 0. -1.
         21    1    1    2  504  502 -0.39528614383E+02  0.11469281793E+02  0.11942652319E+03  0.12632003096E+03  0.00000000000E+00 0.  1.
<mgrwt>
<rscale>  1 0.13159638E+03</rscale>
<asrwt>0</asrwt>
<pdfrwt beam="1">  1       21 0.25082999E-01 0.13159638E+03</pdfrwt>
<pdfrwt beam="2">  1       21 0.17112908E-01 0.13159638E+03</pdfrwt>
<totfact> 0.46780776E+05</totfact>
</mgrwt>
</event>
<event>
 6    1  0.4241465E-002  0.1277462E+03  0.7546771E-02  0.1230839E+00
         21   -1    0    0  504  502  0.00000000000E+00  0.00000000000E+00  0.10506526997E+03  0.10506526997E+03  0.00000000000E+00 0. -1.
         21   -1    0    0  502  503 -0.00000000000E+00 -0.00000000000E+00 -0.74943988677E+02  0.74943988677E+02  0.00000000000E+00 0. -1.
         25    2    1    2    0    0  0.24756960937E+02 -0.93563731956E+01 -0.14049506352E+02  0.12851646968E+03  0.12497457948E+03 0.  0.
          5    1    3    3  501    0 -0.19151558414E+02  0.33531510670E+02  0.33304803618E+02  0.50993767673E+02  0.10000000000E+00 0. -1.
         -5    1    3    3    0  501  0.43908519351E+02 -0.42887883866E+02 -0.47354309970E+02  0.77522702009E+02  0.10000000000E+00 0. -1.
         21    1    1    2  504  503 -0.24756960937E+02  0.93563731956E+01  0.44170787649E+02  0.51492788969E+02  0.00000000000E+00 0. -1.
<mgrwt>
<rscale>  1 0.12774621E+03</rscale>
<asrwt>0</asrwt>
<pdfrwt beam="1">  1       21 0.16163888E-01 0.12774621E+03</pdfrwt>
<pdfrwt beam="2">  1       21 0.11529844E-01 0.12774621E+03</pdfrwt>
<totfact> 0.21418441E+06</totfact>
</mgrwt>
</event>
<event>
 6    1  0.4241465E-002  0.1287344E+03  0.7546771E-02  0.1229346E+00
         21   -1    0    0  504  502  0.00000000000E+00  0.00000000000E+00  0.25457139542E+03  0.25457139542E+03  0.00000000000E+00 0. -1.
         21   -1    0    0  502  503 -0.00000000000E+00 -0.00000000000E+00 -0.25683516545E+02  0.25683516545E+02  0.00000000000E+00 0. -1.
         25    2    1    2    0    0  0.28464749277E+02  0.11712198061E+02  0.16446945723E+03  0.20886058038E+03  0.12500048856E+03 0.  0.
          5    1    3    3  501    0 -0.28603727504E+02  0.51637715264E+02  0.72402640577E+02  0.93417231962E+02  0.10000000000E+00 0.  1.
         -5    1    3    3    0  501  0.57068476781E+02 -0.39925517203E+02  0.92066816655E+02  0.11544334842E+03  0.10000000000E+00 0.  1.
         21    1    1    2  504  503 -0.28464749277E+02 -0.11712198061E+02  0.64418421638E+02  0.71394331576E+02  0.00000000000E+00 0.  1.
<mgrwt>
<rscale>  1 0.12873438E+03</rscale>
<asrwt>0</asrwt>
<pdfrwt beam="1">  1       21 0.39164828E-01 0.12873438E+03</pdfrwt>
<pdfrwt beam="2">  1       21 0.39513104E-02 0.12873438E+03</pdfrwt>
<totfact> 0.24962360E+06</totfact>
</mgrwt>
</event>
<event>
 6    1  0.4241465E-002  0.2100296E+03  0.7546771E-02  0.1141543E+00
         21   -1    0    0  504  502  0.00000000000E+00  0.00000000000E+00  0.74657608259E+02  0.74657608259E+02  0.00000000000E+00 0.  1.
         21   -1    0    0  502  503 -0.00000000000E+00 -0.00000000000E+00 -0.25473645296E+04  0.25473645296E+04  0.00000000000E+00 0. -1.
         25    2    1    2    0    0  0.65101520831E+02  0.15571872835E+03 -0.24413336437E+04  0.24503514854E+04  0.12500364621E+03 0.  0.
          5    1    3    3  501    0 -0.34830910872E+02  0.45299358640E+02 -0.48427042880E+03  0.48763006721E+03  0.10000000000E+00 0. -1.
         -5    1    3    3    0  501  0.99932431703E+02  0.11041936971E+03 -0.19570632150E+04  0.19627214182E+04  0.10000000000E+00 0. -1.
         21    1    1    2  504  503 -0.65101520831E+02 -0.15571872835E+03 -0.31373277612E+02  0.17167065247E+03  0.00000000000E+00 0.  1.
<mgrwt>
<rscale>  1 0.21002962E+03</rscale>
<asrwt>0</asrwt>
<pdfrwt beam="1">  1       21 0.11485785E-01 0.21002962E+03</pdfrwt>
<pdfrwt beam="2">  1       21 0.39190227E+00 0.21002962E+03</pdfrwt>
<totfact> 0.60428377E+02</totfact>
</mgrwt>
</event>
<event>
 6    1  0.4241465E-002  0.1264851E+03  0.7546771E-02  0.1232766E+00
         21   -1    0    0  504  502  0.00000000000E+00  0.00000000000E+00  0.59364267994E+03  0.59364267994E+03  0.00000000000E+00 0.  1.
         21   -1    0    0  502  503 -0.00000000000E+00 -0.00000000000E+00 -0.23087391128E+02  0.23087391128E+02  0.00000000000E+00 0.  1.
         25    2    1    2    0    0  0.77928670046E+01  0.17680481370E+02  0.15206273538E+03  0.19779171585E+03  0.12500063667E+03 0.  0.
          5    1    3    3  501    0  0.22633872528E+02 -0.49182798473E+02  0.43599668254E+02  0.69513890145E+02  0.10000000000E+00 0. -1.
         -5    1    3    3    0  501 -0.14841005523E+02  0.66863279843E+02  0.10846306713E+03  0.12827782570E+03  0.10000000000E+00 0. -1.
         21    1    1    2  504  503 -0.77928670046E+01 -0.17680481370E+02  0.41849255343E+03  0.41893835522E+03  0.00000000000E+00 0.  1.
<mgrwt>
<rscale>  1 0.12648513E+03</rscale>
<asrwt>0</asrwt>
<pdfrwt beam="1">  1       21 0.91329632E-01 0.12648513E+03</pdfrwt>
<pdfrwt beam="2">  1       21 0.35519068E-02 0.12648513E+03</pdfrwt>
<totfact> 0.49106553E+05</totfact>
</mgrwt>
</event>
<event>
 6    1  0.4241465E-002  0.1300523E+03  0.7546771E-02  0.1227378E+00
         21   -1    0    0  503  502  0.00000000000E+00  0.00000000000E+00  0.11522724199E+02  0.11522724199E+02  0.00000000000E+00 0. -1.
         21   -1    0    0  504  503 -0.00000000000E+00 -0.00000000000E+00 -0.76853658724E+03  0.76853658724E+03  0.00000000000E+00 0. -1.
         25    2    1    2    0    0  0.81064365812E+00 -0.35872802343E+02 -0.70483951062E+03  0.71673729204E+03  0.12500437979E+03 0.  0.
          5    1    3    3  501    0  0.44845165633E+02 -0.46622860719E+02 -0.20783051064E+03  0.21766559484E+03  0.10000000000E+00 0. -1.
         -5    1    3    3    0  501 -0.44034521975E+02  0.10750058376E+02 -0.49700899998E+03  0.49907169720E+03  0.10000000000E+00 0. -1.
         21    1    1    2  504  502 -0.81064365812E+00  0.35872802343E+02 -0.52174352412E+02  0.63322019399E+02  0.00000000000E+00 0. -1.
<mgrwt>
<rscale>  1 0.13005234E+03</rscale>
<asrwt>0</asrwt>
<pdfrwt beam="1">  1       21 0.17727269E-02 0.13005234E+03</pdfrwt>
<pdfrwt beam="2">  1       21 0.11823639E+00 0.13005234E+03</pdfrwt>
<totfact> 0.82757632E+05</totfact>
</mgrwt>
</event>
<event>
 6    1  0.4241465E-002  0.1361820E+03  0.7546771E-02  0.1218561E+00
         21   -1    0    0  503  502  0.00000000000E+00  0.00000000000E+00  0.40397393917E+03  0.40397393917E+03  0.00000000000E+00 0. -1.
         21   -1    0    0  504  503 -0.00000000000E+00 -0.00000000000E+00 -0.92286363014E+02  0.92286363014E+02  0.00000000000E+00 0.  1.
         25    2    1    2    0    0  0.53206933854E+02  0.95865440287E+01 -0.38820623757E+02  0.14160712252E+03  0.12499062639E+03 0.  0.
          5    1    3    3  501    0  0.13367466956E+02  0.39992574308E+02  0.33336133785E+02  0.53753167240E+02  0.10000000000E+00 0.  1.
         -5    1    3    3    0  501  0.39839466897E+02 -0.30406030279E+02 -0.72156757542E+02  0.87853955284E+02  0.10000000000E+00 0.  1.
         21    1    1    2  504  502 -0.53206933854E+02 -0.95865440287E+01  0.35050819991E+03  0.35465317966E+03  0.00000000000E+00 0. -1.
<mgrwt>
<rscale>  1 0.13618200E+03</rscale>
<asrwt>0</asrwt>
<pdfrwt beam="1">  1       21 0.62149836E-01 0.13618200E+03</pdfrwt>
<pdfrwt beam="2">  1       21 0.14197902E-01 0.13618200E+03</pdfrwt>
<totfact> 0.10639657E+05</totfact>
</mgrwt>
</event>
<event>
 6    1  0.4241465E-002  0.1259842E+03  0.7546771E-02  0.1233539E+00
         21   -1    0    0  504  502  0.00000000000E+00  0.00000000000E+00  0.23419592708E+03  0.23419592708E+03  0.00000000000E+00 0. -1.
         21   -1    0    0  502  503 -0.00000000000E+00 -0.00000000000E+00 -0.21543018192E+02  0.21543018192E+02  0.00000000000E+00 0. -1.
         25    2    1    2    0    0  0.15311363409E+02 -0.37436498444E+01  0.18328230191E+03  0.22240599884E+03  0.12499429332E+03 0.  0.
          5    1    3    3  501    0 -0.52708463770E+02 -0.17732975791E+02  0.68255319728E+02  0.88042258346E+02  0.10000000000E+00 0. -1.
         -5    1    3    3    0  501  0.68019827178E+02  0.13989325947E+02  0.11502698218E+03  0.13436374050E+03  0.10000000000E+00 0. -1.
         21    1    1    2  504  503 -0.15311363409E+02  0.37436498444E+01  0.29370606973E+02  0.33332946428E+02  0.00000000000E+00 0. -1.
<mgrwt>
<rscale>  1 0.12598423E+03</rscale>
<asrwt>0</asrwt>
<pdfrwt beam="1">  1       21 0.36030141E-01 0.12598423E+03</pdfrwt>
<pdfrwt beam="2">  1       21 0.33143106E-02 0.12598423E+03</pdfrwt>
<totfact> 0.39348008E+06</totfact>
</mgrwt>
</event>
<event>
 6    1  0.4241465E-002  0.1334163E+03  0.7546771E-02  0.1222473E+00
         21   -1    0    0  503  502  0.00000000000E+00  0.00000000000E+00  0.14420047232E+03  0.14420047232E+03  0.00000000000E+00 0. -1.
         21   -1    0    0  504  503 -0.00000000000E+00 -0.00000000000E+00 -0.70980740514E+02  0.70980740514E+02  0.00000000000E+00 0. -1.
         25    2    1    2    0    0  0.36226367701E+02 -0.29404323622E+02  0.94907081297E+02  0.16372924405E+03  0.12499178898E+03 0.  0.
          5    1    3    3  501    0  0.42728806014E+02 -0.60468438174E+02  0.10669846997E+03  0.12987207695E+03  0.10000000000E+00 0.  1.
         -5    1    3    3    0  501 -0.65024383132E+01  0.31064114552E+02 -0.11791388670E+02  0.33857167095E+02  0.10000000000E+00 0.  1.
         21    1    1    2  504  502 -0.36226367701E+02  0.29404323622E+02 -0.21687349489E+02  0.51451968790E+02  0.00000000000E+00 0. -1.
<mgrwt>
<rscale>  1 0.13341631E+03</rscale>
<asrwt>0</asrwt>
<pdfrwt beam="1">  1       21 0.22184688E-01 0.13341631E+03</pdfrwt>
<pdfrwt beam="2">  1       21 0.10920114E-01 0.13341631E+03</pdfrwt>
<totfact> 0.13176213E+06</totfact>
</mgrwt>
</event>
<event>
 6    1  0.4241465E-002  0.1380023E+03  0.7546771E-02  0.1216043E+00
         21   -1    0    0  504  502  0.00000000000E+00  0.00000000000E+00  0.42340420605E+03  0.42340420605E+03  0.00000000000E+00 0.  1.
         21   -1    0    0  502  503 -0.00000000000E+00 -0.00000000000E+00 -0.52581954679E+02  0.52581954679E+02  0.00000000000E+00 0.  1.
         25    2    1    2    0    0  0.44042421076E+02  0.38451479717E+02  0.45288065684E+02  0.14524342506E+03  0.12500556981E+03 0.  0.
          5    1    3    3  501    0 -0.66234779468E+01  0.65522162246E+02  0.56432993089E+02  0.86727832410E+02  0.10000000000E+00 0.  1.
         -5    1    3    3    0  501  0.50665899023E+02 -0.27070682529E+02 -0.11144927405E+02  0.58515592650E+02  0.10000000000E+00 0.  1.
         21    1    1    2  504  503 -0.44042421076E+02 -0.38451479717E+02  0.32553418568E+03  0.33074273566E+03  0.00000000000E+00 0.  1.
<mgrwt>
<rscale>  1 0.13800233E+03</rscale>
<asrwt>0</asrwt>
<pdfrwt beam="1">  1       21 0.65139106E-01 0.13800233E+03</pdfrwt>
<pdfrwt beam="2">  1       21 0.80895318E-02 0.13800233E+03</pdfrwt>
<totfact> 0.25886970E+05</totfact>
</mgrwt>
</event>
<event>
 6    1  0.4241465E-002  0.1282467E+03  0.7546771E-02  0.1230081E+00
         21   -1    0    0  503  502  0.00000000000E+00  0.00000000000E+00  0.17377184305E+03  0.17377184305E+03  0.00000000000E+00 0. -1.
         21   -1    0    0  504  503 -0.00000000000E+00 -0.00000000000E+00 -0.37786353775E+02  0.37786353775E+02  0.00000000000E+00 0. -1.
         25    2    1    2    0    0  0.26214573394E+02 -0.11627013830E+02  0.87588115185E+02  0.15530255597E+03  0.12499925864E+03 0.  0.
          5    1    3    3  501    0  0.29986599288E+02 -0.66653670391E+02  0.50383585831E+02  0.88771750206E+02  0.10000000000E+00 0.  1.
         -5    1    3    3    0  501 -0.37720258939E+01  0.55026656560E+02  0.37204529354E+02  0.66530805767E+02  0.10000000000E+00 0.  1.
         21    1    1    2  504  502 -0.26214573394E+02  0.11627013830E+02  0.48397374087E+02  0.56255640849E+02  0.00000000000E+00 0. -1.
<mgrwt>
<rscale>  1 0.12824666E+03</rscale>
<asrwt>0</asrwt>
<pdfrwt beam="1">  1       21 0.26734129E-01 0.12824666E+03</pdfrwt>
<pdfrwt beam="2">  1       21 0.58132853E-02 0.12824666E+03</pdfrwt>
<totfact> 0.27478319E+06</totfact>
</mgrwt>
</event>
<event>
 6    1  0.4241465E-002  0.1482688E+03  0.7546771E-02  0.1202617E+00
         21   -1    0    0  503  502  0.00000000000E+00  0.00000000000E+00  0.47273279071E+03  0.47273279071E+03  0.00000000000E+00 0. -1.
         21   -1    0    0  504  503 -0.00000000000E+00 -0.00000000000E+00 -0.27653678821E+02  0.27653678821E+02  0.00000000000E+00 0. -1.
         25    2    1    2    0    0 -0.45516718355E+01 -0.79615242126E+02  0.27092883931E+03  0.30884633814E+03  0.12499728043E+03 0.  0.
          5    1    3    3  501    0 -0.24885147756E+02 -0.10920529931E+03  0.21406564040E+03  0.24159713653E+03  0.10000000000E+00 0.  1.
         -5    1    3    3    0  501  0.20333475921E+02  0.29590057186E+02  0.56863198909E+02  0.67249201612E+02  0.10000000000E+00 0.  1.
         21    1    1    2  504  502  0.45516718355E+01  0.79615242126E+02  0.17415027258E+03  0.19154013140E+03  0.00000000000E+00 0. -1.
<mgrwt>
<rscale>  1 0.14826876E+03</rscale>
<asrwt>0</asrwt>
<pdfrwt beam="1">  1       21 0.72728115E-01 0.14826876E+03</pdfrwt>
<pdfrwt beam="2">  1       21 0.42544125E-02 0.14826876E+03</pdfrwt>
<totfact> 0.60549174E+05</totfact>
</mgrwt>
</event>
<event>
 6    1  0.4241465E-002  0.1264171E+03  0.7546771E-02  0.1232871E+00
         21   -1    0    0  504  502  0.00000000000E+00  0.00000000000E+00  0.32489290132E+02  0.32489290132E+02  0.00000000000E+00 0. -1.
         21   -1    0    0  502  503 -0.00000000000E+00 -0.00000000000E+00 -0.16653543402E+03  0.16653543402E+03  0.00000000000E+00 0. -1.
         25    2    1    2    0    0 -0.11000862510E+02 -0.15381353684E+02 -0.12596050098E+03  0.17845818243E+03  0.12499468010E+03 0.  0.
          5    1    3    3  501    0  0.42792217178E+02 -0.28077268655E+02 -0.13162642820E+02  0.52846684211E+02  0.10000000000E+00 0.  1.
         -5    1    3    3    0  501 -0.53793079688E+02  0.12695914972E+02 -0.11279785816E+03  0.12561149822E+03  0.10000000000E+00 0.  1.
         21    1    1    2  504  503  0.11000862510E+02  0.15381353684E+02 -0.80856429041E+01  0.20566541719E+02  0.00000000000E+00 0. -1.
<mgrwt>
<rscale>  1 0.12641707E+03</rscale>
<asrwt>0</asrwt>
<pdfrwt beam="1">  1       21 0.49983523E-02 0.12641707E+03</pdfrwt>
<pdfrwt beam="2">  1       21 0.25620836E-01 0.12641707E+03</pdfrwt>
<totfact> 0.38402555E+06</totfact>
</mgrwt>
</event>
<event>
 6    1  0.4241465E-002  0.1327204E+03  0.7546771E-02  0.1223474E+00
         21   -1    0    0  503  502  0.00000000000E+00  0.00000000000E+00  0.14522275406E+03  0.14522275406E+03  0.00000000000E+00 0.  1.
         21   -1    0    0  504  503 -0.00000000000E+00 -0.00000000000E+00 -0.57970413976E+02  0.57970413976E+02  0.00000000000E+00 0.  1.
         25    2    1    2    0    0 -0.44364776706E+02  0.44760891574E+01  0.40910222073E+02  0.13888251038E+03  0.12500574640E+03 0.  0.
          5    1    3    3  501    0  0.48825889812E+01 -0.50740474747E+02 -0.59232410893E+01  0.51317932906E+02  0.10000000000E+00 0. -1.
         -5    1    3    3    0  501 -0.49247365687E+02  0.55216563905E+02  0.46833463163E+02  0.87564577475E+02  0.10000000000E+00 0. -1.
         21    1    1    2  504  502  0.44364776706E+02 -0.44760891574E+01  0.46342118011E+02  0.64310657656E+02  0.00000000000E+00 0.  1.
<mgrwt>
<rscale>  1 0.13272040E+03</rscale>
<asrwt>0</asrwt>
<pdfrwt beam="1">  1       21 0.22341962E-01 0.13272040E+03</pdfrwt>
<pdfrwt beam="2">  1       21 0.89185253E-02 0.13272040E+03</pdfrwt>
<totfact> 0.18528610E+06</totfact>
</mgrwt>
</event>
<event>
 6    1  0.4241465E-002  0.1260266E+03  0.7546771E-02  0.1233474E+00
         21   -1    0    0  503  502  0.00000000000E+00  0.00000000000E+00  0.53986226804E+03  0.53986226804E+03  0.00000000000E+00 0. -1.
         21   -1    0    0  504  503 -0.00000000000E+00 -0.00000000000E+00 -0.23876041869E+02  0.23876041869E+02  0.00000000000E+00 0. -1.
         25    2    1    2    0    0  0.64128948099E+01  0.14588666414E+02  0.14379429305E+03  0.19120537246E+03  0.12501496444E+03 0.  0.
          5    1    3    3  501    0  0.59715313756E+02 -0.11293137174E+02  0.10186528609E+03  0.11861703147E+03  0.10000000000E+00 0. -1.
         -5    1    3    3    0  501 -0.53302418946E+02  0.25881803587E+02  0.41929006959E+02  0.72588340985E+02  0.10000000000E+00 0. -1.
         21    1    1    2  504  502 -0.64128948099E+01 -0.14588666414E+02  0.37219193312E+03  0.37253293745E+03  0.00000000000E+00 0. -1.
<mgrwt>
<rscale>  1 0.12602657E+03</rscale>
<asrwt>0</asrwt>
<pdfrwt beam="1">  1       21 0.83055724E-01 0.12602657E+03</pdfrwt>
<pdfrwt beam="2">  1       21 0.36732376E-02 0.12602657E+03</pdfrwt>
<totfact> 0.57633981E+05</totfact>
</mgrwt>
</event>
<event>
 6    1  0.4241465E-002  0.1449822E+03  0.7546771E-02  0.1206778E+00
         21   -1    0    0  503  502  0.00000000000E+00  0.00000000000E+00  0.30663726891E+02  0.30663726891E+02  0.00000000000E+00 0.  1.
         21   -1    0    0  504  503 -0.00000000000E+00 -0.00000000000E+00 -0.38899186974E+03  0.38899186974E+03  0.00000000000E+00 0.  1.
         25    2    1    2    0    0  0.10894046683E+01  0.73437381280E+02 -0.23879462657E+03  0.27936127285E+03  0.12500244524E+03 0.  0.
          5    1    3    3  501    0  0.37159689655E+02  0.28441939873E+01 -0.17111333058E+03  0.17512485226E+03  0.10000000000E+00 0.  1.
         -5    1    3    3    0  501 -0.36070284986E+02  0.70593187293E+02 -0.67681295990E+02  0.10423642059E+03  0.10000000000E+00 0.  1.
         21    1    1    2  504  502 -0.10894046683E+01 -0.73437381280E+02 -0.11953351628E+03  0.14029432379E+03  0.00000000000E+00 0.  1.
<mgrwt>
<rscale>  1 0.14498223E+03</rscale>
<asrwt>0</asrwt>
<pdfrwt beam="1">  1       21 0.47174969E-02 0.14498223E+03</pdfrwt>
<pdfrwt beam="2">  1       21 0.59844898E-01 0.14498223E+03</pdfrwt>
<totfact> 0.77700283E+05</totfact>
</mgrwt>
</event>
<event>
 6    1  0.4241465E-002  0.1265800E+03  0.7546771E-02  0.1232620E+00
         21   -1    0    0  503  502  0.00000000000E+00  0.00000000000E+00  0.82674313356E+02  0.82674313356E+02  0.00000000000E+00 0. -1.
         21   -1    0    0  504  503 -0.00000000000E+00 -0.00000000000E+00 -0.68085863866E+02  0.68085863866E+02  0.00000000000E+00 0. -1.
         25    2    1    2    0    0 -0.19858377229E+02  0.39550378975E+00  0.80278622611E+00  0.12658258261E+03  0.12501197617E+03 0.  0.
          5    1    3    3  501    0 -0.91538622332E+01  0.48729252701E+02  0.39786150590E+02  0.63571070790E+02  0.10000000000E+00 0.  1.
         -5    1    3    3    0  501 -0.10704514995E+02 -0.48333748911E+02 -0.38983364364E+02  0.63011511823E+02  0.10000000000E+00 0.  1.
         21    1    1    2  504  502  0.19858377229E+02 -0.39550378975E+00  0.13785663264E+02  0.24177594608E+02  0.00000000000E+00 0. -1.
<mgrwt>
<rscale>  1 0.12658004E+03</rscale>
<asrwt>0</asrwt>
<pdfrwt beam="1">  1       21 0.12719125E-01 0.12658004E+03</pdfrwt>
<pdfrwt beam="2">  1       21 0.10474748E-01 0.12658004E+03</pdfrwt>
<totfact> 0.38985723E+06</totfact>
</mgrwt>
</event>
<event>
 6    1  0.4241465E-002  0.1263485E+03  0.7546771E-02  0.1232977E+00
         21   -1    0    0  504  502  0.00000000000E+00  0.00000000000E+00  0.56580563015E+01  0.56580563015E+01  0.00000000000E+00 0. -1.
         21   -1    0    0  502  503 -0.00000000000E+00 -0.00000000000E+00 -0.13111523698E+04  0.13111523698E+04  0.00000000000E+00 0. -1.
         25    2    1    2    0    0  0.17178948856E+02  0.66259157821E+01 -0.12745885848E+04  0.12808356695E+04  0.12499973120E+03 0.  0.
          5    1    3    3  501    0 -0.37937977478E+02  0.97540858736E+01 -0.15453547701E+03  0.15942288412E+03  0.10000000000E+00 0. -1.
         -5    1    3    3    0  501  0.55116926333E+02 -0.31281700915E+01 -0.11200531078E+04  0.11214127854E+04  0.10000000000E+00 0. -1.
         21    1    1    2  504  503 -0.17178948856E+02 -0.66259157821E+01 -0.30905728689E+02  0.35974756559E+02  0.00000000000E+00 0. -1.
<mgrwt>
<rscale>  1 0.12634853E+03</rscale>
<asrwt>0</asrwt>
<pdfrwt beam="1">  1       21 0.87046962E-03 0.12634853E+03</pdfrwt>
<pdfrwt beam="2">  1       21 0.20171588E+00 0.12634853E+03</pdfrwt>
<totfact> 0.62726053E+05</totfact>
</mgrwt>
</event>
<event>
 6    1  0.4241465E-002  0.1832715E+03  0.7546771E-02  0.1164674E+00
         21   -1    0    0  503  502  0.00000000000E+00  0.00000000000E+00  0.14082302668E+03  0.14082302668E+03  0.00000000000E+00 0.  1.
         21   -1    0    0  504  503 -0.00000000000E+00 -0.00000000000E+00 -0.19280798801E+03  0.19280798801E+03  0.00000000000E+00 0.  1.
         25    2    1    2    0    0  0.97066250174E+02 -0.92409591765E+02 -0.74311147707E+02  0.19776399084E+03  0.12500823903E+03 0.  0.
          5    1    3    3  501    0  0.12430393099E+03 -0.79416373642E+02 -0.41605972799E+02  0.15326282861E+03  0.10000000000E+00 0.  1.
         -5    1    3    3    0  501 -0.27237680816E+02 -0.12993218123E+02 -0.32705174908E+02  0.44501162223E+02  0.10000000000E+00 0.  1.
         21    1    1    2  504  502 -0.97066250174E+02  0.92409591765E+02  0.22326186381E+02  0.13586702386E+03  0.00000000000E+00 0.  1.
<mgrwt>
<rscale>  1 0.18327152E+03</rscale>
<asrwt>0</asrwt>
<pdfrwt beam="1">  1       21 0.21665081E-01 0.18327152E+03</pdfrwt>
<pdfrwt beam="2">  1       21 0.29662767E-01 0.18327152E+03</pdfrwt>
<totfact> 0.21699164E+05</totfact>
</mgrwt>
</event>
<event>
 6    1  0.4241465E-002  0.1263781E+03  0.7546771E-02  0.1232931E+00
         21   -1    0    0  504  502  0.00000000000E+00  0.00000000000E+00  0.21624955803E+03  0.21624955803E+03  0.00000000000E+00 0.  1.
         21   -1    0    0  502  503 -0.00000000000E+00 -0.00000000000E+00 -0.41052639907E+02  0.41052639907E+02  0.00000000000E+00 0.  1.
         25    2    1    2    0    0 -0.15568357130E+02  0.10181625060E+02  0.58727967490E+02  0.13935705944E+03  0.12500150647E+03 0.  0.
          5    1    3    3  501    0 -0.39845485872E+02  0.32131992860E+01 -0.28143567065E+02  0.48888216997E+02  0.10000000000E+00 0.  1.
         -5    1    3    3    0  501  0.24277128742E+02  0.69684257741E+01  0.86871534556E+02  0.90468842447E+02  0.10000000000E+00 0.  1.
         21    1    1    2  504  503  0.15568357130E+02 -0.10181625060E+02  0.11646895063E+03  0.11794513849E+03  0.00000000000E+00 0.  1.
<mgrwt>
<rscale>  1 0.12637807E+03</rscale>
<asrwt>0</asrwt>
<pdfrwt beam="1">  1       21 0.33269162E-01 0.12637807E+03</pdfrwt>
<pdfrwt beam="2">  1       21 0.63157909E-02 0.12637807E+03</pdfrwt>
<totfact> 0.15657373E+06</totfact>
</mgrwt>
</event>
<event>
 6    1  0.4241465E-002  0.1342533E+03  0.7546771E-02  0.1221278E+00
         21   -1    0    0  504  502  0.00000000000E+00  0.00000000000E+00  0.18876111759E+03  0.18876111759E+03  0.00000000000E+00 0. -1.
         21   -1    0    0  502  503 -0.00000000000E+00 -0.00000000000E+00 -0.83479207533E+02  0.83479207533E+02  0.00000000000E+00 0. -1.
         25    2    1    2    0    0 -0.39093437071E+02  0.29505783095E+02 -0.21832028473E+02  0.13601682705E+03  0.12500020686E+03 0.  0.
          5    1    3    3  501    0 -0.20168024447E+02  0.42954209531E+02 -0.68826683411E+02  0.83599854521E+02  0.10000000000E+00 0.  1.
         -5    1    3    3    0  501 -0.18925412624E+02 -0.13448426436E+02  0.46994654937E+02  0.52416972531E+02  0.10000000000E+00 0.  1.
         21    1    1    2  504  503  0.39093437071E+02 -0.29505783095E+02  0.12711393853E+03  0.13622349807E+03  0.00000000000E+00 0. -1.
<mgrwt>
<rscale>  1 0.13425327E+03</rscale>
<asrwt>0</asrwt>
<pdfrwt beam="1">  1       21 0.29040172E-01 0.13425327E+03</pdfrwt>
<pdfrwt beam="2">  1       21 0.12842955E-01 0.13425327E+03</pdfrwt>
<totfact> 0.59342541E+05</totfact>
</mgrwt>
</event>
<event>
 6    1  0.4241465E-002  0.1270076E+03  0.7546771E-02  0.1231965E+00
         21   -1    0    0  504  502  0.00000000000E+00  0.00000000000E+00  0.41357873134E+02  0.41357873134E+02  0.00000000000E+00 0. -1.
         21   -1    0    0  502  503 -0.00000000000E+00 -0.00000000000E+00 -0.31435087797E+03  0.31435087797E+03  0.00000000000E+00 0.  1.
         25    2    1    2    0    0  0.17759272904E+02  0.13513026757E+02 -0.29694844680E+03  0.32296952593E+03  0.12503175980E+03 0.  0.
          5    1    3    3  501    0  0.17342442101E+01 -0.45832967465E+02 -0.47386020295E+02  0.65947808372E+02  0.10000000000E+00 0. -1.
         -5    1    3    3    0  501  0.16025028694E+02  0.59345994222E+02 -0.24956242650E+03  0.25702171756E+03  0.10000000000E+00 0. -1.
         21    1    1    2  504  503 -0.17759272904E+02 -0.13513026757E+02  0.23955441955E+02  0.32739225181E+02  0.00000000000E+00 0. -1.
<mgrwt>
<rscale>  1 0.12700762E+03</rscale>
<asrwt>0</asrwt>
<pdfrwt beam="1">  1       21 0.63627499E-02 0.12700762E+03</pdfrwt>
<pdfrwt beam="2">  1       21 0.48361672E-01 0.12700762E+03</pdfrwt>
<totfact> 0.73182348E+05</totfact>
</mgrwt>
</event>
<event>
 6    1  0.4241465E-002  0.1287539E+03  0.7546771E-02  0.1229317E+00
         21   -1    0    0  504  502  0.00000000000E+00  0.00000000000E+00  0.54395725912E+03  0.54395725912E+03  0.00000000000E+00 0. -1.
         21   -1    0    0  502  503 -0.00000000000E+00 -0.00000000000E+00 -0.13541242209E+02  0.13541242209E+02  0.00000000000E+00 0. -1.
         25    2    1    2    0    0 -0.32626899508E+01 -0.30708471302E+02  0.32167805698E+03  0.34648856964E+03  0.12499560470E+03 0.  0.
          5    1    3    3  501    0 -0.53354806288E+02 -0.42357433024E+02  0.11643307462E+03  0.13489832598E+03  0.10000000000E+00 0. -1.
         -5    1    3    3    0  501  0.50092116337E+02  0.11648961723E+02  0.20524498236E+03  0.21159024366E+03  0.10000000000E+00 0. -1.
         21    1    1    2  504  503  0.32626899508E+01  0.30708471302E+02  0.20873795993E+03  0.21100993169E+03  0.00000000000E+00 0. -1.
<mgrwt>
<rscale>  1 0.12875386E+03</rscale>
<asrwt>0</asrwt>
<pdfrwt beam="1">  1       21 0.83685715E-01 0.12875386E+03</pdfrwt>
<pdfrwt beam="2">  1       21 0.20832685E-02 0.12875386E+03</pdfrwt>
<totfact> 0.14315344E+06</totfact>
</mgrwt>
</event>
<event>
 6    1  0.4241465E-002  0.1354082E+03  0.7546771E-02  0.1219645E+00
         21   -1    0    0  503  502  0.00000000000E+00  0.00000000000E+00  0.10270002949E+03  0.10270002949E+03  0.00000000000E+00 0. -1.
         21   -1    0    0  504  503 -0.00000000000E+00 -0.00000000000E+00 -0.85539010255E+02  0.85539010255E+02  0.00000000000E+00 0. -1.
         25    2    1    2    0    0 -0.37276582587E+02  0.36304477866E+02  0.11413103671E+02  0.13588832575E+03  0.12501127716E+03 0.  0.
          5    1    3    3  501    0  0.40279601440E+02 -0.90163603775E+00 -0.19139147064E+02  0.44604665563E+02  0.10000000000E+00 0. -1.
         -5    1    3    3    0  501 -0.77556184026E+02  0.37206113904E+02  0.30552250735E+02  0.91283660189E+02  0.10000000000E+00 0. -1.
         21    1    1    2  504  502  0.37276582587E+02 -0.36304477866E+02  0.57479155665E+01  0.52350713995E+02  0.00000000000E+00 0. -1.
<mgrwt>
<rscale>  1 0.13540819E+03</rscale>
<asrwt>0</asrwt>
<pdfrwt beam="1">  1       21 0.15800004E-01 0.13540819E+03</pdfrwt>
<pdfrwt beam="2">  1       21 0.13159848E-01 0.13540819E+03</pdfrwt>
<totfact> 0.17676181E+06</totfact>
</mgrwt>
</event>
<event>
 6    1  0.4241465E-002  0.1275422E+03  0.7546771E-02  0.1231149E+00
         21   -1    0    0  504  502  0.00000000000E+00  0.00000000000E+00  0.54926434212E+02  0.54926434212E+02  0.00000000000E+00 0. -1.
         21   -1    0    0  502  503 -0.00000000000E+00 -0.00000000000E+00 -0.11960489874E+03  0.11960489874E+03  0.00000000000E+00 0. -1.
         25    2    1    2    0    0  0.73103449321E+01 -0.24273967609E+02 -0.74077642152E+02  0.14749411441E+03  0.12499740026E+03 0.  0.
          5    1    3    3  501    0 -0.51373753652E+02  0.16076545868E+02 -0.17711810472E+02  0.56669534333E+02  0.10000000000E+00 0. -1.
         -5    1    3    3    0  501  0.58684098585E+02 -0.40350513477E+02 -0.56365831680E+02  0.90824580074E+02  0.10000000000E+00 0. -1.
         21    1    1    2  504  503 -0.73103449321E+01  0.24273967609E+02  0.93991776252E+01  0.27037218543E+02  0.00000000000E+00 0. -1.
<mgrwt>
<rscale>  1 0.12754222E+03</rscale>
<asrwt>0</asrwt>
<pdfrwt beam="1">  1       21 0.84502207E-02 0.12754222E+03</pdfrwt>
<pdfrwt beam="2">  1       21 0.18400754E-01 0.12754222E+03</pdfrwt>
<totfact> 0.29105061E+06</totfact>
</mgrwt>
</event>
<event>
 6    1  0.4241465E-002  0.1317092E+03  0.7546771E-02  0.1224941E+00
         21   -1    0    0  504  502  0.00000000000E+00  0.00000000000E+00  0.16264001599E+03  0.16264001599E+03  0.00000000000E+00 0.  1.
         21   -1    0    0  502  503 -0.00000000000E+00 -0.00000000000E+00 -0.46192468920E+02  0.46192468920E+02  0.00000000000E+00 0.  1.
         25    2    1    2    0    0  0.38504558434E+02 -0.15500560848E+02  0.92020969592E+02  0.16067102631E+03  0.12499780576E+03 0.  0.
          5    1    3    3  501    0  0.72735805143E+02  0.37529539100E+01  0.15213288303E+02  0.74404543906E+02  0.10000000000E+00 0.  1.
         -5    1    3    3    0  501 -0.34231246710E+02 -0.19253514758E+02  0.76807681289E+02  0.86266482407E+02  0.10000000000E+00 0.  1.
         21    1    1    2  504  503 -0.38504558434E+02  0.15500560848E+02  0.24426577474E+02  0.48161458594E+02  0.00000000000E+00 0.  1.
<mgrwt>
<rscale>  1 0.13170922E+03</rscale>
<asrwt>0</asrwt>
<pdfrwt beam="1">  1       21 0.25021541E-01 0.13170922E+03</pdfrwt>
<pdfrwt beam="2">  1       21 0.71065338E-02 0.13170922E+03</pdfrwt>
<totfact> 0.22149938E+06</totfact>
</mgrwt>
</event>
<event>
 6    1  0.4241465E-002  0.1271447E+03  0.7546771E-02  0.1231755E+00
         21   -1    0    0  504  502  0.00000000000E+00  0.00000000000E+00  0.54676572826E+02  0.54676572826E+02  0.00000000000E+00 0. -1.
         21   -1    0    0  502  503 -0.00000000000E+00 -0.00000000000E+00 -0.11622813640E+03  0.11622813640E+03  0.00000000000E+00 0. -1.
         25    2    1    2    0    0 -0.21255575225E+02  0.94477266242E+01 -0.71199147502E+02  0.14572267412E+03  0.12499888052E+03 0.  0.
          5    1    3    3  501    0 -0.33985968464E+02  0.29396954961E+02  0.21668274659E+02  0.49887384579E+02  0.10000000000E+00 0.  1.
         -5    1    3    3    0  501  0.12730393240E+02 -0.19949228336E+02 -0.92867422161E+02  0.95835289545E+02  0.10000000000E+00 0.  1.
         21    1    1    2  504  503  0.21255575225E+02 -0.94477266242E+01  0.96475839249E+01  0.25182035106E+02  0.00000000000E+00 0. -1.
<mgrwt>
<rscale>  1 0.12714472E+03</rscale>
<asrwt>0</asrwt>
<pdfrwt beam="1">  1       21 0.84117805E-02 0.12714472E+03</pdfrwt>
<pdfrwt beam="2">  1       21 0.17881252E-01 0.12714472E+03</pdfrwt>
<totfact> 0.30910950E+06</totfact>
</mgrwt>
</event>
<event>
 6    1  0.4241465E-002  0.1261474E+03  0.7546771E-02  0.1233287E+00
         21   -1    0    0  504  502  0.00000000000E+00  0.00000000000E+00  0.11152609094E+04  0.11152609094E+04  0.00000000000E+00 0.  1.
         21   -1    0    0  502  503 -0.00000000000E+00 -0.00000000000E+00 -0.85682623229E+01  0.85682623229E+01  0.00000000000E+00 0.  1.
         25    2    1    2    0    0 -0.15018609728E+01  0.16894439369E+02  0.46197233626E+03  0.47888579681E+03  0.12500195697E+03 0.  0.
          5    1    3    3  501    0 -0.19732183287E+02  0.65807617948E+02  0.32768552008E+03  0.33481011291E+03  0.10000000000E+00 0.  1.
         -5    1    3    3    0  501  0.18230322315E+02 -0.48913178579E+02  0.13428681619E+03  0.14407568390E+03  0.10000000000E+00 0.  1.
         21    1    1    2  504  503  0.15018609728E+01 -0.16894439369E+02  0.64472031078E+03  0.64494337488E+03  0.00000000000E+00 0.  1.
<mgrwt>
<rscale>  1 0.12614740E+03</rscale>
<asrwt>0</asrwt>
<pdfrwt beam="1">  1       21 0.17157849E+00 0.12614740E+03</pdfrwt>
<pdfrwt beam="2">  1       21 0.13181951E-02 0.12614740E+03</pdfrwt>
<totfact> 0.51282282E+05</totfact>
</mgrwt>
</event>
<event>
 6    1  0.4241465E-002  0.1313946E+03  0.7546771E-02  0.1225401E+00
         21   -1    0    0  503  502  0.00000000000E+00  0.00000000000E+00  0.17156712970E+03  0.17156712970E+03  0.00000000000E+00 0.  1.
         21   -1    0    0  504  503 -0.00000000000E+00 -0.00000000000E+00 -0.21335734567E+03  0.21335734567E+03  0.00000000000E+00 0.  1.
         25    2    1    2    0    0  0.40135534728E+02  0.53118272782E+01 -0.19015492946E+03  0.23113512312E+03  0.12500188514E+03 0.  0.
          5    1    3    3  501    0 -0.21451102631E+02  0.24143691207E+02 -0.15385406297E+03  0.15720734818E+03  0.10000000000E+00 0.  1.
         -5    1    3    3    0  501  0.61586637359E+02 -0.18831863929E+02 -0.36300866483E+02  0.73927774940E+02  0.10000000000E+00 0.  1.
         21    1    1    2  504  502 -0.40135534728E+02 -0.53118272782E+01  0.14836471348E+03  0.15378935225E+03  0.00000000000E+00 0.  1.
<mgrwt>
<rscale>  1 0.13139463E+03</rscale>
<asrwt>0</asrwt>
<pdfrwt beam="1">  1       21 0.26394943E-01 0.13139463E+03</pdfrwt>
<pdfrwt beam="2">  1       21 0.32824207E-01 0.13139463E+03</pdfrwt>
<totfact> 0.12460045E+05</totfact>
</mgrwt>
</event>
<event>
 6    1  0.4241465E-002  0.1299896E+03  0.7546771E-02  0.1227471E+00
         21   -1    0    0  504  502  0.00000000000E+00  0.00000000000E+00  0.46352566491E+02  0.46352566491E+02  0.00000000000E+00 0.  1.
         21   -1    0    0  502  503 -0.00000000000E+00 -0.00000000000E+00 -0.28847002050E+03  0.28847002050E+03  0.00000000000E+00 0.  1.
         25    2    1    2    0    0 -0.81855434865E+01 -0.34761805838E+02 -0.26305859062E+03  0.29342310065E+03  0.12498762990E+03 0.  0.
          5    1    3    3  501    0 -0.57522952628E+02 -0.43116783370E+02 -0.20240298696E+03  0.21479042394E+03  0.10000000000E+00 0.  1.
         -5    1    3    3    0  501  0.49337409142E+02  0.83549775313E+01 -0.60655603664E+02  0.78632676707E+02  0.10000000000E+00 0.  1.
         21    1    1    2  504  503  0.81855434865E+01  0.34761805838E+02  0.20941136609E+02  0.41399486347E+02  0.00000000000E+00 0.  1.
<mgrwt>
<rscale>  1 0.12998959E+03</rscale>
<asrwt>0</asrwt>
<pdfrwt beam="1">  1       21 0.71311642E-02 0.12998959E+03</pdfrwt>
<pdfrwt beam="2">  1       21 0.44380002E-01 0.12998959E+03</pdfrwt>
<totfact> 0.71781840E+05</totfact>
</mgrwt>
</event>
<event>
 6    1  0.4241465E-002  0.1389354E+03  0.7546771E-02  0.1214769E+00
         21   -1    0    0  503  502  0.00000000000E+00  0.00000000000E+00  0.12559639428E+03  0.12559639428E+03  0.00000000000E+00 0. -1.
         21   -1    0    0  504  503 -0.00000000000E+00 -0.00000000000E+00 -0.42385512007E+03  0.42385512007E+03  0.00000000000E+00 0. -1.
         25    2    1    2    0    0 -0.60387755766E+02 -0.55363410459E+01 -0.40418386035E+03  0.42739633727E+03  0.12500281608E+03 0.  0.
          5    1    3    3  501    0 -0.75682220024E+02  0.39920805710E+02 -0.19782057102E+03  0.21553296145E+03  0.10000000000E+00 0.  1.
         -5    1    3    3    0  501  0.15294464258E+02 -0.45457146756E+02 -0.20636328933E+03  0.21186337582E+03  0.10000000000E+00 0.  1.
         21    1    1    2  504  502  0.60387755766E+02  0.55363410459E+01  0.10592513457E+03  0.12205517708E+03  0.00000000000E+00 0. -1.
<mgrwt>
<rscale>  1 0.13893537E+03</rscale>
<asrwt>0</asrwt>
<pdfrwt beam="1">  1       21 0.19322522E-01 0.13893537E+03</pdfrwt>
<pdfrwt beam="2">  1       21 0.65208480E-01 0.13893537E+03</pdfrwt>
<totfact> 0.54681909E+04</totfact>
</mgrwt>
</event>
<event>
 6    1  0.4241465E-002  0.1261259E+03  0.7546771E-02  0.1233320E+00
         21   -1    0    0  503  502  0.00000000000E+00  0.00000000000E+00  0.11393170380E+02  0.11393170380E+02  0.00000000000E+00 0. -1.
         21   -1    0    0  504  503 -0.00000000000E+00 -0.00000000000E+00 -0.23207147972E+04  0.23207147972E+04  0.00000000000E+00 0.  1.
         25    2    1    2    0    0 -0.11477605485E+02  0.12238666709E+02 -0.23117206463E+04  0.23151587586E+04  0.12500484225E+03 0.  0.
          5    1    3    3  501    0 -0.16790117301E+02 -0.90383222628E+01 -0.52903031004E+02  0.56234686784E+02  0.10000000000E+00 0.  1.
         -5    1    3    3    0  501  0.53125118162E+01  0.21276988972E+02 -0.22588176153E+04  0.22589240718E+04  0.10000000000E+00 0.  1.
         21    1    1    2  504  502  0.11477605485E+02 -0.12238666709E+02  0.23990194863E+01  0.16949208978E+02  0.00000000000E+00 0. -1.
<mgrwt>
<rscale>  1 0.12612585E+03</rscale>
<asrwt>0</asrwt>
<pdfrwt beam="1">  1       21 0.17527942E-02 0.12612585E+03</pdfrwt>
<pdfrwt beam="2">  1       21 0.35703329E+00 0.12612585E+03</pdfrwt>
<totfact> 0.26432715E+04</totfact>
</mgrwt>
</event>
<event>
 6    1  0.4241465E-002  0.1295330E+03  0.7546771E-02  0.1228150E+00
         21   -1    0    0  503  502  0.00000000000E+00  0.00000000000E+00  0.93816903387E+02  0.93816903387E+02  0.00000000000E+00 0.  1.
         21   -1    0    0  504  503 -0.00000000000E+00 -0.00000000000E+00 -0.71742874050E+02  0.71742874050E+02  0.00000000000E+00 0.  1.
         25    2    1    2    0    0  0.12915571791E+02  0.31430832535E+02  0.11849311983E+02  0.13007380734E+03  0.12499631968E+03 0.  0.
          5    1    3    3  501    0  0.20524655467E+02  0.67557295809E+02  0.42221129236E+02  0.82267146863E+02  0.10000000000E+00 0.  1.
         -5    1    3    3    0  501 -0.76090836757E+01 -0.36126463274E+02 -0.30371817253E+02  0.47806660481E+02  0.10000000000E+00 0.  1.
         21    1    1    2  504  502 -0.12915571791E+02 -0.31430832535E+02  0.10224717354E+02  0.35485970094E+02  0.00000000000E+00 0.  1.
<mgrwt>
<rscale>  1 0.12953297E+03</rscale>
<asrwt>0</asrwt>
<pdfrwt beam="1">  1       21 0.14433370E-01 0.12953297E+03</pdfrwt>
<pdfrwt beam="2">  1       21 0.11037365E-01 0.12953297E+03</pdfrwt>
<totfact> 0.28392889E+06</totfact>
</mgrwt>
</event>
<event>
 6    1  0.4241465E-002  0.1397608E+03  0.7546771E-02  0.1213651E+00
         21   -1    0    0  503  502  0.00000000000E+00  0.00000000000E+00  0.52307333830E+02  0.52307333830E+02  0.00000000000E+00 0. -1.
         21   -1    0    0  504  503 -0.00000000000E+00 -0.00000000000E+00 -0.35027785155E+03  0.35027785155E+03  0.00000000000E+00 0. -1.
         25    2    1    2    0    0 -0.23838684299E+02  0.57783540300E+02 -0.30897652700E+03  0.33911588068E+03  0.12500346352E+03 0.  0.
          5    1    3    3  501    0 -0.55934311244E+02  0.81444333117E+02 -0.23823513940E+03  0.25791048489E+03  0.10000000000E+00 0. -1.
         -5    1    3    3    0  501  0.32095626945E+02 -0.23660792817E+02 -0.70741387606E+02  0.81205395795E+02  0.10000000000E+00 0. -1.
         21    1    1    2  504  502  0.23838684299E+02 -0.57783540300E+02  0.11006009282E+02  0.63469304699E+02  0.00000000000E+00 0. -1.
<mgrwt>
<rscale>  1 0.13976082E+03</rscale>
<asrwt>0</asrwt>
<pdfrwt beam="1">  1       21 0.80472821E-02 0.13976082E+03</pdfrwt>
<pdfrwt beam="2">  1       21 0.53888900E-01 0.13976082E+03</pdfrwt>
<totfact> 0.39061067E+05</totfact>
</mgrwt>
</event>
<event>
 6    1  0.4241465E-002  0.1269043E+03  0.7546771E-02  0.1232123E+00
         21   -1    0    0  504  502  0.00000000000E+00  0.00000000000E+00  0.86236406079E+02  0.86236406079E+02  0.00000000000E+00 0.  1.
         21   -1    0    0  502  503 -0.00000000000E+00 -0.00000000000E+00 -0.64573462097E+02  0.64573462097E+02  0.00000000000E+00 0.  1.
         25    2    1    2    0    0  0.21815733798E+02  0.18629959934E+01  0.14288074105E+02  0.12770606544E+03  0.12500117237E+03 0.  0.
          5    1    3    3  501    0 -0.44515279566E+02 -0.11264632980E+01  0.36619342732E+02  0.57652973007E+02  0.10000000000E+00 0.  1.
         -5    1    3    3    0  501  0.66331013364E+02  0.29894592914E+01 -0.22331268627E+02  0.70053092432E+02  0.10000000000E+00 0.  1.
         21    1    1    2  504  503 -0.21815733798E+02 -0.18629959934E+01  0.73748698766E+01  0.23103802737E+02  0.00000000000E+00 0. -1.
<mgrwt>
<rscale>  1 0.12690426E+03</rscale>
<asrwt>0</asrwt>
<pdfrwt beam="1">  1       21 0.13267139E-01 0.12690426E+03</pdfrwt>
<pdfrwt beam="2">  1       21 0.99343788E-02 0.12690426E+03</pdfrwt>
<totfact> 0.39682093E+06</totfact>
</mgrwt>
</event>
<event>
 6    1  0.4241465E-002  0.1264537E+03  0.7546771E-02  0.1232815E+00
         21   -1    0    0  504  502  0.00000000000E+00  0.00000000000E+00  0.15445385789E+03  0.15445385789E+03  0.00000000000E+00 0. -1.
         21   -1    0    0  502  503 -0.00000000000E+00 -0.00000000000E+00 -0.40317601974E+03  0.40317601974E+03  0.00000000000E+00 0.  1.
         25    2    1    2    0    0 -0.12045876469E+02  0.14841429843E+02 -0.39261306709E+03  0.41247491288E+03  0.12500064849E+03 0.  0.
          5    1    3    3  501    0  0.20322708584E+01  0.13723582345E+02  0.48981657674E+01  0.14712880924E+02  0.10000000000E+00 0. -1.
         -5    1    3    3    0  501 -0.14078147327E+02  0.11178474985E+01 -0.39751123286E+03  0.39776203196E+03  0.10000000000E+00 0. -1.
         21    1    1    2  504  503  0.12045876469E+02 -0.14841429843E+02  0.14389090524E+03  0.14515496475E+03  0.00000000000E+00 0. -1.
<mgrwt>
<rscale>  1 0.12645368E+03</rscale>
<asrwt>0</asrwt>
<pdfrwt beam="1">  1       21 0.23762133E-01 0.12645368E+03</pdfrwt>
<pdfrwt beam="2">  1       21 0.62027078E-01 0.12645368E+03</pdfrwt>
<totfact> 0.41704300E+04</totfact>
</mgrwt>
</event>
<event>
 6    1  0.4241465E-002  0.1263743E+03  0.7546771E-02  0.1232937E+00
         21   -1    0    0  504  502  0.00000000000E+00  0.00000000000E+00  0.28820485307E+03  0.28820485307E+03  0.00000000000E+00 0. -1.
         21   -1    0    0  502  503 -0.00000000000E+00 -0.00000000000E+00 -0.18916129005E+02  0.18916129005E+02  0.00000000000E+00 0. -1.
         25    2    1    2    0    0 -0.10772424798E+02 -0.15137873163E+02  0.25116411144E+03  0.28116521349E+03  0.12500106424E+03 0.  0.
          5    1    3    3  501    0  0.52089665106E+02 -0.26384770544E+02  0.84740853687E+02  0.10291021140E+03  0.10000000000E+00 0. -1.
         -5    1    3    3    0  501 -0.62862089904E+02  0.11246897380E+02  0.16642325776E+03  0.17825500209E+03  0.10000000000E+00 0. -1.
         21    1    1    2  504  503  0.10772424798E+02  0.15137873163E+02  0.18124612620E+02  0.25955768580E+02  0.00000000000E+00 0.  1.
<mgrwt>
<rscale>  1 0.12637431E+03</rscale>
<asrwt>0</asrwt>
<pdfrwt beam="1">  1       21 0.44339205E-01 0.12637431E+03</pdfrwt>
<pdfrwt beam="2">  1       21 0.29101739E-02 0.12637431E+03</pdfrwt>
<totfact> 0.32184461E+06</totfact>
</mgrwt>
</event>
<event>
 6    1  0.4241465E-002  0.1302500E+03  0.7546771E-02  0.1227085E+00
         21   -1    0    0  503  502  0.00000000000E+00  0.00000000000E+00  0.19245924944E+03  0.19245924944E+03  0.00000000000E+00 0.  1.
         21   -1    0    0  504  503 -0.00000000000E+00 -0.00000000000E+00 -0.77342413641E+02  0.77342413641E+02  0.00000000000E+00 0.  1.
         25    2    1    2    0    0  0.15798789069E+02 -0.33025395354E+02 -0.18230924378E+02  0.13151969167E+03  0.12499913687E+03 0.  0.
          5    1    3    3  501    0 -0.13133683895E+02 -0.30715595745E+00  0.49341695564E+02  0.51060757129E+02  0.10000000000E+00 0.  1.
         -5    1    3    3    0  501  0.28932472964E+02 -0.32718239396E+02 -0.67572619941E+02  0.80458934537E+02  0.10000000000E+00 0.  1.
         21    1    1    2  504  502 -0.15798789069E+02  0.33025395354E+02  0.13334776017E+03  0.13828197141E+03  0.00000000000E+00 0.  1.
<mgrwt>
<rscale>  1 0.13025000E+03</rscale>
<asrwt>0</asrwt>
<pdfrwt beam="1">  1       21 0.29609115E-01 0.13025000E+03</pdfrwt>
<pdfrwt beam="2">  1       21 0.11898833E-01 0.13025000E+03</pdfrwt>
<totfact> 0.65480055E+05</totfact>
</mgrwt>
</event>
<event>
 6    1  0.4241465E-002  0.1594649E+03  0.7546771E-02  0.1189302E+00
         21   -1    0    0  503  502  0.00000000000E+00  0.00000000000E+00  0.40361564638E+03  0.40361564638E+03  0.00000000000E+00 0.  1.
         21   -1    0    0  504  503 -0.00000000000E+00 -0.00000000000E+00 -0.47737810683E+02  0.47737810683E+02  0.00000000000E+00 0.  1.
         25    2    1    2    0    0 -0.97764048553E+02 -0.15594254970E+02  0.13362957683E+03  0.20805265857E+03  0.12501221923E+03 0.  0.
          5    1    3    3  501    0  0.38504177045E+01  0.38390200102E+02  0.11508054639E+02  0.40262619164E+02  0.10000000000E+00 0. -1.
         -5    1    3    3    0  501 -0.10161446626E+03 -0.53984455072E+02  0.12212152219E+03  0.16779003941E+03  0.10000000000E+00 0. -1.
         21    1    1    2  504  502  0.97764048553E+02  0.15594254970E+02  0.22224825887E+03  0.24330079849E+03  0.00000000000E+00 0.  1.
<mgrwt>
<rscale>  1 0.15946487E+03</rscale>
<asrwt>0</asrwt>
<pdfrwt beam="1">  1       21 0.62094712E-01 0.15946487E+03</pdfrwt>
<pdfrwt beam="2">  1       21 0.73442789E-02 0.15946487E+03</pdfrwt>
<totfact> 0.33766868E+05</totfact>
</mgrwt>
</event>
<event>
 6    1  0.4241465E-002  0.1265096E+03  0.7546771E-02  0.1232729E+00
         21   -1    0    0  503  502  0.00000000000E+00  0.00000000000E+00  0.45854210597E+03  0.45854210597E+03  0.00000000000E+00 0.  1.
         21   -1    0    0  504  503 -0.00000000000E+00 -0.00000000000E+00 -0.13617421835E+02  0.13617421835E+02  0.00000000000E+00 0.  1.
         25    2    1    2    0    0 -0.40524615943E+01  0.19070655607E+02  0.29513602902E+03  0.32110737274E+03  0.12499822738E+03 0.  0.
          5    1    3    3  501    0  0.22527670951E+02 -0.41913453716E+01 -0.93815042242E+00  0.22933675256E+02  0.10000000000E+00 0.  1.
         -5    1    3    3    0  501 -0.26580132546E+02  0.23262000979E+02  0.29607417945E+03  0.29817369748E+03  0.10000000000E+00 0.  1.
         21    1    1    2  504  502  0.40524615943E+01 -0.19070655607E+02  0.14978865512E+03  0.15105215507E+03  0.00000000000E+00 0.  1.
<mgrwt>
<rscale>  1 0.12650956E+03</rscale>
<asrwt>0</asrwt>
<pdfrwt beam="1">  1       21 0.70544928E-01 0.12650956E+03</pdfrwt>
<pdfrwt beam="2">  1       21 0.20949883E-02 0.12650956E+03</pdfrwt>
<totfact> 0.20711683E+06</totfact>
</mgrwt>
</event>
<event>
 6    1  0.4241465E-002  0.1274154E+03  0.7546771E-02  0.1231342E+00
         21   -1    0    0  503  502  0.00000000000E+00  0.00000000000E+00  0.10613658436E+02  0.10613658436E+02  0.00000000000E+00 0.  1.
         21   -1    0    0  504  503 -0.00000000000E+00 -0.00000000000E+00 -0.55369777200E+03  0.55369777200E+03  0.00000000000E+00 0.  1.
         25    2    1    2    0    0 -0.44617955493E+01 -0.24268511058E+02 -0.47851342599E+03  0.49518660174E+03  0.12500321372E+03 0.  0.
          5    1    3    3  501    0  0.35470559555E+02 -0.60202616992E+02 -0.32836916521E+03  0.33572136415E+03  0.10000000000E+00 0.  1.
         -5    1    3    3    0  501 -0.39932355104E+02  0.35934105934E+02 -0.15014426078E+03  0.15946523759E+03  0.10000000000E+00 0.  1.
         21    1    1    2  504  502  0.44617955493E+01  0.24268511058E+02 -0.64570687578E+02  0.69124828700E+02  0.00000000000E+00 0.  1.
<mgrwt>
<rscale>  1 0.12741535E+03</rscale>
<asrwt>0</asrwt>
<pdfrwt beam="1">  1       21 0.16328702E-02 0.12741535E+03</pdfrwt>
<pdfrwt beam="2">  1       21 0.85184287E-01 0.12741535E+03</pdfrwt>
<totfact> 0.20347175E+06</totfact>
</mgrwt>
</event>
<event>
 6    1  0.4241465E-002  0.1359875E+03  0.7546771E-02  0.1218832E+00
         21   -1    0    0  503  502  0.00000000000E+00  0.00000000000E+00  0.85843044908E+03  0.85843044908E+03  0.00000000000E+00 0. -1.
         21   -1    0    0  504  503 -0.00000000000E+00 -0.00000000000E+00 -0.17077405819E+02  0.17077405819E+02  0.00000000000E+00 0. -1.
         25    2    1    2    0    0  0.12371658308E+02  0.52104852281E+02  0.27659591297E+03  0.30821728581E+03  0.12499849056E+03 0.  0.
          5    1    3    3  501    0 -0.38509069107E+02  0.49074643147E+02  0.23280791906E+03  0.24102034392E+03  0.10000000000E+00 0. -1.
         -5    1    3    3    0  501  0.50880727415E+02  0.30302091336E+01  0.43787993908E+02  0.67196941896E+02  0.10000000000E+00 0. -1.
         21    1    1    2  504  502 -0.12371658308E+02 -0.52104852281E+02  0.56475713029E+03  0.56729056909E+03  0.00000000000E+00 0. -1.
<mgrwt>
<rscale>  1 0.13598749E+03</rscale>
<asrwt>0</asrwt>
<pdfrwt beam="1">  1       21 0.13206619E+00 0.13598749E+03</pdfrwt>
<pdfrwt beam="2">  1       21 0.26272939E-02 0.13598749E+03</pdfrwt>
<totfact> 0.33264740E+05</totfact>
</mgrwt>
</event>
<event>
 6    1  0.4241465E-002  0.1360590E+03  0.7546771E-02  0.1218732E+00
         21   -1    0    0  504  502  0.00000000000E+00  0.00000000000E+00  0.93074608715E+03  0.93074608715E+03  0.00000000000E+00 0. -1.
         21   -1    0    0  502  503 -0.00000000000E+00 -0.00000000000E+00 -0.13414430789E+02  0.13414430789E+02  0.00000000000E+00 0. -1.
         25    2    1    2    0    0  0.41691956022E+02 -0.33893305737E+02  0.37045008991E+03  0.39464580195E+03  0.12500025803E+03 0.  0.
          5    1    3    3  501    0  0.75719096876E+01 -0.71853251213E+02  0.12895816034E+03  0.14781894549E+03  0.10000000000E+00 0.  1.
         -5    1    3    3    0  501  0.34120046334E+02  0.37959945475E+02  0.24149192957E+03  0.24682685646E+03  0.10000000000E+00 0.  1.
         21    1    1    2  504  503 -0.41691956022E+02  0.33893305737E+02  0.54688156645E+03  0.54951471599E+03  0.00000000000E+00 0. -1.
<mgrwt>
<rscale>  1 0.13605896E+03</rscale>
<asrwt>0</asrwt>
<pdfrwt beam="1">  1       21 0.14319165E+00 0.13605896E+03</pdfrwt>
<pdfrwt beam="2">  1       21 0.20637593E-02 0.13605896E+03</pdfrwt>
<totfact> 0.40126240E+05</totfact>
</mgrwt>
</event>
<event>
 6    1  0.4241465E-002  0.1274458E+03  0.7546771E-02  0.1231296E+00
         21   -1    0    0  503  502  0.00000000000E+00  0.00000000000E+00  0.20264067534E+03  0.20264067534E+03  0.00000000000E+00 0. -1.
         21   -1    0    0  504  503 -0.00000000000E+00 -0.00000000000E+00 -0.29955315533E+02  0.29955315533E+02  0.00000000000E+00 0. -1.
         25    2    1    2    0    0 -0.44114719495E+01 -0.24485938128E+02  0.12345654098E+03  0.17743713978E+03  0.12499359508E+03 0.  0.
          5    1    3    3  501    0  0.16440644090E+02  0.12439429675E+02 -0.19467062094E+02  0.28355082354E+02  0.10000000000E+00 0.  1.
         -5    1    3    3    0  501 -0.20852116039E+02 -0.36925367803E+02  0.14292360307E+03  0.14908205742E+03  0.10000000000E+00 0.  1.
         21    1    1    2  504  502  0.44114719495E+01  0.24485938128E+02  0.49228818828E+02  0.55158851093E+02  0.00000000000E+00 0. -1.
<mgrwt>
<rscale>  1 0.12744576E+03</rscale>
<asrwt>0</asrwt>
<pdfrwt beam="1">  1       21 0.31175488E-01 0.12744576E+03</pdfrwt>
<pdfrwt beam="2">  1       21 0.46085102E-02 0.12744576E+03</pdfrwt>
<totfact> 0.30227177E+06</totfact>
</mgrwt>
</event>
<event>
 6    1  0.4241465E-002  0.1659424E+03  0.7546771E-02  0.1182147E+00
         21   -1    0    0  503  502  0.00000000000E+00  0.00000000000E+00  0.22485559533E+03  0.22485559533E+03  0.00000000000E+00 0. -1.
         21   -1    0    0  504  503 -0.00000000000E+00 -0.00000000000E+00 -0.14539067941E+03  0.14539067941E+03  0.00000000000E+00 0. -1.
         25    2    1    2    0    0  0.97408768022E+02  0.49233611939E+02 -0.74190732344E+02  0.18177220524E+03  0.12499781278E+03 0.  0.
          5    1    3    3  501    0 -0.27647734152E+02  0.24199535218E+02 -0.27742227288E+02  0.46039720713E+02  0.10000000000E+00 0. -1.
         -5    1    3    3    0  501  0.12505650217E+03  0.25034076722E+02 -0.46448505057E+02  0.13573248453E+03  0.10000000000E+00 0. -1.
         21    1    1    2  504  502 -0.97408768022E+02 -0.49233611939E+02  0.15365564826E+03  0.18847406950E+03  0.00000000000E+00 0. -1.
<mgrwt>
<rscale>  1 0.16594237E+03</rscale>
<asrwt>0</asrwt>
<pdfrwt beam="1">  1       21 0.34593168E-01 0.16594237E+03</pdfrwt>
<pdfrwt beam="2">  1       21 0.22367797E-01 0.16594237E+03</pdfrwt>
<totfact> 0.15201314E+05</totfact>
</mgrwt>
</event>
<event>
 6    1  0.4241465E-002  0.1289617E+03  0.7546771E-02  0.1229005E+00
         21   -1    0    0  504  502  0.00000000000E+00  0.00000000000E+00  0.57820870996E+03  0.57820870996E+03  0.00000000000E+00 0.  1.
         21   -1    0    0  502  503 -0.00000000000E+00 -0.00000000000E+00 -0.12710804881E+04  0.12710804881E+04  0.00000000000E+00 0.  1.
         25    2    1    2    0    0  0.22338786476E+02  0.22557112333E+02 -0.12673700598E+04  0.12739144330E+04  0.12499307802E+03 0.  0.
          5    1    3    3  501    0  0.99849067873E+01  0.49055216865E+02 -0.20088681032E+03  0.20703051279E+03  0.10000000000E+00 0. -1.
         -5    1    3    3    0  501  0.12353879689E+02 -0.26498104532E+02 -0.10664832494E+04  0.10668839202E+04  0.10000000000E+00 0. -1.
         21    1    1    2  504  503 -0.22338786476E+02 -0.22557112333E+02  0.57449828161E+03  0.57537476506E+03  0.00000000000E+00 0.  1.
<mgrwt>
<rscale>  1 0.12896168E+03</rscale>
<asrwt>0</asrwt>
<pdfrwt beam="1">  1       21 0.88955186E-01 0.12896168E+03</pdfrwt>
<pdfrwt beam="2">  1       21 0.19555085E+00 0.12896168E+03</pdfrwt>
<totfact> 0.17173857E+02</totfact>
</mgrwt>
</event>
<event>
 6    1  0.4241465E-002  0.1263569E+03  0.7546771E-02  0.1232964E+00
         21   -1    0    0  504  502  0.00000000000E+00  0.00000000000E+00  0.57150101579E+02  0.57150101579E+02  0.00000000000E+00 0. -1.
         21   -1    0    0  502  503 -0.00000000000E+00 -0.00000000000E+00 -0.16399709972E+04  0.16399709972E+04  0.00000000000E+00 0. -1.
         25    2    1    2    0    0 -0.82335417059E+01  0.16846763948E+02 -0.16359281545E+04  0.16408007151E+04  0.12495781429E+03 0.  0.
          5    1    3    3  501    0 -0.20802597771E+02  0.46708142556E+02 -0.28935968163E+03  0.29384253267E+03  0.10000000000E+00 0. -1.
         -5    1    3    3    0  501  0.12569056065E+02 -0.29861378608E+02 -0.13465684729E+04  0.13469581824E+04  0.10000000000E+00 0. -1.
         21    1    1    2  504  503  0.82335417059E+01 -0.16846763948E+02  0.53107258909E+02  0.56320383640E+02  0.00000000000E+00 0. -1.
<mgrwt>
<rscale>  1 0.12635688E+03</rscale>
<asrwt>0</asrwt>
<pdfrwt beam="1">  1       21 0.87923245E-02 0.12635688E+03</pdfrwt>
<pdfrwt beam="2">  1       21 0.25230320E+00 0.12635688E+03</pdfrwt>
<totfact> 0.70903180E+03</totfact>
</mgrwt>
</event>
<event>
 6    1  0.4241465E-002  0.1569750E+03  0.7546771E-02  0.1192155E+00
         21   -1    0    0  503  502  0.00000000000E+00  0.00000000000E+00  0.50878342175E+03  0.50878342175E+03  0.00000000000E+00 0.  1.
         21   -1    0    0  504  503 -0.00000000000E+00 -0.00000000000E+00 -0.14910832237E+03  0.14910832237E+03  0.00000000000E+00 0. -1.
         25    2    1    2    0    0  0.56911446236E+02 -0.76006541338E+02 -0.10157328986E+03  0.18697138609E+03  0.12500103585E+03 0.  0.
          5    1    3    3  501    0 -0.21677758470E+02  0.15634791062E+02 -0.47901481390E+02  0.54853749399E+02  0.10000000000E+00 0. -1.
         -5    1    3    3    0  501  0.78589204706E+02 -0.91641332399E+02 -0.53671808471E+02  0.13211763669E+03  0.10000000000E+00 0. -1.
         21    1    1    2  504  502 -0.56911446236E+02  0.76006541338E+02  0.46124838924E+03  0.47092035803E+03  0.00000000000E+00 0.  1.
<mgrwt>
<rscale>  1 0.15697505E+03</rscale>
<asrwt>0</asrwt>
<pdfrwt beam="1">  1       21 0.78274372E-01 0.15697505E+03</pdfrwt>
<pdfrwt beam="2">  1       21 0.22939742E-01 0.15697505E+03</pdfrwt>
<totfact> 0.26322399E+04</totfact>
</mgrwt>
</event>
<event>
 6    1  0.4241465E-002  0.1292452E+03  0.7546771E-02  0.1228580E+00
         21   -1    0    0  503  502  0.00000000000E+00  0.00000000000E+00  0.90871375727E+02  0.90871375727E+02  0.00000000000E+00 0. -1.
         21   -1    0    0  504  503 -0.00000000000E+00 -0.00000000000E+00 -0.75594440847E+02  0.75594440847E+02  0.00000000000E+00 0. -1.
         25    2    1    2    0    0  0.22239496585E+02 -0.24203442237E+02 -0.21484102175E+01  0.12926306834E+03  0.12499569331E+03 0.  0.
          5    1    3    3  501    0 -0.30832202253E+02  0.28099664440E+02 -0.28170226733E+02  0.50336741170E+02  0.10000000000E+00 0. -1.
         -5    1    3    3    0  501  0.53071698838E+02 -0.52303106677E+02  0.26021816516E+02  0.78926327169E+02  0.10000000000E+00 0. -1.
         21    1    1    2  504  502 -0.22239496585E+02  0.24203442237E+02  0.17425345097E+02  0.37202748235E+02  0.00000000000E+00 0. -1.
<mgrwt>
<rscale>  1 0.12924521E+03</rscale>
<asrwt>0</asrwt>
<pdfrwt beam="1">  1       21 0.13980212E-01 0.12924521E+03</pdfrwt>
<pdfrwt beam="2">  1       21 0.11629914E-01 0.12924521E+03</pdfrwt>
<totfact> 0.27413924E+06</totfact>
</mgrwt>
</event>
<event>
 6    1  0.4241465E-002  0.1264065E+03  0.7546771E-02  0.1232887E+00
         21   -1    0    0  504  502  0.00000000000E+00  0.00000000000E+00  0.21476659825E+03  0.21476659825E+03  0.00000000000E+00 0.  1.
         21   -1    0    0  502  503 -0.00000000000E+00 -0.00000000000E+00 -0.26911968754E+02  0.26911968754E+02  0.00000000000E+00 0.  1.
         25    2    1    2    0    0 -0.87538964336E+01  0.16633870161E+02  0.18273856314E+03  0.22219805176E+03  0.12500110162E+03 0.  0.
          5    1    3    3  501    0  0.22492415356E+02 -0.36518533718E+02  0.14190781047E+03  0.14824759265E+03  0.10000000000E+00 0. -1.
         -5    1    3    3    0  501 -0.31246311790E+02  0.53152403878E+02  0.40830752672E+02  0.73950459108E+02  0.10000000000E+00 0. -1.
         21    1    1    2  504  503  0.87538964336E+01 -0.16633870161E+02  0.51160663505E+01  0.19480515245E+02  0.00000000000E+00 0. -1.
<mgrwt>
<rscale>  1 0.12640645E+03</rscale>
<asrwt>0</asrwt>
<pdfrwt beam="1">  1       21 0.33041014E-01 0.12640645E+03</pdfrwt>
<pdfrwt beam="2">  1       21 0.41403030E-02 0.12640645E+03</pdfrwt>
<totfact> 0.32271065E+06</totfact>
</mgrwt>
</event>
<event>
 6    1  0.4241465E-002  0.1312648E+03  0.7546771E-02  0.1225591E+00
         21   -1    0    0  503  502  0.00000000000E+00  0.00000000000E+00  0.14559212945E+04  0.14559212945E+04  0.00000000000E+00 0.  1.
         21   -1    0    0  504  503 -0.00000000000E+00 -0.00000000000E+00 -0.57554249374E+01  0.57554249374E+01  0.00000000000E+00 0.  1.
         25    2    1    2    0    0 -0.34423725906E+02  0.20294463334E+02  0.83905343260E+03  0.84925915865E+03  0.12503438587E+03 0.  0.
          5    1    3    3  501    0 -0.41297212209E+02  0.63762612913E+02  0.34579506213E+03  0.35404147431E+03  0.10000000000E+00 0.  1.
         -5    1    3    3    0  501  0.68734863028E+01 -0.43468149579E+02  0.49325837047E+03  0.49521768434E+03  0.10000000000E+00 0.  1.
         21    1    1    2  504  502  0.34423725906E+02 -0.20294463334E+02  0.61111243699E+03  0.61241756081E+03  0.00000000000E+00 0.  1.
<mgrwt>
<rscale>  1 0.13126483E+03</rscale>
<asrwt>0</asrwt>
<pdfrwt beam="1">  1       21 0.22398760E+00 0.13126483E+03</pdfrwt>
<pdfrwt beam="2">  1       21 0.88545115E-03 0.13126483E+03</pdfrwt>
<totfact> 0.44572017E+05</totfact>
</mgrwt>
</event>
<event>
 6    1  0.4241465E-002  0.1954638E+03  0.7546771E-02  0.1153624E+00
         21   -1    0    0  503  502  0.00000000000E+00  0.00000000000E+00  0.39927182749E+03  0.39927182749E+03  0.00000000000E+00 0.  1.
         21   -1    0    0  504  503 -0.00000000000E+00 -0.00000000000E+00 -0.38903490736E+03  0.38903490736E+03  0.00000000000E+00 0. -1.
         25    2    1    2    0    0  0.12576104371E+03  0.82253256882E+02 -0.34838573543E+03  0.39947303331E+03  0.12499858122E+03 0.  0.
          5    1    3    3  501    0  0.49037710387E+01 -0.15950466351E+02  0.12411770314E+01  0.16733644781E+02  0.10000000000E+00 0.  1.
         -5    1    3    3    0  501  0.12085727267E+03  0.98203723233E+02 -0.34962691246E+03  0.38273938853E+03  0.10000000000E+00 0.  1.
         21    1    1    2  504  502 -0.12576104371E+03 -0.82253256882E+02  0.35862265555E+03  0.38883370155E+03  0.00000000000E+00 0.  1.
<mgrwt>
<rscale>  1 0.19546377E+03</rscale>
<asrwt>0</asrwt>
<pdfrwt beam="1">  1       21 0.61426435E-01 0.19546377E+03</pdfrwt>
<pdfrwt beam="2">  1       21 0.59851524E-01 0.19546377E+03</pdfrwt>
<totfact> 0.64040999E+03</totfact>
</mgrwt>
</event>
<event>
 6    1  0.4241465E-002  0.1319600E+03  0.7546771E-02  0.1224576E+00
         21   -1    0    0  503  502  0.00000000000E+00  0.00000000000E+00  0.52034520345E+03  0.52034520345E+03  0.00000000000E+00 0.  1.
         21   -1    0    0  504  503 -0.00000000000E+00 -0.00000000000E+00 -0.36618204119E+02  0.36618204119E+02  0.00000000000E+00 0.  1.
         25    2    1    2    0    0  0.24979885285E+02 -0.34124581536E+02  0.87156918050E+02  0.15814476319E+03  0.12499982411E+03 0.  0.
          5    1    3    3  501    0  0.25513799815E+02  0.42557674392E+02  0.57438828047E+02  0.75903482121E+02  0.10000000000E+00 0.  1.
         -5    1    3    3    0  501 -0.53391453044E+00 -0.76682255928E+02  0.29718090002E+02  0.82241281072E+02  0.10000000000E+00 0.  1.
         21    1    1    2  504  502 -0.24979885285E+02  0.34124581536E+02  0.39657008128E+03  0.39881864438E+03  0.00000000000E+00 0.  1.
<mgrwt>
<rscale>  1 0.13195999E+03</rscale>
<asrwt>0</asrwt>
<pdfrwt beam="1">  1       21 0.80053103E-01 0.13195999E+03</pdfrwt>
<pdfrwt beam="2">  1       21 0.56335702E-02 0.13195999E+03</pdfrwt>
<totfact> 0.30594213E+05</totfact>
</mgrwt>
</event>
<event>
 6    1  0.4241465E-002  0.1262777E+03  0.7546771E-02  0.1233086E+00
         21   -1    0    0  503  502  0.00000000000E+00  0.00000000000E+00  0.56953696257E+03  0.56953696257E+03  0.00000000000E+00 0.  1.
         21   -1    0    0  504  503 -0.00000000000E+00 -0.00000000000E+00 -0.92917421505E+01  0.92917421505E+01  0.00000000000E+00 0.  1.
         25    2    1    2    0    0 -0.16835503854E+02  0.61091746605E+01  0.46109357486E+03  0.47807253855E+03  0.12500124451E+03 0.  0.
          5    1    3    3  501    0  0.33203407398E+02 -0.27327619730E+02  0.34142949689E+03  0.34412697716E+03  0.10000000000E+00 0.  1.
         -5    1    3    3    0  501 -0.50038911253E+02  0.33436794391E+02  0.11966407797E+03  0.13394556139E+03  0.10000000000E+00 0.  1.
         21    1    1    2  504  502  0.16835503854E+02 -0.61091746605E+01  0.99151645553E+02  0.10075616617E+03  0.00000000000E+00 0.  1.
<mgrwt>
<rscale>  1 0.12627774E+03</rscale>
<asrwt>0</asrwt>
<pdfrwt beam="1">  1       21 0.87621044E-01 0.12627774E+03</pdfrwt>
<pdfrwt beam="2">  1       21 0.14294992E-02 0.12627774E+03</pdfrwt>
<totfact> 0.23601884E+06</totfact>
</mgrwt>
</event>
<event>
 6    1  0.4241465E-002  0.1264263E+03  0.7546771E-02  0.1232857E+00
         21   -1    0    0  503  502  0.00000000000E+00  0.00000000000E+00  0.22864593319E+03  0.22864593319E+03  0.00000000000E+00 0.  1.
         21   -1    0    0  504  503 -0.00000000000E+00 -0.00000000000E+00 -0.23385291293E+02  0.23385291293E+02  0.00000000000E+00 0.  1.
         25    2    1    2    0    0 -0.18850878338E+02  0.18988143904E+01  0.18692999457E+03  0.22566886985E+03  0.12499861936E+03 0.  0.
          5    1    3    3  501    0  0.20467956031E+02 -0.28889804774E+02  0.16890551965E+03  0.17257648337E+03  0.10000000000E+00 0.  1.
         -5    1    3    3    0  501 -0.39318834369E+02  0.30788619164E+02  0.18024474915E+02  0.53092386480E+02  0.10000000000E+00 0.  1.
         21    1    1    2  504  502  0.18850878338E+02 -0.18988143904E+01  0.18330647328E+02  0.26362354630E+02  0.00000000000E+00 0.  1.
<mgrwt>
<rscale>  1 0.12642633E+03</rscale>
<asrwt>0</asrwt>
<pdfrwt beam="1">  1       21 0.35176296E-01 0.12642633E+03</pdfrwt>
<pdfrwt beam="2">  1       21 0.35977373E-02 0.12642633E+03</pdfrwt>
<totfact> 0.36033325E+06</totfact>
</mgrwt>
</event>
<event>
 6    1  0.4241465E-002  0.1742450E+03  0.7546771E-02  0.1173492E+00
         21   -1    0    0  504  502  0.00000000000E+00  0.00000000000E+00  0.93370402658E+02  0.93370402658E+02  0.00000000000E+00 0.  1.
         21   -1    0    0  502  503 -0.00000000000E+00 -0.00000000000E+00 -0.23518918022E+03  0.23518918022E+03  0.00000000000E+00 0.  1.
         25    2    1    2    0    0 -0.43900901797E+02  0.11317172057E+03 -0.72086220933E+02  0.18856759393E+03  0.12500474678E+03 0.  0.
          5    1    3    3  501    0 -0.82284976613E+02  0.51910292807E+02 -0.19638401710E+02  0.99253073994E+02  0.10000000000E+00 0.  1.
         -5    1    3    3    0  501  0.38384074816E+02  0.61261427760E+02 -0.52447819223E+02  0.89314519938E+02  0.10000000000E+00 0.  1.
         21    1    1    2  504  503  0.43900901797E+02 -0.11317172057E+03 -0.69732556627E+02  0.13999198894E+03  0.00000000000E+00 0.  1.
<mgrwt>
<rscale>  1 0.17424498E+03</rscale>
<asrwt>0</asrwt>
<pdfrwt beam="1">  1       21 0.14364678E-01 0.17424498E+03</pdfrwt>
<pdfrwt beam="2">  1       21 0.36182950E-01 0.17424498E+03</pdfrwt>
<totfact> 0.31390699E+05</totfact>
</mgrwt>
</event>
<event>
 6    1  0.4241465E-002  0.1259907E+03  0.7546771E-02  0.1233529E+00
         21   -1    0    0  504  502  0.00000000000E+00  0.00000000000E+00  0.61710185917E+02  0.61710185917E+02  0.00000000000E+00 0.  1.
         21   -1    0    0  502  503 -0.00000000000E+00 -0.00000000000E+00 -0.94290649372E+02  0.94290649372E+02  0.00000000000E+00 0.  1.
         25    2    1    2    0    0  0.12084822758E+02 -0.10143444735E+02 -0.47150842517E+02  0.13452460754E+03  0.12499894269E+03 0.  0.
          5    1    3    3  501    0  0.35709845655E+02 -0.14162483586E+02  0.33139174998E+02  0.50734445277E+02  0.10000000000E+00 0.  1.
         -5    1    3    3    0  501 -0.23625022897E+02  0.40190388510E+01 -0.80290017515E+02  0.83790162267E+02  0.10000000000E+00 0.  1.
         21    1    1    2  504  503 -0.12084822758E+02  0.10143444735E+02  0.14570379062E+02  0.21476227746E+02  0.00000000000E+00 0.  1.
<mgrwt>
<rscale>  1 0.12599075E+03</rscale>
<asrwt>0</asrwt>
<pdfrwt beam="1">  1       21 0.94938748E-02 0.12599075E+03</pdfrwt>
<pdfrwt beam="2">  1       21 0.14506254E-01 0.12599075E+03</pdfrwt>
<totfact> 0.36591645E+06</totfact>
</mgrwt>
</event>
<event>
 6    1  0.4241465E-002  0.1274087E+03  0.7546771E-02  0.1231352E+00
         21   -1    0    0  504  502  0.00000000000E+00  0.00000000000E+00  0.33561770328E+03  0.33561770328E+03  0.00000000000E+00 0.  1.
         21   -1    0    0  502  503 -0.00000000000E+00 -0.00000000000E+00 -0.11210387747E+03  0.11210387747E+03  0.00000000000E+00 0.  1.
         25    2    1    2    0    0 -0.15022913219E+02  0.19524675397E+02 -0.75231651850E+02  0.14796207499E+03  0.12500429322E+03 0.  0.
          5    1    3    3  501    0 -0.18075898454E+02  0.72001154328E+02 -0.51095969452E+02  0.90120543850E+02  0.10000000000E+00 0.  1.
         -5    1    3    3    0  501  0.30529852351E+01 -0.52476478931E+02 -0.24135682398E+02  0.57841531140E+02  0.10000000000E+00 0.  1.
         21    1    1    2  504  503  0.15022913219E+02 -0.19524675397E+02  0.29874547766E+03  0.29975950576E+03  0.00000000000E+00 0.  1.
<mgrwt>
<rscale>  1 0.12740869E+03</rscale>
<asrwt>0</asrwt>
<pdfrwt beam="1">  1       21 0.51633492E-01 0.12740869E+03</pdfrwt>
<pdfrwt beam="2">  1       21 0.17246751E-01 0.12740869E+03</pdfrwt>
<totfact> 0.11091084E+05</totfact>
</mgrwt>
</event>
<event>
 6    1  0.4241465E-002  0.1275796E+03  0.7546771E-02  0.1231092E+00
         21   -1    0    0  504  502  0.00000000000E+00  0.00000000000E+00  0.58870293396E+02  0.58870293396E+02  0.00000000000E+00 0. -1.
         21   -1    0    0  502  503 -0.00000000000E+00 -0.00000000000E+00 -0.13366120615E+03  0.13366120615E+03  0.00000000000E+00 0. -1.
         25    2    1    2    0    0  0.24842310155E+02  0.59553510479E+01 -0.95728966561E+02  0.15950107906E+03  0.12499581034E+03 0.  0.
          5    1    3    3  501    0 -0.49680180305E+02  0.16291643251E+02 -0.36845446783E+02  0.63961980141E+02  0.10000000000E+00 0.  1.
         -5    1    3    3    0  501  0.74522490460E+02 -0.10336292203E+02 -0.58883519778E+02  0.95539098919E+02  0.10000000000E+00 0.  1.
         21    1    1    2  504  503 -0.24842310155E+02 -0.59553510479E+01  0.20938053809E+02  0.33030420483E+02  0.00000000000E+00 0. -1.
<mgrwt>
<rscale>  1 0.12757962E+03</rscale>
<asrwt>0</asrwt>
<pdfrwt beam="1">  1       21 0.90569682E-02 0.12757962E+03</pdfrwt>
<pdfrwt beam="2">  1       21 0.20563263E-01 0.12757962E+03</pdfrwt>
<totfact> 0.21028683E+06</totfact>
</mgrwt>
</event>
<event>
 6    1  0.4241465E-002  0.1544494E+03  0.7546771E-02  0.1195110E+00
         21   -1    0    0  504  502  0.00000000000E+00  0.00000000000E+00  0.16777411897E+03  0.16777411897E+03  0.00000000000E+00 0. -1.
         21   -1    0    0  502  503 -0.00000000000E+00 -0.00000000000E+00 -0.12378031033E+03  0.12378031033E+03  0.00000000000E+00 0. -1.
         25    2    1    2    0    0 -0.66469831228E+02  0.61754564690E+02 -0.48603070887E+02  0.16191629131E+03  0.12499104835E+03 0.  0.
          5    1    3    3  501    0 -0.17843997502E+02 -0.28727058740E+02  0.19150248197E+02  0.38863789788E+02  0.10000000000E+00 0. -1.
         -5    1    3    3    0  501 -0.48625833726E+02  0.90481623430E+02 -0.67753319084E+02  0.12305250152E+03  0.10000000000E+00 0. -1.
         21    1    1    2  504  503  0.66469831228E+02 -0.61754564690E+02  0.92596879521E+02  0.12963813799E+03  0.00000000000E+00 0. -1.
<mgrwt>
<rscale>  1 0.15444943E+03</rscale>
<asrwt>0</asrwt>
<pdfrwt beam="1">  1       21 0.25811403E-01 0.15444943E+03</pdfrwt>
<pdfrwt beam="2">  1       21 0.19043125E-01 0.15444943E+03</pdfrwt>
<totfact> 0.36314327E+05</totfact>
</mgrwt>
</event>
<event>
 6    1  0.4241465E-002  0.1485701E+03  0.7546771E-02  0.1202241E+00
         21   -1    0    0  503  502  0.00000000000E+00  0.00000000000E+00  0.40390970196E+02  0.40390970196E+02  0.00000000000E+00 0. -1.
         21   -1    0    0  504  503 -0.00000000000E+00 -0.00000000000E+00 -0.33221187700E+03  0.33221187700E+03  0.00000000000E+00 0. -1.
         25    2    1    2    0    0 -0.20725701693E+02  0.77579122902E+02 -0.16076607716E+03  0.21890364943E+03  0.12500000459E+03 0.  0.
          5    1    3    3  501    0 -0.36557018867E+02 -0.23418358307E+02 -0.69031768980E+02  0.81548943970E+02  0.10000000000E+00 0.  1.
         -5    1    3    3    0  501  0.15831317174E+02  0.10099748121E+03 -0.91734308178E+02  0.13735470546E+03  0.10000000000E+00 0.  1.
         21    1    1    2  504  502  0.20725701693E+02 -0.77579122902E+02 -0.13105482964E+03  0.15369919776E+03  0.00000000000E+00 0. -1.
<mgrwt>
<rscale>  1 0.14857011E+03</rscale>
<asrwt>0</asrwt>
<pdfrwt beam="1">  1       21 0.62139952E-02 0.14857011E+03</pdfrwt>
<pdfrwt beam="2">  1       21 0.51109521E-01 0.14857011E+03</pdfrwt>
<totfact> 0.67925334E+05</totfact>
</mgrwt>
</event>
<event>
 6    1  0.4241465E-002  0.1266712E+03  0.7546771E-02  0.1232480E+00
         21   -1    0    0  503  502  0.00000000000E+00  0.00000000000E+00  0.12952388969E+03  0.12952388969E+03  0.00000000000E+00 0.  1.
         21   -1    0    0  504  503 -0.00000000000E+00 -0.00000000000E+00 -0.47021305984E+02  0.47021305984E+02  0.00000000000E+00 0.  1.
         25    2    1    2    0    0  0.16322234577E+02  0.12357240954E+02  0.46134647515E+02  0.13481099473E+03  0.12500592727E+03 0.  0.
          5    1    3    3  501    0  0.14638657194E+02  0.63100765989E+02 -0.20575985227E+01  0.64809263725E+02  0.10000000000E+00 0. -1.
         -5    1    3    3    0  501  0.16835773828E+01 -0.50743525035E+02  0.48192246038E+02  0.70001731007E+02  0.10000000000E+00 0. -1.
         21    1    1    2  504  502 -0.16322234577E+02 -0.12357240954E+02  0.36367936193E+02  0.41734200945E+02  0.00000000000E+00 0. -1.
<mgrwt>
<rscale>  1 0.12667122E+03</rscale>
<asrwt>0</asrwt>
<pdfrwt beam="1">  1       21 0.19926752E-01 0.12667122E+03</pdfrwt>
<pdfrwt beam="2">  1       21 0.72340471E-02 0.12667122E+03</pdfrwt>
<totfact> 0.32833176E+06</totfact>
</mgrwt>
</event>
<event>
 6    1  0.4241465E-002  0.1311234E+03  0.7546771E-02  0.1225798E+00
         21   -1    0    0  503  502  0.00000000000E+00  0.00000000000E+00  0.77325705219E+02  0.77325705219E+02  0.00000000000E+00 0. -1.
         21   -1    0    0  504  503 -0.00000000000E+00 -0.00000000000E+00 -0.23380687113E+03  0.23380687113E+03  0.00000000000E+00 0.  1.
         25    2    1    2    0    0 -0.22643198520E+02  0.32519945634E+02 -0.20815621561E+03  0.24601290140E+03  0.12499230480E+03 0.  0.
          5    1    3    3  501    0 -0.37632515251E+01  0.55647735943E+01 -0.21268679103E+03  0.21279288015E+03  0.10000000000E+00 0.  1.
         -5    1    3    3    0  501 -0.18879946995E+02  0.26955172040E+02  0.45305754190E+01  0.33220021250E+02  0.10000000000E+00 0.  1.
         21    1    1    2  504  502  0.22643198520E+02 -0.32519945634E+02  0.51675049698E+02  0.65119674942E+02  0.00000000000E+00 0. -1.
<mgrwt>
<rscale>  1 0.13112337E+03</rscale>
<asrwt>0</asrwt>
<pdfrwt beam="1">  1       21 0.11896262E-01 0.13112337E+03</pdfrwt>
<pdfrwt beam="2">  1       21 0.35970288E-01 0.13112337E+03</pdfrwt>
<totfact> 0.44827835E+05</totfact>
</mgrwt>
</event>
<event>
 6    1  0.4241465E-002  0.1337803E+03  0.7546771E-02  0.1221952E+00
         21   -1    0    0  503  502  0.00000000000E+00  0.00000000000E+00  0.31531610639E+02  0.31531610639E+02  0.00000000000E+00 0.  1.
         21   -1    0    0  504  503 -0.00000000000E+00 -0.00000000000E+00 -0.30332505016E+03  0.30332505016E+03  0.00000000000E+00 0. -1.
         25    2    1    2    0    0 -0.38393203708E+02  0.28251120937E+02 -0.24753219461E+03  0.28137047633E+03  0.12499997461E+03 0.  0.
          5    1    3    3  501    0 -0.53207360020E+02 -0.32989791237E+02 -0.17182207964E+03  0.18287204964E+03  0.10000000000E+00 0.  1.
         -5    1    3    3    0  501  0.14814156312E+02  0.61240912174E+02 -0.75710114972E+02  0.98498426689E+02  0.10000000000E+00 0.  1.
         21    1    1    2  504  502  0.38393203708E+02 -0.28251120937E+02 -0.24261244911E+02  0.53486184476E+02  0.00000000000E+00 0.  1.
<mgrwt>
<rscale>  1 0.13378026E+03</rscale>
<asrwt>0</asrwt>
<pdfrwt beam="1">  1       21 0.48510172E-02 0.13378026E+03</pdfrwt>
<pdfrwt beam="2">  1       21 0.46665391E-01 0.13378026E+03</pdfrwt>
<totfact> 0.12453733E+06</totfact>
</mgrwt>
</event>
<event>
 6    1  0.4241465E-002  0.1263554E+03  0.7546771E-02  0.1232966E+00
         21   -1    0    0  503  502  0.00000000000E+00  0.00000000000E+00  0.34531015948E+03  0.34531015948E+03  0.00000000000E+00 0.  1.
         21   -1    0    0  504  503 -0.00000000000E+00 -0.00000000000E+00 -0.82408973989E+02  0.82408973989E+02  0.00000000000E+00 0.  1.
         25    2    1    2    0    0  0.16008093322E+02  0.97915136028E+01 -0.33502979981E+02  0.13072155419E+03  0.12495416068E+03 0.  0.
          5    1    3    3  501    0  0.57694582233E+02 -0.58824996479E+01  0.19782718738E+02  0.61275073087E+02  0.10000000000E+00 0.  1.
         -5    1    3    3    0  501 -0.41686488912E+02  0.15674013251E+02 -0.53285698719E+02  0.69446481099E+02  0.10000000000E+00 0.  1.
         21    1    1    2  504  502 -0.16008093322E+02 -0.97915136028E+01  0.29640416547E+03  0.29699757928E+03  0.00000000000E+00 0.  1.
<mgrwt>
<rscale>  1 0.12635535E+03</rscale>
<asrwt>0</asrwt>
<pdfrwt beam="1">  1       21 0.53124639E-01 0.12635535E+03</pdfrwt>
<pdfrwt beam="2">  1       21 0.12678304E-01 0.12635535E+03</pdfrwt>
<totfact> 0.18198578E+05</totfact>
</mgrwt>
</event>
<event>
 6    1  0.4241465E-002  0.1259437E+03  0.7546771E-02  0.1233602E+00
         21   -1    0    0  503  502  0.00000000000E+00  0.00000000000E+00  0.18356102920E+02  0.18356102920E+02  0.00000000000E+00 0. -1.
         21   -1    0    0  504  503 -0.00000000000E+00 -0.00000000000E+00 -0.33857638487E+03  0.33857638487E+03  0.00000000000E+00 0. -1.
         25    2    1    2    0    0 -0.13301026260E+02  0.78047778631E+01 -0.31710396438E+03  0.34119897921E+03  0.12499594925E+03 0.  0.
          5    1    3    3  501    0  0.25610111942E+02  0.23499028401E+02 -0.28810886575E+03  0.29019788196E+03  0.10000000000E+00 0.  1.
         -5    1    3    3    0  501 -0.38911138202E+02 -0.15694250538E+02 -0.28995098632E+02  0.51001097251E+02  0.10000000000E+00 0.  1.
         21    1    1    2  504  502  0.13301026260E+02 -0.78047778631E+01 -0.31163175667E+01  0.15733508580E+02  0.00000000000E+00 0. -1.
<mgrwt>
<rscale>  1 0.12594371E+03</rscale>
<asrwt>0</asrwt>
<pdfrwt beam="1">  1       21 0.28240158E-02 0.12594371E+03</pdfrwt>
<pdfrwt beam="2">  1       21 0.52088675E-01 0.12594371E+03</pdfrwt>
<totfact> 0.24296112E+06</totfact>
</mgrwt>
</event>
<event>
 6    1  0.4241465E-002  0.1271421E+03  0.7546771E-02  0.1231759E+00
         21   -1    0    0  504  502  0.00000000000E+00  0.00000000000E+00  0.14875884114E+02  0.14875884114E+02  0.00000000000E+00 0.  1.
         21   -1    0    0  502  503 -0.00000000000E+00 -0.00000000000E+00 -0.38948850232E+03  0.38948850232E+03  0.00000000000E+00 0.  1.
         25    2    1    2    0    0  0.13075149548E+02 -0.19218322083E+02 -0.33655246022E+03  0.35976753603E+03  0.12499927226E+03 0.  0.
          5    1    3    3  501    0  0.67804204166E+02 -0.16409747373E+02 -0.15187669854E+03  0.16713237709E+03  0.10000000000E+00 0. -1.
         -5    1    3    3    0  501 -0.54729054618E+02 -0.28085747098E+01 -0.18467576168E+03  0.19263515895E+03  0.10000000000E+00 0. -1.
         21    1    1    2  504  503 -0.13075149548E+02  0.19218322083E+02 -0.38060157990E+02  0.44596850401E+02  0.00000000000E+00 0.  1.
<mgrwt>
<rscale>  1 0.12714213E+03</rscale>
<asrwt>0</asrwt>
<pdfrwt beam="1">  1       21 0.22885977E-02 0.12714213E+03</pdfrwt>
<pdfrwt beam="2">  1       21 0.59921305E-01 0.12714213E+03</pdfrwt>
<totfact> 0.25507055E+06</totfact>
</mgrwt>
</event>
<event>
 6    1  0.4241465E-002  0.1375045E+03  0.7546771E-02  0.1216727E+00
         21   -1    0    0  503  502  0.00000000000E+00  0.00000000000E+00  0.33880512829E+03  0.33880512829E+03  0.00000000000E+00 0.  1.
         21   -1    0    0  504  503 -0.00000000000E+00 -0.00000000000E+00 -0.52742788452E+02  0.52742788452E+02  0.00000000000E+00 0.  1.
         25    2    1    2    0    0 -0.26811138444E+02  0.50630179643E+02  0.46383344858E+02  0.14511684551E+03  0.12500092773E+03 0.  0.
          5    1    3    3  501    0 -0.45912190665E+02  0.15627992860E+02 -0.31352317973E+02  0.57750681855E+02  0.10000000000E+00 0. -1.
         -5    1    3    3    0  501  0.19101052221E+02  0.35002186783E+02  0.77735662831E+02  0.87366163652E+02  0.10000000000E+00 0. -1.
         21    1    1    2  504  502  0.26811138444E+02 -0.50630179643E+02  0.23967899498E+03  0.24643107123E+03  0.00000000000E+00 0.  1.
<mgrwt>
<rscale>  1 0.13750449E+03</rscale>
<asrwt>0</asrwt>
<pdfrwt beam="1">  1       21 0.52123865E-01 0.13750449E+03</pdfrwt>
<pdfrwt beam="2">  1       21 0.81142753E-02 0.13750449E+03</pdfrwt>
<totfact> 0.41287597E+05</totfact>
</mgrwt>
</event>
<event>
 6    1  0.4241465E-002  0.1277056E+03  0.7546771E-02  0.1230900E+00
         21   -1    0    0  504  502  0.00000000000E+00  0.00000000000E+00  0.98689237705E+01  0.98689237705E+01  0.00000000000E+00 0. -1.
         21   -1    0    0  502  503 -0.00000000000E+00 -0.00000000000E+00 -0.16347249673E+04  0.16347249673E+04  0.00000000000E+00 0. -1.
         25    2    1    2    0    0 -0.19449559768E+02 -0.17455430644E+02 -0.16089288923E+04  0.16139891271E+04  0.12500297752E+03 0.  0.
          5    1    3    3  501    0 -0.48980162859E+02  0.35714198874E+02 -0.55355084508E+03  0.55686004385E+03  0.10000000000E+00 0.  1.
         -5    1    3    3    0  501  0.29530603091E+02 -0.53169629519E+02 -0.10553780472E+04  0.10571290832E+04  0.10000000000E+00 0.  1.
         21    1    1    2  504  503  0.19449559768E+02  0.17455430644E+02 -0.15927151261E+02  0.30604764032E+02  0.00000000000E+00 0. -1.
<mgrwt>
<rscale>  1 0.12770561E+03</rscale>
<asrwt>0</asrwt>
<pdfrwt beam="1">  1       21 0.15182949E-02 0.12770561E+03</pdfrwt>
<pdfrwt beam="2">  1       21 0.25149632E+00 0.12770561E+03</pdfrwt>
<totfact> 0.13148333E+05</totfact>
</mgrwt>
</event>
<event>
 6    1  0.4241465E-002  0.1273670E+03  0.7546771E-02  0.1231416E+00
         21   -1    0    0  504  502  0.00000000000E+00  0.00000000000E+00  0.54871672698E+01  0.54871672698E+01  0.00000000000E+00 0. -1.
         21   -1    0    0  502  503 -0.00000000000E+00 -0.00000000000E+00 -0.10512834531E+04  0.10512834531E+04  0.00000000000E+00 0. -1.
         25    2    1    2    0    0 -0.20918167321E+02 -0.12621917293E+02 -0.86262009837E+03  0.87197235692E+03  0.12500189841E+03 0.  0.
          5    1    3    3  501    0  0.20374988983E+02 -0.58139266159E+02 -0.54417719823E+03  0.54765330960E+03  0.10000000000E+00 0.  1.
         -5    1    3    3    0  501 -0.41293156303E+02  0.45517348866E+02 -0.31844290014E+03  0.32431904732E+03  0.10000000000E+00 0.  1.
         21    1    1    2  504  503  0.20918167321E+02  0.12621917293E+02 -0.18317618741E+03  0.18479826340E+03  0.00000000000E+00 0.  1.
<mgrwt>
<rscale>  1 0.12736702E+03</rscale>
<asrwt>0</asrwt>
<pdfrwt beam="1">  1       21 0.84417973E-03 0.12736702E+03</pdfrwt>
<pdfrwt beam="2">  1       21 0.16173589E+00 0.12736702E+03</pdfrwt>
<totfact> 0.12135567E+06</totfact>
</mgrwt>
</event>
<event>
 6    1  0.4241465E-002  0.1269982E+03  0.7546771E-02  0.1231979E+00
         21   -1    0    0  503  502  0.00000000000E+00  0.00000000000E+00  0.32404771308E+03  0.32404771308E+03  0.00000000000E+00 0. -1.
         21   -1    0    0  504  503 -0.00000000000E+00 -0.00000000000E+00 -0.17440469258E+02  0.17440469258E+02  0.00000000000E+00 0. -1.
         25    2    1    2    0    0 -0.15189286196E+02 -0.16515361951E+02  0.24573357302E+03  0.27661079497E+03  0.12500028554E+03 0.  0.
          5    1    3    3  501    0  0.94116086440E+01 -0.37110431820E+01  0.24853045951E+03  0.24873630519E+03  0.10000000000E+00 0. -1.
         -5    1    3    3    0  501 -0.24600894840E+02 -0.12804318769E+02 -0.27968864839E+01  0.27874489773E+02  0.10000000000E+00 0. -1.
         21    1    1    2  504  502  0.15189286196E+02  0.16515361951E+02  0.60873670800E+02  0.64877387372E+02  0.00000000000E+00 0. -1.
<mgrwt>
<rscale>  1 0.12699820E+03</rscale>
<asrwt>0</asrwt>
<pdfrwt beam="1">  1       21 0.49853490E-01 0.12699820E+03</pdfrwt>
<pdfrwt beam="2">  1       21 0.26831493E-02 0.12699820E+03</pdfrwt>
<totfact> 0.28928297E+06</totfact>
</mgrwt>
</event>
<event>
 6    1  0.4241465E-002  0.1282088E+03  0.7546771E-02  0.1230138E+00
         21   -1    0    0  503  502  0.00000000000E+00  0.00000000000E+00  0.29174021117E+02  0.29174021117E+02  0.00000000000E+00 0.  1.
         21   -1    0    0  504  503 -0.00000000000E+00 -0.00000000000E+00 -0.21255225943E+03  0.21255225943E+03  0.00000000000E+00 0.  1.
         25    2    1    2    0    0 -0.10878493032E+02 -0.26317343233E+02 -0.13999600885E+03  0.18983252371E+03  0.12500624144E+03 0.  0.
          5    1    3    3  501    0  0.44730484147E+02 -0.38445145306E+02 -0.30438625072E+02  0.66372926001E+02  0.10000000000E+00 0. -1.
         -5    1    3    3    0  501 -0.55608977179E+02  0.12127802073E+02 -0.10955738378E+03  0.12345959771E+03  0.10000000000E+00 0. -1.
         21    1    1    2  504  502  0.10878493032E+02  0.26317343233E+02 -0.43382229460E+02  0.51893756834E+02  0.00000000000E+00 0.  1.
<mgrwt>
<rscale>  1 0.12820883E+03</rscale>
<asrwt>0</asrwt>
<pdfrwt beam="1">  1       21 0.44883110E-02 0.12820883E+03</pdfrwt>
<pdfrwt beam="2">  1       21 0.32700347E-01 0.12820883E+03</pdfrwt>
<totfact> 0.28799984E+06</totfact>
</mgrwt>
</event>
<event>
 6    1  0.4241465E-002  0.1370055E+03  0.7546771E-02  0.1217416E+00
         21   -1    0    0  503  502  0.00000000000E+00  0.00000000000E+00  0.10355538625E+03  0.10355538625E+03  0.00000000000E+00 0.  1.
         21   -1    0    0  504  503 -0.00000000000E+00 -0.00000000000E+00 -0.91421566304E+02  0.91421566304E+02  0.00000000000E+00 0.  1.
         25    2    1    2    0    0  0.20041476650E+02 -0.52390871514E+02  0.19557842179E+02  0.13839444368E+03  0.12499619452E+03 0.  0.
          5    1    3    3  501    0  0.27571781827E+02  0.29041108984E+02 -0.23025065341E+02  0.46192562151E+02  0.10000000000E+00 0. -1.
         -5    1    3    3    0  501 -0.75303051769E+01 -0.81431980497E+02  0.42582907520E+02  0.92201881524E+02  0.10000000000E+00 0. -1.
         21    1    1    2  504  502 -0.20041476650E+02  0.52390871514E+02 -0.74240222376E+01  0.56582508874E+02  0.00000000000E+00 0.  1.
<mgrwt>
<rscale>  1 0.13700552E+03</rscale>
<asrwt>0</asrwt>
<pdfrwt beam="1">  1       21 0.15931598E-01 0.13700552E+03</pdfrwt>
<pdfrwt beam="2">  1       21 0.14064856E-01 0.13700552E+03</pdfrwt>
<totfact> 0.15459726E+06</totfact>
</mgrwt>
</event>
<event>
 6    1  0.4241465E-002  0.1265914E+03  0.7546771E-02  0.1232603E+00
         21   -1    0    0  504  502  0.00000000000E+00  0.00000000000E+00  0.89903536442E+02  0.89903536442E+02  0.00000000000E+00 0.  1.
         21   -1    0    0  502  503 -0.00000000000E+00 -0.00000000000E+00 -0.64675049651E+02  0.64675049651E+02  0.00000000000E+00 0.  1.
         25    2    1    2    0    0 -0.58612345486E+01 -0.19159485856E+02  0.58839532110E+01  0.12672807536E+03  0.12499577677E+03 0.  0.
          5    1    3    3  501    0 -0.40537429971E+02  0.39220486076E+02  0.14613199886E+02  0.58267361083E+02  0.10000000000E+00 0.  1.
         -5    1    3    3    0  501  0.34676195423E+02 -0.58379971932E+02 -0.87292466746E+01  0.68460714276E+02  0.10000000000E+00 0.  1.
         21    1    1    2  504  503  0.58612345486E+01  0.19159485856E+02  0.19344533579E+02  0.27850510733E+02  0.00000000000E+00 0.  1.
<mgrwt>
<rscale>  1 0.12659141E+03</rscale>
<asrwt>0</asrwt>
<pdfrwt beam="1">  1       21 0.13831313E-01 0.12659141E+03</pdfrwt>
<pdfrwt beam="2">  1       21 0.99500076E-02 0.12659141E+03</pdfrwt>
<totfact> 0.36730048E+06</totfact>
</mgrwt>
</event>
<event>
 6    1  0.4241465E-002  0.1261947E+03  0.7546771E-02  0.1233214E+00
         21   -1    0    0  504  502  0.00000000000E+00  0.00000000000E+00  0.60304964256E+03  0.60304964256E+03  0.00000000000E+00 0.  1.
         21   -1    0    0  502  503 -0.00000000000E+00 -0.00000000000E+00 -0.24373756383E+02  0.24373756383E+02  0.00000000000E+00 0.  1.
         25    2    1    2    0    0  0.15182081020E+02 -0.83454512712E+01  0.14029482196E+03  0.18870013810E+03  0.12499985164E+03 0.  0.
          5    1    3    3  501    0 -0.82806783653E+01 -0.64206969442E+02  0.61403882726E+02  0.89227525871E+02  0.10000000000E+00 0.  1.
         -5    1    3    3    0  501  0.23462759385E+02  0.55861518171E+02  0.78890939234E+02  0.99472612228E+02  0.10000000000E+00 0.  1.
         21    1    1    2  504  503 -0.15182081020E+02  0.83454512712E+01  0.43838106421E+03  0.43872326084E+03  0.00000000000E+00 0.  1.
<mgrwt>
<rscale>  1 0.12619471E+03</rscale>
<asrwt>0</asrwt>
<pdfrwt beam="1">  1       21 0.92776857E-01 0.12619471E+03</pdfrwt>
<pdfrwt beam="2">  1       21 0.37498091E-02 0.12619471E+03</pdfrwt>
<totfact> 0.43306444E+05</totfact>
</mgrwt>
</event>
<event>
 6    1  0.4241465E-002  0.1263201E+03  0.7546771E-02  0.1233021E+00
         21   -1    0    0  503  502  0.00000000000E+00  0.00000000000E+00  0.81044474563E+02  0.81044474563E+02  0.00000000000E+00 0.  1.
         21   -1    0    0  504  503 -0.00000000000E+00 -0.00000000000E+00 -0.13408766588E+03  0.13408766588E+03  0.00000000000E+00 0.  1.
         25    2    1    2    0    0  0.16680120530E+02  0.72842249525E+01 -0.10234556765E+03  0.16257730559E+03  0.12500191488E+03 0.  0.
          5    1    3    3  501    0 -0.53496436590E+01  0.41827184951E+02  0.97059617823E+01  0.43270634180E+02  0.10000000000E+00 0.  1.
         -5    1    3    3    0  501  0.22029764189E+02 -0.34542959999E+02 -0.11205152943E+03  0.11930667141E+03  0.10000000000E+00 0.  1.
         21    1    1    2  504  502 -0.16680120530E+02 -0.72842249525E+01  0.49302376332E+02  0.52554834849E+02  0.00000000000E+00 0.  1.
<mgrwt>
<rscale>  1 0.12632009E+03</rscale>
<asrwt>0</asrwt>
<pdfrwt beam="1">  1       21 0.12468381E-01 0.12632009E+03</pdfrwt>
<pdfrwt beam="2">  1       21 0.20628871E-01 0.12632009E+03</pdfrwt>
<totfact> 0.11922441E+06</totfact>
</mgrwt>
</event>
<event>
 6    1  0.4241465E-002  0.1287828E+03  0.7546771E-02  0.1229273E+00
         21   -1    0    0  504  502  0.00000000000E+00  0.00000000000E+00  0.33304146742E+02  0.33304146742E+02  0.00000000000E+00 0.  1.
         21   -1    0    0  502  503 -0.00000000000E+00 -0.00000000000E+00 -0.19360088145E+03  0.19360088145E+03  0.00000000000E+00 0.  1.
         25    2    1    2    0    0 -0.26747897426E+02 -0.15549363257E+02 -0.13808338169E+03  0.18881742172E+03  0.12501106244E+03 0.  0.
          5    1    3    3  501    0 -0.62311832028E+02  0.24030824160E+02 -0.10990638852E+03  0.12860664507E+03  0.10000000000E+00 0. -1.
         -5    1    3    3    0  501  0.35563934602E+02 -0.39580187417E+02 -0.28176993172E+02  0.60210776648E+02  0.10000000000E+00 0. -1.
         21    1    1    2  504  503  0.26747897426E+02  0.15549363257E+02 -0.22213353025E+02  0.38087606475E+02  0.00000000000E+00 0.  1.
<mgrwt>
<rscale>  1 0.12878276E+03</rscale>
<asrwt>0</asrwt>
<pdfrwt beam="1">  1       21 0.51237149E-02 0.12878276E+03</pdfrwt>
<pdfrwt beam="2">  1       21 0.29784751E-01 0.12878276E+03</pdfrwt>
<totfact> 0.27648683E+06</totfact>
</mgrwt>
</event>
<event>
 6    1  0.4241465E-002  0.1275643E+03  0.7546771E-02  0.1231115E+00
         21   -1    0    0  503  502  0.00000000000E+00  0.00000000000E+00  0.38834357567E+03  0.38834357567E+03  0.00000000000E+00 0. -1.
         21   -1    0    0  504  503 -0.00000000000E+00 -0.00000000000E+00 -0.15074618677E+02  0.15074618677E+02  0.00000000000E+00 0. -1.
         25    2    1    2    0    0  0.11692759037E+02  0.22596285605E+02  0.30886892029E+03  0.33417458479E+03  0.12500132184E+03 0.  0.
          5    1    3    3  501    0 -0.34517778670E+02  0.85764487511E+01  0.19026208726E+02  0.40336573181E+02  0.10000000000E+00 0. -1.
         -5    1    3    3    0  501  0.46210537707E+02  0.14019836854E+02  0.28984271156E+03  0.29383801161E+03  0.10000000000E+00 0. -1.
         21    1    1    2  504  502 -0.11692759037E+02 -0.22596285605E+02  0.64400036709E+02  0.69243609561E+02  0.00000000000E+00 0. -1.
<mgrwt>
<rscale>  1 0.12756427E+03</rscale>
<asrwt>0</asrwt>
<pdfrwt beam="1">  1       21 0.59745158E-01 0.12756427E+03</pdfrwt>
<pdfrwt beam="2">  1       21 0.23191724E-02 0.12756427E+03</pdfrwt>
<totfact> 0.25122645E+06</totfact>
</mgrwt>
</event>
<event>
 6    1  0.4241465E-002  0.1276177E+03  0.7546771E-02  0.1231034E+00
         21   -1    0    0  503  502  0.00000000000E+00  0.00000000000E+00  0.53928528910E+02  0.53928528910E+02  0.00000000000E+00 0.  1.
         21   -1    0    0  504  503 -0.00000000000E+00 -0.00000000000E+00 -0.11033005394E+03  0.11033005394E+03  0.00000000000E+00 0.  1.
         25    2    1    2    0    0 -0.25264682684E+02  0.47560850492E+01 -0.53531723778E+02  0.13839045004E+03  0.12500138669E+03 0.  0.
          5    1    3    3  501    0 -0.19162329175E+02  0.23156037341E+02  0.35934769106E+02  0.46847780689E+02  0.10000000000E+00 0.  1.
         -5    1    3    3    0  501 -0.61023535086E+01 -0.18399952292E+02 -0.89466492884E+02  0.91542669350E+02  0.10000000000E+00 0.  1.
         21    1    1    2  504  502  0.25264682684E+02 -0.47560850492E+01 -0.28698012548E+01  0.25868132815E+02  0.00000000000E+00 0.  1.
<mgrwt>
<rscale>  1 0.12761768E+03</rscale>
<asrwt>0</asrwt>
<pdfrwt beam="1">  1       21 0.82966969E-02 0.12761768E+03</pdfrwt>
<pdfrwt beam="2">  1       21 0.16973854E-01 0.12761768E+03</pdfrwt>
<totfact> 0.34816514E+06</totfact>
</mgrwt>
</event>
<event>
 6    1  0.4241465E-002  0.1327713E+03  0.7546771E-02  0.1223401E+00
         21   -1    0    0  503  502  0.00000000000E+00  0.00000000000E+00  0.25870794809E+03  0.25870794809E+03  0.00000000000E+00 0.  1.
         21   -1    0    0  504  503 -0.00000000000E+00 -0.00000000000E+00 -0.12976854252E+03  0.12976854252E+03  0.00000000000E+00 0.  1.
         25    2    1    2    0    0  0.38426127615E+02 -0.22877739847E+02 -0.92983129016E+02  0.16209281270E+03  0.12501303686E+03 0.  0.
          5    1    3    3  501    0 -0.19189977143E+01 -0.69212529751E+02 -0.34867955825E+02  0.77523165378E+02  0.10000000000E+00 0. -1.
         -5    1    3    3    0  501  0.40345125329E+02  0.46334789905E+02 -0.58115173191E+02  0.84569647323E+02  0.10000000000E+00 0. -1.
         21    1    1    2  504  502 -0.38426127615E+02  0.22877739847E+02  0.22192253458E+03  0.22638367790E+03  0.00000000000E+00 0.  1.
<mgrwt>
<rscale>  1 0.13277130E+03</rscale>
<asrwt>0</asrwt>
<pdfrwt beam="1">  1       21 0.39801223E-01 0.13277130E+03</pdfrwt>
<pdfrwt beam="2">  1       21 0.19964391E-01 0.13277130E+03</pdfrwt>
<totfact> 0.14371067E+05</totfact>
</mgrwt>
</event>
<event>
 6    1  0.4241465E-002  0.1521570E+03  0.7546771E-02  0.1197847E+00
         21   -1    0    0  504  502  0.00000000000E+00  0.00000000000E+00  0.78804425724E+03  0.78804425724E+03  0.00000000000E+00 0. -1.
         21   -1    0    0  502  503 -0.00000000000E+00 -0.00000000000E+00 -0.51925391324E+02  0.51925391324E+02  0.00000000000E+00 0. -1.
         25    2    1    2    0    0 -0.77737629999E+02 -0.38505803307E+02  0.68719000195E+02  0.16695522318E+03  0.12500363816E+03 0.  0.
          5    1    3    3  501    0  0.11537129289E+02  0.34261904999E+02  0.91703043247E+01  0.37297291695E+02  0.10000000000E+00 0.  1.
         -5    1    3    3    0  501 -0.89274759288E+02 -0.72767708305E+02  0.59548695870E+02  0.12965793149E+03  0.10000000000E+00 0.  1.
         21    1    1    2  504  503  0.77737629999E+02  0.38505803307E+02  0.66739986572E+03  0.67301442538E+03  0.00000000000E+00 0. -1.
<mgrwt>
<rscale>  1 0.15215698E+03</rscale>
<asrwt>0</asrwt>
<pdfrwt beam="1">  1       21 0.12123757E+00 0.15215698E+03</pdfrwt>
<pdfrwt beam="2">  1       21 0.79885223E-02 0.15215698E+03</pdfrwt>
<totfact> 0.63227296E+04</totfact>
</mgrwt>
</event>
<event>
 6    1  0.4241465E-002  0.1307732E+03  0.7546771E-02  0.1226313E+00
         21   -1    0    0  503  502  0.00000000000E+00  0.00000000000E+00  0.35167549965E+02  0.35167549965E+02  0.00000000000E+00 0.  1.
         21   -1    0    0  504  503 -0.00000000000E+00 -0.00000000000E+00 -0.36474835421E+03  0.36474835421E+03  0.00000000000E+00 0.  1.
         25    2    1    2    0    0 -0.35048706261E+02  0.15742149195E+02 -0.33637208011E+03  0.36089861955E+03  0.12500164095E+03 0.  0.
          5    1    3    3  501    0  0.12506560011E+02 -0.48925702946E+02 -0.13111997712E+03  0.14050835154E+03  0.10000000000E+00 0.  1.
         -5    1    3    3    0  501 -0.47555266272E+02  0.64667852142E+02 -0.20525210299E+03  0.22039026801E+03  0.10000000000E+00 0.  1.
         21    1    1    2  504  502  0.35048706261E+02 -0.15742149195E+02  0.67912758661E+01  0.39017284628E+02  0.00000000000E+00 0.  1.
<mgrwt>
<rscale>  1 0.13077323E+03</rscale>
<asrwt>0</asrwt>
<pdfrwt beam="1">  1       21 0.54103920E-02 0.13077323E+03</pdfrwt>
<pdfrwt beam="2">  1       21 0.56115134E-01 0.13077323E+03</pdfrwt>
<totfact> 0.70727292E+05</totfact>
</mgrwt>
</event>
<event>
 6    1  0.4241465E-002  0.1515857E+03  0.7546771E-02  0.1198538E+00
         21   -1    0    0  504  502  0.00000000000E+00  0.00000000000E+00  0.40345635714E+03  0.40345635714E+03  0.00000000000E+00 0.  1.
         21   -1    0    0  502  503 -0.00000000000E+00 -0.00000000000E+00 -0.47423128998E+02  0.47423128998E+02  0.00000000000E+00 0.  1.
         25    2    1    2    0    0  0.72037626249E+02 -0.46524109700E+02  0.10186047209E+03  0.18263015753E+03  0.12499722511E+03 0.  0.
          5    1    3    3  501    0 -0.16397627461E+02 -0.59135495723E+02  0.51294440632E+02  0.79981364583E+02  0.10000000000E+00 0.  1.
         -5    1    3    3    0  501  0.88435253710E+02  0.12611386024E+02  0.50566031457E+02  0.10264879295E+03  0.10000000000E+00 0.  1.
         21    1    1    2  504  503 -0.72037626249E+02  0.46524109700E+02  0.25417275606E+03  0.26824932861E+03  0.00000000000E+00 0.  1.
<mgrwt>
<rscale>  1 0.15158568E+03</rscale>
<asrwt>0</asrwt>
<pdfrwt beam="1">  1       21 0.62070207E-01 0.15158568E+03</pdfrwt>
<pdfrwt beam="2">  1       21 0.72958663E-02 0.15158568E+03</pdfrwt>
<totfact> 0.34226732E+05</totfact>
</mgrwt>
</event>
<event>
 6    1  0.4241465E-002  0.1261261E+03  0.7546771E-02  0.1233320E+00
         21   -1    0    0  504  502  0.00000000000E+00  0.00000000000E+00  0.47263452393E+03  0.47263452393E+03  0.00000000000E+00 0.  1.
         21   -1    0    0  502  503 -0.00000000000E+00 -0.00000000000E+00 -0.10816987249E+02  0.10816987249E+02  0.00000000000E+00 0.  1.
         25    2    1    2    0    0 -0.15666059132E+02  0.61390855846E+01  0.40316690918E+03  0.42243503892E+03  0.12499876667E+03 0.  0.
          5    1    3    3  501    0 -0.34755892188E+01 -0.16873901170E+02 -0.11627031373E+01  0.17267603762E+02  0.10000000000E+00 0. -1.
         -5    1    3    3    0  501 -0.12190469913E+02  0.23012986754E+02  0.40432961231E+03  0.40516743515E+03  0.10000000000E+00 0. -1.
         21    1    1    2  504  503  0.15666059132E+02 -0.61390855846E+01  0.58650627503E+02  0.61016472260E+02  0.00000000000E+00 0.  1.
<mgrwt>
<rscale>  1 0.12612615E+03</rscale>
<asrwt>0</asrwt>
<pdfrwt beam="1">  1       21 0.72712988E-01 0.12612615E+03</pdfrwt>
<pdfrwt beam="2">  1       21 0.16641523E-02 0.12612615E+03</pdfrwt>
<totfact> 0.28071594E+06</totfact>
</mgrwt>
</event>
<event>
 6    1  0.4241465E-002  0.1317608E+03  0.7546771E-02  0.1224866E+00
         21   -1    0    0  504  502  0.00000000000E+00  0.00000000000E+00  0.15283511250E+04  0.15283511250E+04  0.00000000000E+00 0.  1.
         21   -1    0    0  502  503 -0.00000000000E+00 -0.00000000000E+00 -0.16818715762E+03  0.16818715762E+03  0.00000000000E+00 0.  1.
         25    2    1    2    0    0 -0.10561617335E+02 -0.40289574898E+02 -0.14204819362E+03  0.19374881823E+03  0.12500447051E+03 0.  0.
          5    1    3    3  501    0  0.35874727843E+02  0.16458977045E+02 -0.70118263959E+01  0.40088274253E+02  0.10000000000E+00 0. -1.
         -5    1    3    3    0  501 -0.46436345178E+02 -0.56748551943E+02 -0.13503636723E+03  0.15366054398E+03  0.10000000000E+00 0. -1.
         21    1    1    2  504  503  0.10561617335E+02  0.40289574898E+02  0.15022121610E+04  0.15027894644E+04  0.00000000000E+00 0.  1.
<mgrwt>
<rscale>  1 0.13176083E+03</rscale>
<asrwt>0</asrwt>
<pdfrwt beam="1">  1       21 0.23513093E+00 0.13176083E+03</pdfrwt>
<pdfrwt beam="2">  1       21 0.25874948E-01 0.13176083E+03</pdfrwt>
<totfact> 0.12559010E+03</totfact>
</mgrwt>
</event>
<event>
 6    1  0.4241465E-002  0.1339776E+03  0.7546771E-02  0.1221670E+00
         21   -1    0    0  503  502  0.00000000000E+00  0.00000000000E+00  0.25270501270E+02  0.25270501270E+02  0.00000000000E+00 0.  1.
         21   -1    0    0  504  503 -0.00000000000E+00 -0.00000000000E+00 -0.33989808158E+03  0.33989808158E+03  0.00000000000E+00 0.  1.
         25    2    1    2    0    0  0.27155792288E+02 -0.39812251600E+02 -0.19897614124E+03  0.23987808923E+03  0.12501016150E+03 0.  0.
          5    1    3    3  501    0  0.45329278579E+02 -0.75861247292E+02 -0.10274671311E+03  0.13552331679E+03  0.10000000000E+00 0. -1.
         -5    1    3    3    0  501 -0.18173486291E+02  0.36048995692E+02 -0.96229428121E+02  0.10435477244E+03  0.10000000000E+00 0. -1.
         21    1    1    2  504  502 -0.27155792288E+02  0.39812251600E+02 -0.11565143908E+03  0.12529049363E+03  0.00000000000E+00 0.  1.
<mgrwt>
<rscale>  1 0.13397758E+03</rscale>
<asrwt>0</asrwt>
<pdfrwt beam="1">  1       21 0.38877692E-02 0.13397758E+03</pdfrwt>
<pdfrwt beam="2">  1       21 0.52292015E-01 0.13397758E+03</pdfrwt>
<totfact> 0.14251529E+06</totfact>
</mgrwt>
</event>
<event>
 6    1  0.4241465E-002  0.1260406E+03  0.7546771E-02  0.1233452E+00
         21   -1    0    0  504  502  0.00000000000E+00  0.00000000000E+00  0.24440865326E+03  0.24440865326E+03  0.00000000000E+00 0. -1.
         21   -1    0    0  502  503 -0.00000000000E+00 -0.00000000000E+00 -0.41432744682E+02  0.41432744682E+02  0.00000000000E+00 0. -1.
         25    2    1    2    0    0 -0.30300579710E+01  0.15893055757E+02  0.55903937503E+02  0.13788216319E+03  0.12499788088E+03 0.  0.
          5    1    3    3  501    0  0.17770095166E+02  0.66825125614E+02  0.42819110516E+02  0.81331789117E+02  0.10000000000E+00 0.  1.
         -5    1    3    3    0  501 -0.20800153137E+02 -0.50932069857E+02  0.13084826986E+02  0.56550374073E+02  0.10000000000E+00 0.  1.
         21    1    1    2  504  503  0.30300579710E+01 -0.15893055757E+02  0.14707197107E+03  0.14795923475E+03  0.00000000000E+00 0. -1.
<mgrwt>
<rscale>  1 0.12604063E+03</rscale>
<asrwt>0</asrwt>
<pdfrwt beam="1">  1       21 0.37601330E-01 0.12604063E+03</pdfrwt>
<pdfrwt beam="2">  1       21 0.63742686E-02 0.12604063E+03</pdfrwt>
<totfact> 0.12116808E+06</totfact>
</mgrwt>
</event>
<event>
 6    1  0.4241465E-002  0.1283066E+03  0.7546771E-02  0.1229990E+00
         21   -1    0    0  504  502  0.00000000000E+00  0.00000000000E+00  0.95287474289E+02  0.95287474289E+02  0.00000000000E+00 0. -1.
         21   -1    0    0  502  503 -0.00000000000E+00 -0.00000000000E+00 -0.67537138348E+02  0.67537138348E+02  0.00000000000E+00 0. -1.
         25    2    1    2    0    0  0.28176885474E+02  0.65913693465E+01  0.95986631473E+01  0.12866518861E+03  0.12500085360E+03 0.  0.
          5    1    3    3  501    0 -0.72499569089E+01  0.28163689855E+02  0.58024092254E+02  0.64904241644E+02  0.10000000000E+00 0.  1.
         -5    1    3    3    0  501  0.35426842383E+02 -0.21572320509E+02 -0.48425429107E+02  0.63760946963E+02  0.10000000000E+00 0.  1.
         21    1    1    2  504  503 -0.28176885474E+02 -0.65913693465E+01  0.18151672793E+02  0.34159424030E+02  0.00000000000E+00 0. -1.
<mgrwt>
<rscale>  1 0.12830665E+03</rscale>
<asrwt>0</asrwt>
<pdfrwt beam="1">  1       21 0.14659611E-01 0.12830665E+03</pdfrwt>
<pdfrwt beam="2">  1       21 0.10390329E-01 0.12830665E+03</pdfrwt>
<totfact> 0.30690891E+06</totfact>
</mgrwt>
</event>
<event>
 6    1  0.4241465E-002  0.1269923E+03  0.7546771E-02  0.1231988E+00
         21   -1    0    0  504  502  0.00000000000E+00  0.00000000000E+00  0.21847389253E+02  0.21847389253E+02  0.00000000000E+00 0. -1.
         21   -1    0    0  502  503 -0.00000000000E+00 -0.00000000000E+00 -0.72772281060E+03  0.72772281060E+03  0.00000000000E+00 0. -1.
         25    2    1    2    0    0  0.20214404265E+02 -0.96556295874E+01 -0.71440125161E+03  0.72560057106E+03  0.12500074843E+03 0.  0.
          5    1    3    3  501    0 -0.55958530241E+00 -0.47962459869E+02 -0.61740004482E+03  0.61926047512E+03  0.10000000000E+00 0.  1.
         -5    1    3    3    0  501  0.20773989567E+02  0.38306830282E+02 -0.97001206785E+02  0.10634009595E+03  0.10000000000E+00 0.  1.
         21    1    1    2  504  503 -0.20214404265E+02  0.96556295874E+01  0.85258302627E+01  0.23969628787E+02  0.00000000000E+00 0. -1.
<mgrwt>
<rscale>  1 0.12699228E+03</rscale>
<asrwt>0</asrwt>
<pdfrwt beam="1">  1       21 0.33611366E-02 0.12699228E+03</pdfrwt>
<pdfrwt beam="2">  1       21 0.11195736E+00 0.12699228E+03</pdfrwt>
<totfact> 0.33356655E+05</totfact>
</mgrwt>
</event>
<event>
 6    1  0.4241465E-002  0.1268610E+03  0.7546771E-02  0.1232189E+00
         21   -1    0    0  504  502  0.00000000000E+00  0.00000000000E+00  0.33721654213E+02  0.33721654213E+02  0.00000000000E+00 0.  1.
         21   -1    0    0  502  503 -0.00000000000E+00 -0.00000000000E+00 -0.16632883055E+03  0.16632883055E+03  0.00000000000E+00 0.  1.
         25    2    1    2    0    0 -0.43545127388E+01 -0.21204916912E+02 -0.12175542903E+03  0.17583539232E+03  0.12500036164E+03 0.  0.
          5    1    3    3  501    0 -0.58343768717E+02 -0.30184988926E+02 -0.38316738347E+02  0.76048085723E+02  0.10000000000E+00 0. -1.
         -5    1    3    3    0  501  0.53989255978E+02  0.89800720138E+01 -0.83438690685E+02  0.99787306596E+02  0.10000000000E+00 0. -1.
         21    1    1    2  504  503  0.43545127388E+01  0.21204916912E+02 -0.10851747304E+02  0.24215092443E+02  0.00000000000E+00 0.  1.
<mgrwt>
<rscale>  1 0.12686095E+03</rscale>
<asrwt>0</asrwt>
<pdfrwt beam="1">  1       21 0.51879468E-02 0.12686095E+03</pdfrwt>
<pdfrwt beam="2">  1       21 0.25589051E-01 0.12686095E+03</pdfrwt>
<totfact> 0.36164165E+06</totfact>
</mgrwt>
</event>
<event>
 6    1  0.4241465E-002  0.1293638E+03  0.7546771E-02  0.1228403E+00
         21   -1    0    0  504  502  0.00000000000E+00  0.00000000000E+00  0.11902405899E+03  0.11902405899E+03  0.00000000000E+00 0.  1.
         21   -1    0    0  502  503 -0.00000000000E+00 -0.00000000000E+00 -0.83153441111E+02  0.83153441111E+02  0.00000000000E+00 0.  1.
         25    2    1    2    0    0  0.26814338227E+02  0.19766294511E+02 -0.25961100073E+02  0.13194306070E+03  0.12500110966E+03 0.  0.
          5    1    3    3  501    0 -0.39223959967E+02 -0.82143082827E+01  0.21948328217E+02  0.45691717057E+02  0.10000000000E+00 0. -1.
         -5    1    3    3    0  501  0.66038298194E+02  0.27980602793E+02 -0.47909428289E+02  0.86251343642E+02  0.10000000000E+00 0. -1.
         21    1    1    2  504  503 -0.26814338227E+02 -0.19766294511E+02  0.61831717953E+02  0.70234439403E+02  0.00000000000E+00 0.  1.
<mgrwt>
<rscale>  1 0.12936380E+03</rscale>
<asrwt>0</asrwt>
<pdfrwt beam="1">  1       21 0.18311394E-01 0.12936380E+03</pdfrwt>
<pdfrwt beam="2">  1       21 0.12792837E-01 0.12936380E+03</pdfrwt>
<totfact> 0.14194552E+06</totfact>
</mgrwt>
</event>
<event>
 6    1  0.4241465E-002  0.1301809E+03  0.7546771E-02  0.1227187E+00
         21   -1    0    0  504  502  0.00000000000E+00  0.00000000000E+00  0.15615319010E+03  0.15615319010E+03  0.00000000000E+00 0. -1.
         21   -1    0    0  502  503 -0.00000000000E+00 -0.00000000000E+00 -0.56444057900E+02  0.56444057900E+02  0.00000000000E+00 0. -1.
         25    2    1    2    0    0 -0.17071467937E+02 -0.32093810265E+02  0.29419290870E+02  0.13346375655E+03  0.12500252782E+03 0.  0.
          5    1    3    3  501    0 -0.27890756145E+02 -0.14568708129E+02 -0.45748446090E+02  0.55525416293E+02  0.10000000000E+00 0.  1.
         -5    1    3    3    0  501  0.10819288208E+02 -0.17525102136E+02  0.75167736960E+02  0.77938340256E+02  0.10000000000E+00 0.  1.
         21    1    1    2  504  503  0.17071467937E+02  0.32093810265E+02  0.70289841334E+02  0.79133491453E+02  0.00000000000E+00 0. -1.
<mgrwt>
<rscale>  1 0.13018095E+03</rscale>
<asrwt>0</asrwt>
<pdfrwt beam="1">  1       21 0.24023568E-01 0.13018095E+03</pdfrwt>
<pdfrwt beam="2">  1       21 0.86837013E-02 0.13018095E+03</pdfrwt>
<totfact> 0.16928207E+06</totfact>
</mgrwt>
</event>
<event>
 6    1  0.4241465E-002  0.1281096E+03  0.7546771E-02  0.1230288E+00
         21   -1    0    0  503  502  0.00000000000E+00  0.00000000000E+00  0.70437589705E+03  0.70437589705E+03  0.00000000000E+00 0.  1.
         21   -1    0    0  504  503 -0.00000000000E+00 -0.00000000000E+00 -0.12105093202E+02  0.12105093202E+02  0.00000000000E+00 0.  1.
         25    2    1    2    0    0  0.28051514302E+02  0.53143607778E+00  0.34397576390E+03  0.36705774442E+03  0.12499956682E+03 0.  0.
          5    1    3    3  501    0  0.94947128530E+01  0.48721221006E+02  0.57485085079E+02  0.75950325575E+02  0.10000000000E+00 0.  1.
         -5    1    3    3    0  501  0.18556801449E+02 -0.48189784928E+02  0.28649067883E+03  0.29110741884E+03  0.10000000000E+00 0.  1.
         21    1    1    2  504  502 -0.28051514302E+02 -0.53143607778E+00  0.34829503994E+03  0.34942324583E+03  0.00000000000E+00 0.  1.
<mgrwt>
<rscale>  1 0.12810957E+03</rscale>
<asrwt>0</asrwt>
<pdfrwt beam="1">  1       21 0.10836549E+00 0.12810957E+03</pdfrwt>
<pdfrwt beam="2">  1       21 0.18623226E-02 0.12810957E+03</pdfrwt>
<totfact> 0.94252914E+05</totfact>
</mgrwt>
</event>
<event>
 6    1  0.4241465E-002  0.1267834E+03  0.7546771E-02  0.1232308E+00
         21   -1    0    0  504  502  0.00000000000E+00  0.00000000000E+00  0.13622989246E+03  0.13622989246E+03  0.00000000000E+00 0.  1.
         21   -1    0    0  502  503 -0.00000000000E+00 -0.00000000000E+00 -0.52937859581E+02  0.52937859581E+02  0.00000000000E+00 0.  1.
         25    2    1    2    0    0 -0.23265246051E+01  0.21079627763E+02  0.27847479705E+02  0.12980562691E+03  0.12499702088E+03 0.  0.
          5    1    3    3  501    0 -0.62227257684E+02 -0.27938377912E+01  0.12852394447E+02  0.63602131815E+02  0.10000000000E+00 0.  1.
         -5    1    3    3    0  501  0.59900733079E+02  0.23873465554E+02  0.14995085258E+02  0.66203495095E+02  0.10000000000E+00 0.  1.
         21    1    1    2  504  503  0.23265246051E+01 -0.21079627763E+02  0.55444553177E+02  0.59362125134E+02  0.00000000000E+00 0.  1.
<mgrwt>
<rscale>  1 0.12678335E+03</rscale>
<asrwt>0</asrwt>
<pdfrwt beam="1">  1       21 0.20958445E-01 0.12678335E+03</pdfrwt>
<pdfrwt beam="2">  1       21 0.81442861E-02 0.12678335E+03</pdfrwt>
<totfact> 0.24391934E+06</totfact>
</mgrwt>
</event>
<event>
 6    1  0.4241465E-002  0.1397608E+03  0.7546771E-02  0.1213651E+00
         21   -1    0    0  504  502  0.00000000000E+00  0.00000000000E+00  0.38221326785E+03  0.38221326785E+03  0.00000000000E+00 0. -1.
         21   -1    0    0  502  503 -0.00000000000E+00 -0.00000000000E+00 -0.26909617830E+02  0.26909617830E+02  0.00000000000E+00 0. -1.
         25    2    1    2    0    0  0.58398313939E+02 -0.22305324627E+02  0.25914585532E+03  0.29443107229E+03  0.12500076568E+03 0.  0.
          5    1    3    3  501    0  0.73615281219E+02 -0.14406008811E+02  0.26569246791E+03  0.27607832263E+03  0.10000000000E+00 0. -1.
         -5    1    3    3    0  501 -0.15216967280E+02 -0.78993158163E+01 -0.65466125951E+01  0.18352749659E+02  0.10000000000E+00 0. -1.
         21    1    1    2  504  503 -0.58398313939E+02  0.22305324627E+02  0.96157794699E+02  0.11469181339E+03  0.00000000000E+00 0. -1.
<mgrwt>
<rscale>  1 0.13976080E+03</rscale>
<asrwt>0</asrwt>
<pdfrwt beam="1">  1       21 0.58802037E-01 0.13976080E+03</pdfrwt>
<pdfrwt beam="2">  1       21 0.41399415E-02 0.13976080E+03</pdfrwt>
<totfact> 0.10036521E+06</totfact>
</mgrwt>
</event>
<event>
 6    1  0.4241465E-002  0.1260455E+03  0.7546771E-02  0.1233444E+00
         21   -1    0    0  503  502  0.00000000000E+00  0.00000000000E+00  0.41917702360E+03  0.41917702360E+03  0.00000000000E+00 0.  1.
         21   -1    0    0  504  503 -0.00000000000E+00 -0.00000000000E+00 -0.15092327475E+02  0.15092327475E+02  0.00000000000E+00 0.  1.
         25    2    1    2    0    0 -0.32461906077E+01 -0.15764022521E+02  0.25636529183E+03  0.28567572885E+03  0.12501366742E+03 0.  0.
          5    1    3    3  501    0  0.23600249553E+02 -0.56984658437E+02  0.71738505835E+02  0.94607855359E+02  0.10000000000E+00 0. -1.
         -5    1    3    3    0  501 -0.26846440161E+02  0.41220635917E+02  0.18462678599E+03  0.19106787349E+03  0.10000000000E+00 0. -1.
         21    1    1    2  504  502  0.32461906077E+01  0.15764022521E+02  0.14771940429E+03  0.14859362222E+03  0.00000000000E+00 0.  1.
<mgrwt>
<rscale>  1 0.12604546E+03</rscale>
<asrwt>0</asrwt>
<pdfrwt beam="1">  1       21 0.64488764E-01 0.12604546E+03</pdfrwt>
<pdfrwt beam="2">  1       21 0.23218969E-02 0.12604546E+03</pdfrwt>
<totfact> 0.21294605E+06</totfact>
</mgrwt>
</event>
<event>
 6    1  0.4241465E-002  0.1284974E+03  0.7546771E-02  0.1229702E+00
         21   -1    0    0  503  502  0.00000000000E+00  0.00000000000E+00  0.60886935421E+02  0.60886935421E+02  0.00000000000E+00 0.  1.
         21   -1    0    0  504  503 -0.00000000000E+00 -0.00000000000E+00 -0.13332440270E+03  0.13332440270E+03  0.00000000000E+00 0.  1.
         25    2    1    2    0    0  0.96843305652E+01  0.28172017552E+02 -0.92471240813E+02  0.15831146468E+03  0.12499656251E+03 0.  0.
          5    1    3    3  501    0  0.41919718830E+02  0.40993392578E+02  0.96778867235E+00  0.58640154133E+02  0.10000000000E+00 0.  1.
         -5    1    3    3    0  501 -0.32235388264E+02 -0.12821375027E+02 -0.93439029486E+02  0.99671310543E+02  0.10000000000E+00 0.  1.
         21    1    1    2  504  502 -0.96843305652E+01 -0.28172017552E+02  0.20033773533E+02  0.35899873446E+02  0.00000000000E+00 0.  1.
<mgrwt>
<rscale>  1 0.12849743E+03</rscale>
<asrwt>0</asrwt>
<pdfrwt beam="1">  1       21 0.93672209E-02 0.12849743E+03</pdfrwt>
<pdfrwt beam="2">  1       21 0.20511446E-01 0.12849743E+03</pdfrwt>
<totfact> 0.19928996E+06</totfact>
</mgrwt>
</event>
<event>
 6    1  0.4241465E-002  0.1346759E+03  0.7546771E-02  0.1220678E+00
         21   -1    0    0  504  502  0.00000000000E+00  0.00000000000E+00  0.39074624628E+02  0.39074624628E+02  0.00000000000E+00 0. -1.
         21   -1    0    0  502  503 -0.00000000000E+00 -0.00000000000E+00 -0.56155021620E+03  0.56155021620E+03  0.00000000000E+00 0. -1.
         25    2    1    2    0    0 -0.49529013794E+02 -0.80218943816E+01 -0.53266466232E+03  0.54942629437E+03  0.12498054436E+03 0.  0.
          5    1    3    3  501    0  0.40959253845E+02  0.10125056063E+01 -0.11811361506E+03  0.12501808552E+03  0.10000000000E+00 0. -1.
         -5    1    3    3    0  501 -0.90488267639E+02 -0.90343999879E+01 -0.41455104725E+03  0.42440820885E+03  0.10000000000E+00 0. -1.
         21    1    1    2  504  503  0.49529013794E+02  0.80218943816E+01  0.10189070743E+02  0.51198546459E+02  0.00000000000E+00 0. -1.
<mgrwt>
<rscale>  1 0.13467595E+03</rscale>
<asrwt>0</asrwt>
<pdfrwt beam="1">  1       21 0.60114811E-02 0.13467595E+03</pdfrwt>
<pdfrwt beam="2">  1       21 0.86392336E-01 0.13467595E+03</pdfrwt>
<totfact> 0.23067800E+05</totfact>
</mgrwt>
</event>
<event>
 6    1  0.4241465E-002  0.1266376E+03  0.7546771E-02  0.1232532E+00
         21   -1    0    0  503  502  0.00000000000E+00  0.00000000000E+00  0.46976013095E+03  0.46976013095E+03  0.00000000000E+00 0.  1.
         21   -1    0    0  504  503 -0.00000000000E+00 -0.00000000000E+00 -0.48141524275E+02  0.48141524275E+02  0.00000000000E+00 0. -1.
         25    2    1    2    0    0 -0.16909957465E+02  0.11213385228E+02  0.35869820946E+02  0.13161961790E+03  0.12500157235E+03 0.  0.
          5    1    3    3  501    0  0.49134725545E+02  0.12696923296E+02 -0.92973799245E+01  0.51593452967E+02  0.10000000000E+00 0.  1.
         -5    1    3    3    0  501 -0.66044683010E+02 -0.14835380682E+01  0.45167200870E+02  0.80026164931E+02  0.10000000000E+00 0.  1.
         21    1    1    2  504  502  0.16909957465E+02 -0.11213385228E+02  0.38574878573E+03  0.38628203733E+03  0.00000000000E+00 0.  1.
<mgrwt>
<rscale>  1 0.12663759E+03</rscale>
<asrwt>0</asrwt>
<pdfrwt beam="1">  1       21 0.72270786E-01 0.12663759E+03</pdfrwt>
<pdfrwt beam="2">  1       21 0.74063887E-02 0.12663759E+03</pdfrwt>
<totfact> 0.24105931E+05</totfact>
</mgrwt>
</event>
<event>
 6    1  0.4241465E-002  0.1422959E+03  0.7546771E-02  0.1210273E+00
         21   -1    0    0  504  502  0.00000000000E+00  0.00000000000E+00  0.15029706982E+03  0.15029706982E+03  0.00000000000E+00 0.  1.
         21   -1    0    0  502  503 -0.00000000000E+00 -0.00000000000E+00 -0.14993992760E+03  0.14993992760E+03  0.00000000000E+00 0.  1.
         25    2    1    2    0    0 -0.44070915150E+02 -0.51792062903E+02 -0.10359855042E+03  0.17601361244E+03  0.12499387495E+03 0.  0.
          5    1    3    3  501    0 -0.59920090305E+02 -0.82501198907E+02 -0.97193985542E+02  0.14086712132E+03  0.10000000000E+00 0.  1.
         -5    1    3    3    0  501  0.15849175156E+02  0.30709136003E+02 -0.64045648746E+01  0.35146491125E+02  0.10000000000E+00 0.  1.
         21    1    1    2  504  503  0.44070915150E+02  0.51792062903E+02  0.10395569264E+03  0.12422338497E+03  0.00000000000E+00 0.  1.
<mgrwt>
<rscale>  1 0.14229593E+03</rscale>
<asrwt>0</asrwt>
<pdfrwt beam="1">  1       21 0.23122626E-01 0.14229593E+03</pdfrwt>
<pdfrwt beam="2">  1       21 0.23067681E-01 0.14229593E+03</pdfrwt>
<totfact> 0.31337358E+05</totfact>
</mgrwt>
</event>
<event>
 6    1  0.4241465E-002  0.1271587E+03  0.7546771E-02  0.1231734E+00
         21   -1    0    0  504  502  0.00000000000E+00  0.00000000000E+00  0.24312512026E+03  0.24312512026E+03  0.00000000000E+00 0.  1.
         21   -1    0    0  502  503 -0.00000000000E+00 -0.00000000000E+00 -0.25397590014E+02  0.25397590014E+02  0.00000000000E+00 0.  1.
         25    2    1    2    0    0 -0.86763622602E+01 -0.21565837809E+02  0.14853629498E+03  0.19553098704E+03  0.12501588437E+03 0.  0.
          5    1    3    3  501    0 -0.54877530557E+02  0.16092993553E+02  0.34317269289E+02  0.66694923143E+02  0.10000000000E+00 0.  1.
         -5    1    3    3    0  501  0.46201168297E+02 -0.37658831361E+02  0.11421902569E+03  0.12883606390E+03  0.10000000000E+00 0.  1.
         21    1    1    2  504  503  0.86763622602E+01  0.21565837809E+02  0.69191235268E+02  0.72991723232E+02  0.00000000000E+00 0.  1.
<mgrwt>
<rscale>  1 0.12715870E+03</rscale>
<asrwt>0</asrwt>
<pdfrwt beam="1">  1       21 0.37403863E-01 0.12715870E+03</pdfrwt>
<pdfrwt beam="2">  1       21 0.39073217E-02 0.12715870E+03</pdfrwt>
<totfact> 0.27852288E+06</totfact>
</mgrwt>
</event>
<event>
 6    1  0.4241465E-002  0.1297168E+03  0.7546771E-02  0.1227877E+00
         21   -1    0    0  504  502  0.00000000000E+00  0.00000000000E+00  0.68984152390E+02  0.68984152390E+02  0.00000000000E+00 0. -1.
         21   -1    0    0  502  503 -0.00000000000E+00 -0.00000000000E+00 -0.97904544265E+02  0.97904544265E+02  0.00000000000E+00 0. -1.
         25    2    1    2    0    0 -0.29030403515E+02 -0.18887248112E+02 -0.21958720283E+02  0.13156225697E+03  0.12500779813E+03 0.  0.
          5    1    3    3  501    0 -0.30927037825E+02  0.43189440915E+02  0.19835360291E+02  0.56703271449E+02  0.10000000000E+00 0.  1.
         -5    1    3    3    0  501  0.18966343100E+01 -0.62076689027E+02 -0.41794080574E+02  0.74858985521E+02  0.10000000000E+00 0.  1.
         21    1    1    2  504  503  0.29030403515E+02  0.18887248112E+02 -0.69616715912E+01  0.35326439685E+02  0.00000000000E+00 0. -1.
<mgrwt>
<rscale>  1 0.12971678E+03</rscale>
<asrwt>0</asrwt>
<pdfrwt beam="1">  1       21 0.10612946E-01 0.12971678E+03</pdfrwt>
<pdfrwt beam="2">  1       21 0.15062238E-01 0.12971678E+03</pdfrwt>
<totfact> 0.28173314E+06</totfact>
</mgrwt>
</event>
<event>
 6    1  0.4241465E-002  0.1266094E+03  0.7546771E-02  0.1232575E+00
         21   -1    0    0  503  502  0.00000000000E+00  0.00000000000E+00  0.53361435162E+02  0.53361435162E+02  0.00000000000E+00 0.  1.
         21   -1    0    0  504  503 -0.00000000000E+00 -0.00000000000E+00 -0.17333103546E+03  0.17333103546E+03  0.00000000000E+00 0.  1.
         25    2    1    2    0    0 -0.18912537190E+02  0.68901332536E+01 -0.14634637199E+03  0.19351277676E+03  0.12499910471E+03 0.  0.
          5    1    3    3  501    0  0.35410282230E+00 -0.51882526552E+02 -0.25618997393E+02  0.57864194263E+02  0.10000000000E+00 0. -1.
         -5    1    3    3    0  501 -0.19266640012E+02  0.58772659806E+02 -0.12072737460E+03  0.13564858250E+03  0.10000000000E+00 0. -1.
         21    1    1    2  504  502  0.18912537190E+02 -0.68901332536E+01  0.26376771695E+02  0.33179693854E+02  0.00000000000E+00 0.  1.
<mgrwt>
<rscale>  1 0.12660938E+03</rscale>
<asrwt>0</asrwt>
<pdfrwt beam="1">  1       21 0.82094516E-02 0.12660938E+03</pdfrwt>
<pdfrwt beam="2">  1       21 0.26666313E-01 0.12660938E+03</pdfrwt>
<totfact> 0.15302839E+06</totfact>
</mgrwt>
</event>
<event>
 6    1  0.4241465E-002  0.1259448E+03  0.7546771E-02  0.1233600E+00
         21   -1    0    0  503  502  0.00000000000E+00  0.00000000000E+00  0.17530933006E+02  0.17530933006E+02  0.00000000000E+00 0.  1.
         21   -1    0    0  504  503 -0.00000000000E+00 -0.00000000000E+00 -0.31422679259E+03  0.31422679259E+03  0.00000000000E+00 0.  1.
         25    2    1    2    0    0 -0.11515361469E+02 -0.10001899345E+02 -0.28767642231E+03  0.31403791214E+03  0.12501777780E+03 0.  0.
          5    1    3    3  501    0 -0.42149861075E+02 -0.17121790180E+02 -0.27716901754E+03  0.28087798200E+03  0.10000000000E+00 0.  1.
         -5    1    3    3    0  501  0.30634499606E+02  0.71198908351E+01 -0.10507404765E+02  0.33159930134E+02  0.10000000000E+00 0.  1.
         21    1    1    2  504  502  0.11515361469E+02  0.10001899345E+02 -0.90194372782E+01  0.17719813461E+02  0.00000000000E+00 0.  1.
<mgrwt>
<rscale>  1 0.12594477E+03</rscale>
<asrwt>0</asrwt>
<pdfrwt beam="1">  1       21 0.26970666E-02 0.12594477E+03</pdfrwt>
<pdfrwt beam="2">  1       21 0.48342584E-01 0.12594477E+03</pdfrwt>
<totfact> 0.30550598E+06</totfact>
</mgrwt>
</event>
<event>
 6    1  0.4241465E-002  0.1361238E+03  0.7546771E-02  0.1218642E+00
         21   -1    0    0  504  502  0.00000000000E+00  0.00000000000E+00  0.73800569394E+03  0.73800569394E+03  0.00000000000E+00 0.  1.
         21   -1    0    0  502  503 -0.00000000000E+00 -0.00000000000E+00 -0.23649558449E+02  0.23649558449E+02  0.00000000000E+00 0.  1.
         25    2    1    2    0    0  0.48326106924E+02 -0.23851911312E+02  0.18564038249E+03  0.23020001085E+03  0.12500146840E+03 0.  0.
          5    1    3    3  501    0  0.47685888486E+02 -0.49573916807E+02  0.34626610218E+02  0.77009930032E+02  0.10000000000E+00 0.  1.
         -5    1    3    3    0  501  0.64021843733E+00  0.25722005496E+02  0.15101377227E+03  0.15319008082E+03  0.10000000000E+00 0.  1.
         21    1    1    2  504  503 -0.48326106924E+02  0.23851911312E+02  0.52871575301E+03  0.53145524154E+03  0.00000000000E+00 0.  1.
<mgrwt>
<rscale>  1 0.13612382E+03</rscale>
<asrwt>0</asrwt>
<pdfrwt beam="1">  1       21 0.11353932E+00 0.13612382E+03</pdfrwt>
<pdfrwt beam="2">  1       21 0.36383942E-02 0.13612382E+03</pdfrwt>
<totfact> 0.28227547E+05</totfact>
</mgrwt>
</event>
<event>
 6    1  0.4241465E-002  0.1271622E+03  0.7546771E-02  0.1231728E+00
         21   -1    0    0  504  502  0.00000000000E+00  0.00000000000E+00  0.12640003018E+03  0.12640003018E+03  0.00000000000E+00 0. -1.
         21   -1    0    0  502  503 -0.00000000000E+00 -0.00000000000E+00 -0.18846646396E+03  0.18846646396E+03  0.00000000000E+00 0.  1.
         25    2    1    2    0    0 -0.22225758941E+02  0.71657518111E+01 -0.16556676663E+03  0.20876441470E+03  0.12499957709E+03 0.  0.
          5    1    3    3  501    0 -0.35181053199E+02  0.47793957104E+02 -0.15330754179E+03  0.16439337337E+03  0.10000000000E+00 0.  1.
         -5    1    3    3    0  501  0.12955294259E+02 -0.40628205293E+02 -0.12259224842E+02  0.44371041326E+02  0.10000000000E+00 0.  1.
         21    1    1    2  504  503  0.22225758941E+02 -0.71657518111E+01  0.10350033286E+03  0.10610207944E+03  0.00000000000E+00 0. -1.
<mgrwt>
<rscale>  1 0.12716221E+03</rscale>
<asrwt>0</asrwt>
<pdfrwt beam="1">  1       21 0.19446159E-01 0.12716221E+03</pdfrwt>
<pdfrwt beam="2">  1       21 0.28994840E-01 0.12716221E+03</pdfrwt>
<totfact> 0.28094014E+05</totfact>
</mgrwt>
</event>
<event>
 6    1  0.4241465E-002  0.1266956E+03  0.7546771E-02  0.1232443E+00
         21   -1    0    0  504  502  0.00000000000E+00  0.00000000000E+00  0.75222094729E+02  0.75222094729E+02  0.00000000000E+00 0.  1.
         21   -1    0    0  502  503 -0.00000000000E+00 -0.00000000000E+00 -0.75778630799E+02  0.75778630799E+02  0.00000000000E+00 0.  1.
         25    2    1    2    0    0 -0.75415457896E-01  0.20662540195E+02 -0.12202893319E+02  0.12728187454E+03  0.12499927491E+03 0.  0.
          5    1    3    3  501    0 -0.52149565706E+02  0.42815227948E+02  0.62405037759E+01  0.67761898106E+02  0.10000000000E+00 0. -1.
         -5    1    3    3    0  501  0.52074150248E+02 -0.22152687753E+02 -0.18443397095E+02  0.59519976438E+02  0.10000000000E+00 0. -1.
         21    1    1    2  504  503  0.75415457896E-01 -0.20662540195E+02  0.11646357250E+02  0.23718850983E+02  0.00000000000E+00 0. -1.
<mgrwt>
<rscale>  1 0.12669556E+03</rscale>
<asrwt>0</asrwt>
<pdfrwt beam="1">  1       21 0.11572630E-01 0.12669556E+03</pdfrwt>
<pdfrwt beam="2">  1       21 0.11658251E-01 0.12669556E+03</pdfrwt>
<totfact> 0.38175172E+06</totfact>
</mgrwt>
</event>
<event>
 6    1  0.4241465E-002  0.1345972E+03  0.7546771E-02  0.1220789E+00
         21   -1    0    0  504  502  0.00000000000E+00  0.00000000000E+00  0.14844275196E+04  0.14844275196E+04  0.00000000000E+00 0.  1.
         21   -1    0    0  502  503 -0.00000000000E+00 -0.00000000000E+00 -0.10017715797E+03  0.10017715797E+03  0.00000000000E+00 0. -1.
         25    2    1    2    0    0  0.27278362651E+02  0.41809613055E+02 -0.54336997380E+02  0.14515139860E+03  0.12499706564E+03 0.  0.
          5    1    3    3  501    0  0.70489836740E+02  0.46662883529E+02 -0.13705923995E+02  0.85639384254E+02  0.10000000000E+00 0.  1.
         -5    1    3    3    0  501 -0.43211474090E+02 -0.48532704744E+01 -0.40631073385E+02  0.59512014347E+02  0.10000000000E+00 0.  1.
         21    1    1    2  504  503 -0.27278362651E+02 -0.41809613055E+02  0.14385873591E+04  0.14394532790E+04  0.00000000000E+00 0.  1.
<mgrwt>
<rscale>  1 0.13459725E+03</rscale>
<asrwt>0</asrwt>
<pdfrwt beam="1">  1       21 0.22837345E+00 0.13459725E+03</pdfrwt>
<pdfrwt beam="2">  1       21 0.15411872E-01 0.13459725E+03</pdfrwt>
<totfact> 0.35764480E+03</totfact>
</mgrwt>
</event>
<event>
 6    1  0.4241465E-002  0.1308220E+03  0.7546771E-02  0.1226241E+00
         21   -1    0    0  504  502  0.00000000000E+00  0.00000000000E+00  0.64599448620E+03  0.64599448620E+03  0.00000000000E+00 0. -1.
         21   -1    0    0  502  503 -0.00000000000E+00 -0.00000000000E+00 -0.19278342005E+02  0.19278342005E+02  0.00000000000E+00 0. -1.
         25    2    1    2    0    0 -0.10144961715E+02  0.37233276172E+02  0.21444304218E+03  0.25119753584E+03  0.12500058628E+03 0.  0.
          5    1    3    3  501    0  0.30604724923E+01  0.47957313421E+02  0.14026357321E+02  0.50060154835E+02  0.10000000000E+00 0. -1.
         -5    1    3    3    0  501 -0.13205434207E+02 -0.10724037248E+02  0.20041668486E+03  0.20113738101E+03  0.10000000000E+00 0. -1.
         21    1    1    2  504  503  0.10144961715E+02 -0.37233276172E+02  0.41227310202E+03  0.41407529237E+03  0.00000000000E+00 0. -1.
<mgrwt>
<rscale>  1 0.13082195E+03</rscale>
<asrwt>0</asrwt>
<pdfrwt beam="1">  1       21 0.99383750E-01 0.13082195E+03</pdfrwt>
<pdfrwt beam="2">  1       21 0.29658993E-02 0.13082195E+03</pdfrwt>
<totfact> 0.54303915E+05</totfact>
</mgrwt>
</event>
<event>
 6    1  0.4241465E-002  0.1265211E+03  0.7546771E-02  0.1232711E+00
         21   -1    0    0  504  502  0.00000000000E+00  0.00000000000E+00  0.39086458881E+03  0.39086458881E+03  0.00000000000E+00 0.  1.
         21   -1    0    0  502  503 -0.00000000000E+00 -0.00000000000E+00 -0.59393114519E+03  0.59393114519E+03  0.00000000000E+00 0. -1.
         25    2    1    2    0    0  0.17179422728E+02 -0.92400487951E+01 -0.58694270565E+03  0.60042428729E+03  0.12500829566E+03 0.  0.
          5    1    3    3  501    0  0.57111056955E+02  0.11048750009E+02 -0.14523048525E+03  0.15644696082E+03  0.10000000000E+00 0. -1.
         -5    1    3    3    0  501 -0.39931634227E+02 -0.20288798804E+02 -0.44171222040E+03  0.44397732647E+03  0.10000000000E+00 0. -1.
         21    1    1    2  504  503 -0.17179422728E+02  0.92400487951E+01  0.38387614927E+03  0.38437144671E+03  0.00000000000E+00 0.  1.
<mgrwt>
<rscale>  1 0.12652109E+03</rscale>
<asrwt>0</asrwt>
<pdfrwt beam="1">  1       21 0.60133014E-01 0.12652109E+03</pdfrwt>
<pdfrwt beam="2">  1       21 0.91374023E-01 0.12652109E+03</pdfrwt>
<totfact> 0.27953321E+03</totfact>
</mgrwt>
</event>
<event>
 6    1  0.4241465E-002  0.1429367E+03  0.7546771E-02  0.1209431E+00
         21   -1    0    0  503  502  0.00000000000E+00  0.00000000000E+00  0.52964641849E+02  0.52964641849E+02  0.00000000000E+00 0. -1.
         21   -1    0    0  504  503 -0.00000000000E+00 -0.00000000000E+00 -0.12215442609E+04  0.12215442609E+04  0.00000000000E+00 0. -1.
         25    2    1    2    0    0  0.23210082010E+02 -0.65323797635E+02 -0.11926042437E+04  0.12011393653E+04  0.12499994456E+03 0.  0.
          5    1    3    3  501    0  0.11514276179E+02  0.82491763950E+01 -0.86723289370E+03  0.86734856280E+03  0.10000000000E+00 0. -1.
         -5    1    3    3    0  501  0.11695805831E+02 -0.73572974030E+02 -0.32537135004E+03  0.33379080247E+03  0.10000000000E+00 0. -1.
         21    1    1    2  504  502 -0.23210082010E+02  0.65323797635E+02  0.24024624669E+02  0.73369537513E+02  0.00000000000E+00 0. -1.
<mgrwt>
<rscale>  1 0.14293667E+03</rscale>
<asrwt>0</asrwt>
<pdfrwt beam="1">  1       21 0.81484072E-02 0.14293667E+03</pdfrwt>
<pdfrwt beam="2">  1       21 0.18792987E+00 0.14293667E+03</pdfrwt>
<totfact> 0.19469206E+04</totfact>
</mgrwt>
</event>
<event>
 6    1  0.4241465E-002  0.1373106E+03  0.7546771E-02  0.1216994E+00
         21   -1    0    0  504  502  0.00000000000E+00  0.00000000000E+00  0.30215596093E+03  0.30215596093E+03  0.00000000000E+00 0.  1.
         21   -1    0    0  502  503 -0.00000000000E+00 -0.00000000000E+00 -0.42442951873E+02  0.42442951873E+02  0.00000000000E+00 0.  1.
         25    2    1    2    0    0  0.56471137986E+02 -0.63462854471E+01  0.86458491354E+02  0.16226297924E+03  0.12499975576E+03 0.  0.
          5    1    3    3  501    0 -0.30090982889E+02  0.28146319289E+02  0.11793280849E+02  0.42857601588E+02  0.10000000000E+00 0.  1.
         -5    1    3    3    0  501  0.86562120875E+02 -0.34492604736E+02  0.74665210505E+02  0.11940537765E+03  0.10000000000E+00 0.  1.
         21    1    1    2  504  503 -0.56471137986E+02  0.63462854471E+01  0.17325451770E+03  0.18233593357E+03  0.00000000000E+00 0.  1.
<mgrwt>
<rscale>  1 0.13731061E+03</rscale>
<asrwt>0</asrwt>
<pdfrwt beam="1">  1       21 0.46485531E-01 0.13731061E+03</pdfrwt>
<pdfrwt beam="2">  1       21 0.65296851E-02 0.13731061E+03</pdfrwt>
<totfact> 0.75924625E+05</totfact>
</mgrwt>
</event>
<event>
 6    1  0.4241465E-002  0.2268896E+03  0.7546771E-02  0.1128848E+00
         21   -1    0    0  503  502  0.00000000000E+00  0.00000000000E+00  0.46381876673E+03  0.46381876673E+03  0.00000000000E+00 0.  1.
         21   -1    0    0  504  503 -0.00000000000E+00 -0.00000000000E+00 -0.13535587433E+03  0.13535587433E+03  0.00000000000E+00 0.  1.
         25    2    1    2    0    0  0.18859132512E+03 -0.16904617531E+02  0.80939315787E+01  0.22703390819E+03  0.12500571882E+03 0.  0.
          5    1    3    3  501    0  0.12603760206E+03 -0.69455789476E+02  0.16743556208E+02  0.14487905473E+03  0.10000000000E+00 0. -1.
         -5    1    3    3    0  501  0.62553723053E+02  0.52551171945E+02 -0.86496246295E+01  0.82154853459E+02  0.10000000000E+00 0. -1.
         21    1    1    2  504  502 -0.18859132512E+03  0.16904617531E+02  0.32036896083E+03  0.37214073287E+03  0.00000000000E+00 0.  1.
<mgrwt>
<rscale>  1 0.22688958E+03</rscale>
<asrwt>0</asrwt>
<pdfrwt beam="1">  1       21 0.71356732E-01 0.22688958E+03</pdfrwt>
<pdfrwt beam="2">  1       21 0.20823981E-01 0.22688958E+03</pdfrwt>
<totfact> 0.37357529E+04</totfact>
</mgrwt>
</event>
<event>
 6    1  0.4241465E-002  0.1259063E+03  0.7546771E-02  0.1233660E+00
         21   -1    0    0  504  502  0.00000000000E+00  0.00000000000E+00  0.22020466954E+02  0.22020466954E+02  0.00000000000E+00 0. -1.
         21   -1    0    0  502  503 -0.00000000000E+00 -0.00000000000E+00 -0.25708635915E+03  0.25708635915E+03  0.00000000000E+00 0. -1.
         25    2    1    2    0    0  0.72252215803E+01  0.13175936785E+02 -0.23171253014E+03  0.26371026239E+03  0.12500638675E+03 0.  0.
          5    1    3    3  501    0  0.65389705546E+02  0.16443084125E+02 -0.13212950733E+03  0.14833881931E+03  0.10000000000E+00 0.  1.
         -5    1    3    3    0  501 -0.58164483965E+02 -0.32671473396E+01 -0.99583022815E+02  0.11537144309E+03  0.10000000000E+00 0.  1.
         21    1    1    2  504  503 -0.72252215803E+01 -0.13175936785E+02 -0.33533620539E+01  0.15396563712E+02  0.00000000000E+00 0. -1.
<mgrwt>
<rscale>  1 0.12590634E+03</rscale>
<asrwt>0</asrwt>
<pdfrwt beam="1">  1       21 0.33877641E-02 0.12590634E+03</pdfrwt>
<pdfrwt beam="2">  1       21 0.39551748E-01 0.12590634E+03</pdfrwt>
<totfact> 0.31547770E+06</totfact>
</mgrwt>
</event>
<event>
 6    1  0.4241465E-002  0.1589851E+03  0.7546771E-02  0.1189847E+00
         21   -1    0    0  504  502  0.00000000000E+00  0.00000000000E+00  0.12289098916E+04  0.12289098916E+04  0.00000000000E+00 0. -1.
         21   -1    0    0  502  503 -0.00000000000E+00 -0.00000000000E+00 -0.13917501378E+02  0.13917501378E+02  0.00000000000E+00 0. -1.
         25    2    1    2    0    0 -0.41774056147E+02  0.88916684285E+02  0.63667139687E+03  0.65622154587E+03  0.12500000464E+03 0.  0.
          5    1    3    3  501    0 -0.14350800373E+02  0.11769713801E+03  0.50147593642E+03  0.51530251947E+03  0.10000000000E+00 0. -1.
         -5    1    3    3    0  501 -0.27423255774E+02 -0.28780453728E+02  0.13519546045E+03  0.14091902640E+03  0.10000000000E+00 0. -1.
         21    1    1    2  504  503  0.41774056147E+02 -0.88916684285E+02  0.57832099339E+03  0.58660584715E+03  0.00000000000E+00 0. -1.
<mgrwt>
<rscale>  1 0.15898506E+03</rscale>
<asrwt>0</asrwt>
<pdfrwt beam="1">  1       21 0.18906297E+00 0.15898506E+03</pdfrwt>
<pdfrwt beam="2">  1       21 0.21411550E-02 0.15898506E+03</pdfrwt>
<totfact> 0.17721852E+05</totfact>
</mgrwt>
</event>
<event>
 6    1  0.4241465E-002  0.1270446E+03  0.7546771E-02  0.1231908E+00
         21   -1    0    0  503  502  0.00000000000E+00  0.00000000000E+00  0.39318244903E+01  0.39318244903E+01  0.00000000000E+00 0.  1.
         21   -1    0    0  504  503 -0.00000000000E+00 -0.00000000000E+00 -0.16780824469E+04  0.16780824469E+04  0.00000000000E+00 0.  1.
         25    2    1    2    0    0  0.19390551880E+02  0.11820408140E+02 -0.15825240624E+04  0.15876154258E+04  0.12499846635E+03 0.  0.
          5    1    3    3  501    0  0.70102201940E+01  0.30211588910E+02 -0.15334748458E+04  0.15337884456E+04  0.10000000000E+00 0. -1.
         -5    1    3    3    0  501  0.12380331686E+02 -0.18391180770E+02 -0.49049216593E+02  0.53826980142E+02  0.10000000000E+00 0. -1.
         21    1    1    2  504  502 -0.19390551880E+02 -0.11820408140E+02 -0.91626560000E+02  0.94398845588E+02  0.00000000000E+00 0.  1.
<mgrwt>
<rscale>  1 0.12704461E+03</rscale>
<asrwt>0</asrwt>
<pdfrwt beam="1">  1       21 0.60489492E-03 0.12704461E+03</pdfrwt>
<pdfrwt beam="2">  1       21 0.25816702E+00 0.12704461E+03</pdfrwt>
<totfact> 0.51285085E+05</totfact>
</mgrwt>
</event>
<event>
 6    1  0.4241465E-002  0.1268897E+03  0.7546771E-02  0.1232145E+00
         21   -1    0    0  504  502  0.00000000000E+00  0.00000000000E+00  0.22246201717E+03  0.22246201717E+03  0.00000000000E+00 0. -1.
         21   -1    0    0  502  503 -0.00000000000E+00 -0.00000000000E+00 -0.43929520370E+02  0.43929520370E+02  0.00000000000E+00 0. -1.
         25    2    1    2    0    0  0.93154123572E+01 -0.19715921382E+02  0.50588027855E+02  0.13660216356E+03  0.12500203224E+03 0.  0.
          5    1    3    3  501    0  0.60749310523E+02  0.38760967210E+01  0.26115924478E+00  0.60873484038E+02  0.10000000000E+00 0. -1.
         -5    1    3    3    0  501 -0.51433898165E+02 -0.23592018103E+02  0.50326868610E+02  0.75728679526E+02  0.10000000000E+00 0. -1.
         21    1    1    2  504  503 -0.93154123572E+01  0.19715921382E+02  0.12794446895E+03  0.12978937398E+03  0.00000000000E+00 0. -1.
<mgrwt>
<rscale>  1 0.12688973E+03</rscale>
<asrwt>0</asrwt>
<pdfrwt beam="1">  1       21 0.34224925E-01 0.12688973E+03</pdfrwt>
<pdfrwt beam="2">  1       21 0.67583879E-02 0.12688973E+03</pdfrwt>
<totfact> 0.13200967E+06</totfact>
</mgrwt>
</event>
<event>
 6    1  0.4241465E-002  0.1296316E+03  0.7546771E-02  0.1228003E+00
         21   -1    0    0  503  502  0.00000000000E+00  0.00000000000E+00  0.13510849746E+04  0.13510849746E+04  0.00000000000E+00 0. -1.
         21   -1    0    0  504  503 -0.00000000000E+00 -0.00000000000E+00 -0.53013341501E+01  0.53013341501E+01  0.00000000000E+00 0. -1.
         25    2    1    2    0    0  0.24286740693E+02 -0.24276058591E+02  0.90079768980E+03  0.91007736970E+03  0.12500067243E+03 0.  0.
          5    1    3    3  501    0  0.99085396974E+00  0.39288654480E+02  0.11831841496E+03  0.12467492723E+03  0.10000000000E+00 0. -1.
         -5    1    3    3    0  501  0.23295886723E+02 -0.63564713071E+02  0.78247927484E+03  0.78540244247E+03  0.10000000000E+00 0. -1.
         21    1    1    2  504  502 -0.24286740693E+02  0.24276058591E+02  0.44498595065E+03  0.44630893904E+03  0.00000000000E+00 0. -1.
<mgrwt>
<rscale>  1 0.12963156E+03</rscale>
<asrwt>0</asrwt>
<pdfrwt beam="1">  1       21 0.20785895E+00 0.12963156E+03</pdfrwt>
<pdfrwt beam="2">  1       21 0.81559095E-03 0.12963156E+03</pdfrwt>
<totfact> 0.63545880E+05</totfact>
</mgrwt>
</event>
<event>
 6    1  0.4241465E-002  0.1524858E+03  0.7546771E-02  0.1197451E+00
         21   -1    0    0  503  502  0.00000000000E+00  0.00000000000E+00  0.56992813043E+03  0.56992813043E+03  0.00000000000E+00 0. -1.
         21   -1    0    0  504  503 -0.00000000000E+00 -0.00000000000E+00 -0.23583310714E+03  0.23583310714E+03  0.00000000000E+00 0.  1.
         25    2    1    2    0    0 -0.11693413878E+02 -0.86507907823E+02 -0.20731733565E+03  0.25735655447E+03  0.12502625493E+03 0.  0.
          5    1    3    3  501    0 -0.54844140989E+02 -0.89752745316E+02 -0.17148991036E+03  0.20117712208E+03  0.10000000000E+00 0.  1.
         -5    1    3    3    0  501  0.43150727111E+02  0.32448374921E+01 -0.35827425294E+02  0.56179432391E+02  0.10000000000E+00 0.  1.
         21    1    1    2  504  502  0.11693413878E+02  0.86507907823E+02  0.54141235893E+03  0.54840468311E+03  0.00000000000E+00 0. -1.
<mgrwt>
<rscale>  1 0.15248580E+03</rscale>
<asrwt>0</asrwt>
<pdfrwt beam="1">  1       21 0.87681251E-01 0.15248580E+03</pdfrwt>
<pdfrwt beam="2">  1       21 0.36282017E-01 0.15248580E+03</pdfrwt>
<totfact> 0.84309101E+03</totfact>
</mgrwt>
</event>
<event>
 6    1  0.4241465E-002  0.1344504E+03  0.7546771E-02  0.1220998E+00
         21   -1    0    0  503  502  0.00000000000E+00  0.00000000000E+00  0.12660593533E+03  0.12660593533E+03  0.00000000000E+00 0. -1.
         21   -1    0    0  504  503 -0.00000000000E+00 -0.00000000000E+00 -0.93670942654E+02  0.93670942654E+02  0.00000000000E+00 0. -1.
         25    2    1    2    0    0  0.28587950460E+02  0.40421320811E+02 -0.32403074995E+02  0.13829994724E+03  0.12500304816E+03 0.  0.
          5    1    3    3  501    0  0.90096962923E+01  0.84475577525E+02 -0.29767972145E+02  0.90019109033E+02  0.10000000000E+00 0.  1.
         -5    1    3    3    0  501  0.19578254168E+02 -0.44054256714E+02 -0.26351028498E+01  0.48280838206E+02  0.10000000000E+00 0.  1.
         21    1    1    2  504  502 -0.28587950460E+02 -0.40421320811E+02  0.65338067674E+02  0.81976930749E+02  0.00000000000E+00 0. -1.
<mgrwt>
<rscale>  1 0.13445042E+03</rscale>
<asrwt>0</asrwt>
<pdfrwt beam="1">  1       21 0.19477836E-01 0.13445042E+03</pdfrwt>
<pdfrwt beam="2">  1       21 0.14410914E-01 0.13445042E+03</pdfrwt>
<totfact> 0.10243019E+06</totfact>
</mgrwt>
</event>
<event>
 6    1  0.4241465E-002  0.1262159E+03  0.7546771E-02  0.1233181E+00
         21   -1    0    0  503  502  0.00000000000E+00  0.00000000000E+00  0.14580811243E+02  0.14580811243E+02  0.00000000000E+00 0. -1.
         21   -1    0    0  504  503 -0.00000000000E+00 -0.00000000000E+00 -0.45965773379E+03  0.45965773379E+03  0.00000000000E+00 0. -1.
         25    2    1    2    0    0  0.15237679733E+02 -0.85024619691E+01 -0.43727178241E+03  0.45512313356E+03  0.12500390502E+03 0.  0.
          5    1    3    3  501    0 -0.77505739681E+01  0.12803601724E+02  0.16733690203E+01  0.15060337905E+02  0.10000000000E+00 0.  1.
         -5    1    3    3    0  501  0.22988253701E+02 -0.21306063693E+02 -0.43894515143E+03  0.44006279565E+03  0.10000000000E+00 0.  1.
         21    1    1    2  504  502 -0.15237679733E+02  0.85024619691E+01 -0.78051401414E+01  0.19115411474E+02  0.00000000000E+00 0. -1.
<mgrwt>
<rscale>  1 0.12621591E+03</rscale>
<asrwt>0</asrwt>
<pdfrwt beam="1">  1       21 0.22432019E-02 0.12621591E+03</pdfrwt>
<pdfrwt beam="2">  1       21 0.70716568E-01 0.12621591E+03</pdfrwt>
<totfact> 0.18444300E+06</totfact>
</mgrwt>
</event>
<event>
 6    1  0.4241465E-002  0.1292739E+03  0.7546771E-02  0.1228537E+00
         21   -1    0    0  504  502  0.00000000000E+00  0.00000000000E+00  0.16571225573E+03  0.16571225573E+03  0.00000000000E+00 0. -1.
         21   -1    0    0  502  503 -0.00000000000E+00 -0.00000000000E+00 -0.74545754227E+02  0.74545754227E+02  0.00000000000E+00 0. -1.
         25    2    1    2    0    0  0.36226375781E+01  0.32767520185E+02 -0.14014726303E+02  0.13003131371E+03  0.12499958444E+03 0.  0.
          5    1    3    3  501    0 -0.32715329511E+02 -0.30663641634E+02 -0.31585189538E+02  0.54846931559E+02  0.10000000000E+00 0.  1.
         -5    1    3    3    0  501  0.36337967090E+02  0.63431161818E+02  0.17570463235E+02  0.75184382156E+02  0.10000000000E+00 0.  1.
         21    1    1    2  504  503 -0.36226375781E+01 -0.32767520185E+02  0.10518122781E+03  0.11022669625E+03  0.00000000000E+00 0. -1.
<mgrwt>
<rscale>  1 0.12927386E+03</rscale>
<asrwt>0</asrwt>
<pdfrwt beam="1">  1       21 0.25494193E-01 0.12927386E+03</pdfrwt>
<pdfrwt beam="2">  1       21 0.11468578E-01 0.12927386E+03</pdfrwt>
<totfact> 0.93003084E+05</totfact>
</mgrwt>
</event>
<event>
 6    1  0.4241465E-002  0.1269897E+03  0.7546771E-02  0.1231992E+00
         21   -1    0    0  504  502  0.00000000000E+00  0.00000000000E+00  0.10670553932E+03  0.10670553932E+03  0.00000000000E+00 0.  1.
         21   -1    0    0  502  503 -0.00000000000E+00 -0.00000000000E+00 -0.15328900922E+03  0.15328900922E+03  0.00000000000E+00 0. -1.
         25    2    1    2    0    0  0.20273230224E+02 -0.93254153038E+01 -0.12516560863E+03  0.17830538303E+03  0.12501365045E+03 0.  0.
          5    1    3    3  501    0  0.40656002338E+02  0.20508145009E+02 -0.13364701619E+03  0.14119146389E+03  0.10000000000E+00 0. -1.
         -5    1    3    3    0  501 -0.20382772114E+02 -0.29833560313E+02  0.84814075568E+01  0.37113919143E+02  0.10000000000E+00 0. -1.
         21    1    1    2  504  503 -0.20273230224E+02  0.93254153038E+01  0.78582138737E+02  0.81689165517E+02  0.00000000000E+00 0.  1.
<mgrwt>
<rscale>  1 0.12698968E+03</rscale>
<asrwt>0</asrwt>
<pdfrwt beam="1">  1       21 0.16416237E-01 0.12698968E+03</pdfrwt>
<pdfrwt beam="2">  1       21 0.23582924E-01 0.12698968E+03</pdfrwt>
<totfact> 0.56687878E+05</totfact>
</mgrwt>
</event>
<event>
 6    1  0.4241465E-002  0.1307223E+03  0.7546771E-02  0.1226388E+00
         21   -1    0    0  503  502  0.00000000000E+00  0.00000000000E+00  0.38330938268E+02  0.38330938268E+02  0.00000000000E+00 0. -1.
         21   -1    0    0  504  503 -0.00000000000E+00 -0.00000000000E+00 -0.23354173243E+03  0.23354173243E+03  0.00000000000E+00 0. -1.
         25    2    1    2    0    0 -0.55122145130E+01  0.37844523371E+02 -0.19359266458E+03  0.23359459863E+03  0.12500289705E+03 0.  0.
          5    1    3    3  501    0  0.30882936582E+01  0.76124742457E+02 -0.68361472404E+02  0.10236119812E+03  0.10000000000E+00 0. -1.
         -5    1    3    3    0  501 -0.86005081712E+01 -0.38280219085E+02 -0.12523119218E+03  0.13123340050E+03  0.10000000000E+00 0. -1.
         21    1    1    2  504  502  0.55122145130E+01 -0.37844523371E+02 -0.16181295807E+01  0.38278072070E+02  0.00000000000E+00 0. -1.
<mgrwt>
<rscale>  1 0.13072229E+03</rscale>
<asrwt>0</asrwt>
<pdfrwt beam="1">  1       21 0.58970675E-02 0.13072229E+03</pdfrwt>
<pdfrwt beam="2">  1       21 0.35929497E-01 0.13072229E+03</pdfrwt>
<totfact> 0.15137267E+06</totfact>
</mgrwt>
</event>
<event>
 6    1  0.4241465E-002  0.1270737E+03  0.7546771E-02  0.1231864E+00
         21   -1    0    0  504  502  0.00000000000E+00  0.00000000000E+00  0.69339314147E+01  0.69339314147E+01  0.00000000000E+00 0.  1.
         21   -1    0    0  502  503 -0.00000000000E+00 -0.00000000000E+00 -0.11027387645E+04  0.11027387645E+04  0.00000000000E+00 0.  1.
         25    2    1    2    0    0  0.13359296956E+02 -0.18556941641E+02 -0.59845146801E+03  0.61179399517E+03  0.12499960828E+03 0.  0.
          5    1    3    3  501    0  0.28756627229E+02  0.48658782508E+02 -0.31840575652E+03  0.32338345119E+03  0.10000000000E+00 0.  1.
         -5    1    3    3    0  501 -0.15397330273E+02 -0.67215724149E+02 -0.28004571149E+03  0.28841054398E+03  0.10000000000E+00 0.  1.
         21    1    1    2  504  503 -0.13359296956E+02  0.18556941641E+02 -0.49735336508E+03  0.49787870074E+03  0.00000000000E+00 0.  1.
<mgrwt>
<rscale>  1 0.12707373E+03</rscale>
<asrwt>0</asrwt>
<pdfrwt beam="1">  1       21 0.10667582E-02 0.12707373E+03</pdfrwt>
<pdfrwt beam="2">  1       21 0.16965219E+00 0.12707373E+03</pdfrwt>
<totfact> 0.73904050E+05</totfact>
</mgrwt>
</event>
<event>
 6    1  0.4241465E-002  0.1319253E+03  0.7546771E-02  0.1224627E+00
         21   -1    0    0  503  502  0.00000000000E+00  0.00000000000E+00  0.16463821946E+02  0.16463821946E+02  0.00000000000E+00 0. -1.
         21   -1    0    0  504  503 -0.00000000000E+00 -0.00000000000E+00 -0.72916104401E+03  0.72916104401E+03  0.00000000000E+00 0. -1.
         25    2    1    2    0    0  0.42026567837E+02 -0.36415082610E+01 -0.67882265910E+03  0.69152330403E+03  0.12499913810E+03 0.  0.
          5    1    3    3  501    0 -0.17199778049E+02  0.43190082700E+02 -0.14198873948E+03  0.14940558138E+03  0.10000000000E+00 0.  1.
         -5    1    3    3    0  501  0.59226345886E+02 -0.46831590961E+02 -0.53683391962E+03  0.54211772266E+03  0.10000000000E+00 0.  1.
         21    1    1    2  504  502 -0.42026567837E+02  0.36415082610E+01 -0.33874562966E+02  0.54101561925E+02  0.00000000000E+00 0. -1.
<mgrwt>
<rscale>  1 0.13192527E+03</rscale>
<asrwt>0</asrwt>
<pdfrwt beam="1">  1       21 0.25328958E-02 0.13192527E+03</pdfrwt>
<pdfrwt beam="2">  1       21 0.11217862E+00 0.13192527E+03</pdfrwt>
<totfact> 0.52721443E+05</totfact>
</mgrwt>
</event>
<event>
 6    1  0.4241465E-002  0.1259607E+03  0.7546771E-02  0.1233575E+00
         21   -1    0    0  504  502  0.00000000000E+00  0.00000000000E+00  0.12768951068E+02  0.12768951068E+02  0.00000000000E+00 0. -1.
         21   -1    0    0  502  503 -0.00000000000E+00 -0.00000000000E+00 -0.40967813315E+03  0.40967813315E+03  0.00000000000E+00 0. -1.
         25    2    1    2    0    0 -0.12804632760E+02 -0.88069845019E+01 -0.37497075085E+03  0.39556183992E+03  0.12499833443E+03 0.  0.
          5    1    3    3  501    0 -0.53103997903E+02 -0.40271312980E+02 -0.13948178851E+03  0.15458652131E+03  0.10000000000E+00 0.  1.
         -5    1    3    3    0  501  0.40299365143E+02  0.31464328478E+02 -0.23548896234E+03  0.24097531861E+03  0.10000000000E+00 0.  1.
         21    1    1    2  504  503  0.12804632760E+02  0.88069845019E+01 -0.21938431225E+02  0.26885244294E+02  0.00000000000E+00 0. -1.
<mgrwt>
<rscale>  1 0.12596073E+03</rscale>
<asrwt>0</asrwt>
<pdfrwt beam="1">  1       21 0.19644539E-02 0.12596073E+03</pdfrwt>
<pdfrwt beam="2">  1       21 0.63027409E-01 0.12596073E+03</pdfrwt>
<totfact> 0.29308100E+06</totfact>
</mgrwt>
</event>
<event>
 6    1  0.4241465E-002  0.1269458E+03  0.7546771E-02  0.1232059E+00
         21   -1    0    0  504  502  0.00000000000E+00  0.00000000000E+00  0.76442384462E+02  0.76442384462E+02  0.00000000000E+00 0. -1.
         21   -1    0    0  502  503 -0.00000000000E+00 -0.00000000000E+00 -0.10099084984E+03  0.10099084984E+03  0.00000000000E+00 0. -1.
         25    2    1    2    0    0  0.85442543190E+00  0.22115327819E+02 -0.56185135518E+02  0.13882369320E+03  0.12500172228E+03 0.  0.
          5    1    3    3  501    0  0.47006695481E+01 -0.36516644459E+02 -0.69432881952E+02  0.78590691007E+02  0.10000000000E+00 0. -1.
         -5    1    3    3    0  501 -0.38462441162E+01  0.58631972279E+02  0.13247746434E+02  0.60233002189E+02  0.10000000000E+00 0. -1.
         21    1    1    2  504  503 -0.85442543190E+00 -0.22115327819E+02  0.31636670137E+02  0.38609541110E+02  0.00000000000E+00 0. -1.
<mgrwt>
<rscale>  1 0.12694585E+03</rscale>
<asrwt>0</asrwt>
<pdfrwt beam="1">  1       21 0.11760367E-01 0.12694585E+03</pdfrwt>
<pdfrwt beam="2">  1       21 0.15537054E-01 0.12694585E+03</pdfrwt>
<totfact> 0.22212835E+06</totfact>
</mgrwt>
</event>
<event>
 6    1  0.4241465E-002  0.1259367E+03  0.7546771E-02  0.1233613E+00
         21   -1    0    0  503  502  0.00000000000E+00  0.00000000000E+00  0.26206821755E+02  0.26206821755E+02  0.00000000000E+00 0. -1.
         21   -1    0    0  504  503 -0.00000000000E+00 -0.00000000000E+00 -0.29203508465E+03  0.29203508465E+03  0.00000000000E+00 0. -1.
         25    2    1    2    0    0  0.12407112210E+02  0.87422378901E+01 -0.27359816740E+03  0.30119096589E+03  0.12501870889E+03 0.  0.
          5    1    3    3  501    0  0.52386544772E+01 -0.30424519477E+02 -0.70264369569E+01  0.31661896697E+02  0.10000000000E+00 0.  1.
         -5    1    3    3    0  501  0.71684577332E+01  0.39166757367E+02 -0.26657173044E+03  0.26952906919E+03  0.10000000000E+00 0.  1.
         21    1    1    2  504  502 -0.12407112210E+02 -0.87422378901E+01  0.77699044994E+01  0.17050940521E+02  0.00000000000E+00 0. -1.
<mgrwt>
<rscale>  1 0.12593665E+03</rscale>
<asrwt>0</asrwt>
<pdfrwt beam="1">  1       21 0.40318186E-02 0.12593665E+03</pdfrwt>
<pdfrwt beam="2">  1       21 0.44928476E-01 0.12593665E+03</pdfrwt>
<totfact> 0.18303642E+06</totfact>
</mgrwt>
</event>
<event>
 6    1  0.4241465E-002  0.1265141E+03  0.7546771E-02  0.1232722E+00
         21   -1    0    0  504  502  0.00000000000E+00  0.00000000000E+00  0.12295847576E+03  0.12295847576E+03  0.00000000000E+00 0. -1.
         21   -1    0    0  502  503 -0.00000000000E+00 -0.00000000000E+00 -0.16638949773E+03  0.16638949773E+03  0.00000000000E+00 0. -1.
         25    2    1    2    0    0  0.18735680493E+02  0.53999854422E+01 -0.14123859025E+03  0.18961580226E+03  0.12500251008E+03 0.  0.
          5    1    3    3  501    0 -0.86032339626E+01 -0.16294552401E+02 -0.15198489307E+03  0.15309783079E+03  0.10000000000E+00 0.  1.
         -5    1    3    3    0  501  0.27338914456E+02  0.21694537843E+02  0.10746302819E+02  0.36517971468E+02  0.10000000000E+00 0.  1.
         21    1    1    2  504  503 -0.18735680493E+02 -0.53999854422E+01  0.97807568281E+02  0.99732171236E+02  0.00000000000E+00 0. -1.
<mgrwt>
<rscale>  1 0.12651408E+03</rscale>
<asrwt>0</asrwt>
<pdfrwt beam="1">  1       21 0.18916689E-01 0.12651408E+03</pdfrwt>
<pdfrwt beam="2">  1       21 0.25598384E-01 0.12651408E+03</pdfrwt>
<totfact> 0.37489263E+05</totfact>
</mgrwt>
</event>
<event>
 6    1  0.4241465E-002  0.1260755E+03  0.7546771E-02  0.1233398E+00
         21   -1    0    0  503  502  0.00000000000E+00  0.00000000000E+00  0.16753127890E+03  0.16753127890E+03  0.00000000000E+00 0.  1.
         21   -1    0    0  504  503 -0.00000000000E+00 -0.00000000000E+00 -0.20272699132E+03  0.20272699132E+03  0.00000000000E+00 0. -1.
         25    2    1    2    0    0  0.10164756700E+02 -0.12926195334E+02 -0.18262404811E+03  0.22191568373E+03  0.12499847572E+03 0.  0.
          5    1    3    3  501    0 -0.46776189331E+02  0.25386476145E+02 -0.52258910037E+02  0.74588797669E+02  0.10000000000E+00 0.  1.
         -5    1    3    3    0  501  0.56940946031E+02 -0.38312671479E+02 -0.13036513808E+03  0.14732688606E+03  0.10000000000E+00 0.  1.
         21    1    1    2  504  502 -0.10164756700E+02  0.12926195334E+02  0.14742833569E+03  0.14834258650E+03  0.00000000000E+00 0.  1.
<mgrwt>
<rscale>  1 0.12607548E+03</rscale>
<asrwt>0</asrwt>
<pdfrwt beam="1">  1       21 0.25774043E-01 0.12607548E+03</pdfrwt>
<pdfrwt beam="2">  1       21 0.31188768E-01 0.12607548E+03</pdfrwt>
<totfact> 0.14423024E+05</totfact>
</mgrwt>
</event>
<event>
 6    1  0.4241465E-002  0.1320514E+03  0.7546771E-02  0.1224443E+00
         21   -1    0    0  503  502  0.00000000000E+00  0.00000000000E+00  0.20325220237E+03  0.20325220237E+03  0.00000000000E+00 0. -1.
         21   -1    0    0  504  503 -0.00000000000E+00 -0.00000000000E+00 -0.37603401843E+02  0.37603401843E+02  0.00000000000E+00 0. -1.
         25    2    1    2    0    0  0.38579229882E+02  0.18137935803E+02  0.12965737276E+03  0.18506380763E+03  0.12498094611E+03 0.  0.
          5    1    3    3  501    0  0.71609602280E+02 -0.23101720553E+02  0.97692596785E+02  0.12331049468E+03  0.10000000000E+00 0.  1.
         -5    1    3    3    0  501 -0.33030372398E+02  0.41239656356E+02  0.31964775972E+02  0.61753312948E+02  0.10000000000E+00 0.  1.
         21    1    1    2  504  502 -0.38579229882E+02 -0.18137935803E+02  0.35991427771E+02  0.55791796588E+02  0.00000000000E+00 0. -1.
<mgrwt>
<rscale>  1 0.13205142E+03</rscale>
<asrwt>0</asrwt>
<pdfrwt beam="1">  1       21 0.31269569E-01 0.13205142E+03</pdfrwt>
<pdfrwt beam="2">  1       21 0.57851388E-02 0.13205142E+03</pdfrwt>
<totfact> 0.20521124E+06</totfact>
</mgrwt>
</event>
<event>
 6    1  0.4241465E-002  0.1674375E+03  0.7546771E-02  0.1180547E+00
         21   -1    0    0  504  502  0.00000000000E+00  0.00000000000E+00  0.13370613049E+03  0.13370613049E+03  0.00000000000E+00 0. -1.
         21   -1    0    0  502  503 -0.00000000000E+00 -0.00000000000E+00 -0.15538337186E+03  0.15538337186E+03  0.00000000000E+00 0. -1.
         25    2    1    2    0    0 -0.10338610742E+03 -0.41514423274E+02  0.23089505628E+02  0.16902203722E+03  0.12499275678E+03 0.  0.
          5    1    3    3  501    0  0.19702954105E+02 -0.23523089486E+01  0.34027775617E+02  0.39390852635E+02  0.10000000000E+00 0.  1.
         -5    1    3    3    0  501 -0.12308906153E+03 -0.39162114325E+02 -0.10938269989E+02  0.12963118458E+03  0.10000000000E+00 0.  1.
         21    1    1    2  504  503  0.10338610742E+03  0.41514423274E+02 -0.44766746993E+02  0.12006746513E+03  0.00000000000E+00 0. -1.
<mgrwt>
<rscale>  1 0.16743752E+03</rscale>
<asrwt>0</asrwt>
<pdfrwt beam="1">  1       21 0.20570174E-01 0.16743752E+03</pdfrwt>
<pdfrwt beam="2">  1       21 0.23905134E-01 0.16743752E+03</pdfrwt>
<totfact> 0.36315431E+05</totfact>
</mgrwt>
</event>
<event>
 6    1  0.4241465E-002  0.1378596E+03  0.7546771E-02  0.1216238E+00
         21   -1    0    0  504  502  0.00000000000E+00  0.00000000000E+00  0.94825249682E+02  0.94825249682E+02  0.00000000000E+00 0.  1.
         21   -1    0    0  502  503 -0.00000000000E+00 -0.00000000000E+00 -0.21787895558E+03  0.21787895558E+03  0.00000000000E+00 0.  1.
         25    2    1    2    0    0  0.57665845144E+02 -0.74283613338E+01 -0.18305072288E+03  0.22915677984E+03  0.12499892940E+03 0.  0.
          5    1    3    3  501    0  0.31864069565E+01  0.34145019032E+02 -0.14850259439E+03  0.15241084625E+03  0.10000000000E+00 0.  1.
         -5    1    3    3    0  501  0.54479438188E+02 -0.41573380366E+02 -0.34548128488E+02  0.76745933588E+02  0.10000000000E+00 0.  1.
         21    1    1    2  504  503 -0.57665845144E+02  0.74283613338E+01  0.59997016981E+02  0.83547425424E+02  0.00000000000E+00 0.  1.
<mgrwt>
<rscale>  1 0.13785958E+03</rscale>
<asrwt>0</asrwt>
<pdfrwt beam="1">  1       21 0.14588500E-01 0.13785958E+03</pdfrwt>
<pdfrwt beam="2">  1       21 0.33519839E-01 0.13785958E+03</pdfrwt>
<totfact> 0.35735610E+05</totfact>
</mgrwt>
</event>
<event>
 6    1  0.4241465E-002  0.1289311E+03  0.7546771E-02  0.1229051E+00
         21   -1    0    0  503  502  0.00000000000E+00  0.00000000000E+00  0.44710745473E+03  0.44710745473E+03  0.00000000000E+00 0. -1.
         21   -1    0    0  504  503 -0.00000000000E+00 -0.00000000000E+00 -0.11617797639E+04  0.11617797639E+04  0.00000000000E+00 0. -1.
         25    2    1    2    0    0  0.31174940744E+02 -0.50352100707E+01 -0.11576388304E+04  0.11647964968E+04  0.12500394815E+03 0.  0.
          5    1    3    3  501    0  0.46351360691E+02 -0.55762068502E+02 -0.53159854199E+03  0.53652108698E+03  0.10000000000E+00 0.  1.
         -5    1    3    3    0  501 -0.15176419948E+02  0.50726858431E+02 -0.62604028843E+03  0.62827540986E+03  0.10000000000E+00 0.  1.
         21    1    1    2  504  502 -0.31174940744E+02  0.50352100707E+01  0.44296652123E+03  0.44409072181E+03  0.00000000000E+00 0. -1.
<mgrwt>
<rscale>  1 0.12893106E+03</rscale>
<asrwt>0</asrwt>
<pdfrwt beam="1">  1       21 0.68785763E-01 0.12893106E+03</pdfrwt>
<pdfrwt beam="2">  1       21 0.17873535E+00 0.12893106E+03</pdfrwt>
<totfact> 0.39187108E+02</totfact>
</mgrwt>
</event>
<event>
 6    1  0.4241465E-002  0.1277033E+03  0.7546771E-02  0.1230904E+00
         21   -1    0    0  503  502  0.00000000000E+00  0.00000000000E+00  0.47131694378E+03  0.47131694378E+03  0.00000000000E+00 0.  1.
         21   -1    0    0  504  503 -0.00000000000E+00 -0.00000000000E+00 -0.45071338516E+02  0.45071338516E+02  0.00000000000E+00 0. -1.
         25    2    1    2    0    0 -0.25260448075E+02  0.67302989378E+01  0.46747171622E+02  0.13599053217E+03  0.12499895850E+03 0.  0.
          5    1    3    3  501    0  0.23595875140E+02  0.35692350879E+02 -0.20936211045E+02  0.47634485069E+02  0.10000000000E+00 0.  1.
         -5    1    3    3    0  501 -0.48856323215E+02 -0.28962051942E+02  0.67683382666E+02  0.88356047104E+02  0.10000000000E+00 0.  1.
         21    1    1    2  504  502  0.25260448075E+02 -0.67302989378E+01  0.37949843364E+03  0.38039775012E+03  0.00000000000E+00 0.  1.
<mgrwt>
<rscale>  1 0.12770328E+03</rscale>
<asrwt>0</asrwt>
<pdfrwt beam="1">  1       21 0.72510296E-01 0.12770328E+03</pdfrwt>
<pdfrwt beam="2">  1       21 0.69340524E-02 0.12770328E+03</pdfrwt>
<totfact> 0.26783670E+05</totfact>
</mgrwt>
</event>
<event>
 6    1  0.4241465E-002  0.2129990E+03  0.7546771E-02  0.1139213E+00
         21   -1    0    0  503  502  0.00000000000E+00  0.00000000000E+00  0.11428994124E+04  0.11428994124E+04  0.00000000000E+00 0. -1.
         21   -1    0    0  504  503 -0.00000000000E+00 -0.00000000000E+00 -0.32536499947E+02  0.32536499947E+02  0.00000000000E+00 0. -1.
         25    2    1    2    0    0  0.16556593292E+03  0.48291623350E+02  0.63274729272E+03  0.66763591310E+03  0.12499766789E+03 0.  0.
          5    1    3    3  501    0  0.10547984852E+02  0.25555732952E+02  0.28362281009E+03  0.28496712771E+03  0.10000000000E+00 0. -1.
         -5    1    3    3    0  501  0.15501794807E+03  0.22735890398E+02  0.34912448263E+03  0.38266878539E+03  0.10000000000E+00 0. -1.
         21    1    1    2  504  502 -0.16556593292E+03 -0.48291623350E+02  0.47761561975E+03  0.50779999928E+03  0.00000000000E+00 0. -1.
<mgrwt>
<rscale>  1 0.21299900E+03</rscale>
<asrwt>0</asrwt>
<pdfrwt beam="1">  1       21 0.17583065E+00 0.21299900E+03</pdfrwt>
<pdfrwt beam="2">  1       21 0.50056162E-02 0.21299900E+03</pdfrwt>
<totfact> 0.51546250E+04</totfact>
</mgrwt>
</event>
<event>
 6    1  0.4241465E-002  0.1282762E+03  0.7546771E-02  0.1230036E+00
         21   -1    0    0  504  502  0.00000000000E+00  0.00000000000E+00  0.23216889574E+02  0.23216889574E+02  0.00000000000E+00 0. -1.
         21   -1    0    0  502  503 -0.00000000000E+00 -0.00000000000E+00 -0.30643815803E+03  0.30643815803E+03  0.00000000000E+00 0. -1.
         25    2    1    2    0    0 -0.26535962063E+02  0.11294316884E+02 -0.26783307571E+03  0.29696689452E+03  0.12499224423E+03 0.  0.
          5    1    3    3  501    0  0.35769533497E+02  0.26888892182E+02 -0.19405977349E+03  0.19915239827E+03  0.10000000000E+00 0. -1.
         -5    1    3    3    0  501 -0.62305495560E+02 -0.15594575298E+02 -0.73773302215E+02  0.97814496243E+02  0.10000000000E+00 0. -1.
         21    1    1    2  504  503  0.26535962063E+02 -0.11294316884E+02 -0.15388192753E+02  0.32688153094E+02  0.00000000000E+00 0. -1.
<mgrwt>
<rscale>  1 0.12827619E+03</rscale>
<asrwt>0</asrwt>
<pdfrwt beam="1">  1       21 0.35718296E-02 0.12827619E+03</pdfrwt>
<pdfrwt beam="2">  1       21 0.47144326E-01 0.12827619E+03</pdfrwt>
<totfact> 0.20289538E+06</totfact>
</mgrwt>
</event>
<event>
 6    1  0.4241465E-002  0.2115351E+03  0.7546771E-02  0.1140356E+00
         21   -1    0    0  504  502  0.00000000000E+00  0.00000000000E+00  0.43739402599E+02  0.43739402599E+02  0.00000000000E+00 0. -1.
         21   -1    0    0  502  503 -0.00000000000E+00 -0.00000000000E+00 -0.87491250491E+03  0.87491250491E+03  0.00000000000E+00 0. -1.
         25    2    1    2    0    0 -0.11029450986E+03  0.13021611682E+03 -0.55575235411E+03  0.59464927708E+03  0.12500387052E+03 0.  0.
          5    1    3    3  501    0 -0.41504900249E+02  0.59156740322E+01 -0.29268677384E+03  0.29567416107E+03  0.10000000000E+00 0. -1.
         -5    1    3    3    0  501 -0.68789609614E+02  0.12430044279E+03 -0.26306558027E+03  0.29897511601E+03  0.10000000000E+00 0. -1.
         21    1    1    2  504  503  0.11029450986E+03 -0.13021611682E+03 -0.27542074819E+03  0.32400263043E+03  0.00000000000E+00 0. -1.
<mgrwt>
<rscale>  1 0.21153506E+03</rscale>
<asrwt>0</asrwt>
<pdfrwt beam="1">  1       21 0.67291402E-02 0.21153506E+03</pdfrwt>
<pdfrwt beam="2">  1       21 0.13460190E+00 0.21153506E+03</pdfrwt>
<totfact> 0.63469781E+04</totfact>
</mgrwt>
</event>
<event>
 6    1  0.4241465E-002  0.1280754E+03  0.7546771E-02  0.1230340E+00
         21   -1    0    0  503  502  0.00000000000E+00  0.00000000000E+00  0.51539808768E+03  0.51539808768E+03  0.00000000000E+00 0. -1.
         21   -1    0    0  504  503 -0.00000000000E+00 -0.00000000000E+00 -0.61715778044E+02  0.61715778044E+02  0.00000000000E+00 0.  1.
         25    2    1    2    0    0 -0.16403079604E+02 -0.22572391560E+02  0.56357526932E+01  0.12819929582E+03  0.12499889543E+03 0.  0.
          5    1    3    3  501    0  0.39976267685E+02  0.24790988481E+01 -0.35931331838E+02  0.53808164034E+02  0.10000000000E+00 0. -1.
         -5    1    3    3    0  501 -0.56379347289E+02 -0.25051490408E+02  0.41567084532E+02  0.74391131789E+02  0.10000000000E+00 0. -1.
         21    1    1    2  504  502  0.16403079604E+02  0.22572391560E+02  0.44804655694E+03  0.44891456990E+03  0.00000000000E+00 0. -1.
<mgrwt>
<rscale>  1 0.12807536E+03</rscale>
<asrwt>0</asrwt>
<pdfrwt beam="1">  1       21 0.79292010E-01 0.12807536E+03</pdfrwt>
<pdfrwt beam="2">  1       21 0.94947354E-02 0.12807536E+03</pdfrwt>
<totfact> 0.12776858E+05</totfact>
</mgrwt>
</event>
<event>
 6    1  0.4241465E-002  0.1264442E+03  0.7546771E-02  0.1232829E+00
         21   -1    0    0  503  502  0.00000000000E+00  0.00000000000E+00  0.55852876303E+03  0.55852876303E+03  0.00000000000E+00 0. -1.
         21   -1    0    0  504  503 -0.00000000000E+00 -0.00000000000E+00 -0.11127840696E+02  0.11127840696E+02  0.00000000000E+00 0. -1.
         25    2    1    2    0    0 -0.10913625763E+02  0.15603383314E+02  0.36533568576E+03  0.38659835297E+03  0.12500220173E+03 0.  0.
          5    1    3    3  501    0 -0.67001211013E+02  0.13941473519E+01  0.16545617740E+03  0.17851291988E+03  0.10000000000E+00 0.  1.
         -5    1    3    3    0  501  0.56087585250E+02  0.14209235962E+02  0.19987950835E+03  0.20808543309E+03  0.10000000000E+00 0.  1.
         21    1    1    2  504  502  0.10913625763E+02 -0.15603383314E+02  0.18206523658E+03  0.18305825075E+03  0.00000000000E+00 0. -1.
<mgrwt>
<rscale>  1 0.12644415E+03</rscale>
<asrwt>0</asrwt>
<pdfrwt beam="1">  1       21 0.85927480E-01 0.12644415E+03</pdfrwt>
<pdfrwt beam="2">  1       21 0.17119759E-02 0.12644415E+03</pdfrwt>
<totfact> 0.18492330E+06</totfact>
</mgrwt>
</event>
<event>
 6    1  0.4241465E-002  0.1262456E+03  0.7546771E-02  0.1233135E+00
         21   -1    0    0  504  502  0.00000000000E+00  0.00000000000E+00  0.23307390257E+03  0.23307390257E+03  0.00000000000E+00 0.  1.
         21   -1    0    0  502  503 -0.00000000000E+00 -0.00000000000E+00 -0.22573547772E+02  0.22573547772E+02  0.00000000000E+00 0.  1.
         25    2    1    2    0    0 -0.98056417467E+01  0.14680188452E+02  0.17265568858E+03  0.21388769335E+03  0.12500519998E+03 0.  0.
          5    1    3    3  501    0 -0.53991697094E+02  0.77640978798E+01  0.15747937842E+03  0.16665878074E+03  0.10000000000E+00 0.  1.
         -5    1    3    3    0  501  0.44186055347E+02  0.69160905725E+01  0.15176310163E+02  0.47228912608E+02  0.10000000000E+00 0.  1.
         21    1    1    2  504  503  0.98056417467E+01 -0.14680188452E+02  0.37844666214E+02  0.41759756990E+02  0.00000000000E+00 0.  1.
<mgrwt>
<rscale>  1 0.12624563E+03</rscale>
<asrwt>0</asrwt>
<pdfrwt beam="1">  1       21 0.35857522E-01 0.12624563E+03</pdfrwt>
<pdfrwt beam="2">  1       21 0.34728537E-02 0.12624563E+03</pdfrwt>
<totfact> 0.36781227E+06</totfact>
</mgrwt>
</event>
<event>
 6    1  0.4241465E-002  0.1268181E+03  0.7546771E-02  0.1232255E+00
         21   -1    0    0  504  502  0.00000000000E+00  0.00000000000E+00  0.62507595346E+03  0.62507595346E+03  0.00000000000E+00 0. -1.
         21   -1    0    0  502  503 -0.00000000000E+00 -0.00000000000E+00 -0.54024453254E+02  0.54024453254E+02  0.00000000000E+00 0.  1.
         25    2    1    2    0    0 -0.19748230988E+02  0.82201802960E+01  0.20894731364E+02  0.12852794618E+03  0.12500111664E+03 0.  0.
          5    1    3    3  501    0 -0.66846522494E+02  0.19371002214E+02  0.35289407219E+02  0.78032336619E+02  0.10000000000E+00 0.  1.
         -5    1    3    3    0  501  0.47098291507E+02 -0.11150821918E+02 -0.14394675855E+02  0.50495609564E+02  0.10000000000E+00 0.  1.
         21    1    1    2  504  503  0.19748230988E+02 -0.82201802960E+01  0.55015676884E+03  0.55057246053E+03  0.00000000000E+00 0. -1.
<mgrwt>
<rscale>  1 0.12681815E+03</rscale>
<asrwt>0</asrwt>
<pdfrwt beam="1">  1       21 0.96165526E-01 0.12681815E+03</pdfrwt>
<pdfrwt beam="2">  1       21 0.83114548E-02 0.12681815E+03</pdfrwt>
<totfact> 0.10388394E+05</totfact>
</mgrwt>
</event>
<event>
 6    1  0.4241465E-002  0.1275553E+03  0.7546771E-02  0.1231129E+00
         21   -1    0    0  503  502  0.00000000000E+00  0.00000000000E+00  0.44137779240E+03  0.44137779240E+03  0.00000000000E+00 0.  1.
         21   -1    0    0  504  503 -0.00000000000E+00 -0.00000000000E+00 -0.28329577084E+02  0.28329577084E+02  0.00000000000E+00 0.  1.
         25    2    1    2    0    0 -0.25299406899E+02 -0.23822745109E+01  0.11862717492E+03  0.17419174511E+03  0.12499848884E+03 0.  0.
          5    1    3    3  501    0  0.32426002379E+02 -0.39587713783E+02  0.22134133576E+02  0.55754484860E+02  0.10000000000E+00 0. -1.
         -5    1    3    3    0  501 -0.57725409278E+02  0.37205439272E+02  0.96493041341E+02  0.11843726025E+03  0.10000000000E+00 0. -1.
         21    1    1    2  504  502  0.25299406899E+02  0.23822745109E+01  0.29442104040E+03  0.29551562438E+03  0.00000000000E+00 0.  1.
<mgrwt>
<rscale>  1 0.12755531E+03</rscale>
<asrwt>0</asrwt>
<pdfrwt beam="1">  1       21 0.67904271E-01 0.12755531E+03</pdfrwt>
<pdfrwt beam="2">  1       21 0.43583968E-02 0.12755531E+03</pdfrwt>
<totfact> 0.67667538E+05</totfact>
</mgrwt>
</event>
<event>
 6    1  0.4241465E-002  0.1304819E+03  0.7546771E-02  0.1226742E+00
         21   -1    0    0  504  502  0.00000000000E+00  0.00000000000E+00  0.38358753938E+02  0.38358753938E+02  0.00000000000E+00 0.  1.
         21   -1    0    0  502  503 -0.00000000000E+00 -0.00000000000E+00 -0.49610885954E+03  0.49610885954E+03  0.00000000000E+00 0.  1.
         25    2    1    2    0    0 -0.34090924807E+02  0.15457608524E+02 -0.47547332976E+03  0.49305213944E+03  0.12499758428E+03 0.  0.
          5    1    3    3  501    0  0.39834369849E+02  0.34955086848E+02 -0.16489776017E+03  0.17320483950E+03  0.10000000000E+00 0. -1.
         -5    1    3    3    0  501 -0.73925294656E+02 -0.19497478324E+02 -0.31057556959E+03  0.31984729993E+03  0.10000000000E+00 0. -1.
         21    1    1    2  504  503  0.34090924807E+02 -0.15457608524E+02  0.17723224156E+02  0.41415474041E+02  0.00000000000E+00 0.  1.
<mgrwt>
<rscale>  1 0.13048189E+03</rscale>
<asrwt>0</asrwt>
<pdfrwt beam="1">  1       21 0.59013471E-02 0.13048189E+03</pdfrwt>
<pdfrwt beam="2">  1       21 0.76324436E-01 0.13048189E+03</pdfrwt>
<totfact> 0.31458371E+05</totfact>
</mgrwt>
</event>
<event>
 6    1  0.4241465E-002  0.1263425E+03  0.7546771E-02  0.1232986E+00
         21   -1    0    0  504  502  0.00000000000E+00  0.00000000000E+00  0.27971038547E+02  0.27971038547E+02  0.00000000000E+00 0. -1.
         21   -1    0    0  502  503 -0.00000000000E+00 -0.00000000000E+00 -0.33806925321E+03  0.33806925321E+03  0.00000000000E+00 0.  1.
         25    2    1    2    0    0 -0.16534605819E+02  0.79836637447E+01 -0.32080372872E+03  0.34478611317E+03  0.12500119757E+03 0.  0.
          5    1    3    3  501    0  0.55077859409E+01 -0.57172039675E+02 -0.13845470422E+03  0.14989560683E+03  0.10000000000E+00 0.  1.
         -5    1    3    3    0  501 -0.22042391760E+02  0.65155703420E+02 -0.18234902450E+03  0.19489050633E+03  0.10000000000E+00 0.  1.
         21    1    1    2  504  503  0.16534605819E+02 -0.79836637447E+01  0.10705514058E+02  0.21254178592E+02  0.00000000000E+00 0. -1.
<mgrwt>
<rscale>  1 0.12634252E+03</rscale>
<asrwt>0</asrwt>
<pdfrwt beam="1">  1       21 0.43032368E-02 0.12634252E+03</pdfrwt>
<pdfrwt beam="2">  1       21 0.52010653E-01 0.12634252E+03</pdfrwt>
<totfact> 0.12163762E+06</totfact>
</mgrwt>
</event>
<event>
 6    1  0.4241465E-002  0.1524933E+03  0.7546771E-02  0.1197442E+00
         21   -1    0    0  504  502  0.00000000000E+00  0.00000000000E+00  0.40467021496E+02  0.40467021496E+02  0.00000000000E+00 0. -1.
         21   -1    0    0  502  503 -0.00000000000E+00 -0.00000000000E+00 -0.68370166223E+03  0.68370166223E+03  0.00000000000E+00 0. -1.
         25    2    1    2    0    0 -0.38993872018E+02 -0.78161576445E+02 -0.61308187306E+03  0.63176227981E+03  0.12499776407E+03 0.  0.
          5    1    3    3  501    0  0.86529469396E+01 -0.44719329943E+02 -0.58537791969E+02  0.74171254876E+02  0.10000000000E+00 0. -1.
         -5    1    3    3    0  501 -0.47646818957E+02 -0.33442246502E+02 -0.55454408109E+03  0.55759102493E+03  0.10000000000E+00 0. -1.
         21    1    1    2  504  503  0.38993872018E+02  0.78161576445E+02 -0.30152767674E+02  0.92406403922E+02  0.00000000000E+00 0. -1.
<mgrwt>
<rscale>  1 0.15249326E+03</rscale>
<asrwt>0</asrwt>
<pdfrwt beam="1">  1       21 0.62256960E-02 0.15249326E+03</pdfrwt>
<pdfrwt beam="2">  1       21 0.10518487E+00 0.15249326E+03</pdfrwt>
<totfact> 0.13676122E+05</totfact>
</mgrwt>
</event>
<event>
 6    1  0.4241465E-002  0.1275595E+03  0.7546771E-02  0.1231123E+00
         21   -1    0    0  504  502  0.00000000000E+00  0.00000000000E+00  0.21068173991E+02  0.21068173991E+02  0.00000000000E+00 0. -1.
         21   -1    0    0  502  503 -0.00000000000E+00 -0.00000000000E+00 -0.27979617037E+03  0.27979617037E+03  0.00000000000E+00 0. -1.
         25    2    1    2    0    0  0.18081986526E+02 -0.17483750027E+02 -0.22689575487E+03  0.26029426486E+03  0.12505511179E+03 0.  0.
          5    1    3    3  501    0 -0.48857383176E+02 -0.69704845769E+01 -0.47373287002E+02  0.68409574384E+02  0.10000000000E+00 0.  1.
         -5    1    3    3    0  501  0.66939369702E+02 -0.10513265450E+02 -0.17952246787E+03  0.19188469047E+03  0.10000000000E+00 0.  1.
         21    1    1    2  504  503 -0.18081986526E+02  0.17483750027E+02 -0.31832241502E+02  0.40570079502E+02  0.00000000000E+00 0. -1.
<mgrwt>
<rscale>  1 0.12755948E+03</rscale>
<asrwt>0</asrwt>
<pdfrwt beam="1">  1       21 0.32412577E-02 0.12755948E+03</pdfrwt>
<pdfrwt beam="2">  1       21 0.43045563E-01 0.12755948E+03</pdfrwt>
<totfact> 0.28641818E+06</totfact>
</mgrwt>
</event>
<event>
 6    1  0.4241465E-002  0.1373715E+03  0.7546771E-02  0.1216910E+00
         21   -1    0    0  504  502  0.00000000000E+00  0.00000000000E+00  0.10220821032E+03  0.10220821032E+03  0.00000000000E+00 0.  1.
         21   -1    0    0  502  503 -0.00000000000E+00 -0.00000000000E+00 -0.94305385928E+02  0.94305385928E+02  0.00000000000E+00 0.  1.
         25    2    1    2    0    0 -0.12393919628E+02 -0.55624293546E+02 -0.71932587624E+01  0.13755969050E+03  0.12499301661E+03 0.  0.
          5    1    3    3  501    0  0.39600388758E+02 -0.36962439012E+02 -0.45162622644E+02  0.70527194553E+02  0.10000000000E+00 0. -1.
         -5    1    3    3    0  501 -0.51994308386E+02 -0.18661854534E+02  0.37969363881E+02  0.67032495946E+02  0.10000000000E+00 0. -1.
         21    1    1    2  504  503  0.12393919628E+02  0.55624293546E+02  0.15096083151E+02  0.58953905746E+02  0.00000000000E+00 0.  1.
<mgrwt>
<rscale>  1 0.13737149E+03</rscale>
<asrwt>0</asrwt>
<pdfrwt beam="1">  1       21 0.15724340E-01 0.13737149E+03</pdfrwt>
<pdfrwt beam="2">  1       21 0.14508521E-01 0.13737149E+03</pdfrwt>
<totfact> 0.14971788E+06</totfact>
</mgrwt>
</event>
<event>
 6    1  0.4241465E-002  0.1271384E+03  0.7546771E-02  0.1231765E+00
         21   -1    0    0  503  502  0.00000000000E+00  0.00000000000E+00  0.18248241139E+04  0.18248241139E+04  0.00000000000E+00 0. -1.
         21   -1    0    0  504  503 -0.00000000000E+00 -0.00000000000E+00 -0.31769735820E+01  0.31769735820E+01  0.00000000000E+00 0. -1.
         25    2    1    2    0    0  0.15172806869E+02  0.17580221210E+02  0.14187433416E+04  0.14244286042E+04  0.12499960346E+03 0.  0.
          5    1    3    3  501    0 -0.32388664861E+02  0.22740747698E+01  0.11831515532E+04  0.11835969774E+04  0.10000000000E+00 0. -1.
         -5    1    3    3    0  501  0.47561471730E+02  0.15306146440E+02  0.23559178846E+03  0.24083162688E+03  0.10000000000E+00 0. -1.
         21    1    1    2  504  502 -0.15172806869E+02 -0.17580221210E+02  0.40290379863E+03  0.40357248320E+03  0.00000000000E+00 0. -1.
<mgrwt>
<rscale>  1 0.12713842E+03</rscale>
<asrwt>0</asrwt>
<pdfrwt beam="1">  1       21 0.28074133E+00 0.12713842E+03</pdfrwt>
<pdfrwt beam="2">  1       21 0.48876663E-03 0.12713842E+03</pdfrwt>
<totfact> 0.53175754E+05</totfact>
</mgrwt>
</event>
<event>
 6    1  0.4241465E-002  0.1300469E+03  0.7546771E-02  0.1227386E+00
         21   -1    0    0  504  502  0.00000000000E+00  0.00000000000E+00  0.11013885810E+04  0.11013885810E+04  0.00000000000E+00 0. -1.
         21   -1    0    0  502  503 -0.00000000000E+00 -0.00000000000E+00 -0.15302090508E+02  0.15302090508E+02  0.00000000000E+00 0. -1.
         25    2    1    2    0    0 -0.35501054001E+02 -0.56416607088E+01  0.26871996373E+03  0.29853408977E+03  0.12498012113E+03 0.  0.
          5    1    3    3  501    0  0.47031112237E+02 -0.44348300521E+01  0.10714568503E+03  0.11709739987E+03  0.10000000000E+00 0.  1.
         -5    1    3    3    0  501 -0.82532166239E+02 -0.12068306566E+01  0.16157427871E+03  0.18143668990E+03  0.10000000000E+00 0.  1.
         21    1    1    2  504  503  0.35501054001E+02  0.56416607088E+01  0.81736652671E+03  0.81815658169E+03  0.00000000000E+00 0. -1.
<mgrwt>
<rscale>  1 0.13004685E+03</rscale>
<asrwt>0</asrwt>
<pdfrwt beam="1">  1       21 0.16944434E+00 0.13004685E+03</pdfrwt>
<pdfrwt beam="2">  1       21 0.23541686E-02 0.13004685E+03</pdfrwt>
<totfact> 0.20868810E+05</totfact>
</mgrwt>
</event>
<event>
 6    1  0.4241465E-002  0.1262512E+03  0.7546771E-02  0.1233127E+00
         21   -1    0    0  504  502  0.00000000000E+00  0.00000000000E+00  0.60091991972E+03  0.60091991972E+03  0.00000000000E+00 0. -1.
         21   -1    0    0  502  503 -0.00000000000E+00 -0.00000000000E+00 -0.21142041963E+02  0.21142041963E+02  0.00000000000E+00 0. -1.
         25    2    1    2    0    0 -0.11631245336E+01  0.17809936579E+02  0.16927587724E+03  0.21117214783E+03  0.12498322569E+03 0.  0.
          5    1    3    3  501    0  0.37735873678E+02 -0.37960314376E+02  0.46860204064E+02  0.71139794452E+02  0.10000000000E+00 0. -1.
         -5    1    3    3    0  501 -0.38898998211E+02  0.55770250954E+02  0.12241567318E+03  0.14003235338E+03  0.10000000000E+00 0. -1.
         21    1    1    2  504  503  0.11631245336E+01 -0.17809936579E+02  0.41050200051E+03  0.41088981385E+03  0.00000000000E+00 0. -1.
<mgrwt>
<rscale>  1 0.12625115E+03</rscale>
<asrwt>0</asrwt>
<pdfrwt beam="1">  1       21 0.92449205E-01 0.12625115E+03</pdfrwt>
<pdfrwt beam="2">  1       21 0.32526223E-02 0.12625115E+03</pdfrwt>
<totfact> 0.55209724E+05</totfact>
</mgrwt>
</event>
<event>
 6    1  0.4241465E-002  0.1556911E+03  0.7546771E-02  0.1193649E+00
         21   -1    0    0  504  502  0.00000000000E+00  0.00000000000E+00  0.95377294836E+03  0.95377294836E+03  0.00000000000E+00 0. -1.
         21   -1    0    0  502  503 -0.00000000000E+00 -0.00000000000E+00 -0.16887877545E+02  0.16887877545E+02  0.00000000000E+00 0. -1.
         25    2    1    2    0    0 -0.67870565693E+02  0.63409659472E+02  0.67714162229E+03  0.69480967464E+03  0.12495002495E+03 0.  0.
          5    1    3    3  501    0 -0.84673130220E+02 -0.53480342766E+01  0.37936696390E+03  0.38873827153E+03  0.10000000000E+00 0. -1.
         -5    1    3    3    0  501  0.16802564528E+02  0.68757693748E+02  0.29777465839E+03  0.30607140311E+03  0.10000000000E+00 0. -1.
         21    1    1    2  504  503  0.67870565693E+02 -0.63409659472E+02  0.25974344853E+03  0.27585115127E+03  0.00000000000E+00 0. -1.
<mgrwt>
<rscale>  1 0.15569106E+03</rscale>
<asrwt>0</asrwt>
<pdfrwt beam="1">  1       21 0.14673426E+00 0.15569106E+03</pdfrwt>
<pdfrwt beam="2">  1       21 0.25981358E-02 0.15569106E+03</pdfrwt>
<totfact> 0.25749177E+05</totfact>
</mgrwt>
</event>
<event>
 6    1  0.4241465E-002  0.1293386E+03  0.7546771E-02  0.1228440E+00
         21   -1    0    0  504  502  0.00000000000E+00  0.00000000000E+00  0.25539488075E+03  0.25539488075E+03  0.00000000000E+00 0.  1.
         21   -1    0    0  502  503 -0.00000000000E+00 -0.00000000000E+00 -0.33799939949E+02  0.33799939949E+02  0.00000000000E+00 0.  1.
         25    2    1    2    0    0  0.28998884579E+01  0.33101990325E+02  0.10098956754E+03  0.16409563135E+03  0.12499732941E+03 0.  0.
          5    1    3    3  501    0 -0.53883151193E+02  0.45143113301E+02  0.65369246820E+02  0.95991890756E+02  0.10000000000E+00 0. -1.
         -5    1    3    3    0  501  0.56783039651E+02 -0.12041122976E+02  0.35620320717E+02  0.68103740591E+02  0.10000000000E+00 0. -1.
         21    1    1    2  504  503 -0.28998884579E+01 -0.33101990325E+02  0.12060537326E+03  0.12509918935E+03  0.00000000000E+00 0. -1.
<mgrwt>
<rscale>  1 0.12933864E+03</rscale>
<asrwt>0</asrwt>
<pdfrwt beam="1">  1       21 0.39291519E-01 0.12933864E+03</pdfrwt>
<pdfrwt beam="2">  1       21 0.51999909E-02 0.12933864E+03</pdfrwt>
<totfact> 0.15674880E+06</totfact>
</mgrwt>
</event>
<event>
 6    1  0.4241465E-002  0.1268371E+03  0.7546771E-02  0.1232226E+00
         21   -1    0    0  503  502  0.00000000000E+00  0.00000000000E+00  0.61660250743E+03  0.61660250743E+03  0.00000000000E+00 0.  1.
         21   -1    0    0  504  503 -0.00000000000E+00 -0.00000000000E+00 -0.16710177278E+02  0.16710177278E+02  0.00000000000E+00 0. -1.
         25    2    1    2    0    0 -0.16243777720E+02 -0.14085810770E+02  0.22885519208E+03  0.26165312515E+03  0.12500155431E+03 0.  0.
          5    1    3    3  501    0  0.30864163815E+02 -0.44136794889E+02  0.47251516466E+02  0.71647533659E+02  0.10000000000E+00 0. -1.
         -5    1    3    3    0  501 -0.47107941535E+02  0.30050984119E+02  0.18160367561E+03  0.19000559149E+03  0.10000000000E+00 0. -1.
         21    1    1    2  504  502  0.16243777720E+02  0.14085810770E+02  0.37103713808E+03  0.37165955956E+03  0.00000000000E+00 0.  1.
<mgrwt>
<rscale>  1 0.12683714E+03</rscale>
<asrwt>0</asrwt>
<pdfrwt beam="1">  1       21 0.94861907E-01 0.12683714E+03</pdfrwt>
<pdfrwt beam="2">  1       21 0.25707970E-02 0.12683714E+03</pdfrwt>
<totfact> 0.76459458E+05</totfact>
</mgrwt>
</event>
<event>
 6    1  0.4241465E-002  0.1422292E+03  0.7546771E-02  0.1210360E+00
         21   -1    0    0  503  502  0.00000000000E+00  0.00000000000E+00  0.19351981132E+02  0.19351981132E+02  0.00000000000E+00 0.  1.
         21   -1    0    0  504  503 -0.00000000000E+00 -0.00000000000E+00 -0.63246107728E+03  0.63246107728E+03  0.00000000000E+00 0.  1.
         25    2    1    2    0    0  0.66660461783E+02 -0.12539986522E+02 -0.50084658817E+03  0.52065003342E+03  0.12501313529E+03 0.  0.
          5    1    3    3  501    0 -0.17316531209E+02  0.17417358650E+02 -0.20191004837E+02  0.31794862978E+02  0.10000000000E+00 0. -1.
         -5    1    3    3    0  501  0.83976992992E+02 -0.29957345172E+02 -0.48065558333E+03  0.48885517044E+03  0.10000000000E+00 0. -1.
         21    1    1    2  504  502 -0.66660461783E+02  0.12539986522E+02 -0.11226250798E+03  0.13116302499E+03  0.00000000000E+00 0.  1.
<mgrwt>
<rscale>  1 0.14222922E+03</rscale>
<asrwt>0</asrwt>
<pdfrwt beam="1">  1       21 0.29772280E-02 0.14222922E+03</pdfrwt>
<pdfrwt beam="2">  1       21 0.97301700E-01 0.14222922E+03</pdfrwt>
<totfact> 0.56612872E+05</totfact>
</mgrwt>
</event>
<event>
 6    1  0.4241465E-002  0.1266539E+03  0.7546771E-02  0.1232507E+00
         21   -1    0    0  504  502  0.00000000000E+00  0.00000000000E+00  0.10044046504E+03  0.10044046504E+03  0.00000000000E+00 0. -1.
         21   -1    0    0  502  503 -0.00000000000E+00 -0.00000000000E+00 -0.27606235092E+03  0.27606235092E+03  0.00000000000E+00 0. -1.
         25    2    1    2    0    0 -0.13976257772E+02 -0.14861857030E+02 -0.26025944892E+03  0.28944118461E+03  0.12500003208E+03 0.  0.
          5    1    3    3  501    0  0.47515957665E+02  0.20801783723E+00 -0.46425930293E+02  0.66431818490E+02  0.10000000000E+00 0. -1.
         -5    1    3    3    0  501 -0.61492215437E+02 -0.15069874868E+02 -0.21383351863E+03  0.22300936612E+03  0.10000000000E+00 0. -1.
         21    1    1    2  504  503  0.13976257772E+02  0.14861857030E+02  0.84637563044E+02  0.87061631352E+02  0.00000000000E+00 0. -1.
<mgrwt>
<rscale>  1 0.12665393E+03</rscale>
<asrwt>0</asrwt>
<pdfrwt beam="1">  1       21 0.15452379E-01 0.12665393E+03</pdfrwt>
<pdfrwt beam="2">  1       21 0.42471131E-01 0.12665393E+03</pdfrwt>
<totfact> 0.20182171E+05</totfact>
</mgrwt>
</event>
<event>
 6    1  0.4241465E-002  0.1270352E+03  0.7546771E-02  0.1231923E+00
         21   -1    0    0  503  502  0.00000000000E+00  0.00000000000E+00  0.13489487209E+02  0.13489487209E+02  0.00000000000E+00 0. -1.
         21   -1    0    0  504  503 -0.00000000000E+00 -0.00000000000E+00 -0.71726055044E+03  0.71726055044E+03  0.00000000000E+00 0. -1.
         25    2    1    2    0    0  0.10798903045E+02  0.19512357078E+02 -0.69543360580E+03  0.70694118253E+03  0.12506233284E+03 0.  0.
          5    1    3    3  501    0  0.29358665118E+02  0.83162958313E+01 -0.36172745347E+02  0.47324090058E+02  0.10000000000E+00 0. -1.
         -5    1    3    3    0  501 -0.18559762073E+02  0.11196061247E+02 -0.65926086045E+03  0.65961709247E+03  0.10000000000E+00 0. -1.
         21    1    1    2  504  502 -0.10798903045E+02 -0.19512357078E+02 -0.83374574320E+01  0.23808855120E+02  0.00000000000E+00 0. -1.
<mgrwt>
<rscale>  1 0.12703517E+03</rscale>
<asrwt>0</asrwt>
<pdfrwt beam="1">  1       21 0.20753051E-02 0.12703517E+03</pdfrwt>
<pdfrwt beam="2">  1       21 0.11034781E+00 0.12703517E+03</pdfrwt>
<totfact> 0.75812105E+05</totfact>
</mgrwt>
</event>
<event>
 6    1  0.4241465E-002  0.1328822E+03  0.7546771E-02  0.1223241E+00
         21   -1    0    0  504  502  0.00000000000E+00  0.00000000000E+00  0.61181153784E+03  0.61181153784E+03  0.00000000000E+00 0.  1.
         21   -1    0    0  502  503 -0.00000000000E+00 -0.00000000000E+00 -0.67186528074E+02  0.67186528074E+02  0.00000000000E+00 0.  1.
         25    2    1    2    0    0  0.44796311377E+02 -0.52982433915E+01  0.37578686684E+00  0.13288269576E+03  0.12499155459E+03 0.  0.
          5    1    3    3  501    0  0.70792148701E+02 -0.89520013857E+01  0.42642749777E+02  0.83126895498E+02  0.10000000000E+00 0. -1.
         -5    1    3    3    0  501 -0.25995837325E+02  0.36537579942E+01 -0.42266962910E+02  0.49755800258E+02  0.10000000000E+00 0. -1.
         21    1    1    2  504  503 -0.44796311377E+02  0.52982433915E+01  0.54424922290E+03  0.54611537016E+03  0.00000000000E+00 0.  1.
<mgrwt>
<rscale>  1 0.13288216E+03</rscale>
<asrwt>0</asrwt>
<pdfrwt beam="1">  1       21 0.94124848E-01 0.13288216E+03</pdfrwt>
<pdfrwt beam="2">  1       21 0.10336389E-01 0.13288216E+03</pdfrwt>
<totfact> 0.74476269E+04</totfact>
</mgrwt>
</event>
<event>
 6    1  0.4241465E-002  0.1261093E+03  0.7546771E-02  0.1233346E+00
         21   -1    0    0  504  502  0.00000000000E+00  0.00000000000E+00  0.24373488893E+02  0.24373488893E+02  0.00000000000E+00 0.  1.
         21   -1    0    0  502  503 -0.00000000000E+00 -0.00000000000E+00 -0.21434211554E+03  0.21434211554E+03  0.00000000000E+00 0.  1.
         25    2    1    2    0    0  0.80098907049E+01 -0.14639225249E+02 -0.17814534786E+03  0.21826431630E+03  0.12500032616E+03 0.  0.
          5    1    3    3  501    0 -0.16297818439E+02  0.40404060092E+02 -0.17912668267E+02  0.47106057383E+02  0.10000000000E+00 0.  1.
         -5    1    3    3    0  501  0.24307709144E+02 -0.55043285341E+02 -0.16023267959E+03  0.17115825892E+03  0.10000000000E+00 0.  1.
         21    1    1    2  504  503 -0.80098907049E+01  0.14639225249E+02 -0.11823278782E+02  0.20451288130E+02  0.00000000000E+00 0.  1.
<mgrwt>
<rscale>  1 0.12610927E+03</rscale>
<asrwt>0</asrwt>
<pdfrwt beam="1">  1       21 0.37497674E-02 0.12610927E+03</pdfrwt>
<pdfrwt beam="2">  1       21 0.32975711E-01 0.12610927E+03</pdfrwt>
<totfact> 0.38179507E+06</totfact>
</mgrwt>
</event>
<event>
 6    1  0.4241465E-002  0.1268833E+03  0.7546771E-02  0.1232155E+00
         21   -1    0    0  504  502  0.00000000000E+00  0.00000000000E+00  0.41428840700E+03  0.41428840700E+03  0.00000000000E+00 0.  1.
         21   -1    0    0  502  503 -0.00000000000E+00 -0.00000000000E+00 -0.29983085929E+03  0.29983085929E+03  0.00000000000E+00 0. -1.
         25    2    1    2    0    0  0.20990472586E+02 -0.58845996492E+01 -0.28609747798E+03  0.31297146677E+03  0.12499657458E+03 0.  0.
          5    1    3    3  501    0 -0.49432106693E+02 -0.14772513872E+02 -0.16189507135E+03  0.16991699287E+03  0.10000000000E+00 0. -1.
         -5    1    3    3    0  501  0.70422579279E+02  0.88879142229E+01 -0.12420240663E+03  0.14305447391E+03  0.10000000000E+00 0. -1.
         21    1    1    2  504  503 -0.20990472586E+02  0.58845996492E+01  0.40055502568E+03  0.40114779951E+03  0.00000000000E+00 0.  1.
<mgrwt>
<rscale>  1 0.12688330E+03</rscale>
<asrwt>0</asrwt>
<pdfrwt beam="1">  1       21 0.63736678E-01 0.12688330E+03</pdfrwt>
<pdfrwt beam="2">  1       21 0.46127825E-01 0.12688330E+03</pdfrwt>
<totfact> 0.10768692E+04</totfact>
</mgrwt>
</event>
<event>
 6    1  0.4241465E-002  0.1348078E+03  0.7546771E-02  0.1220491E+00
         21   -1    0    0  504  502  0.00000000000E+00  0.00000000000E+00  0.16342613020E+04  0.16342613020E+04  0.00000000000E+00 0.  1.
         21   -1    0    0  502  503 -0.00000000000E+00 -0.00000000000E+00 -0.67118612039E+01  0.67118612039E+01  0.00000000000E+00 0.  1.
         25    2    1    2    0    0 -0.24788506696E+02 -0.43975753907E+02  0.75328629813E+03  0.76525381340E+03  0.12499925991E+03 0.  0.
          5    1    3    3  501    0  0.36506161477E+02 -0.59365673386E+02  0.45877765068E+03  0.46404086649E+03  0.10000000000E+00 0. -1.
         -5    1    3    3    0  501 -0.61294668173E+02  0.15389919479E+02  0.29450864745E+03  0.30121294691E+03  0.10000000000E+00 0. -1.
         21    1    1    2  504  503  0.24788506696E+02  0.43975753907E+02  0.87426314262E+03  0.87571934976E+03  0.00000000000E+00 0.  1.
<mgrwt>
<rscale>  1 0.13480783E+03</rscale>
<asrwt>0</asrwt>
<pdfrwt beam="1">  1       21 0.25142450E+00 0.13480783E+03</pdfrwt>
<pdfrwt beam="2">  1       21 0.10325953E-02 0.13480783E+03</pdfrwt>
<totfact> 0.24137550E+05</totfact>
</mgrwt>
</event>
<event>
 6    1  0.4241465E-002  0.1275815E+03  0.7546771E-02  0.1231089E+00
         21   -1    0    0  503  502  0.00000000000E+00  0.00000000000E+00  0.34567220419E+03  0.34567220419E+03  0.00000000000E+00 0. -1.
         21   -1    0    0  504  503 -0.00000000000E+00 -0.00000000000E+00 -0.37443022572E+02  0.37443022572E+02  0.00000000000E+00 0. -1.
         25    2    1    2    0    0 -0.95100939538E+01  0.23667856187E+02  0.73975263617E+02  0.14747671675E+03  0.12500573208E+03 0.  0.
          5    1    3    3  501    0  0.55712787148E+02  0.18615383850E+02  0.18161689761E+02  0.61484177987E+02  0.10000000000E+00 0.  1.
         -5    1    3    3    0  501 -0.65222881102E+02  0.50524723368E+01  0.55813573856E+02  0.85992538761E+02  0.10000000000E+00 0.  1.
         21    1    1    2  504  502  0.95100939538E+01 -0.23667856187E+02  0.23425391800E+03  0.23563851002E+03  0.00000000000E+00 0. -1.
<mgrwt>
<rscale>  1 0.12758151E+03</rscale>
<asrwt>0</asrwt>
<pdfrwt beam="1">  1       21 0.53180337E-01 0.12758151E+03</pdfrwt>
<pdfrwt beam="2">  1       21 0.57604653E-02 0.12758151E+03</pdfrwt>
<totfact> 0.71186653E+05</totfact>
</mgrwt>
</event>
<event>
 6    1  0.4241465E-002  0.1284543E+03  0.7546771E-02  0.1229767E+00
         21   -1    0    0  504  502  0.00000000000E+00  0.00000000000E+00  0.70857506648E+02  0.70857506648E+02  0.00000000000E+00 0.  1.
         21   -1    0    0  502  503 -0.00000000000E+00 -0.00000000000E+00 -0.93388883379E+03  0.93388883379E+03  0.00000000000E+00 0. -1.
         25    2    1    2    0    0  0.16190553720E+01  0.29624167586E+02 -0.92614313393E+03  0.93500888420E+03  0.12498118403E+03 0.  0.
          5    1    3    3  501    0 -0.24316851167E+02  0.61708588901E+02 -0.78929857033E+03  0.79208048980E+03  0.10000000000E+00 0. -1.
         -5    1    3    3    0  501  0.25935906539E+02 -0.32084421315E+02 -0.13684456360E+03  0.14292839440E+03  0.10000000000E+00 0. -1.
         21    1    1    2  504  503 -0.16190553720E+01 -0.29624167586E+02  0.63111806792E+02  0.69737456234E+02  0.00000000000E+00 0.  1.
<mgrwt>
<rscale>  1 0.12845431E+03</rscale>
<asrwt>0</asrwt>
<pdfrwt beam="1">  1       21 0.10901155E-01 0.12845431E+03</pdfrwt>
<pdfrwt beam="2">  1       21 0.14367520E+00 0.12845431E+03</pdfrwt>
<totfact> 0.24377733E+04</totfact>
</mgrwt>
</event>
<event>
 6    1  0.4241465E-002  0.1261804E+03  0.7546771E-02  0.1233236E+00
         21   -1    0    0  504  502  0.00000000000E+00  0.00000000000E+00  0.10298366361E+03  0.10298366361E+03  0.00000000000E+00 0. -1.
         21   -1    0    0  502  503 -0.00000000000E+00 -0.00000000000E+00 -0.11268631344E+03  0.11268631344E+03  0.00000000000E+00 0. -1.
         25    2    1    2    0    0  0.66462932317E+01 -0.15904948056E+02 -0.75910789794E+02  0.14725463971E+03  0.12499736127E+03 0.  0.
          5    1    3    3  501    0 -0.32706465881E+02 -0.14901353268E+02  0.21714361183E+02  0.41991507727E+02  0.10000000000E+00 0.  1.
         -5    1    3    3    0  501  0.39352759113E+02 -0.10035947881E+01 -0.97625150977E+02  0.10526313199E+03  0.10000000000E+00 0.  1.
         21    1    1    2  504  503 -0.66462932317E+01  0.15904948056E+02  0.66208139962E+02  0.68415337342E+02  0.00000000000E+00 0. -1.
<mgrwt>
<rscale>  1 0.12618035E+03</rscale>
<asrwt>0</asrwt>
<pdfrwt beam="1">  1       21 0.15843641E-01 0.12618035E+03</pdfrwt>
<pdfrwt beam="2">  1       21 0.17336356E-01 0.12618035E+03</pdfrwt>
<totfact> 0.10682312E+06</totfact>
</mgrwt>
</event>
<event>
 6    1  0.4241465E-002  0.1286234E+03  0.7546771E-02  0.1229513E+00
         21   -1    0    0  503  502  0.00000000000E+00  0.00000000000E+00  0.73664566001E+02  0.73664566001E+02  0.00000000000E+00 0.  1.
         21   -1    0    0  504  503 -0.00000000000E+00 -0.00000000000E+00 -0.85805887355E+02  0.85805887355E+02  0.00000000000E+00 0.  1.
         25    2    1    2    0    0 -0.32463569717E+00 -0.30248303351E+02 -0.72508037336E+01  0.12882763354E+03  0.12501567807E+03 0.  0.
          5    1    3    3  501    0  0.59961731389E+02 -0.90294628345E+01 -0.19614128912E+02  0.63731189250E+02  0.10000000000E+00 0. -1.
         -5    1    3    3    0  501 -0.60286367086E+02 -0.21218840516E+02  0.12363325179E+02  0.65096444286E+02  0.10000000000E+00 0. -1.
         21    1    1    2  504  502  0.32463569717E+00  0.30248303351E+02 -0.48905176203E+01  0.30642819820E+02  0.00000000000E+00 0.  1.
<mgrwt>
<rscale>  1 0.12862342E+03</rscale>
<asrwt>0</asrwt>
<pdfrwt beam="1">  1       21 0.11333010E-01 0.12862342E+03</pdfrwt>
<pdfrwt beam="2">  1       21 0.13200906E-01 0.12862342E+03</pdfrwt>
<totfact> 0.31789358E+06</totfact>
</mgrwt>
</event>
<event>
 6    1  0.4241465E-002  0.1260019E+03  0.7546771E-02  0.1233512E+00
         21   -1    0    0  503  502  0.00000000000E+00  0.00000000000E+00  0.26739603080E+03  0.26739603080E+03  0.00000000000E+00 0.  1.
         21   -1    0    0  504  503 -0.00000000000E+00 -0.00000000000E+00 -0.19467711219E+02  0.19467711219E+02  0.00000000000E+00 0.  1.
         25    2    1    2    0    0  0.10709318273E+02  0.11656498822E+02  0.19993202352E+03  0.23632457010E+03  0.12500369971E+03 0.  0.
          5    1    3    3  501    0  0.17169831682E+02 -0.55518513323E+02  0.10198191097E+03  0.11737729170E+03  0.10000000000E+00 0. -1.
         -5    1    3    3    0  501 -0.64605134092E+01  0.67175012146E+02  0.97950112555E+02  0.11894727840E+03  0.10000000000E+00 0. -1.
         21    1    1    2  504  502 -0.10709318273E+02 -0.11656498822E+02  0.47996296062E+02  0.50539171920E+02  0.00000000000E+00 0.  1.
<mgrwt>
<rscale>  1 0.12600194E+03</rscale>
<asrwt>0</asrwt>
<pdfrwt beam="1">  1       21 0.41137848E-01 0.12600194E+03</pdfrwt>
<pdfrwt beam="2">  1       21 0.29950327E-02 0.12600194E+03</pdfrwt>
<totfact> 0.35707986E+06</totfact>
</mgrwt>
</event>
<event>
 6    1  0.4241465E-002  0.1294404E+03  0.7546771E-02  0.1228288E+00
         21   -1    0    0  503  502  0.00000000000E+00  0.00000000000E+00  0.27110864410E+03  0.27110864410E+03  0.00000000000E+00 0.  1.
         21   -1    0    0  504  503 -0.00000000000E+00 -0.00000000000E+00 -0.35020412997E+02  0.35020412997E+02  0.00000000000E+00 0.  1.
         25    2    1    2    0    0 -0.30291110592E+02 -0.14621480287E+02  0.93630673414E+02  0.15975455519E+03  0.12499390318E+03 0.  0.
          5    1    3    3  501    0 -0.12905384645E+02 -0.69781553216E+02  0.43646484274E+02  0.83312902431E+02  0.10000000000E+00 0.  1.
         -5    1    3    3    0  501 -0.17385725947E+02  0.55160072929E+02  0.49984189140E+02  0.76441652757E+02  0.10000000000E+00 0.  1.
         21    1    1    2  504  502  0.30291110592E+02  0.14621480287E+02  0.14245755769E+03  0.14637450191E+03  0.00000000000E+00 0.  1.
<mgrwt>
<rscale>  1 0.12944039E+03</rscale>
<asrwt>0</asrwt>
<pdfrwt beam="1">  1       21 0.41709021E-01 0.12944039E+03</pdfrwt>
<pdfrwt beam="2">  1       21 0.53877560E-02 0.12944039E+03</pdfrwt>
<totfact> 0.13101600E+06</totfact>
</mgrwt>
</event>
<event>
 6    1  0.4241465E-002  0.1269503E+03  0.7546771E-02  0.1232052E+00
         21   -1    0    0  504  502  0.00000000000E+00  0.00000000000E+00  0.29357967846E+03  0.29357967846E+03  0.00000000000E+00 0. -1.
         21   -1    0    0  502  503 -0.00000000000E+00 -0.00000000000E+00 -0.22884446146E+02  0.22884446146E+02  0.00000000000E+00 0. -1.
         25    2    1    2    0    0 -0.22169736420E+02  0.56085042596E-01  0.16349344109E+03  0.20699392592E+03  0.12499951892E+03 0.  0.
          5    1    3    3  501    0 -0.60402679290E+02 -0.29463482909E+02  0.13528273708E+03  0.15105631216E+03  0.10000000000E+00 0. -1.
         -5    1    3    3    0  501  0.38232942870E+02  0.29519567952E+02  0.28210704004E+02  0.55937613758E+02  0.10000000000E+00 0. -1.
         21    1    1    2  504  503  0.22169736420E+02 -0.56085042596E-01  0.10720179123E+03  0.10947019869E+03  0.00000000000E+00 0. -1.
<mgrwt>
<rscale>  1 0.12695031E+03</rscale>
<asrwt>0</asrwt>
<pdfrwt beam="1">  1       21 0.45166102E-01 0.12695031E+03</pdfrwt>
<pdfrwt beam="2">  1       21 0.35206842E-02 0.12695031E+03</pdfrwt>
<totfact> 0.22669965E+06</totfact>
</mgrwt>
</event>
<event>
 6    1  0.4241465E-002  0.1267861E+03  0.7546771E-02  0.1232304E+00
         21   -1    0    0  504  502  0.00000000000E+00  0.00000000000E+00  0.65753210631E+01  0.65753210631E+01  0.00000000000E+00 0.  1.
         21   -1    0    0  502  503 -0.00000000000E+00 -0.00000000000E+00 -0.84453565853E+03  0.84453565853E+03  0.00000000000E+00 0.  1.
         25    2    1    2    0    0  0.62305873148E+01 -0.20275148928E+02 -0.67826061287E+03  0.69000882592E+03  0.12499927596E+03 0.  0.
          5    1    3    3  501    0 -0.49239657444E+02  0.11200672690E+02 -0.45572307249E+03  0.45851229834E+03  0.10000000000E+00 0.  1.
         -5    1    3    3    0  501  0.55470244758E+02 -0.31475821618E+02 -0.22253754038E+03  0.23149652758E+03  0.10000000000E+00 0.  1.
         21    1    1    2  504  503 -0.62305873148E+01  0.20275148928E+02 -0.15969972459E+03  0.16110215367E+03  0.00000000000E+00 0.  1.
<mgrwt>
<rscale>  1 0.12678612E+03</rscale>
<asrwt>0</asrwt>
<pdfrwt beam="1">  1       21 0.10115879E-02 0.12678612E+03</pdfrwt>
<pdfrwt beam="2">  1       21 0.12992856E+00 0.12678612E+03</pdfrwt>
<totfact> 0.16018823E+06</totfact>
</mgrwt>
</event>
<event>
 6    1  0.4241465E-002  0.1293896E+03  0.7546771E-02  0.1228364E+00
         21   -1    0    0  503  502  0.00000000000E+00  0.00000000000E+00  0.22598153015E+03  0.22598153015E+03  0.00000000000E+00 0.  1.
         21   -1    0    0  504  503 -0.00000000000E+00 -0.00000000000E+00 -0.51312047447E+02  0.51312047447E+02  0.00000000000E+00 0.  1.
         25    2    1    2    0    0  0.92030671379E+01  0.32093080370E+02  0.35494041705E+02  0.13416962562E+03  0.12500799651E+03 0.  0.
          5    1    3    3  501    0  0.43846873249E+02  0.64927304771E+02  0.71855405373E+01  0.78674933692E+02  0.10000000000E+00 0. -1.
         -5    1    3    3    0  501 -0.34643806111E+02 -0.32834224402E+02  0.28308501168E+02  0.55494691929E+02  0.10000000000E+00 0. -1.
         21    1    1    2  504  502 -0.92030671379E+01 -0.32093080370E+02  0.13917544100E+03  0.14312395198E+03  0.00000000000E+00 0.  1.
<mgrwt>
<rscale>  1 0.12938957E+03</rscale>
<asrwt>0</asrwt>
<pdfrwt beam="1">  1       21 0.34766389E-01 0.12938957E+03</pdfrwt>
<pdfrwt beam="2">  1       21 0.78941613E-02 0.12938957E+03</pdfrwt>
<totfact> 0.98101060E+05</totfact>
</mgrwt>
</event>
<event>
 6    1  0.4241465E-002  0.1269647E+03  0.7546771E-02  0.1232030E+00
         21   -1    0    0  503  502  0.00000000000E+00  0.00000000000E+00  0.10604941416E+02  0.10604941416E+02  0.00000000000E+00 0. -1.
         21   -1    0    0  504  503 -0.00000000000E+00 -0.00000000000E+00 -0.52970536266E+03  0.52970536266E+03  0.00000000000E+00 0. -1.
         25    2    1    2    0    0 -0.11302342484E+02  0.19153037075E+02 -0.42143403035E+03  0.44014391408E+03  0.12500176554E+03 0.  0.
          5    1    3    3  501    0 -0.49450579564E+02 -0.33809931280E+02 -0.16515169279E+03  0.17568028605E+03  0.10000000000E+00 0.  1.
         -5    1    3    3    0  501  0.38148237080E+02  0.52962968355E+02 -0.25628233755E+03  0.26446362803E+03  0.10000000000E+00 0.  1.
         21    1    1    2  504  502  0.11302342484E+02 -0.19153037075E+02 -0.97666390893E+02  0.10016639000E+03  0.00000000000E+00 0. -1.
<mgrwt>
<rscale>  1 0.12696465E+03</rscale>
<asrwt>0</asrwt>
<pdfrwt beam="1">  1       21 0.16315294E-02 0.12696465E+03</pdfrwt>
<pdfrwt beam="2">  1       21 0.81493137E-01 0.12696465E+03</pdfrwt>
<totfact> 0.22508523E+06</totfact>
</mgrwt>
</event>
<event>
 6    1  0.4241465E-002  0.1271288E+03  0.7546771E-02  0.1231779E+00
         21   -1    0    0  503  502  0.00000000000E+00  0.00000000000E+00  0.62460923611E+01  0.62460923611E+01  0.00000000000E+00 0.  1.
         21   -1    0    0  504  503 -0.00000000000E+00 -0.00000000000E+00 -0.96666181478E+03  0.96666181478E+03  0.00000000000E+00 0.  1.
         25    2    1    2    0    0 -0.67586623827E+01  0.22163734876E+02 -0.88281619520E+03  0.89192274007E+03  0.12499931634E+03 0.  0.
          5    1    3    3  501    0  0.56147611176E+02  0.29802396829E+02 -0.46669374434E+03  0.47100297037E+03  0.10000000000E+00 0. -1.
         -5    1    3    3    0  501 -0.62906273558E+02 -0.76386619524E+01 -0.41612245087E+03  0.42091976970E+03  0.10000000000E+00 0. -1.
         21    1    1    2  504  502  0.67586623827E+01 -0.22163734876E+02 -0.77599527218E+02  0.80985167070E+02  0.00000000000E+00 0.  1.
<mgrwt>
<rscale>  1 0.12712883E+03</rscale>
<asrwt>0</asrwt>
<pdfrwt beam="1">  1       21 0.96093780E-03 0.12712883E+03</pdfrwt>
<pdfrwt beam="2">  1       21 0.14871712E+00 0.12712883E+03</pdfrwt>
<totfact> 0.12335873E+06</totfact>
</mgrwt>
</event>
<event>
 6    1  0.4241465E-002  0.1452035E+03  0.7546771E-02  0.1206494E+00
         21   -1    0    0  503  502  0.00000000000E+00  0.00000000000E+00  0.12671364206E+04  0.12671364206E+04  0.00000000000E+00 0. -1.
         21   -1    0    0  504  503 -0.00000000000E+00 -0.00000000000E+00 -0.18232977088E+02  0.18232977088E+02  0.00000000000E+00 0. -1.
         25    2    1    2    0    0  0.15353560606E+02 -0.72275133604E+02  0.29692293115E+03  0.33052578605E+03  0.12499856576E+03 0.  0.
          5    1    3    3  501    0 -0.37471434942E+02 -0.35035355877E+02  0.38489450833E+02  0.64132927763E+02  0.10000000000E+00 0.  1.
         -5    1    3    3    0  501  0.52824995548E+02 -0.37239777727E+02  0.25843348031E+03  0.26639285829E+03  0.10000000000E+00 0.  1.
         21    1    1    2  504  502 -0.15353560606E+02  0.72275133604E+02  0.95198051235E+03  0.95484361162E+03  0.00000000000E+00 0. -1.
<mgrwt>
<rscale>  1 0.14520354E+03</rscale>
<asrwt>0</asrwt>
<pdfrwt beam="1">  1       21 0.19494400E+00 0.14520354E+03</pdfrwt>
<pdfrwt beam="2">  1       21 0.28050744E-02 0.14520354E+03</pdfrwt>
<totfact> 0.10522791E+05</totfact>
</mgrwt>
</event>
<event>
 6    1  0.4241465E-002  0.1275558E+03  0.7546771E-02  0.1231128E+00
         21   -1    0    0  503  502  0.00000000000E+00  0.00000000000E+00  0.39109068976E+02  0.39109068976E+02  0.00000000000E+00 0.  1.
         21   -1    0    0  504  503 -0.00000000000E+00 -0.00000000000E+00 -0.56636579714E+03  0.56636579714E+03  0.00000000000E+00 0. -1.
         25    2    1    2    0    0 -0.16135225639E+02  0.19641627883E+02 -0.55404917311E+03  0.56854284533E+03  0.12499736676E+03 0.  0.
          5    1    3    3  501    0  0.54142564704E+02 -0.12795860698E+01 -0.22596418892E+03  0.23236367902E+03  0.10000000000E+00 0.  1.
         -5    1    3    3    0  501 -0.70277790343E+02  0.20921213953E+02 -0.32808498419E+03  0.33617916631E+03  0.10000000000E+00 0.  1.
         21    1    1    2  504  502  0.16135225639E+02 -0.19641627883E+02  0.26792444954E+02  0.36932020781E+02  0.00000000000E+00 0.  1.
<mgrwt>
<rscale>  1 0.12755579E+03</rscale>
<asrwt>0</asrwt>
<pdfrwt beam="1">  1       21 0.60167799E-02 0.12755579E+03</pdfrwt>
<pdfrwt beam="2">  1       21 0.87133199E-01 0.12755579E+03</pdfrwt>
<totfact> 0.22635098E+05</totfact>
</mgrwt>
</event>
<event>
 6    1  0.4241465E-002  0.2274573E+03  0.7546771E-02  0.1128442E+00
         21   -1    0    0  504  502  0.00000000000E+00  0.00000000000E+00  0.19978365373E+04  0.19978365373E+04  0.00000000000E+00 0.  1.
         21   -1    0    0  502  503 -0.00000000000E+00 -0.00000000000E+00 -0.31036326570E+02  0.31036326570E+02  0.00000000000E+00 0. -1.
         25    2    1    2    0    0 -0.30993256115E+02  0.18748200817E+03  0.49382923236E+03  0.54369489863E+03  0.12500698680E+03 0.  0.
          5    1    3    3  501    0 -0.78439061265E+02  0.11061771340E+03  0.32651245862E+03  0.35355248618E+03  0.10000000000E+00 0. -1.
         -5    1    3    3    0  501  0.47445805150E+02  0.76864294777E+02  0.16731677374E+03  0.19014241245E+03  0.10000000000E+00 0. -1.
         21    1    1    2  504  503  0.30993256115E+02 -0.18748200817E+03  0.14729709783E+04  0.14851779652E+04  0.00000000000E+00 0.  1.
<mgrwt>
<rscale>  1 0.22745732E+03</rscale>
<asrwt>0</asrwt>
<pdfrwt beam="1">  1       21 0.30735937E+00 0.22745732E+03</pdfrwt>
<pdfrwt beam="2">  1       21 0.47748210E-02 0.22745732E+03</pdfrwt>
<totfact> 0.86846161E+03</totfact>
</mgrwt>
</event>
<event>
 6    1  0.4241465E-002  0.1499507E+03  0.7546771E-02  0.1200534E+00
         21   -1    0    0  503  502  0.00000000000E+00  0.00000000000E+00  0.91241311743E+02  0.91241311743E+02  0.00000000000E+00 0. -1.
         21   -1    0    0  504  503 -0.00000000000E+00 -0.00000000000E+00 -0.37610038213E+03  0.37610038213E+03  0.00000000000E+00 0. -1.
         25    2    1    2    0    0  0.78708532525E+00 -0.82820947920E+02 -0.33742544116E+03  0.36924402696E+03  0.12500117674E+03 0.  0.
          5    1    3    3  501    0  0.61096608946E+02 -0.47230639881E+02 -0.14183396017E+03  0.16149430710E+03  0.10000000000E+00 0.  1.
         -5    1    3    3    0  501 -0.60309523621E+02 -0.35590308038E+02 -0.19559148099E+03  0.20774971986E+03  0.10000000000E+00 0.  1.
         21    1    1    2  504  502 -0.78708532525E+00  0.82820947920E+02  0.52566370773E+02  0.98097666914E+02  0.00000000000E+00 0. -1.
<mgrwt>
<rscale>  1 0.14995074E+03</rscale>
<asrwt>0</asrwt>
<pdfrwt beam="1">  1       21 0.14037125E-01 0.14995074E+03</pdfrwt>
<pdfrwt beam="2">  1       21 0.57861597E-01 0.14995074E+03</pdfrwt>
<totfact> 0.12583498E+05</totfact>
</mgrwt>
</event>
<event>
 6    1  0.4241465E-002  0.1260946E+03  0.7546771E-02  0.1233368E+00
         21   -1    0    0  503  502  0.00000000000E+00  0.00000000000E+00  0.83440575690E+01  0.83440575690E+01  0.00000000000E+00 0.  1.
         21   -1    0    0  504  503 -0.00000000000E+00 -0.00000000000E+00 -0.83180575190E+03  0.83180575190E+03  0.00000000000E+00 0.  1.
         25    2    1    2    0    0  0.89059941060E+01  0.13899804614E+02 -0.80715771609E+03  0.81694763272E+03  0.12500933833E+03 0.  0.
          5    1    3    3  501    0  0.67066822656E+02  0.85886580205E+01 -0.44728961521E+03  0.45237123430E+03  0.10000000000E+00 0.  1.
         -5    1    3    3    0  501 -0.58160828550E+02  0.53111465936E+01 -0.35986810089E+03  0.36457639843E+03  0.10000000000E+00 0.  1.
         21    1    1    2  504  502 -0.89059941060E+01 -0.13899804614E+02 -0.16303978245E+02  0.23202176750E+02  0.00000000000E+00 0.  1.
<mgrwt>
<rscale>  1 0.12609463E+03</rscale>
<asrwt>0</asrwt>
<pdfrwt beam="1">  1       21 0.12837007E-02 0.12609463E+03</pdfrwt>
<pdfrwt beam="2">  1       21 0.12797016E+00 0.12609463E+03</pdfrwt>
<totfact> 0.11411973E+06</totfact>
</mgrwt>
</event>
<event>
 6    1  0.4241465E-002  0.1262284E+03  0.7546771E-02  0.1233162E+00
         21   -1    0    0  503  502  0.00000000000E+00  0.00000000000E+00  0.39517133878E+02  0.39517133878E+02  0.00000000000E+00 0. -1.
         21   -1    0    0  504  503 -0.00000000000E+00 -0.00000000000E+00 -0.19466766914E+03  0.19466766914E+03  0.00000000000E+00 0. -1.
         25    2    1    2    0    0  0.17343382568E+02  0.30776546373E+01 -0.16958858149E+03  0.21140933253E+03  0.12499341595E+03 0.  0.
          5    1    3    3  501    0  0.49915656268E+02 -0.20357352894E+02 -0.21594464108E+02  0.58071726663E+02  0.10000000000E+00 0.  1.
         -5    1    3    3    0  501 -0.32572273700E+02  0.23435007531E+02 -0.14799411739E+03  0.15333760587E+03  0.10000000000E+00 0.  1.
         21    1    1    2  504  502 -0.17343382568E+02 -0.30776546373E+01  0.14438046232E+02  0.22775470489E+02  0.00000000000E+00 0. -1.
<mgrwt>
<rscale>  1 0.12622844E+03</rscale>
<asrwt>0</asrwt>
<pdfrwt beam="1">  1       21 0.60795592E-02 0.12622844E+03</pdfrwt>
<pdfrwt beam="2">  1       21 0.29948872E-01 0.12622844E+03</pdfrwt>
<totfact> 0.20481633E+06</totfact>
</mgrwt>
</event>
<event>
 6    1  0.4241465E-002  0.1412573E+03  0.7546771E-02  0.1211647E+00
         21   -1    0    0  504  502  0.00000000000E+00  0.00000000000E+00  0.26586258157E+03  0.26586258157E+03  0.00000000000E+00 0. -1.
         21   -1    0    0  502  503 -0.00000000000E+00 -0.00000000000E+00 -0.40401255527E+02  0.40401255527E+02  0.00000000000E+00 0. -1.
         25    2    1    2    0    0  0.63858225007E+02 -0.15856122155E+02  0.14708671868E+03  0.20393168872E+03  0.12499736535E+03 0.  0.
          5    1    3    3  501    0  0.17828764186E+02  0.17683376310E+02 -0.16945228171E+02  0.30293850662E+02  0.10000000000E+00 0. -1.
         -5    1    3    3    0  501  0.46029460821E+02 -0.33539498465E+02  0.16403194685E+03  0.17363783806E+03  0.10000000000E+00 0. -1.
         21    1    1    2  504  503 -0.63858225007E+02  0.15856122155E+02  0.78374607370E+02  0.10233214838E+03  0.00000000000E+00 0. -1.
<mgrwt>
<rscale>  1 0.14125732E+03</rscale>
<asrwt>0</asrwt>
<pdfrwt beam="1">  1       21 0.40901935E-01 0.14125732E+03</pdfrwt>
<pdfrwt beam="2">  1       21 0.62155779E-02 0.14125732E+03</pdfrwt>
<totfact> 0.10704534E+06</totfact>
</mgrwt>
</event>
<event>
 6    1  0.4241465E-002  0.1813677E+03  0.7546771E-02  0.1166486E+00
         21   -1    0    0  503  502  0.00000000000E+00  0.00000000000E+00  0.16184985980E+03  0.16184985980E+03  0.00000000000E+00 0. -1.
         21   -1    0    0  504  503 -0.00000000000E+00 -0.00000000000E+00 -0.21571449925E+03  0.21571449925E+03  0.00000000000E+00 0. -1.
         25    2    1    2    0    0  0.13014150072E+03  0.18223323472E+02  0.72436885781E+02  0.19529813892E+03  0.12500144365E+03 0.  0.
          5    1    3    3  501    0  0.11864979681E+03 -0.12563850793E+02  0.97407299431E+02  0.15402537652E+03  0.10000000000E+00 0.  1.
         -5    1    3    3    0  501  0.11491703912E+02  0.30787174265E+02 -0.24970413650E+02  0.41272762397E+02  0.10000000000E+00 0.  1.
         21    1    1    2  504  502 -0.13014150072E+03 -0.18223323472E+02 -0.12630152522E+03  0.18226622013E+03  0.00000000000E+00 0. -1.
<mgrwt>
<rscale>  1 0.18136775E+03</rscale>
<asrwt>0</asrwt>
<pdfrwt beam="1">  1       21 0.24899978E-01 0.18136775E+03</pdfrwt>
<pdfrwt beam="2">  1       21 0.33186846E-01 0.18136775E+03</pdfrwt>
<totfact> 0.13394729E+05</totfact>
</mgrwt>
</event>
<event>
 6    1  0.4241465E-002  0.1374272E+03  0.7546771E-02  0.1216833E+00
         21   -1    0    0  503  502  0.00000000000E+00  0.00000000000E+00  0.33326740401E+03  0.33326740401E+03  0.00000000000E+00 0.  1.
         21   -1    0    0  504  503 -0.00000000000E+00 -0.00000000000E+00 -0.16841402714E+03  0.16841402714E+03  0.00000000000E+00 0.  1.
         25    2    1    2    0    0  0.51562218703E+02 -0.24537333429E+02 -0.13725147769E+03  0.19422722924E+03  0.12500202126E+03 0.  0.
          5    1    3    3  501    0  0.17844603162E+02 -0.50295684175E+02 -0.14184128245E+03  0.15154882090E+03  0.10000000000E+00 0.  1.
         -5    1    3    3    0  501  0.33717615541E+02  0.25758350746E+02  0.45898047576E+01  0.42678408342E+02  0.10000000000E+00 0.  1.
         21    1    1    2  504  502 -0.51562218703E+02  0.24537333429E+02  0.30210485456E+03  0.30745420192E+03  0.00000000000E+00 0.  1.
<mgrwt>
<rscale>  1 0.13742725E+03</rscale>
<asrwt>0</asrwt>
<pdfrwt beam="1">  1       21 0.51271908E-01 0.13742725E+03</pdfrwt>
<pdfrwt beam="2">  1       21 0.25909850E-01 0.13742725E+03</pdfrwt>
<totfact> 0.52539175E+04</totfact>
</mgrwt>
</event>
<event>
 6    1  0.4241465E-002  0.1317113E+03  0.7546771E-02  0.1224938E+00
         21   -1    0    0  503  502  0.00000000000E+00  0.00000000000E+00  0.74781374389E+02  0.74781374389E+02  0.00000000000E+00 0. -1.
         21   -1    0    0  504  503 -0.00000000000E+00 -0.00000000000E+00 -0.10342623694E+03  0.10342623694E+03  0.00000000000E+00 0. -1.
         25    2    1    2    0    0  0.28371314517E+01  0.41378304353E+02 -0.34915833973E+02  0.13626075843E+03  0.12501066130E+03 0.  0.
          5    1    3    3  501    0  0.31767927249E+02 -0.81661793816E+01 -0.64015717338E+02  0.71929894715E+02  0.10000000000E+00 0.  1.
         -5    1    3    3    0  501 -0.28930795797E+02  0.49544483734E+02  0.29099883365E+02  0.64330863711E+02  0.10000000000E+00 0.  1.
         21    1    1    2  504  502 -0.28371314517E+01 -0.41378304353E+02  0.62709714208E+01  0.41946852904E+02  0.00000000000E+00 0. -1.
<mgrwt>
<rscale>  1 0.13171135E+03</rscale>
<asrwt>0</asrwt>
<pdfrwt beam="1">  1       21 0.11504827E-01 0.13171135E+03</pdfrwt>
<pdfrwt beam="2">  1       21 0.15911729E-01 0.13171135E+03</pdfrwt>
<totfact> 0.22143410E+06</totfact>
</mgrwt>
</event>
<event>
 6    1  0.4241465E-002  0.1260557E+03  0.7546771E-02  0.1233429E+00
         21   -1    0    0  503  502  0.00000000000E+00  0.00000000000E+00  0.12419250261E+02  0.12419250261E+02  0.00000000000E+00 0. -1.
         21   -1    0    0  504  503 -0.00000000000E+00 -0.00000000000E+00 -0.41598290944E+03  0.41598290944E+03  0.00000000000E+00 0. -1.
         25    2    1    2    0    0  0.15289108708E+02 -0.57021053104E+01 -0.37345938620E+03  0.39415981601E+03  0.12499510616E+03 0.  0.
          5    1    3    3  501    0  0.58251902037E+02 -0.27459045536E+02 -0.29620254751E+03  0.30312248749E+03  0.10000000000E+00 0.  1.
         -5    1    3    3    0  501 -0.42962793329E+02  0.21756940225E+02 -0.77256838695E+02  0.91037328518E+02  0.10000000000E+00 0.  1.
         21    1    1    2  504  502 -0.15289108708E+02  0.57021053104E+01 -0.30104272980E+02  0.34242343695E+02  0.00000000000E+00 0.  1.
<mgrwt>
<rscale>  1 0.12605573E+03</rscale>
<asrwt>0</asrwt>
<pdfrwt beam="1">  1       21 0.19106542E-02 0.12605573E+03</pdfrwt>
<pdfrwt beam="2">  1       21 0.63997361E-01 0.12605573E+03</pdfrwt>
<totfact> 0.29662625E+06</totfact>
</mgrwt>
</event>
<event>
 6    1  0.4241465E-002  0.1435525E+03  0.7546771E-02  0.1208627E+00
         21   -1    0    0  504  502  0.00000000000E+00  0.00000000000E+00  0.32773103671E+03  0.32773103671E+03  0.00000000000E+00 0. -1.
         21   -1    0    0  502  503 -0.00000000000E+00 -0.00000000000E+00 -0.12683086222E+03  0.12683086222E+03  0.00000000000E+00 0. -1.
         25    2    1    2    0    0  0.97074046270E+01  0.69908645460E+02 -0.80405771015E+02  0.16453692175E+03  0.12500343272E+03 0.  0.
          5    1    3    3  501    0  0.20432815874E+02 -0.24191541783E+02 -0.59718089024E+02  0.67594310524E+02  0.10000000000E+00 0. -1.
         -5    1    3    3    0  501 -0.10725411247E+02  0.94100187243E+02 -0.20687681990E+02  0.96942611228E+02  0.10000000000E+00 0. -1.
         21    1    1    2  504  503 -0.97074046270E+01 -0.69908645460E+02  0.28130594550E+03  0.29002497718E+03  0.00000000000E+00 0. -1.
<mgrwt>
<rscale>  1 0.14355247E+03</rscale>
<asrwt>0</asrwt>
<pdfrwt beam="1">  1       21 0.50420159E-01 0.14355247E+03</pdfrwt>
<pdfrwt beam="2">  1       21 0.19512440E-01 0.14355247E+03</pdfrwt>
<totfact> 0.92294230E+04</totfact>
</mgrwt>
</event>
<event>
 6    1  0.4241465E-002  0.1333351E+03  0.7546771E-02  0.1222589E+00
         21   -1    0    0  503  502  0.00000000000E+00  0.00000000000E+00  0.18453175267E+02  0.18453175267E+02  0.00000000000E+00 0. -1.
         21   -1    0    0  504  503 -0.00000000000E+00 -0.00000000000E+00 -0.53566457295E+03  0.53566457295E+03  0.00000000000E+00 0. -1.
         25    2    1    2    0    0 -0.38830433853E+02 -0.25462342864E+02 -0.46728529559E+03  0.48593601190E+03  0.12498850622E+03 0.  0.
          5    1    3    3  501    0 -0.42494649463E+02 -0.47065615386E+02 -0.45761065685E+03  0.46198321468E+03  0.10000000000E+00 0.  1.
         -5    1    3    3    0  501  0.36642156104E+01  0.21603272522E+02 -0.96746387372E+01  0.23952797214E+02  0.10000000000E+00 0.  1.
         21    1    1    2  504  502  0.38830433853E+02  0.25462342864E+02 -0.49926102094E+02  0.68181736320E+02  0.00000000000E+00 0. -1.
<mgrwt>
<rscale>  1 0.13333514E+03</rscale>
<asrwt>0</asrwt>
<pdfrwt beam="1">  1       21 0.28389496E-02 0.13333514E+03</pdfrwt>
<pdfrwt beam="2">  1       21 0.82409948E-01 0.13333514E+03</pdfrwt>
<totfact> 0.89589071E+05</totfact>
</mgrwt>
</event>
<event>
 6    1  0.4241465E-002  0.1269724E+03  0.7546771E-02  0.1232018E+00
         21   -1    0    0  503  502  0.00000000000E+00  0.00000000000E+00  0.85041496244E+02  0.85041496244E+02  0.00000000000E+00 0.  1.
         21   -1    0    0  504  503 -0.00000000000E+00 -0.00000000000E+00 -0.39741927394E+03  0.39741927394E+03  0.00000000000E+00 0.  1.
         25    2    1    2    0    0 -0.22141686334E+01 -0.22228724478E+02 -0.38556831118E+03  0.40593709460E+03  0.12499193352E+03 0.  0.
          5    1    3    3  501    0  0.56688346185E+02 -0.34950364245E+02 -0.19376520255E+03  0.20489036159E+03  0.10000000000E+00 0. -1.
         -5    1    3    3    0  501 -0.58902514819E+02  0.12721639767E+02 -0.19180310863E+03  0.20104673300E+03  0.10000000000E+00 0. -1.
         21    1    1    2  504  502  0.22141686334E+01  0.22228724478E+02  0.73190533483E+02  0.76523675592E+02  0.00000000000E+00 0.  1.
<mgrwt>
<rscale>  1 0.12697245E+03</rscale>
<asrwt>0</asrwt>
<pdfrwt beam="1">  1       21 0.13083307E-01 0.12697245E+03</pdfrwt>
<pdfrwt beam="2">  1       21 0.61141426E-01 0.12697245E+03</pdfrwt>
<totfact> 0.12798935E+05</totfact>
</mgrwt>
</event>
<event>
 6    1  0.4241465E-002  0.1263354E+03  0.7546771E-02  0.1232997E+00
         21   -1    0    0  503  502  0.00000000000E+00  0.00000000000E+00  0.10967479729E+02  0.10967479729E+02  0.00000000000E+00 0. -1.
         21   -1    0    0  504  503 -0.00000000000E+00 -0.00000000000E+00 -0.97415934042E+03  0.97415934042E+03  0.00000000000E+00 0. -1.
         25    2    1    2    0    0  0.13388023797E+02  0.12395633773E+02 -0.95780775406E+03  0.96610368892E+03  0.12501101183E+03 0.  0.
          5    1    3    3  501    0  0.31192650525E-01 -0.55040295587E+02 -0.33202264688E+03  0.33655383396E+03  0.10000000000E+00 0.  1.
         -5    1    3    3    0  501  0.13356831147E+02  0.67435929360E+02 -0.62578510718E+03  0.62954985495E+03  0.10000000000E+00 0.  1.
         21    1    1    2  504  502 -0.13388023797E+02 -0.12395633773E+02 -0.53841066337E+01  0.19023131237E+02  0.00000000000E+00 0. -1.
<mgrwt>
<rscale>  1 0.12633544E+03</rscale>
<asrwt>0</asrwt>
<pdfrwt beam="1">  1       21 0.16873051E-02 0.12633544E+03</pdfrwt>
<pdfrwt beam="2">  1       21 0.14987062E+00 0.12633544E+03</pdfrwt>
<totfact> 0.49474045E+05</totfact>
</mgrwt>
</event>
<event>
 6    1  0.4241465E-002  0.1264498E+03  0.7546771E-02  0.1232821E+00
         21   -1    0    0  503  502  0.00000000000E+00  0.00000000000E+00  0.23276311914E+03  0.23276311914E+03  0.00000000000E+00 0. -1.
         21   -1    0    0  504  503 -0.00000000000E+00 -0.00000000000E+00 -0.45436561244E+02  0.45436561244E+02  0.00000000000E+00 0. -1.
         25    2    1    2    0    0 -0.98081734208E+01  0.16422201985E+02  0.44429623191E+02  0.13402817511E+03  0.12499468518E+03 0.  0.
          5    1    3    3  501    0  0.54206751208E+02  0.75172388788E+01  0.42632794096E+02  0.69371794624E+02  0.10000000000E+00 0.  1.
         -5    1    3    3    0  501 -0.64014924629E+02  0.89049631067E+01  0.17968290944E+01  0.64656380489E+02  0.10000000000E+00 0.  1.
         21    1    1    2  504  502  0.98081734208E+01 -0.16422201985E+02  0.14289693470E+03  0.14417150527E+03  0.00000000000E+00 0. -1.
<mgrwt>
<rscale>  1 0.12644983E+03</rscale>
<asrwt>0</asrwt>
<pdfrwt beam="1">  1       21 0.35809710E-01 0.12644983E+03</pdfrwt>
<pdfrwt beam="2">  1       21 0.69902403E-02 0.12644983E+03</pdfrwt>
<totfact> 0.11401555E+06</totfact>
</mgrwt>
</event>
<event>
 6    1  0.4241465E-002  0.1260512E+03  0.7546771E-02  0.1233435E+00
         21   -1    0    0  504  502  0.00000000000E+00  0.00000000000E+00  0.67800009791E+01  0.67800009791E+01  0.00000000000E+00 0.  1.
         21   -1    0    0  502  503 -0.00000000000E+00 -0.00000000000E+00 -0.75209609172E+03  0.75209609172E+03  0.00000000000E+00 0.  1.
         25    2    1    2    0    0  0.13557854197E+02 -0.83922343097E+01 -0.68418766549E+03  0.69570228974E+03  0.12503867133E+03 0.  0.
          5    1    3    3  501    0 -0.53720876939E+02 -0.19023753261E+02 -0.35454110981E+03  0.35909225047E+03  0.10000000000E+00 0.  1.
         -5    1    3    3    0  501  0.67278731136E+02  0.10631518951E+02 -0.32964655569E+03  0.33661003927E+03  0.10000000000E+00 0.  1.
         21    1    1    2  504  503 -0.13557854197E+02  0.83922343097E+01 -0.61128425251E+02  0.63173802963E+02  0.00000000000E+00 0.  1.
<mgrwt>
<rscale>  1 0.12605124E+03</rscale>
<asrwt>0</asrwt>
<pdfrwt beam="1">  1       21 0.10430774E-02 0.12605124E+03</pdfrwt>
<pdfrwt beam="2">  1       21 0.11570705E+00 0.12605124E+03</pdfrwt>
<totfact> 0.20278521E+06</totfact>
</mgrwt>
</event>
<event>
 6    1  0.4241465E-002  0.1457738E+03  0.7546771E-02  0.1205764E+00
         21   -1    0    0  503  502  0.00000000000E+00  0.00000000000E+00  0.10214199711E+04  0.10214199711E+04  0.00000000000E+00 0.  1.
         21   -1    0    0  504  503 -0.00000000000E+00 -0.00000000000E+00 -0.11938319906E+02  0.11938319906E+02  0.00000000000E+00 0.  1.
         25    2    1    2    0    0  0.66802596485E+02 -0.34098332983E+02  0.67939747332E+03  0.69486036236E+03  0.12499885290E+03 0.  0.
          5    1    3    3  501    0 -0.17476689699E+02  0.13073464554E+02  0.24223545398E+02  0.32605832453E+02  0.10000000000E+00 0. -1.
         -5    1    3    3    0  501  0.84279286185E+02 -0.47171797537E+02  0.65517392792E+03  0.66225452991E+03  0.10000000000E+00 0. -1.
         21    1    1    2  504  502 -0.66802596485E+02  0.34098332983E+02  0.33008417786E+03  0.33849792863E+03  0.00000000000E+00 0.  1.
<mgrwt>
<rscale>  1 0.14577379E+03</rscale>
<asrwt>0</asrwt>
<pdfrwt beam="1">  1       21 0.15714146E+00 0.14577379E+03</pdfrwt>
<pdfrwt beam="2">  1       21 0.18366654E-02 0.14577379E+03</pdfrwt>
<totfact> 0.37929513E+05</totfact>
</mgrwt>
</event>
<event>
 6    1  0.4241465E-002  0.1265666E+03  0.7546771E-02  0.1232641E+00
         21   -1    0    0  503  502  0.00000000000E+00  0.00000000000E+00  0.11310317111E+02  0.11310317111E+02  0.00000000000E+00 0.  1.
         21   -1    0    0  504  503 -0.00000000000E+00 -0.00000000000E+00 -0.47781756934E+03  0.47781756934E+03  0.00000000000E+00 0.  1.
         25    2    1    2    0    0  0.19690688010E+02  0.54110804317E+01 -0.40556274748E+03  0.42485319746E+03  0.12490834345E+03 0.  0.
          5    1    3    3  501    0 -0.32443870677E+02 -0.32195320348E+02 -0.72955617996E+02  0.86091088935E+02  0.10000000000E+00 0. -1.
         -5    1    3    3    0  501  0.52134558687E+02  0.37606400780E+02 -0.33260712948E+03  0.33876210852E+03  0.10000000000E+00 0. -1.
         21    1    1    2  504  502 -0.19690688010E+02 -0.54110804317E+01 -0.60944504748E+02  0.64274688990E+02  0.00000000000E+00 0.  1.
<mgrwt>
<rscale>  1 0.12656657E+03</rscale>
<asrwt>0</asrwt>
<pdfrwt beam="1">  1       21 0.17400490E-02 0.12656657E+03</pdfrwt>
<pdfrwt beam="2">  1       21 0.73510387E-01 0.12656657E+03</pdfrwt>
<totfact> 0.25518412E+06</totfact>
</mgrwt>
</event>
<event>
 6    1  0.4241465E-002  0.1261044E+03  0.7546771E-02  0.1233353E+00
         21   -1    0    0  503  502  0.00000000000E+00  0.00000000000E+00  0.50773236178E+03  0.50773236178E+03  0.00000000000E+00 0.  1.
         21   -1    0    0  504  503 -0.00000000000E+00 -0.00000000000E+00 -0.10613258635E+02  0.10613258635E+02  0.00000000000E+00 0.  1.
         25    2    1    2    0    0  0.14028745624E+02  0.91204859948E+01  0.38873332547E+03  0.40867581705E+03  0.12498934410E+03 0.  0.
          5    1    3    3  501    0 -0.35118377676E+02  0.49205329768E+02  0.15161564794E+03  0.16322309771E+03  0.10000000000E+00 0. -1.
         -5    1    3    3    0  501  0.49147123300E+02 -0.40084843773E+02  0.23711767754E+03  0.24545271934E+03  0.10000000000E+00 0. -1.
         21    1    1    2  504  502 -0.14028745624E+02 -0.91204859948E+01  0.10838577767E+03  0.10966980336E+03  0.00000000000E+00 0.  1.
<mgrwt>
<rscale>  1 0.12610442E+03</rscale>
<asrwt>0</asrwt>
<pdfrwt beam="1">  1       21 0.78112652E-01 0.12610442E+03</pdfrwt>
<pdfrwt beam="2">  1       21 0.16328094E-02 0.12610442E+03</pdfrwt>
<totfact> 0.24705817E+06</totfact>
</mgrwt>
</event>
<event>
 6    1  0.4241465E-002  0.1338000E+03  0.7546771E-02  0.1221924E+00
         21   -1    0    0  504  502  0.00000000000E+00  0.00000000000E+00  0.24842199785E+03  0.24842199785E+03  0.00000000000E+00 0. -1.
         21   -1    0    0  502  503 -0.00000000000E+00 -0.00000000000E+00 -0.68409045510E+03  0.68409045510E+03  0.00000000000E+00 0. -1.
         25    2    1    2    0    0 -0.31015739087E+02  0.36284406047E+02 -0.67517017639E+03  0.68830023447E+03  0.12499564589E+03 0.  0.
          5    1    3    3  501    0 -0.30986945970E+02  0.54083079704E+02 -0.66476938021E+03  0.66768518719E+03  0.10000000000E+00 0.  1.
         -5    1    3    3    0  501 -0.28793116724E-01 -0.17798673656E+02 -0.10400796175E+02  0.20615047272E+02  0.10000000000E+00 0.  1.
         21    1    1    2  504  503  0.31015739087E+02 -0.36284406047E+02  0.23950171913E+03  0.24421221849E+03  0.00000000000E+00 0. -1.
<mgrwt>
<rscale>  1 0.13380002E+03</rscale>
<asrwt>0</asrwt>
<pdfrwt beam="1">  1       21 0.38218769E-01 0.13380002E+03</pdfrwt>
<pdfrwt beam="2">  1       21 0.10524469E+00 0.13380002E+03</pdfrwt>
<totfact> 0.50554655E+03</totfact>
</mgrwt>
</event>
<event>
 6    1  0.4241465E-002  0.1358884E+03  0.7546771E-02  0.1218971E+00
         21   -1    0    0  503  502  0.00000000000E+00  0.00000000000E+00  0.18474100238E+03  0.18474100238E+03  0.00000000000E+00 0. -1.
         21   -1    0    0  504  503 -0.00000000000E+00 -0.00000000000E+00 -0.83887014391E+02  0.83887014391E+02  0.00000000000E+00 0. -1.
         25    2    1    2    0    0  0.40853113695E+02  0.34361141770E+02 -0.19202439616E+02  0.13723847848E+03  0.12496400012E+03 0.  0.
          5    1    3    3  501    0  0.68653644853E+02 -0.11791997234E+02 -0.39004169348E+02  0.79835514509E+02  0.10000000000E+00 0.  1.
         -5    1    3    3    0  501 -0.27800531158E+02  0.46153139004E+02  0.19801729732E+02  0.57402963974E+02  0.10000000000E+00 0.  1.
         21    1    1    2  504  502 -0.40853113695E+02 -0.34361141770E+02  0.12005642760E+03  0.13138953829E+03  0.00000000000E+00 0. -1.
<mgrwt>
<rscale>  1 0.13588843E+03</rscale>
<asrwt>0</asrwt>
<pdfrwt beam="1">  1       21 0.28421693E-01 0.13588843E+03</pdfrwt>
<pdfrwt beam="2">  1       21 0.12905695E-01 0.13588843E+03</pdfrwt>
<totfact> 0.61308552E+05</totfact>
</mgrwt>
</event>
<event>
 6    1  0.4241465E-002  0.1265924E+03  0.7546771E-02  0.1232601E+00
         21   -1    0    0  504  502  0.00000000000E+00  0.00000000000E+00  0.27208672178E+03  0.27208672178E+03  0.00000000000E+00 0. -1.
         21   -1    0    0  502  503 -0.00000000000E+00 -0.00000000000E+00 -0.26696800186E+02  0.26696800186E+02  0.00000000000E+00 0. -1.
         25    2    1    2    0    0 -0.12732807493E+02 -0.15454210218E+02  0.12920429212E+03  0.18088501690E+03  0.12499873294E+03 0.  0.
          5    1    3    3  501    0  0.64218645919E+01  0.49709321004E+02  0.23784244875E+02  0.55479340693E+02  0.10000000000E+00 0. -1.
         -5    1    3    3    0  501 -0.19154672085E+02 -0.65163531222E+02  0.10542004724E+03  0.12540567621E+03  0.10000000000E+00 0. -1.
         21    1    1    2  504  503  0.12732807493E+02  0.15454210218E+02  0.11618562948E+03  0.11789850507E+03  0.00000000000E+00 0. -1.
<mgrwt>
<rscale>  1 0.12659242E+03</rscale>
<asrwt>0</asrwt>
<pdfrwt beam="1">  1       21 0.41859494E-01 0.12659242E+03</pdfrwt>
<pdfrwt beam="2">  1       21 0.41072002E-02 0.12659242E+03</pdfrwt>
<totfact> 0.20478950E+06</totfact>
</mgrwt>
</event>
<event>
 6    1  0.4241465E-002  0.1266561E+03  0.7546771E-02  0.1232504E+00
         21   -1    0    0  504  502  0.00000000000E+00  0.00000000000E+00  0.11902896915E+03  0.11902896915E+03  0.00000000000E+00 0.  1.
         21   -1    0    0  502  503 -0.00000000000E+00 -0.00000000000E+00 -0.53552699038E+03  0.53552699038E+03  0.00000000000E+00 0.  1.
         25    2    1    2    0    0  0.20087091218E+02 -0.37636752632E+01 -0.52708887471E+03  0.54209266170E+03  0.12499646212E+03 0.  0.
          5    1    3    3  501    0  0.34449393428E+02  0.55687576241E+02 -0.26870163363E+03  0.27656544392E+03  0.10000000000E+00 0. -1.
         -5    1    3    3    0  501 -0.14362302210E+02 -0.59451251504E+02 -0.25838724108E+03  0.26552721778E+03  0.10000000000E+00 0. -1.
         21    1    1    2  504  503 -0.20087091218E+02  0.37636752632E+01  0.11059085348E+03  0.11246329783E+03  0.00000000000E+00 0.  1.
<mgrwt>
<rscale>  1 0.12665612E+03</rscale>
<asrwt>0</asrwt>
<pdfrwt beam="1">  1       21 0.18312150E-01 0.12665612E+03</pdfrwt>
<pdfrwt beam="2">  1       21 0.82388766E-01 0.12665612E+03</pdfrwt>
<totfact> 0.36333407E+04</totfact>
</mgrwt>
</event>
<event>
 6    1  0.4241465E-002  0.1306196E+03  0.7546771E-02  0.1226539E+00
         21   -1    0    0  504  502  0.00000000000E+00  0.00000000000E+00  0.98567107169E+03  0.98567107169E+03  0.00000000000E+00 0. -1.
         21   -1    0    0  502  503 -0.00000000000E+00 -0.00000000000E+00 -0.81875725622E+01  0.81875725622E+01  0.00000000000E+00 0. -1.
         25    2    1    2    0    0  0.12904440670E+02 -0.35646565053E+02  0.57774861777E+03  0.59233009289E+03  0.12499708562E+03 0.  0.
          5    1    3    3  501    0 -0.30213022882E+02  0.52977134220E+01  0.35861916628E+02  0.47190884537E+02  0.10000000000E+00 0. -1.
         -5    1    3    3    0  501  0.43117463552E+02 -0.40944278475E+02  0.54188670115E+03  0.54513920835E+03  0.10000000000E+00 0. -1.
         21    1    1    2  504  503 -0.12904440670E+02  0.35646565053E+02  0.39973488136E+03  0.40152855137E+03  0.00000000000E+00 0. -1.
<mgrwt>
<rscale>  1 0.13061958E+03</rscale>
<asrwt>0</asrwt>
<pdfrwt beam="1">  1       21 0.15164161E+00 0.13061958E+03</pdfrwt>
<pdfrwt beam="2">  1       21 0.12596273E-02 0.13061958E+03</pdfrwt>
<totfact> 0.76428755E+05</totfact>
</mgrwt>
</event>
<event>
 6    1  0.4241465E-002  0.1273754E+03  0.7546771E-02  0.1231403E+00
         21   -1    0    0  504  502  0.00000000000E+00  0.00000000000E+00  0.40603116777E+02  0.40603116777E+02  0.00000000000E+00 0.  1.
         21   -1    0    0  502  503 -0.00000000000E+00 -0.00000000000E+00 -0.14691948528E+03  0.14691948528E+03  0.00000000000E+00 0.  1.
         25    2    1    2    0    0 -0.23642429080E+02 -0.62399553938E+01 -0.10085241609E+03  0.16246753726E+03  0.12500635718E+03 0.  0.
          5    1    3    3  501    0  0.35314894318E+02  0.22038250607E+02 -0.85806037695E+02  0.95370395592E+02  0.10000000000E+00 0.  1.
         -5    1    3    3    0  501 -0.58957323398E+02 -0.28278206000E+02 -0.15046378395E+02  0.67097141666E+02  0.10000000000E+00 0.  1.
         21    1    1    2  504  503  0.23642429080E+02  0.62399553938E+01 -0.54639524143E+01  0.25055064800E+02  0.00000000000E+00 0.  1.
<mgrwt>
<rscale>  1 0.12737539E+03</rscale>
<asrwt>0</asrwt>
<pdfrwt beam="1">  1       21 0.62466335E-02 0.12737539E+03</pdfrwt>
<pdfrwt beam="2">  1       21 0.22602997E-01 0.12737539E+03</pdfrwt>
<totfact> 0.33375682E+06</totfact>
</mgrwt>
</event>
<event>
 6    1  0.4241465E-002  0.1264333E+03  0.7546771E-02  0.1232846E+00
         21   -1    0    0  503  502  0.00000000000E+00  0.00000000000E+00  0.15619969722E+04  0.15619969722E+04  0.00000000000E+00 0. -1.
         21   -1    0    0  504  503 -0.00000000000E+00 -0.00000000000E+00 -0.19978971147E+02  0.19978971147E+02  0.00000000000E+00 0.  1.
         25    2    1    2    0    0  0.17919798353E+02  0.62659228424E+01  0.18077949327E+03  0.22060506954E+03  0.12499996224E+03 0.  0.
          5    1    3    3  501    0  0.39231757754E+02 -0.17102433621E+02  0.18390916947E+03  0.18882324186E+03  0.10000000000E+00 0.  1.
         -5    1    3    3    0  501 -0.21311959401E+02  0.23368356463E+02 -0.31296762074E+01  0.31781827676E+02  0.10000000000E+00 0.  1.
         21    1    1    2  504  502 -0.17919798353E+02 -0.62659228424E+01  0.13612385078E+04  0.13613708738E+04  0.00000000000E+00 0. -1.
<mgrwt>
<rscale>  1 0.12643327E+03</rscale>
<asrwt>0</asrwt>
<pdfrwt beam="1">  1       21 0.24030713E+00 0.12643327E+03</pdfrwt>
<pdfrwt beam="2">  1       21 0.30736891E-02 0.12643327E+03</pdfrwt>
<totfact> 0.48774303E+04</totfact>
</mgrwt>
</event>
<event>
 6    1  0.4241465E-002  0.1263181E+03  0.7546771E-02  0.1233024E+00
         21   -1    0    0  504  502  0.00000000000E+00  0.00000000000E+00  0.18288343128E+03  0.18288343128E+03  0.00000000000E+00 0. -1.
         21   -1    0    0  502  503 -0.00000000000E+00 -0.00000000000E+00 -0.29226662172E+02  0.29226662172E+02  0.00000000000E+00 0. -1.
         25    2    1    2    0    0 -0.16982085384E+02 -0.64131034164E+01  0.12197622014E+03  0.17559740658E+03  0.12500692701E+03 0.  0.
          5    1    3    3  501    0  0.12933349425E+02  0.38374528254E+02  0.11421478007E+03  0.12118127715E+03  0.10000000000E+00 0. -1.
         -5    1    3    3    0  501 -0.29915434808E+02 -0.44787631670E+02  0.77614400725E+01  0.54416129432E+02  0.10000000000E+00 0. -1.
         21    1    1    2  504  503  0.16982085384E+02  0.64131034164E+01  0.31680548967E+02  0.36512686867E+02  0.00000000000E+00 0. -1.
<mgrwt>
<rscale>  1 0.12631805E+03</rscale>
<asrwt>0</asrwt>
<pdfrwt beam="1">  1       21 0.28135912E-01 0.12631805E+03</pdfrwt>
<pdfrwt beam="2">  1       21 0.44964097E-02 0.12631805E+03</pdfrwt>
<totfact> 0.38360977E+06</totfact>
</mgrwt>
</event>
<event>
 6    1  0.4241465E-002  0.1316762E+03  0.7546771E-02  0.1224989E+00
         21   -1    0    0  503  502  0.00000000000E+00  0.00000000000E+00  0.46488628457E+03  0.46488628457E+03  0.00000000000E+00 0.  1.
         21   -1    0    0  504  503 -0.00000000000E+00 -0.00000000000E+00 -0.24676744790E+02  0.24676744790E+02  0.00000000000E+00 0.  1.
         25    2    1    2    0    0  0.26085482934E+02 -0.32110492628E+02  0.16422919097E+03  0.21049907776E+03  0.12500839337E+03 0.  0.
          5    1    3    3  501    0  0.60701038099E+02 -0.47862515751E+02  0.55088574852E+02  0.94922060237E+02  0.10000000000E+00 0.  1.
         -5    1    3    3    0  501 -0.34615555165E+02  0.15752023124E+02  0.10914061612E+03  0.11557701752E+03  0.10000000000E+00 0.  1.
         21    1    1    2  504  502 -0.26085482934E+02  0.32110492628E+02  0.27598034880E+03  0.27906395160E+03  0.00000000000E+00 0.  1.
<mgrwt>
<rscale>  1 0.13167625E+03</rscale>
<asrwt>0</asrwt>
<pdfrwt beam="1">  1       21 0.71520960E-01 0.13167625E+03</pdfrwt>
<pdfrwt beam="2">  1       21 0.37964226E-02 0.13167625E+03</pdfrwt>
<totfact> 0.76014307E+05</totfact>
</mgrwt>
</event>
<event>
 6    1  0.4241465E-002  0.1290632E+03  0.7546771E-02  0.1228852E+00
         21   -1    0    0  504  502  0.00000000000E+00  0.00000000000E+00  0.22119249330E+02  0.22119249330E+02  0.00000000000E+00 0. -1.
         21   -1    0    0  502  503 -0.00000000000E+00 -0.00000000000E+00 -0.96051783550E+03  0.96051783550E+03  0.00000000000E+00 0. -1.
         25    2    1    2    0    0  0.37894161100E+01 -0.32036252432E+02 -0.94142976187E+03  0.95023540015E+03  0.12496654762E+03 0.  0.
          5    1    3    3  501    0  0.14635805793E+02  0.44114639207E+02 -0.49985146654E+03  0.50200777564E+03  0.10000000000E+00 0.  1.
         -5    1    3    3    0  501 -0.10846389683E+02 -0.76150891639E+02 -0.44157829533E+03  0.44822762450E+03  0.10000000000E+00 0.  1.
         21    1    1    2  504  503 -0.37894161100E+01  0.32036252432E+02  0.30311756925E+01  0.32401684685E+02  0.00000000000E+00 0. -1.
<mgrwt>
<rscale>  1 0.12906324E+03</rscale>
<asrwt>0</asrwt>
<pdfrwt beam="1">  1       21 0.34029611E-02 0.12906324E+03</pdfrwt>
<pdfrwt beam="2">  1       21 0.14777199E+00 0.12906324E+03</pdfrwt>
<totfact> 0.16394917E+05</totfact>
</mgrwt>
</event>
<event>
 6    1  0.4241465E-002  0.1291319E+03  0.7546771E-02  0.1228750E+00
         21   -1    0    0  503  502  0.00000000000E+00  0.00000000000E+00  0.31158598235E+03  0.31158598235E+03  0.00000000000E+00 0.  1.
         21   -1    0    0  504  503 -0.00000000000E+00 -0.00000000000E+00 -0.14191871032E+03  0.14191871032E+03  0.00000000000E+00 0.  1.
         25    2    1    2    0    0  0.24360299635E+02 -0.21289336981E+02 -0.11142327401E+03  0.17055848729E+03  0.12501356538E+03 0.  0.
          5    1    3    3  501    0 -0.32042800579E+02 -0.45969074896E+02 -0.18345539448E+02  0.58961561491E+02  0.10000000000E+00 0. -1.
         -5    1    3    3    0  501  0.56403100215E+02  0.24679737915E+02 -0.93077734563E+02  0.11159692580E+03  0.10000000000E+00 0. -1.
         21    1    1    2  504  502 -0.24360299635E+02  0.21289336981E+02  0.28109054604E+03  0.28294620538E+03  0.00000000000E+00 0.  1.
<mgrwt>
<rscale>  1 0.12913192E+03</rscale>
<asrwt>0</asrwt>
<pdfrwt beam="1">  1       21 0.47936305E-01 0.12913192E+03</pdfrwt>
<pdfrwt beam="2">  1       21 0.21833648E-01 0.12913192E+03</pdfrwt>
<totfact> 0.83631495E+04</totfact>
</mgrwt>
</event>
<event>
 6    1  0.4241465E-002  0.1264241E+03  0.7546771E-02  0.1232860E+00
         21   -1    0    0  504  502  0.00000000000E+00  0.00000000000E+00  0.47343614739E+02  0.47343614739E+02  0.00000000000E+00 0. -1.
         21   -1    0    0  502  503 -0.00000000000E+00 -0.00000000000E+00 -0.25801734929E+04  0.25801734929E+04  0.00000000000E+00 0.  1.
         25    2    1    2    0    0 -0.15519146089E+02 -0.10904027776E+02 -0.25766597504E+04  0.25797593919E+04  0.12499323585E+03 0.  0.
          5    1    3    3  501    0  0.79500154636E+01 -0.65310765819E+02 -0.11645577888E+04  0.11664148286E+04  0.10000000000E+00 0.  1.
         -5    1    3    3    0  501 -0.23469161552E+02  0.54406738043E+02 -0.14121019616E+04  0.14133445633E+04  0.10000000000E+00 0.  1.
         21    1    1    2  504  503  0.15519146089E+02  0.10904027776E+02  0.43829872216E+02  0.47757715770E+02  0.00000000000E+00 0. -1.
<mgrwt>
<rscale>  1 0.12642409E+03</rscale>
<asrwt>0</asrwt>
<pdfrwt beam="1">  1       21 0.72836328E-02 0.12642409E+03</pdfrwt>
<pdfrwt beam="2">  1       21 0.39694978E+00 0.12642409E+03</pdfrwt>
<totfact> 0.14508991E+03</totfact>
</mgrwt>
</event>
<event>
 6    1  0.4241465E-002  0.1270143E+03  0.7546771E-02  0.1231954E+00
         21   -1    0    0  503  502  0.00000000000E+00  0.00000000000E+00  0.30090592061E+03  0.30090592061E+03  0.00000000000E+00 0. -1.
         21   -1    0    0  504  503 -0.00000000000E+00 -0.00000000000E+00 -0.19214139428E+02  0.19214139428E+02  0.00000000000E+00 0. -1.
         25    2    1    2    0    0  0.15688427298E+02 -0.16349540796E+02  0.21536350052E+03  0.25002815572E+03  0.12497682610E+03 0.  0.
          5    1    3    3  501    0  0.64686705289E+02 -0.27892511936E+02  0.16207649205E+03  0.17672340349E+03  0.10000000000E+00 0. -1.
         -5    1    3    3    0  501 -0.48998277991E+02  0.11542971140E+02  0.53287008467E+02  0.73304752235E+02  0.10000000000E+00 0. -1.
         21    1    1    2  504  502 -0.15688427298E+02  0.16349540796E+02  0.66328280663E+02  0.70091904318E+02  0.00000000000E+00 0.  1.
<mgrwt>
<rscale>  1 0.12701434E+03</rscale>
<asrwt>0</asrwt>
<pdfrwt beam="1">  1       21 0.46293215E-01 0.12701434E+03</pdfrwt>
<pdfrwt beam="2">  1       21 0.29560217E-02 0.12701434E+03</pdfrwt>
<totfact> 0.28742776E+06</totfact>
</mgrwt>
</event>
<event>
 6    1  0.4241465E-002  0.1280957E+03  0.7546771E-02  0.1230309E+00
         21   -1    0    0  504  502  0.00000000000E+00  0.00000000000E+00  0.13767934367E+03  0.13767934367E+03  0.00000000000E+00 0. -1.
         21   -1    0    0  502  503 -0.00000000000E+00 -0.00000000000E+00 -0.61134842368E+02  0.61134842368E+02  0.00000000000E+00 0. -1.
         25    2    1    2    0    0 -0.29026854939E+00 -0.28056585469E+02  0.12269536252E+02  0.12868197250E+03  0.12498500823E+03 0.  0.
          5    1    3    3  501    0  0.54526411797E+02 -0.17127567393E+02 -0.24066815636E+02  0.62013746566E+02  0.10000000000E+00 0.  1.
         -5    1    3    3    0  501 -0.54816680347E+02 -0.10929018076E+02  0.36336351888E+02  0.66668225932E+02  0.10000000000E+00 0.  1.
         21    1    1    2  504  503  0.29026854939E+00  0.28056585469E+02  0.64274965052E+02  0.70132213543E+02  0.00000000000E+00 0. -1.
<mgrwt>
<rscale>  1 0.12809570E+03</rscale>
<asrwt>0</asrwt>
<pdfrwt beam="1">  1       21 0.21181437E-01 0.12809570E+03</pdfrwt>
<pdfrwt beam="2">  1       21 0.94053604E-02 0.12809570E+03</pdfrwt>
<totfact> 0.18640919E+06</totfact>
</mgrwt>
</event>
<event>
 6    1  0.4241465E-002  0.1649858E+03  0.7546771E-02  0.1183180E+00
         21   -1    0    0  504  502  0.00000000000E+00  0.00000000000E+00  0.12506030634E+03  0.12506030634E+03  0.00000000000E+00 0. -1.
         21   -1    0    0  502  503 -0.00000000000E+00 -0.00000000000E+00 -0.16366318600E+03  0.16366318600E+03  0.00000000000E+00 0. -1.
         25    2    1    2    0    0 -0.15354012432E+02  0.10657849430E+03 -0.65865081001E+02  0.17764717278E+03  0.12500235181E+03 0.  0.
          5    1    3    3  501    0  0.25498131256E+02 -0.19391182096E+02 -0.73467700308E+01  0.32865752244E+02  0.10000000000E+00 0.  1.
         -5    1    3    3    0  501 -0.40852143688E+02  0.12596967639E+03 -0.58518310970E+02  0.14478142054E+03  0.10000000000E+00 0.  1.
         21    1    1    2  504  503  0.15354012432E+02 -0.10657849430E+03  0.27262201342E+02  0.11107631956E+03  0.00000000000E+00 0. -1.
<mgrwt>
<rscale>  1 0.16498578E+03</rscale>
<asrwt>0</asrwt>
<pdfrwt beam="1">  1       21 0.19240047E-01 0.16498578E+03</pdfrwt>
<pdfrwt beam="2">  1       21 0.25178952E-01 0.16498578E+03</pdfrwt>
<totfact> 0.37284232E+05</totfact>
</mgrwt>
</event>
<event>
 6    1  0.4241465E-002  0.1918106E+03  0.7546771E-02  0.1156838E+00
         21   -1    0    0  504  502  0.00000000000E+00  0.00000000000E+00  0.55457813012E+02  0.55457813012E+02  0.00000000000E+00 0.  1.
         21   -1    0    0  502  503 -0.00000000000E+00 -0.00000000000E+00 -0.63712763419E+03  0.63712763419E+03  0.00000000000E+00 0.  1.
         25    2    1    2    0    0  0.10048187723E+03 -0.10527447859E+03 -0.47464776410E+03  0.51193926209E+03  0.12494792759E+03 0.  0.
          5    1    3    3  501    0  0.35966879265E+02 -0.38194050814E+02 -0.36216361428E+03  0.36594384191E+03  0.10000000000E+00 0.  1.
         -5    1    3    3    0  501  0.64514997967E+02 -0.67080427776E+02 -0.11248414982E+03  0.14599542018E+03  0.10000000000E+00 0.  1.
         21    1    1    2  504  503 -0.10048187723E+03  0.10527447859E+03 -0.10702205708E+03  0.18064618511E+03  0.00000000000E+00 0.  1.
<mgrwt>
<rscale>  1 0.19181060E+03</rscale>
<asrwt>0</asrwt>
<pdfrwt beam="1">  1       21 0.85319708E-02 0.19181060E+03</pdfrwt>
<pdfrwt beam="2">  1       21 0.98019641E-01 0.19181060E+03</pdfrwt>
<totfact> 0.92351648E+04</totfact>
</mgrwt>
</event>
<event>
 6    1  0.4241465E-002  0.1274737E+03  0.7546771E-02  0.1231253E+00
         21   -1    0    0  504  502  0.00000000000E+00  0.00000000000E+00  0.26167725559E+02  0.26167725559E+02  0.00000000000E+00 0. -1.
         21   -1    0    0  502  503 -0.00000000000E+00 -0.00000000000E+00 -0.48475155704E+03  0.48475155704E+03  0.00000000000E+00 0. -1.
         25    2    1    2    0    0 -0.22999261888E+02  0.98275345407E+01 -0.46734511083E+03  0.48441821661E+03  0.12499603789E+03 0.  0.
          5    1    3    3  501    0 -0.50392101442E+02  0.53537473841E+02 -0.31890244423E+03  0.32726809183E+03  0.10000000000E+00 0.  1.
         -5    1    3    3    0  501  0.27392839554E+02 -0.43709939301E+02 -0.14844266660E+03  0.15715012479E+03  0.10000000000E+00 0.  1.
         21    1    1    2  504  503  0.22999261888E+02 -0.98275345407E+01  0.87612793490E+01  0.26501065985E+02  0.00000000000E+00 0. -1.
<mgrwt>
<rscale>  1 0.12747375E+03</rscale>
<asrwt>0</asrwt>
<pdfrwt beam="1">  1       21 0.40258043E-02 0.12747375E+03</pdfrwt>
<pdfrwt beam="2">  1       21 0.74577155E-01 0.12747375E+03</pdfrwt>
<totfact> 0.62917144E+05</totfact>
</mgrwt>
</event>
<event>
 6    1  0.4241465E-002  0.1262468E+03  0.7546771E-02  0.1233134E+00
         21   -1    0    0  504  502  0.00000000000E+00  0.00000000000E+00  0.16893167992E+03  0.16893167992E+03  0.00000000000E+00 0.  1.
         21   -1    0    0  502  503 -0.00000000000E+00 -0.00000000000E+00 -0.38785496177E+02  0.38785496177E+02  0.00000000000E+00 0.  1.
         25    2    1    2    0    0  0.44349350378E+01  0.17136019733E+02  0.68609742167E+02  0.14368557872E+03  0.12499974796E+03 0.  0.
          5    1    3    3  501    0 -0.46361540136E+02  0.35730469899E+01 -0.11466242695E+02  0.47892001316E+02  0.10000000000E+00 0. -1.
         -5    1    3    3    0  501  0.50796475174E+02  0.13562972743E+02  0.80075984861E+02  0.95793577401E+02  0.10000000000E+00 0. -1.
         21    1    1    2  504  503 -0.44349350378E+01 -0.17136019733E+02  0.61536441575E+02  0.64031597378E+02  0.00000000000E+00 0.  1.
<mgrwt>
<rscale>  1 0.12624678E+03</rscale>
<asrwt>0</asrwt>
<pdfrwt beam="1">  1       21 0.25989489E-01 0.12624678E+03</pdfrwt>
<pdfrwt beam="2">  1       21 0.59669995E-02 0.12624678E+03</pdfrwt>
<totfact> 0.27724158E+06</totfact>
</mgrwt>
</event>
<event>
 6    1  0.4241465E-002  0.1272424E+03  0.7546771E-02  0.1231606E+00
         21   -1    0    0  503  502  0.00000000000E+00  0.00000000000E+00  0.54426267012E+02  0.54426267012E+02  0.00000000000E+00 0.  1.
         21   -1    0    0  504  503 -0.00000000000E+00 -0.00000000000E+00 -0.45307018022E+03  0.45307018022E+03  0.00000000000E+00 0.  1.
         25    2    1    2    0    0 -0.21555739814E+02 -0.10097047046E+02 -0.44095647473E+03  0.45894798547E+03  0.12499616186E+03 0.  0.
          5    1    3    3  501    0 -0.68363003893E+02 -0.30789242862E+02 -0.23193754423E+03  0.24375502498E+03  0.10000000000E+00 0. -1.
         -5    1    3    3    0  501  0.46807264079E+02  0.20692195816E+02 -0.20901893050E+03  0.21519296049E+03  0.10000000000E+00 0. -1.
         21    1    1    2  504  502  0.21555739814E+02  0.10097047046E+02  0.42312561517E+02  0.48548461768E+02  0.00000000000E+00 0.  1.
<mgrwt>
<rscale>  1 0.12724245E+03</rscale>
<asrwt>0</asrwt>
<pdfrwt beam="1">  1       21 0.83732722E-02 0.12724245E+03</pdfrwt>
<pdfrwt beam="2">  1       21 0.69703101E-01 0.12724245E+03</pdfrwt>
<totfact> 0.21116742E+05</totfact>
</mgrwt>
</event>
<event>
 6    1  0.4241465E-002  0.1259451E+03  0.7546771E-02  0.1233600E+00
         21   -1    0    0  504  502  0.00000000000E+00  0.00000000000E+00  0.21145658086E+03  0.21145658086E+03  0.00000000000E+00 0.  1.
         21   -1    0    0  502  503 -0.00000000000E+00 -0.00000000000E+00 -0.23700287687E+02  0.23700287687E+02  0.00000000000E+00 0.  1.
         25    2    1    2    0    0  0.41875061794E+01 -0.14843305921E+02  0.16297782360E+03  0.20597071612E+03  0.12499722388E+03 0.  0.
          5    1    3    3  501    0 -0.41342254629E+02  0.19522142301E+02  0.13480974808E+03  0.14235158670E+03  0.10000000000E+00 0.  1.
         -5    1    3    3    0  501  0.45529760808E+02 -0.34365448222E+02  0.28168075516E+02  0.63619129427E+02  0.10000000000E+00 0.  1.
         21    1    1    2  504  503 -0.41875061794E+01  0.14843305921E+02  0.24778469579E+02  0.29186152424E+02  0.00000000000E+00 0.  1.
<mgrwt>
<rscale>  1 0.12594509E+03</rscale>
<asrwt>0</asrwt>
<pdfrwt beam="1">  1       21 0.32531780E-01 0.12594509E+03</pdfrwt>
<pdfrwt beam="2">  1       21 0.36461982E-02 0.12594509E+03</pdfrwt>
<totfact> 0.41057311E+06</totfact>
</mgrwt>
</event>
<event>
 6    1  0.4241465E-002  0.1411317E+03  0.7546771E-02  0.1211814E+00
         21   -1    0    0  503  502  0.00000000000E+00  0.00000000000E+00  0.12681848650E+03  0.12681848650E+03  0.00000000000E+00 0. -1.
         21   -1    0    0  504  503 -0.00000000000E+00 -0.00000000000E+00 -0.98735778942E+02  0.98735778942E+02  0.00000000000E+00 0.  1.
         25    2    1    2    0    0  0.61520220796E+02  0.22552985086E+02 -0.22322210477E+02  0.14288607044E+03  0.12499909336E+03 0.  0.
          5    1    3    3  501    0 -0.57084825806E+01  0.60277470710E+02  0.58057036049E+01  0.60824965622E+02  0.10000000000E+00 0. -1.
         -5    1    3    3    0  501  0.67228703376E+02 -0.37724485624E+02 -0.28127914082E+02  0.82061104817E+02  0.10000000000E+00 0. -1.
         21    1    1    2  504  502 -0.61520220796E+02 -0.22552985086E+02  0.50404918038E+02  0.82668195005E+02  0.00000000000E+00 0. -1.
<mgrwt>
<rscale>  1 0.14113167E+03</rscale>
<asrwt>0</asrwt>
<pdfrwt beam="1">  1       21 0.19510536E-01 0.14113167E+03</pdfrwt>
<pdfrwt beam="2">  1       21 0.15190120E-01 0.14113167E+03</pdfrwt>
<totfact> 0.92882017E+05</totfact>
</mgrwt>
</event>
<event>
 6    1  0.4241465E-002  0.1323379E+03  0.7546771E-02  0.1224027E+00
         21   -1    0    0  503  502  0.00000000000E+00  0.00000000000E+00  0.23681376657E+03  0.23681376657E+03  0.00000000000E+00 0.  1.
         21   -1    0    0  504  503 -0.00000000000E+00 -0.00000000000E+00 -0.71841667531E+02  0.71841667531E+02  0.00000000000E+00 0.  1.
         25    2    1    2    0    0  0.40482917505E+02  0.15803054120E+02 -0.57758079656E+01  0.13246391650E+03  0.12499890434E+03 0.  0.
          5    1    3    3  501    0  0.81452528538E+02  0.33003668373E+02 -0.48953566394E+01  0.88021196583E+02  0.10000000000E+00 0. -1.
         -5    1    3    3    0  501 -0.40969611032E+02 -0.17200614252E+02 -0.88045132626E+00  0.44442719914E+02  0.10000000000E+00 0. -1.
         21    1    1    2  504  502 -0.40482917505E+02 -0.15803054120E+02  0.17074790701E+03  0.17619151761E+03  0.00000000000E+00 0.  1.
<mgrwt>
<rscale>  1 0.13233794E+03</rscale>
<asrwt>0</asrwt>
<pdfrwt beam="1">  1       21 0.36432887E-01 0.13233794E+03</pdfrwt>
<pdfrwt beam="2">  1       21 0.11052564E-01 0.13233794E+03</pdfrwt>
<totfact> 0.49773235E+05</totfact>
</mgrwt>
</event>
<event>
 6    1  0.4241465E-002  0.1269662E+03  0.7546771E-02  0.1232028E+00
         21   -1    0    0  504  502  0.00000000000E+00  0.00000000000E+00  0.11067672158E+03  0.11067672158E+03  0.00000000000E+00 0. -1.
         21   -1    0    0  502  503 -0.00000000000E+00 -0.00000000000E+00 -0.91771192673E+02  0.91771192673E+02  0.00000000000E+00 0.  1.
         25    2    1    2    0    0  0.99099914499E+01  0.19911492567E+02 -0.45060729964E+02  0.13472526117E+03  0.12500300455E+03 0.  0.
          5    1    3    3  501    0  0.35083296565E+02 -0.39440391088E+02  0.51114132454E+01  0.53033184822E+02  0.10000000000E+00 0. -1.
         -5    1    3    3    0  501 -0.25173305115E+02  0.59351883654E+02 -0.50172143210E+02  0.81692076348E+02  0.10000000000E+00 0. -1.
         21    1    1    2  504  503 -0.99099914499E+01 -0.19911492567E+02  0.63966258871E+02  0.67722653084E+02  0.00000000000E+00 0. -1.
<mgrwt>
<rscale>  1 0.12696624E+03</rscale>
<asrwt>0</asrwt>
<pdfrwt beam="1">  1       21 0.17027188E-01 0.12696624E+03</pdfrwt>
<pdfrwt beam="2">  1       21 0.14118645E-01 0.12696624E+03</pdfrwt>
<totfact> 0.13587246E+06</totfact>
</mgrwt>
</event>
<event>
 6    1  0.4241465E-002  0.1316482E+03  0.7546771E-02  0.1225030E+00
         21   -1    0    0  504  502  0.00000000000E+00  0.00000000000E+00  0.54951793555E+02  0.54951793555E+02  0.00000000000E+00 0.  1.
         21   -1    0    0  502  503 -0.00000000000E+00 -0.00000000000E+00 -0.22105352985E+03  0.22105352985E+03  0.00000000000E+00 0.  1.
         25    2    1    2    0    0 -0.14430334510E+02  0.38723064144E+02 -0.18778717268E+03  0.22933661438E+03  0.12499420075E+03 0.  0.
          5    1    3    3  501    0 -0.33144454306E+02  0.20721919432E+01  0.37574232644E+01  0.33421206745E+02  0.10000000000E+00 0.  1.
         -5    1    3    3    0  501  0.18714119796E+02  0.36650872201E+02 -0.19154459594E+03  0.19591540763E+03  0.10000000000E+00 0.  1.
         21    1    1    2  504  503  0.14430334510E+02 -0.38723064144E+02  0.21685436386E+02  0.46668709025E+02  0.00000000000E+00 0.  1.
<mgrwt>
<rscale>  1 0.13164825E+03</rscale>
<asrwt>0</asrwt>
<pdfrwt beam="1">  1       21 0.84541221E-02 0.13164825E+03</pdfrwt>
<pdfrwt beam="2">  1       21 0.34008235E-01 0.13164825E+03</pdfrwt>
<totfact> 0.91015134E+05</totfact>
</mgrwt>
</event>
<event>
 6    1  0.4241465E-002  0.1279096E+03  0.7546771E-02  0.1230591E+00
         21   -1    0    0  503  502  0.00000000000E+00  0.00000000000E+00  0.29222960532E+03  0.29222960532E+03  0.00000000000E+00 0. -1.
         21   -1    0    0  504  503 -0.00000000000E+00 -0.00000000000E+00 -0.93301960882E+02  0.93301960882E+02  0.00000000000E+00 0. -1.
         25    2    1    2    0    0 -0.38601317559E+01 -0.26860991018E+02 -0.48369700236E+02  0.13674975389E+03  0.12499781531E+03 0.  0.
          5    1    3    3  501    0 -0.12652185692E+02 -0.72430208817E+02 -0.57702195953E+01  0.73753090689E+02  0.10000000000E+00 0. -1.
         -5    1    3    3    0  501  0.87920539361E+01  0.45569217799E+02 -0.42599480640E+02  0.62996663198E+02  0.10000000000E+00 0. -1.
         21    1    1    2  504  502  0.38601317559E+01  0.26860991018E+02  0.24729734468E+03  0.24878181232E+03  0.00000000000E+00 0. -1.
<mgrwt>
<rscale>  1 0.12790961E+03</rscale>
<asrwt>0</asrwt>
<pdfrwt beam="1">  1       21 0.44958400E-01 0.12790961E+03</pdfrwt>
<pdfrwt beam="2">  1       21 0.14354148E-01 0.12790961E+03</pdfrwt>
<totfact> 0.20534922E+05</totfact>
</mgrwt>
</event>
<event>
 6    1  0.4241465E-002  0.1935890E+03  0.7546771E-02  0.1155264E+00
         21   -1    0    0  503  502  0.00000000000E+00  0.00000000000E+00  0.97279734138E+02  0.97279734138E+02  0.00000000000E+00 0. -1.
         21   -1    0    0  504  503 -0.00000000000E+00 -0.00000000000E+00 -0.31775534549E+03  0.31775534549E+03  0.00000000000E+00 0. -1.
         25    2    1    2    0    0  0.99415730146E+02 -0.10939902141E+03 -0.17341228349E+03  0.25990097598E+03  0.12500025586E+03 0.  0.
          5    1    3    3  501    0  0.35248942799E+02 -0.43207473556E+02  0.80733542494E+01  0.56343258588E+02  0.10000000000E+00 0. -1.
         -5    1    3    3    0  501  0.64166787347E+02 -0.66191547850E+02 -0.18148563773E+03  0.20355771739E+03  0.10000000000E+00 0. -1.
         21    1    1    2  504  502 -0.99415730146E+02  0.10939902141E+03 -0.47063327865E+02  0.15513410365E+03  0.00000000000E+00 0. -1.
<mgrwt>
<rscale>  1 0.19358899E+03</rscale>
<asrwt>0</asrwt>
<pdfrwt beam="1">  1       21 0.14966113E-01 0.19358899E+03</pdfrwt>
<pdfrwt beam="2">  1       21 0.48885439E-01 0.19358899E+03</pdfrwt>
<totfact> 0.15726445E+05</totfact>
</mgrwt>
</event>
<event>
 6    1  0.4241465E-002  0.1300720E+03  0.7546771E-02  0.1227349E+00
         21   -1    0    0  503  502  0.00000000000E+00  0.00000000000E+00  0.36685890656E+02  0.36685890656E+02  0.00000000000E+00 0. -1.
         21   -1    0    0  504  503 -0.00000000000E+00 -0.00000000000E+00 -0.19986591214E+03  0.19986591214E+03  0.00000000000E+00 0. -1.
         25    2    1    2    0    0 -0.15103098952E+02  0.32649920649E+02 -0.10086292912E+03  0.16459667152E+03  0.12499845154E+03 0.  0.
          5    1    3    3  501    0  0.40845345580E+02 -0.25400848524E+02 -0.26504719189E+02  0.54918626172E+02  0.10000000000E+00 0.  1.
         -5    1    3    3    0  501 -0.55948444532E+02  0.58050769173E+02 -0.74358209929E+02  0.10967804535E+03  0.10000000000E+00 0.  1.
         21    1    1    2  504  502  0.15103098952E+02 -0.32649920649E+02 -0.62317092370E+02  0.71955131282E+02  0.00000000000E+00 0.  1.
<mgrwt>
<rscale>  1 0.13007203E+03</rscale>
<asrwt>0</asrwt>
<pdfrwt beam="1">  1       21 0.56439831E-02 0.13007203E+03</pdfrwt>
<pdfrwt beam="2">  1       21 0.30748602E-01 0.13007203E+03</pdfrwt>
<totfact> 0.22095157E+06</totfact>
</mgrwt>
</event>
<event>
 6    1  0.4241465E-002  0.1530355E+03  0.7546771E-02  0.1196792E+00
         21   -1    0    0  503  502  0.00000000000E+00  0.00000000000E+00  0.46804975348E+02  0.46804975348E+02  0.00000000000E+00 0. -1.
         21   -1    0    0  504  503 -0.00000000000E+00 -0.00000000000E+00 -0.43010610263E+03  0.43010610263E+03  0.00000000000E+00 0. -1.
         25    2    1    2    0    0 -0.30208502682E+02 -0.82964323406E+02 -0.10670109723E+03  0.18656092864E+03  0.12499689338E+03 0.  0.
          5    1    3    3  501    0 -0.35153098354E+01 -0.11256690651E+03 -0.85596344369E+02  0.14145815640E+03  0.10000000000E+00 0.  1.
         -5    1    3    3    0  501 -0.26693192847E+02  0.29602583100E+02 -0.21104752858E+02  0.45102772240E+02  0.10000000000E+00 0.  1.
         21    1    1    2  504  502  0.30208502682E+02  0.82964323406E+02 -0.27660003006E+03  0.29035014934E+03  0.00000000000E+00 0. -1.
<mgrwt>
<rscale>  1 0.15303547E+03</rscale>
<asrwt>0</asrwt>
<pdfrwt beam="1">  1       21 0.72007653E-02 0.15303547E+03</pdfrwt>
<pdfrwt beam="2">  1       21 0.66170171E-01 0.15303547E+03</pdfrwt>
<totfact> 0.30488150E+05</totfact>
</mgrwt>
</event>
<event>
 6    1  0.4241465E-002  0.1547847E+03  0.7546771E-02  0.1194714E+00
         21   -1    0    0  503  502  0.00000000000E+00  0.00000000000E+00  0.69474544974E+03  0.69474544974E+03  0.00000000000E+00 0.  1.
         21   -1    0    0  504  503 -0.00000000000E+00 -0.00000000000E+00 -0.22346082238E+02  0.22346082238E+02  0.00000000000E+00 0.  1.
         25    2    1    2    0    0 -0.33233632043E+02  0.85023085161E+02  0.36605334392E+03  0.39743345610E+03  0.12499960849E+03 0.  0.
          5    1    3    3  501    0  0.11505951373E+02 -0.14424355741E+02  0.18613984072E+03  0.18705212979E+03  0.10000000000E+00 0.  1.
         -5    1    3    3    0  501 -0.44739583416E+02  0.99447440901E+02  0.17991350319E+03  0.21038132630E+03  0.10000000000E+00 0.  1.
         21    1    1    2  504  502  0.33233632043E+02 -0.85023085161E+02  0.30634602359E+03  0.31965807588E+03  0.00000000000E+00 0.  1.
<mgrwt>
<rscale>  1 0.15478469E+03</rscale>
<asrwt>0</asrwt>
<pdfrwt beam="1">  1       21 0.10688390E+00 0.15478469E+03</pdfrwt>
<pdfrwt beam="2">  1       21 0.34378593E-02 0.15478469E+03</pdfrwt>
<totfact> 0.35681585E+05</totfact>
</mgrwt>
</event>
<event>
 6    1  0.4241465E-002  0.1273620E+03  0.7546771E-02  0.1231423E+00
         21   -1    0    0  503  502  0.00000000000E+00  0.00000000000E+00  0.30116015980E+02  0.30116015980E+02  0.00000000000E+00 0.  1.
         21   -1    0    0  504  503 -0.00000000000E+00 -0.00000000000E+00 -0.20012145723E+03  0.20012145723E+03  0.00000000000E+00 0.  1.
         25    2    1    2    0    0 -0.51909532078E+01 -0.23857268909E+02 -0.15826057784E+03  0.20314398522E+03  0.12499981183E+03 0.  0.
          5    1    3    3  501    0 -0.10134942611E+02 -0.25957091288E+02  0.13733400748E+02  0.31066122158E+02  0.10000000000E+00 0. -1.
         -5    1    3    3    0  501  0.49439894034E+01  0.20998223786E+01 -0.17199397859E+03  0.17207786306E+03  0.10000000000E+00 0. -1.
         21    1    1    2  504  502  0.51909532078E+01  0.23857268909E+02 -0.11744863412E+02  0.27093487992E+02  0.00000000000E+00 0. -1.
<mgrwt>
<rscale>  1 0.12736196E+03</rscale>
<asrwt>0</asrwt>
<pdfrwt beam="1">  1       21 0.46332332E-02 0.12736196E+03</pdfrwt>
<pdfrwt beam="2">  1       21 0.30787917E-01 0.12736196E+03</pdfrwt>
<totfact> 0.30691317E+06</totfact>
</mgrwt>
</event>
<event>
 6    1  0.4241465E-002  0.1269577E+03  0.7546771E-02  0.1232041E+00
         21   -1    0    0  503  502  0.00000000000E+00  0.00000000000E+00  0.19675904376E+03  0.19675904376E+03  0.00000000000E+00 0.  1.
         21   -1    0    0  504  503 -0.00000000000E+00 -0.00000000000E+00 -0.57884669710E+03  0.57884669710E+03  0.00000000000E+00 0. -1.
         25    2    1    2    0    0 -0.14344953364E+02 -0.16992331756E+02 -0.57122609015E+03  0.58516450239E+03  0.12499492696E+03 0.  0.
          5    1    3    3  501    0 -0.31966057069E+00  0.39440708887E+02 -0.43835799138E+03  0.44012885648E+03  0.10000000000E+00 0.  1.
         -5    1    3    3    0  501 -0.14025292793E+02 -0.56433040643E+02 -0.13286809877E+03  0.14503564591E+03  0.10000000000E+00 0.  1.
         21    1    1    2  504  502  0.14344953364E+02  0.16992331756E+02  0.18913843682E+03  0.19044123846E+03  0.00000000000E+00 0.  1.
<mgrwt>
<rscale>  1 0.12695767E+03</rscale>
<asrwt>0</asrwt>
<pdfrwt beam="1">  1       21 0.30270622E-01 0.12695767E+03</pdfrwt>
<pdfrwt beam="2">  1       21 0.89053337E-01 0.12695767E+03</pdfrwt>
<totfact> 0.11848079E+04</totfact>
</mgrwt>
</event>
<event>
 6    1  0.4241465E-002  0.1468623E+03  0.7546771E-02  0.1204382E+00
         21   -1    0    0  503  502  0.00000000000E+00  0.00000000000E+00  0.83296345568E+02  0.83296345568E+02  0.00000000000E+00 0.  1.
         21   -1    0    0  504  503 -0.00000000000E+00 -0.00000000000E+00 -0.47590482468E+03  0.47590482468E+03  0.00000000000E+00 0.  1.
         25    2    1    2    0    0  0.72994639964E+02  0.24950404032E+02 -0.44323410858E+03  0.46693148680E+03  0.12497118962E+03 0.  0.
          5    1    3    3  501    0  0.68467465869E+02  0.16702954441E+02 -0.93573550824E+02  0.11714436386E+03  0.10000000000E+00 0. -1.
         -5    1    3    3    0  501  0.45271740952E+01  0.82474495917E+01 -0.34966055775E+03  0.34978712294E+03  0.10000000000E+00 0. -1.
         21    1    1    2  504  502 -0.72994639964E+02 -0.24950404032E+02  0.50625629464E+02  0.92269683447E+02  0.00000000000E+00 0.  1.
<mgrwt>
<rscale>  1 0.14686231E+03</rscale>
<asrwt>0</asrwt>
<pdfrwt beam="1">  1       21 0.12814823E-01 0.14686231E+03</pdfrwt>
<pdfrwt beam="2">  1       21 0.73216126E-01 0.14686231E+03</pdfrwt>
<totfact> 0.89176896E+04</totfact>
</mgrwt>
</event>
<event>
 6    1  0.4241465E-002  0.1271351E+03  0.7546771E-02  0.1231770E+00
         21   -1    0    0  504  502  0.00000000000E+00  0.00000000000E+00  0.40326344938E+02  0.40326344938E+02  0.00000000000E+00 0. -1.
         21   -1    0    0  502  503 -0.00000000000E+00 -0.00000000000E+00 -0.14255825596E+03  0.14255825596E+03  0.00000000000E+00 0. -1.
         25    2    1    2    0    0 -0.21029466864E+02 -0.99990140245E+01 -0.77398332308E+02  0.14884160764E+03  0.12498441328E+03 0.  0.
          5    1    3    3  501    0 -0.33625964842E+02 -0.65192663268E+01  0.27008734699E+02  0.43619813102E+02  0.10000000000E+00 0. -1.
         -5    1    3    3    0  501  0.12596497978E+02 -0.34797476977E+01 -0.10440706701E+03  0.10522179454E+03  0.10000000000E+00 0. -1.
         21    1    1    2  504  503  0.21029466864E+02  0.99990140245E+01 -0.24833578711E+02  0.34042993253E+02  0.00000000000E+00 0. -1.
<mgrwt>
<rscale>  1 0.12713506E+03</rscale>
<asrwt>0</asrwt>
<pdfrwt beam="1">  1       21 0.62040531E-02 0.12713506E+03</pdfrwt>
<pdfrwt beam="2">  1       21 0.21932039E-01 0.12713506E+03</pdfrwt>
<totfact> 0.35717341E+06</totfact>
</mgrwt>
</event>
<event>
 6    1  0.4241465E-002  0.1350204E+03  0.7546771E-02  0.1220191E+00
         21   -1    0    0  504  502  0.00000000000E+00  0.00000000000E+00  0.86564813211E+02  0.86564813211E+02  0.00000000000E+00 0. -1.
         21   -1    0    0  502  503 -0.00000000000E+00 -0.00000000000E+00 -0.18564172128E+03  0.18564172128E+03  0.00000000000E+00 0.  1.
         25    2    1    2    0    0 -0.39198631222E+02  0.32675032428E+02 -0.14881998216E+03  0.20094249129E+03  0.12500522902E+03 0.  0.
          5    1    3    3  501    0  0.44088084957E+02  0.22092766659E+02 -0.39981496394E+02  0.63485270951E+02  0.10000000000E+00 0. -1.
         -5    1    3    3    0  501 -0.83286716179E+02  0.10582265769E+02 -0.10883848577E+03  0.13745722034E+03  0.10000000000E+00 0. -1.
         21    1    1    2  504  503  0.39198631222E+02 -0.32675032428E+02  0.49743074086E+02  0.71264043201E+02  0.00000000000E+00 0. -1.
<mgrwt>
<rscale>  1 0.13502036E+03</rscale>
<asrwt>0</asrwt>
<pdfrwt beam="1">  1       21 0.13317664E-01 0.13502036E+03</pdfrwt>
<pdfrwt beam="2">  1       21 0.28560264E-01 0.13502036E+03</pdfrwt>
<totfact> 0.57426436E+05</totfact>
</mgrwt>
</event>
<event>
 6    1  0.4241465E-002  0.1311656E+03  0.7546771E-02  0.1225736E+00
         21   -1    0    0  503  502  0.00000000000E+00  0.00000000000E+00  0.24386432477E+03  0.24386432477E+03  0.00000000000E+00 0. -1.
         21   -1    0    0  504  503 -0.00000000000E+00 -0.00000000000E+00 -0.31028217375E+02  0.31028217375E+02  0.00000000000E+00 0. -1.
         25    2    1    2    0    0  0.37790614753E+02 -0.12200949777E+02  0.13940305522E+03  0.19140956849E+03  0.12500966909E+03 0.  0.
          5    1    3    3  501    0  0.45270784336E+02 -0.57631790932E+02  0.12173674327E+03  0.14209402487E+03  0.10000000000E+00 0. -1.
         -5    1    3    3    0  501 -0.74801695826E+01  0.45430841156E+02  0.17666311954E+02  0.49315543626E+02  0.10000000000E+00 0. -1.
         21    1    1    2  504  502 -0.37790614753E+02  0.12200949777E+02  0.73433052173E+02  0.83482973655E+02  0.00000000000E+00 0. -1.
<mgrwt>
<rscale>  1 0.13116559E+03</rscale>
<asrwt>0</asrwt>
<pdfrwt beam="1">  1       21 0.37517587E-01 0.13116559E+03</pdfrwt>
<pdfrwt beam="2">  1       21 0.47735721E-02 0.13116559E+03</pdfrwt>
<totfact> 0.19844598E+06</totfact>
</mgrwt>
</event>
<event>
 6    1  0.4241465E-002  0.1263187E+03  0.7546771E-02  0.1233023E+00
         21   -1    0    0  504  502  0.00000000000E+00  0.00000000000E+00  0.22641192759E+02  0.22641192759E+02  0.00000000000E+00 0.  1.
         21   -1    0    0  502  503 -0.00000000000E+00 -0.00000000000E+00 -0.25331172121E+03  0.25331172121E+03  0.00000000000E+00 0.  1.
         25    2    1    2    0    0 -0.89151001003E+01 -0.15860350487E+02 -0.22282465036E+03  0.25613909227E+03  0.12500152020E+03 0.  0.
          5    1    3    3  501    0  0.47026446844E+02 -0.74948043092E+01 -0.32668623860E+02  0.57748660411E+02  0.10000000000E+00 0.  1.
         -5    1    3    3    0  501 -0.55941546944E+02 -0.83655461777E+01 -0.19015602650E+03  0.19839043186E+03  0.10000000000E+00 0.  1.
         21    1    1    2  504  503  0.89151001003E+01  0.15860350487E+02 -0.78458780862E+01  0.19813821699E+02  0.00000000000E+00 0.  1.
<mgrwt>
<rscale>  1 0.12631868E+03</rscale>
<asrwt>0</asrwt>
<pdfrwt beam="1">  1       21 0.34832602E-02 0.12631868E+03</pdfrwt>
<pdfrwt beam="2">  1       21 0.38971037E-01 0.12631868E+03</pdfrwt>
<totfact> 0.31039291E+06</totfact>
</mgrwt>
</event>
<event>
 6    1  0.4241465E-002  0.1266262E+03  0.7546771E-02  0.1232549E+00
         21   -1    0    0  503  502  0.00000000000E+00  0.00000000000E+00  0.48068015089E+02  0.48068015089E+02  0.00000000000E+00 0. -1.
         21   -1    0    0  504  503 -0.00000000000E+00 -0.00000000000E+00 -0.11391717137E+03  0.11391717137E+03  0.00000000000E+00 0. -1.
         25    2    1    2    0    0 -0.14704849863E+02 -0.13901023289E+02 -0.63371858195E+02  0.14159871879E+03  0.12499893478E+03 0.  0.
          5    1    3    3  501    0 -0.15978904232E+02  0.40052629798E+02 -0.74886803718E+02  0.86415171731E+02  0.10000000000E+00 0.  1.
         -5    1    3    3    0  501  0.12740543689E+01 -0.53953653087E+02  0.11514945523E+02  0.55183547063E+02  0.10000000000E+00 0.  1.
         21    1    1    2  504  502  0.14704849863E+02  0.13901023289E+02 -0.24772980835E+01  0.20386467663E+02  0.00000000000E+00 0. -1.
<mgrwt>
<rscale>  1 0.12662624E+03</rscale>
<asrwt>0</asrwt>
<pdfrwt beam="1">  1       21 0.73950794E-02 0.12662624E+03</pdfrwt>
<pdfrwt beam="2">  1       21 0.17525718E-01 0.12662624E+03</pdfrwt>
<totfact> 0.40022314E+06</totfact>
</mgrwt>
</event>
<event>
 6    1  0.4241465E-002  0.1308780E+03  0.7546771E-02  0.1226159E+00
         21   -1    0    0  503  502  0.00000000000E+00  0.00000000000E+00  0.62044252631E+02  0.62044252631E+02  0.00000000000E+00 0.  1.
         21   -1    0    0  504  503 -0.00000000000E+00 -0.00000000000E+00 -0.16675940646E+03  0.16675940646E+03  0.00000000000E+00 0. -1.
         25    2    1    2    0    0  0.39135730812E+01 -0.38590204572E+02 -0.12840851778E+03  0.18335153660E+03  0.12499807436E+03 0.  0.
          5    1    3    3  501    0  0.21582832144E+02 -0.53262130847E+02 -0.48462741924E+01  0.57672953794E+02  0.10000000000E+00 0.  1.
         -5    1    3    3    0  501 -0.17669259063E+02  0.14671926275E+02 -0.12356224359E+03  0.12567858281E+03  0.10000000000E+00 0.  1.
         21    1    1    2  504  502 -0.39135730812E+01  0.38590204572E+02  0.23693363952E+02  0.45452122487E+02  0.00000000000E+00 0.  1.
<mgrwt>
<rscale>  1 0.13087795E+03</rscale>
<asrwt>0</asrwt>
<pdfrwt beam="1">  1       21 0.95452696E-02 0.13087795E+03</pdfrwt>
<pdfrwt beam="2">  1       21 0.25655293E-01 0.13087795E+03</pdfrwt>
<totfact> 0.12685315E+06</totfact>
</mgrwt>
</event>
<event>
 6    1  0.4241465E-002  0.1289790E+03  0.7546771E-02  0.1228979E+00
         21   -1    0    0  504  502  0.00000000000E+00  0.00000000000E+00  0.33241384905E+02  0.33241384905E+02  0.00000000000E+00 0. -1.
         21   -1    0    0  502  503 -0.00000000000E+00 -0.00000000000E+00 -0.94544623093E+03  0.94544623093E+03  0.00000000000E+00 0.  1.
         25    2    1    2    0    0  0.25314576998E+02 -0.18618214843E+02 -0.93243604532E+03  0.94131426761E+03  0.12509239009E+03 0.  0.
          5    1    3    3  501    0  0.61809370876E+02 -0.10762384869E+02 -0.82859460485E+03  0.83096645928E+03  0.10000000000E+00 0.  1.
         -5    1    3    3    0  501 -0.36494793878E+02 -0.78558299737E+01 -0.10384144047E+03  0.11034780833E+03  0.10000000000E+00 0.  1.
         21    1    1    2  504  503 -0.25314576998E+02  0.18618214843E+02  0.20231199297E+02  0.37373348225E+02  0.00000000000E+00 0. -1.
<mgrwt>
<rscale>  1 0.12897896E+03</rscale>
<asrwt>0</asrwt>
<pdfrwt beam="1">  1       21 0.51140602E-02 0.12897896E+03</pdfrwt>
<pdfrwt beam="2">  1       21 0.14545324E+00 0.12897896E+03</pdfrwt>
<totfact> 0.86674628E+04</totfact>
</mgrwt>
</event>
<event>
 6    1  0.4241465E-002  0.1505595E+03  0.7546771E-02  0.1199787E+00
         21   -1    0    0  504  502  0.00000000000E+00  0.00000000000E+00  0.59902444071E+03  0.59902444071E+03  0.00000000000E+00 0. -1.
         21   -1    0    0  502  503 -0.00000000000E+00 -0.00000000000E+00 -0.23142286097E+02  0.23142286097E+02  0.00000000000E+00 0. -1.
         25    2    1    2    0    0  0.46157052866E+02  0.70094156549E+02  0.39646971570E+03  0.42409480162E+03  0.12499800390E+03 0.  0.
          5    1    3    3  501    0  0.85694361524E+02  0.42709072494E+02  0.19876846928E+03  0.22062752061E+03  0.10000000000E+00 0. -1.
         -5    1    3    3    0  501 -0.39537308657E+02  0.27385084055E+02  0.19770124642E+03  0.20346728101E+03  0.10000000000E+00 0. -1.
         21    1    1    2  504  503 -0.46157052866E+02 -0.70094156549E+02  0.17941243891E+03  0.19807192519E+03  0.00000000000E+00 0. -1.
<mgrwt>
<rscale>  1 0.15055951E+03</rscale>
<asrwt>0</asrwt>
<pdfrwt beam="1">  1       21 0.92157595E-01 0.15055951E+03</pdfrwt>
<pdfrwt beam="2">  1       21 0.35603522E-02 0.15055951E+03</pdfrwt>
<totfact> 0.47742878E+05</totfact>
</mgrwt>
</event>
<event>
 6    1  0.4241465E-002  0.1329303E+03  0.7546771E-02  0.1223171E+00
         21   -1    0    0  503  502  0.00000000000E+00  0.00000000000E+00  0.82567807464E+01  0.82567807464E+01  0.00000000000E+00 0. -1.
         21   -1    0    0  504  503 -0.00000000000E+00 -0.00000000000E+00 -0.12808212404E+04  0.12808212404E+04  0.00000000000E+00 0. -1.
         25    2    1    2    0    0 -0.44366827095E+02  0.87529429389E+01 -0.11626458101E+04  0.11702203800E+04  0.12500171393E+03 0.  0.
          5    1    3    3  501    0  0.20319633654E+02  0.26908984295E+02 -0.10159460821E+03  0.10704417483E+03  0.10000000000E+00 0.  1.
         -5    1    3    3    0  501 -0.64686460748E+02 -0.18156041356E+02 -0.10610512019E+04  0.10631762051E+04  0.10000000000E+00 0.  1.
         21    1    1    2  504  502  0.44366827095E+02 -0.87529429389E+01 -0.10991864948E+03  0.11885764115E+03  0.00000000000E+00 0. -1.
<mgrwt>
<rscale>  1 0.13293027E+03</rscale>
<asrwt>0</asrwt>
<pdfrwt beam="1">  1       21 0.12702745E-02 0.13293027E+03</pdfrwt>
<pdfrwt beam="2">  1       21 0.19704934E+00 0.13293027E+03</pdfrwt>
<totfact> 0.36857260E+05</totfact>
</mgrwt>
</event>
<event>
 6    1  0.4241465E-002  0.1347382E+03  0.7546771E-02  0.1220590E+00
         21   -1    0    0  504  502  0.00000000000E+00  0.00000000000E+00  0.10654816264E+04  0.10654816264E+04  0.00000000000E+00 0. -1.
         21   -1    0    0  502  503 -0.00000000000E+00 -0.00000000000E+00 -0.81597693668E+01  0.81597693668E+01  0.00000000000E+00 0. -1.
         25    2    1    2    0    0  0.32776415884E+02  0.38151824068E+02  0.70664503726E+03  0.71937583571E+03  0.12499811677E+03 0.  0.
          5    1    3    3  501    0  0.62377292092E+01  0.87989536104E+01  0.65103052353E+03  0.65111986870E+03  0.10000000000E+00 0. -1.
         -5    1    3    3    0  501  0.26538686675E+02  0.29352870457E+02  0.55614513735E+02  0.68255967011E+02  0.10000000000E+00 0. -1.
         21    1    1    2  504  503 -0.32776415884E+02 -0.38151824068E+02  0.35067681972E+03  0.35426556001E+03  0.00000000000E+00 0. -1.
<mgrwt>
<rscale>  1 0.13473821E+03</rscale>
<asrwt>0</asrwt>
<pdfrwt beam="1">  1       21 0.16392014E+00 0.13473821E+03</pdfrwt>
<pdfrwt beam="2">  1       21 0.12553500E-02 0.13473821E+03</pdfrwt>
<totfact> 0.62514933E+05</totfact>
</mgrwt>
</event>
<event>
 6    1  0.4241465E-002  0.1276058E+03  0.7546771E-02  0.1231052E+00
         21   -1    0    0  504  502  0.00000000000E+00  0.00000000000E+00  0.29639985672E+03  0.29639985672E+03  0.00000000000E+00 0. -1.
         21   -1    0    0  502  503 -0.00000000000E+00 -0.00000000000E+00 -0.19948817292E+02  0.19948817292E+02  0.00000000000E+00 0. -1.
         25    2    1    2    0    0  0.83991253255E+01 -0.24241481081E+02  0.21973162262E+03  0.25409687119E+03  0.12500015704E+03 0.  0.
          5    1    3    3  501    0 -0.51768918198E+02  0.16331556178E+02  0.10784541969E+03  0.12073684262E+03  0.10000000000E+00 0. -1.
         -5    1    3    3    0  501  0.60168043524E+02 -0.40573037259E+02  0.11188620293E+03  0.13336002857E+03  0.10000000000E+00 0. -1.
         21    1    1    2  504  503 -0.83991253255E+01  0.24241481081E+02  0.56719416808E+02  0.62251802820E+02  0.00000000000E+00 0. -1.
<mgrwt>
<rscale>  1 0.12760578E+03</rscale>
<asrwt>0</asrwt>
<pdfrwt beam="1">  1       21 0.45599975E-01 0.12760578E+03</pdfrwt>
<pdfrwt beam="2">  1       21 0.30690490E-02 0.12760578E+03</pdfrwt>
<totfact> 0.27875294E+06</totfact>
</mgrwt>
</event>
<event>
 6    1  0.4241465E-002  0.1263584E+03  0.7546771E-02  0.1232961E+00
         21   -1    0    0  503  502  0.00000000000E+00  0.00000000000E+00  0.86727338429E+02  0.86727338429E+02  0.00000000000E+00 0. -1.
         21   -1    0    0  504  503 -0.00000000000E+00 -0.00000000000E+00 -0.73523824938E+02  0.73523824938E+02  0.00000000000E+00 0. -1.
         25    2    1    2    0    0  0.18328246266E+02 -0.22552962619E+01 -0.14255750128E+02  0.12716004476E+03  0.12500175838E+03 0.  0.
          5    1    3    3  501    0 -0.16401933825E+02  0.42184264611E+02 -0.44234354330E+02  0.63286836838E+02  0.10000000000E+00 0.  1.
         -5    1    3    3    0  501  0.34730180092E+02 -0.44439560873E+02  0.29978604202E+02  0.63873207918E+02  0.10000000000E+00 0.  1.
         21    1    1    2  504  502 -0.18328246266E+02  0.22552962619E+01  0.27459263619E+02  0.33091118611E+02  0.00000000000E+00 0. -1.
<mgrwt>
<rscale>  1 0.12635842E+03</rscale>
<asrwt>0</asrwt>
<pdfrwt beam="1">  1       21 0.13342667E-01 0.12635842E+03</pdfrwt>
<pdfrwt beam="2">  1       21 0.11311358E-01 0.12635842E+03</pdfrwt>
<totfact> 0.31271675E+06</totfact>
</mgrwt>
</event>
<event>
 6    1  0.4241465E-002  0.1312558E+03  0.7546771E-02  0.1225604E+00
         21   -1    0    0  503  502  0.00000000000E+00  0.00000000000E+00  0.81028082520E+01  0.81028082520E+01  0.00000000000E+00 0. -1.
         21   -1    0    0  504  503 -0.00000000000E+00 -0.00000000000E+00 -0.12978821185E+04  0.12978821185E+04  0.00000000000E+00 0. -1.
         25    2    1    2    0    0 -0.18187108996E+02  0.35675960180E+02 -0.12060628820E+04  0.12131841432E+04  0.12499817964E+03 0.  0.
          5    1    3    3  501    0 -0.65322988533E+02  0.32978633056E+01 -0.85462029592E+03  0.85711949513E+03  0.10000000000E+00 0. -1.
         -5    1    3    3    0  501  0.47135879538E+02  0.32378096874E+02 -0.35144258612E+03  0.35606464811E+03  0.10000000000E+00 0. -1.
         21    1    1    2  504  502  0.18187108996E+02 -0.35675960180E+02 -0.83716428229E+02  0.92800783530E+02  0.00000000000E+00 0. -1.
<mgrwt>
<rscale>  1 0.13125582E+03</rscale>
<asrwt>0</asrwt>
<pdfrwt beam="1">  1       21 0.12465864E-02 0.13125582E+03</pdfrwt>
<pdfrwt beam="2">  1       21 0.19967408E+00 0.13125582E+03</pdfrwt>
<totfact> 0.36579834E+05</totfact>
</mgrwt>
</event>
<event>
 6    1  0.4241465E-002  0.1272377E+03  0.7546771E-02  0.1231613E+00
         21   -1    0    0  504  502  0.00000000000E+00  0.00000000000E+00  0.12817261230E+03  0.12817261230E+03  0.00000000000E+00 0. -1.
         21   -1    0    0  502  503 -0.00000000000E+00 -0.00000000000E+00 -0.13143374121E+03  0.13143374121E+03  0.00000000000E+00 0. -1.
         25    2    1    2    0    0  0.21063113705E+02  0.10986151581E+02 -0.98841345542E+02  0.16111814053E+03  0.12500037334E+03 0.  0.
          5    1    3    3  501    0 -0.28436184085E+02  0.25074824245E+02  0.11287468674E+02  0.39557304323E+02  0.10000000000E+00 0. -1.
         -5    1    3    3    0  501  0.49499297791E+02 -0.14088672664E+02 -0.11012881422E+03  0.12156083621E+03  0.10000000000E+00 0. -1.
         21    1    1    2  504  503 -0.21063113705E+02 -0.10986151581E+02  0.95580216633E+02  0.98488212986E+02  0.00000000000E+00 0. -1.
<mgrwt>
<rscale>  1 0.12723774E+03</rscale>
<asrwt>0</asrwt>
<pdfrwt beam="1">  1       21 0.19718863E-01 0.12723774E+03</pdfrwt>
<pdfrwt beam="2">  1       21 0.20220576E-01 0.12723774E+03</pdfrwt>
<totfact> 0.53989323E+05</totfact>
</mgrwt>
</event>
<event>
 6    1  0.4241465E-002  0.1264264E+03  0.7546771E-02  0.1232857E+00
         21   -1    0    0  503  502  0.00000000000E+00  0.00000000000E+00  0.44673136854E+03  0.44673136854E+03  0.00000000000E+00 0.  1.
         21   -1    0    0  504  503 -0.00000000000E+00 -0.00000000000E+00 -0.46065723144E+03  0.46065723144E+03  0.00000000000E+00 0.  1.
         25    2    1    2    0    0 -0.46985407729E+01  0.18305494677E+02 -0.45177519305E+03  0.46913159394E+03  0.12500583972E+03 0.  0.
          5    1    3    3  501    0  0.50159519404E+02 -0.84326388834E+01 -0.10096987298E+03  0.11305756072E+03  0.10000000000E+00 0.  1.
         -5    1    3    3    0  501 -0.54858060177E+02  0.26738133561E+02 -0.35080532006E+03  0.35607403323E+03  0.10000000000E+00 0.  1.
         21    1    1    2  504  502  0.46985407729E+01 -0.18305494677E+02  0.43784933015E+03  0.43825700603E+03  0.00000000000E+00 0.  1.
<mgrwt>
<rscale>  1 0.12642637E+03</rscale>
<asrwt>0</asrwt>
<pdfrwt beam="1">  1       21 0.68727903E-01 0.12642637E+03</pdfrwt>
<pdfrwt beam="2">  1       21 0.70870343E-01 0.12642637E+03</pdfrwt>
<totfact> 0.37040253E+03</totfact>
</mgrwt>
</event>
<event>
 6    1  0.4241465E-002  0.1630136E+03  0.7546771E-02  0.1185336E+00
         21   -1    0    0  503  502  0.00000000000E+00  0.00000000000E+00  0.53794879277E+02  0.53794879277E+02  0.00000000000E+00 0. -1.
         21   -1    0    0  504  503 -0.00000000000E+00 -0.00000000000E+00 -0.56563991755E+03  0.56563991755E+03  0.00000000000E+00 0. -1.
         25    2    1    2    0    0 -0.73695184372E+02  0.74408400111E+02 -0.48451276592E+03  0.51120059096E+03  0.12492331109E+03 0.  0.
          5    1    3    3  501    0 -0.14156653378E+01  0.51924714969E+02 -0.37190992017E+03  0.37551987811E+03  0.10000000000E+00 0. -1.
         -5    1    3    3    0  501 -0.72279519034E+02  0.22483685142E+02 -0.11260284575E+03  0.13568071285E+03  0.10000000000E+00 0. -1.
         21    1    1    2  504  502  0.73695184372E+02 -0.74408400111E+02 -0.27332272348E+02  0.10823420586E+03  0.00000000000E+00 0. -1.
<mgrwt>
<rscale>  1 0.16301357E+03</rscale>
<asrwt>0</asrwt>
<pdfrwt beam="1">  1       21 0.82761355E-02 0.16301357E+03</pdfrwt>
<pdfrwt beam="2">  1       21 0.87021524E-01 0.16301357E+03</pdfrwt>
<totfact> 0.12988079E+05</totfact>
</mgrwt>
</event>
<event>
 6    1  0.4241465E-002  0.1260617E+03  0.7546771E-02  0.1233419E+00
         21   -1    0    0  504  502  0.00000000000E+00  0.00000000000E+00  0.60719808906E+02  0.60719808906E+02  0.00000000000E+00 0.  1.
         21   -1    0    0  502  503 -0.00000000000E+00 -0.00000000000E+00 -0.84190259516E+02  0.84190259516E+02  0.00000000000E+00 0.  1.
         25    2    1    2    0    0  0.15898828458E+02 -0.37619794760E+01 -0.16460387516E+02  0.12713181709E+03  0.12499851728E+03 0.  0.
          5    1    3    3  501    0 -0.15045168837E+02  0.56414473531E+02 -0.83808041165E+01  0.58984725198E+02  0.10000000000E+00 0.  1.
         -5    1    3    3    0  501  0.30943997295E+02 -0.60176453007E+02 -0.80795833993E+01  0.68147091889E+02  0.10000000000E+00 0.  1.
         21    1    1    2  504  503 -0.15898828458E+02  0.37619794760E+01 -0.70100630937E+01  0.17778251334E+02  0.00000000000E+00 0. -1.
<mgrwt>
<rscale>  1 0.12606171E+03</rscale>
<asrwt>0</asrwt>
<pdfrwt beam="1">  1       21 0.93415091E-02 0.12606171E+03</pdfrwt>
<pdfrwt beam="2">  1       21 0.12952348E-01 0.12606171E+03</pdfrwt>
<totfact> 0.46095657E+06</totfact>
</mgrwt>
</event>
<event>
 6    1  0.4241465E-002  0.1271891E+03  0.7546771E-02  0.1231687E+00
         21   -1    0    0  503  502  0.00000000000E+00  0.00000000000E+00  0.12454248034E+03  0.12454248034E+03  0.00000000000E+00 0. -1.
         21   -1    0    0  504  503 -0.00000000000E+00 -0.00000000000E+00 -0.10327061139E+03  0.10327061139E+03  0.00000000000E+00 0. -1.
         25    2    1    2    0    0 -0.67351283400E+01 -0.22509179508E+02 -0.61853091825E+02  0.14143147204E+03  0.12500012480E+03 0.  0.
          5    1    3    3  501    0  0.40112194078E+02 -0.17273657742E+02  0.19168263802E+02  0.47694860339E+02  0.10000000000E+00 0. -1.
         -5    1    3    3    0  501 -0.46847322418E+02 -0.52355217659E+01 -0.81021355627E+02  0.93736611703E+02  0.10000000000E+00 0. -1.
         21    1    1    2  504  502  0.67351283400E+01  0.22509179508E+02  0.83124960775E+02  0.86381619687E+02  0.00000000000E+00 0. -1.
<mgrwt>
<rscale>  1 0.12718906E+03</rscale>
<asrwt>0</asrwt>
<pdfrwt beam="1">  1       21 0.19160382E-01 0.12718906E+03</pdfrwt>
<pdfrwt beam="2">  1       21 0.15887786E-01 0.12718906E+03</pdfrwt>
<totfact> 0.88496740E+05</totfact>
</mgrwt>
</event>
<event>
 6    1  0.4241465E-002  0.1262074E+03  0.7546771E-02  0.1233194E+00
         21   -1    0    0  504  502  0.00000000000E+00  0.00000000000E+00  0.68064588373E+03  0.68064588373E+03  0.00000000000E+00 0.  1.
         21   -1    0    0  502  503 -0.00000000000E+00 -0.00000000000E+00 -0.95894925239E+01  0.95894925239E+01  0.00000000000E+00 0.  1.
         25    2    1    2    0    0  0.13744459363E+02  0.10749122932E+02  0.41947824436E+03  0.43805286739E+03  0.12499545323E+03 0.  0.
          5    1    3    3  501    0 -0.42969484049E+02 -0.12353341682E+02  0.68688908322E+02  0.81958268263E+02  0.10000000000E+00 0. -1.
         -5    1    3    3    0  501  0.56713943412E+02  0.23102464614E+02  0.35078933604E+03  0.35609459912E+03  0.10000000000E+00 0. -1.
         21    1    1    2  504  503 -0.13744459363E+02 -0.10749122932E+02  0.25157814685E+03  0.25218250886E+03  0.00000000000E+00 0.  1.
<mgrwt>
<rscale>  1 0.12620744E+03</rscale>
<asrwt>0</asrwt>
<pdfrwt beam="1">  1       21 0.10471471E+00 0.12620744E+03</pdfrwt>
<pdfrwt beam="2">  1       21 0.14753071E-02 0.12620744E+03</pdfrwt>
<totfact> 0.14849809E+06</totfact>
</mgrwt>
</event>
<event>
 6    1  0.4241465E-002  0.1259984E+03  0.7546771E-02  0.1233517E+00
         21   -1    0    0  503  502  0.00000000000E+00  0.00000000000E+00  0.39400138498E+02  0.39400138498E+02  0.00000000000E+00 0.  1.
         21   -1    0    0  504  503 -0.00000000000E+00 -0.00000000000E+00 -0.40854390145E+03  0.40854390145E+03  0.00000000000E+00 0.  1.
         25    2    1    2    0    0 -0.13452757967E+02 -0.84291538182E+01 -0.39665220659E+03  0.41618334406E+03  0.12499430206E+03 0.  0.
          5    1    3    3  501    0 -0.15397777388E+02  0.47619299247E+02 -0.78291832005E+02  0.92920988845E+02  0.10000000000E+00 0.  1.
         -5    1    3    3    0  501  0.19450194210E+01 -0.56048453066E+02 -0.31836037459E+03  0.32326235522E+03  0.10000000000E+00 0.  1.
         21    1    1    2  504  502  0.13452757967E+02  0.84291538182E+01  0.27508443647E+02  0.31760695881E+02  0.00000000000E+00 0.  1.
<mgrwt>
<rscale>  1 0.12599842E+03</rscale>
<asrwt>0</asrwt>
<pdfrwt beam="1">  1       21 0.60615599E-02 0.12599842E+03</pdfrwt>
<pdfrwt beam="2">  1       21 0.62852906E-01 0.12599842E+03</pdfrwt>
<totfact> 0.45905260E+05</totfact>
</mgrwt>
</event>
<event>
 6    1  0.4241465E-002  0.1909187E+03  0.7546771E-02  0.1157635E+00
         21   -1    0    0  504  502  0.00000000000E+00  0.00000000000E+00  0.19732218338E+03  0.19732218338E+03  0.00000000000E+00 0.  1.
         21   -1    0    0  502  503 -0.00000000000E+00 -0.00000000000E+00 -0.14267764665E+03  0.14267764665E+03  0.00000000000E+00 0.  1.
         25    2    1    2    0    0  0.28316830946E+02  0.14149502739E+03  0.23311814248E+02  0.19233661460E+03  0.12500898744E+03 0.  0.
          5    1    3    3  501    0  0.69386015169E+02  0.12303457017E+03  0.35588233445E+02  0.14566556531E+03  0.10000000000E+00 0.  1.
         -5    1    3    3    0  501 -0.41069184223E+02  0.18460457225E+02 -0.12276419197E+02  0.46671049292E+02  0.10000000000E+00 0.  1.
         21    1    1    2  504  503 -0.28316830946E+02 -0.14149502739E+03  0.31332722484E+02  0.14766321543E+03  0.00000000000E+00 0.  1.
<mgrwt>
<rscale>  1 0.19091865E+03</rscale>
<asrwt>0</asrwt>
<pdfrwt beam="1">  1       21 0.30357259E-01 0.19091865E+03</pdfrwt>
<pdfrwt beam="2">  1       21 0.21950407E-01 0.19091865E+03</pdfrwt>
<totfact> 0.20196653E+05</totfact>
</mgrwt>
</event>
<event>
 6    1  0.4241465E-002  0.2234115E+03  0.7546771E-02  0.1131365E+00
         21   -1    0    0  504  502  0.00000000000E+00  0.00000000000E+00  0.81144322170E+03  0.81144322170E+03  0.00000000000E+00 0. -1.
         21   -1    0    0  502  503 -0.00000000000E+00 -0.00000000000E+00 -0.27120380519E+03  0.27120380519E+03  0.00000000000E+00 0.  1.
         25    2    1    2    0    0 -0.18396517057E+03 -0.21062151743E+02 -0.21197877969E+03  0.30797353895E+03  0.12500359770E+03 0.  0.
          5    1    3    3  501    0 -0.97867701079E+02  0.43537189555E+02 -0.14820610919E+03  0.18286233781E+03  0.10000000000E+00 0.  1.
         -5    1    3    3    0  501 -0.86097469490E+02 -0.64599341298E+02 -0.63772670500E+02  0.12511120114E+03  0.10000000000E+00 0.  1.
         21    1    1    2  504  503  0.18396517057E+03  0.21062151743E+02  0.75221819620E+03  0.77467348794E+03  0.00000000000E+00 0. -1.
<mgrwt>
<rscale>  1 0.22341150E+03</rscale>
<asrwt>0</asrwt>
<pdfrwt beam="1">  1       21 0.12483742E+00 0.22341150E+03</pdfrwt>
<pdfrwt beam="2">  1       21 0.41723663E-01 0.22341150E+03</pdfrwt>
<totfact> 0.25778478E+03</totfact>
</mgrwt>
</event>
<event>
 6    1  0.4241465E-002  0.1265288E+03  0.7546771E-02  0.1232699E+00
         21   -1    0    0  503  502  0.00000000000E+00  0.00000000000E+00  0.98709851456E+03  0.98709851456E+03  0.00000000000E+00 0. -1.
         21   -1    0    0  504  503 -0.00000000000E+00 -0.00000000000E+00 -0.20707379035E+02  0.20707379035E+02  0.00000000000E+00 0.  1.
         25    2    1    2    0    0  0.15336523101E+02 -0.12225055759E+02  0.17383589831E+03  0.21500802215E+03  0.12499947648E+03 0.  0.
          5    1    3    3  501    0  0.32001174629E+02 -0.58750811313E+02  0.13985403673E+03  0.15503191477E+03  0.10000000000E+00 0. -1.
         -5    1    3    3    0  501 -0.16664651529E+02  0.46525755554E+02  0.33981861587E+02  0.59976107388E+02  0.10000000000E+00 0. -1.
         21    1    1    2  504  502 -0.15336523101E+02  0.12225055759E+02  0.79255523721E+03  0.79279787144E+03  0.00000000000E+00 0. -1.
<mgrwt>
<rscale>  1 0.12652877E+03</rscale>
<asrwt>0</asrwt>
<pdfrwt beam="1">  1       21 0.15186127E+00 0.12652877E+03</pdfrwt>
<pdfrwt beam="2">  1       21 0.31857514E-02 0.12652877E+03</pdfrwt>
<totfact> 0.17049164E+05</totfact>
</mgrwt>
</event>
<event>
 6    1  0.4241465E-002  0.1332968E+03  0.7546771E-02  0.1222644E+00
         21   -1    0    0  503  502  0.00000000000E+00  0.00000000000E+00  0.49565812750E+02  0.49565812750E+02  0.00000000000E+00 0.  1.
         21   -1    0    0  504  503 -0.00000000000E+00 -0.00000000000E+00 -0.10207624843E+04  0.10207624843E+04  0.00000000000E+00 0.  1.
         25    2    1    2    0    0 -0.41917084267E+02  0.19631783412E+02 -0.10045001417E+04  0.10133057577E+04  0.12500230035E+03 0.  0.
          5    1    3    3  501    0 -0.79611924949E+02 -0.14284870991E+02 -0.69319378456E+03  0.69789666075E+03  0.10000000000E+00 0. -1.
         -5    1    3    3    0  501  0.37694840681E+02  0.33916654403E+02 -0.31130635712E+03  0.31540909696E+03  0.10000000000E+00 0. -1.
         21    1    1    2  504  502  0.41917084267E+02 -0.19631783412E+02  0.33303470114E+02  0.57022539360E+02  0.00000000000E+00 0.  1.
<mgrwt>
<rscale>  1 0.13329675E+03</rscale>
<asrwt>0</asrwt>
<pdfrwt beam="1">  1       21 0.76255105E-02 0.13329675E+03</pdfrwt>
<pdfrwt beam="2">  1       21 0.15704036E+00 0.13329675E+03</pdfrwt>
<totfact> 0.35901803E+04</totfact>
</mgrwt>
</event>
<event>
 6    1  0.4241465E-002  0.1260840E+03  0.7546771E-02  0.1233385E+00
         21   -1    0    0  504  502  0.00000000000E+00  0.00000000000E+00  0.19615274811E+03  0.19615274811E+03  0.00000000000E+00 0. -1.
         21   -1    0    0  502  503 -0.00000000000E+00 -0.00000000000E+00 -0.42049287026E+03  0.42049287026E+03  0.00000000000E+00 0.  1.
         25    2    1    2    0    0 -0.78591197447E+01  0.14490762401E+02 -0.41066927240E+03  0.42958867467E+03  0.12500172059E+03 0.  0.
          5    1    3    3  501    0 -0.55186843167E+02 -0.22130289512E+01 -0.94467302185E+02  0.10942836167E+03  0.10000000000E+00 0. -1.
         -5    1    3    3    0  501  0.47327723423E+02  0.16703791353E+02 -0.31620197021E+03  0.32016031300E+03  0.10000000000E+00 0. -1.
         21    1    1    2  504  503  0.78591197447E+01 -0.14490762401E+02  0.18632915025E+03  0.18705694371E+03  0.00000000000E+00 0. -1.
<mgrwt>
<rscale>  1 0.12608401E+03</rscale>
<asrwt>0</asrwt>
<pdfrwt beam="1">  1       21 0.30177346E-01 0.12608401E+03</pdfrwt>
<pdfrwt beam="2">  1       21 0.64691211E-01 0.12608401E+03</pdfrwt>
<totfact> 0.24189197E+04</totfact>
</mgrwt>
</event>
<event>
 6    1  0.4241465E-002  0.1259504E+03  0.7546771E-02  0.1233591E+00
         21   -1    0    0  503  502  0.00000000000E+00  0.00000000000E+00  0.52491661354E+02  0.52491661354E+02  0.00000000000E+00 0.  1.
         21   -1    0    0  504  503 -0.00000000000E+00 -0.00000000000E+00 -0.19623085293E+03  0.19623085293E+03  0.00000000000E+00 0.  1.
         25    2    1    2    0    0  0.12563878125E+02 -0.89653845160E+01 -0.17397157041E+03  0.21477806138E+03  0.12500111673E+03 0.  0.
          5    1    3    3  501    0  0.19334511931E+02  0.55945618231E+01 -0.19060131486E+03  0.19166114290E+03  0.10000000000E+00 0. -1.
         -5    1    3    3    0  501 -0.67706338059E+01 -0.14559946339E+02  0.16629744444E+02  0.23116918476E+02  0.10000000000E+00 0. -1.
         21    1    1    2  504  502 -0.12563878125E+02  0.89653845160E+01  0.30232378836E+02  0.33944452907E+02  0.00000000000E+00 0.  1.
<mgrwt>
<rscale>  1 0.12595042E+03</rscale>
<asrwt>0</asrwt>
<pdfrwt beam="1">  1       21 0.80756403E-02 0.12595042E+03</pdfrwt>
<pdfrwt beam="2">  1       21 0.30189362E-01 0.12595042E+03</pdfrwt>
<totfact> 0.12411051E+06</totfact>
</mgrwt>
</event>
<event>
 6    1  0.4241465E-002  0.1439870E+03  0.7546771E-02  0.1208063E+00
         21   -1    0    0  504  502  0.00000000000E+00  0.00000000000E+00  0.28482837595E+03  0.28482837595E+03  0.00000000000E+00 0. -1.
         21   -1    0    0  502  503 -0.00000000000E+00 -0.00000000000E+00 -0.33337298574E+03  0.33337298574E+03  0.00000000000E+00 0. -1.
         25    2    1    2    0    0 -0.67521514624E+01  0.70994087350E+02 -0.31287657476E+03  0.34441834598E+03  0.12508594653E+03 0.  0.
          5    1    3    3  501    0 -0.61477902931E+02  0.11649825501E+02 -0.12011551807E+03  0.13543632698E+03  0.10000000000E+00 0.  1.
         -5    1    3    3    0  501  0.54725751468E+02  0.59344261848E+02 -0.19276105669E+03  0.20898201900E+03  0.10000000000E+00 0.  1.
         21    1    1    2  504  503  0.67521514624E+01 -0.70994087350E+02  0.26433196497E+03  0.27378301571E+03  0.00000000000E+00 0. -1.
<mgrwt>
<rscale>  1 0.14398696E+03</rscale>
<asrwt>0</asrwt>
<pdfrwt beam="1">  1       21 0.43819750E-01 0.14398696E+03</pdfrwt>
<pdfrwt beam="2">  1       21 0.51288151E-01 0.14398696E+03</pdfrwt>
<totfact> 0.18655382E+04</totfact>
</mgrwt>
</event>
<event>
 6    1  0.4241465E-002  0.1390074E+03  0.7546771E-02  0.1214671E+00
         21   -1    0    0  504  502  0.00000000000E+00  0.00000000000E+00  0.64487101070E+02  0.64487101070E+02  0.00000000000E+00 0. -1.
         21   -1    0    0  502  503 -0.00000000000E+00 -0.00000000000E+00 -0.54074509803E+03  0.54074509803E+03  0.00000000000E+00 0. -1.
         25    2    1    2    0    0  0.60936374434E+02  0.42296807390E+00 -0.51472756399E+03  0.53316744892E+03  0.12493855617E+03 0.  0.
          5    1    3    3  501    0 -0.10691464789E+02 -0.41756499004E+02 -0.83155029980E+02  0.93662594665E+02  0.10000000000E+00 0. -1.
         -5    1    3    3    0  501  0.71627839223E+02  0.42179467078E+02 -0.43157253401E+03  0.43950485425E+03  0.10000000000E+00 0. -1.
         21    1    1    2  504  503 -0.60936374434E+02 -0.42296807390E+00  0.38469567035E+02  0.72064750183E+02  0.00000000000E+00 0. -1.
<mgrwt>
<rscale>  1 0.13900742E+03</rscale>
<asrwt>0</asrwt>
<pdfrwt beam="1">  1       21 0.99210923E-02 0.13900742E+03</pdfrwt>
<pdfrwt beam="2">  1       21 0.83191555E-01 0.13900742E+03</pdfrwt>
<totfact> 0.10579294E+05</totfact>
</mgrwt>
</event>
<event>
 6    1  0.4241465E-002  0.1581020E+03  0.7546771E-02  0.1190856E+00
         21   -1    0    0  503  502  0.00000000000E+00  0.00000000000E+00  0.20027930885E+03  0.20027930885E+03  0.00000000000E+00 0.  1.
         21   -1    0    0  504  503 -0.00000000000E+00 -0.00000000000E+00 -0.17942070519E+03  0.17942070519E+03  0.00000000000E+00 0.  1.
         25    2    1    2    0    0 -0.94164390587E+02 -0.22504977549E+02 -0.12711652787E+03  0.20286662912E+03  0.12499140403E+03 0.  0.
          5    1    3    3  501    0 -0.77372227125E+02 -0.57314052968E+02 -0.34112288323E+02  0.10215194767E+03  0.10000000000E+00 0.  1.
         -5    1    3    3    0  501 -0.16792163462E+02  0.34809075419E+02 -0.93004239552E+02  0.10071468145E+03  0.10000000000E+00 0.  1.
         21    1    1    2  504  502  0.94164390587E+02  0.22504977549E+02  0.14797513154E+03  0.17683338492E+03  0.00000000000E+00 0.  1.
<mgrwt>
<rscale>  1 0.15810205E+03</rscale>
<asrwt>0</asrwt>
<pdfrwt beam="1">  1       21 0.30812201E-01 0.15810205E+03</pdfrwt>
<pdfrwt beam="2">  1       21 0.27603185E-01 0.15810205E+03</pdfrwt>
<totfact> 0.12824591E+05</totfact>
</mgrwt>
</event>
<event>
 6    1  0.4241465E-002  0.1835031E+03  0.7546771E-02  0.1164455E+00
         21   -1    0    0  504  502  0.00000000000E+00  0.00000000000E+00  0.55663649566E+02  0.55663649566E+02  0.00000000000E+00 0. -1.
         21   -1    0    0  502  503 -0.00000000000E+00 -0.00000000000E+00 -0.77579003493E+03  0.77579003493E+03  0.00000000000E+00 0.  1.
         25    2    1    2    0    0 -0.13433289398E+03  0.14887067522E+01 -0.65861285646E+03  0.68369896582E+03  0.12500335400E+03 0.  0.
          5    1    3    3  501    0 -0.10070206097E+02  0.39597138569E+02 -0.71308184367E+02  0.82183998390E+02  0.10000000000E+00 0. -1.
         -5    1    3    3    0  501 -0.12426268788E+03 -0.38108431817E+02 -0.58730467209E+03  0.60151496743E+03  0.10000000000E+00 0. -1.
         21    1    1    2  504  503  0.13433289398E+03 -0.14887067522E+01 -0.61513528899E+02  0.14775471868E+03  0.00000000000E+00 0. -1.
<mgrwt>
<rscale>  1 0.18350308E+03</rscale>
<asrwt>0</asrwt>
<pdfrwt beam="1">  1       21 0.85636387E-02 0.18350308E+03</pdfrwt>
<pdfrwt beam="2">  1       21 0.11935231E+00 0.18350308E+03</pdfrwt>
<totfact> 0.57297607E+04</totfact>
</mgrwt>
</event>
<event>
 6    1  0.4241465E-002  0.1498906E+03  0.7546771E-02  0.1200607E+00
         21   -1    0    0  504  502  0.00000000000E+00  0.00000000000E+00  0.14108088968E+03  0.14108088968E+03  0.00000000000E+00 0.  1.
         21   -1    0    0  502  503 -0.00000000000E+00 -0.00000000000E+00 -0.95912856241E+02  0.95912856241E+02  0.00000000000E+00 0.  1.
         25    2    1    2    0    0  0.37667747653E+02 -0.73673601561E+02  0.30371004267E+02  0.15293655793E+03  0.12498213501E+03 0.  0.
          5    1    3    3  501    0 -0.69348289469E+00 -0.97722107953E+02 -0.12138200920E+01  0.97732157761E+02  0.10000000000E+00 0.  1.
         -5    1    3    3    0  501  0.38361230547E+02  0.24048506393E+02  0.31584824359E+02  0.55204400174E+02  0.10000000000E+00 0.  1.
         21    1    1    2  504  503 -0.37667747653E+02  0.73673601561E+02  0.14797029174E+02  0.84057187988E+02  0.00000000000E+00 0.  1.
<mgrwt>
<rscale>  1 0.14989060E+03</rscale>
<asrwt>0</asrwt>
<pdfrwt beam="1">  1       21 0.21704752E-01 0.14989060E+03</pdfrwt>
<pdfrwt beam="2">  1       21 0.14755824E-01 0.14989060E+03</pdfrwt>
<totfact> 0.80292212E+05</totfact>
</mgrwt>
</event>
<event>
 6    1  0.4241465E-002  0.1267392E+03  0.7546771E-02  0.1232376E+00
         21   -1    0    0  504  502  0.00000000000E+00  0.00000000000E+00  0.30195622958E+02  0.30195622958E+02  0.00000000000E+00 0.  1.
         21   -1    0    0  502  503 -0.00000000000E+00 -0.00000000000E+00 -0.19205236299E+03  0.19205236299E+03  0.00000000000E+00 0.  1.
         25    2    1    2    0    0 -0.44615729974E+01  0.20464018676E+02 -0.15497840842E+03  0.20020273386E+03  0.12499658345E+03 0.  0.
          5    1    3    3  501    0 -0.30566226349E+02 -0.23035996080E+02 -0.12233842977E+01  0.38294359607E+02  0.10000000000E+00 0.  1.
         -5    1    3    3    0  501  0.26104653351E+02  0.43500014756E+02 -0.15375502412E+03  0.16190837425E+03  0.10000000000E+00 0.  1.
         21    1    1    2  504  503  0.44615729974E+01 -0.20464018676E+02 -0.68783316170E+01  0.22045252092E+02  0.00000000000E+00 0.  1.
<mgrwt>
<rscale>  1 0.12673921E+03</rscale>
<asrwt>0</asrwt>
<pdfrwt beam="1">  1       21 0.46454803E-02 0.12673921E+03</pdfrwt>
<pdfrwt beam="2">  1       21 0.29546518E-01 0.12673921E+03</pdfrwt>
<totfact> 0.33074992E+06</totfact>
</mgrwt>
</event>
<event>
 6    1  0.4241465E-002  0.1259371E+03  0.7546771E-02  0.1233612E+00
         21   -1    0    0  504  502  0.00000000000E+00  0.00000000000E+00  0.95597621960E+02  0.95597621960E+02  0.00000000000E+00 0.  1.
         21   -1    0    0  502  503 -0.00000000000E+00 -0.00000000000E+00 -0.53106637178E+02  0.53106637178E+02  0.00000000000E+00 0.  1.
         25    2    1    2    0    0  0.11645659248E+02  0.10067616431E+02  0.31582132896E+02  0.12983679165E+03  0.12499273206E+03 0.  0.
          5    1    3    3  501    0  0.33890765657E+02 -0.50836341011E+02  0.15263190331E+02  0.62975332816E+02  0.10000000000E+00 0. -1.
         -5    1    3    3    0  501 -0.22245106410E+02  0.60903957441E+02  0.16318942566E+02  0.66861458836E+02  0.10000000000E+00 0. -1.
         21    1    1    2  504  503 -0.11645659248E+02 -0.10067616431E+02  0.10908851886E+02  0.18867467487E+02  0.00000000000E+00 0.  1.
<mgrwt>
<rscale>  1 0.12593713E+03</rscale>
<asrwt>0</asrwt>
<pdfrwt beam="1">  1       21 0.14707326E-01 0.12593713E+03</pdfrwt>
<pdfrwt beam="2">  1       21 0.81702519E-02 0.12593713E+03</pdfrwt>
<totfact> 0.46309425E+06</totfact>
</mgrwt>
</event>
<event>
 6    1  0.4241465E-002  0.1271950E+03  0.7546771E-02  0.1231678E+00
         21   -1    0    0  504  502  0.00000000000E+00  0.00000000000E+00  0.11317007351E+03  0.11317007351E+03  0.00000000000E+00 0.  1.
         21   -1    0    0  502  503 -0.00000000000E+00 -0.00000000000E+00 -0.52071721673E+02  0.52071721673E+02  0.00000000000E+00 0.  1.
         25    2    1    2    0    0  0.22728330457E+02  0.57854767202E+01  0.62551705086E+02  0.14174368927E+03  0.12501403478E+03 0.  0.
          5    1    3    3  501    0 -0.19551299262E+02  0.56325544137E+02  0.18288766118E+02  0.62364326271E+02  0.10000000000E+00 0. -1.
         -5    1    3    3    0  501  0.42279629719E+02 -0.50540067416E+02  0.44262938968E+02  0.79379362996E+02  0.10000000000E+00 0. -1.
         21    1    1    2  504  503 -0.22728330457E+02 -0.57854767202E+01 -0.14533532440E+01  0.23498105921E+02  0.00000000000E+00 0.  1.
<mgrwt>
<rscale>  1 0.12719496E+03</rscale>
<asrwt>0</asrwt>
<pdfrwt beam="1">  1       21 0.17410781E-01 0.12719496E+03</pdfrwt>
<pdfrwt beam="2">  1       21 0.80110341E-02 0.12719496E+03</pdfrwt>
<totfact> 0.35307129E+06</totfact>
</mgrwt>
</event>
<event>
 6    1  0.4241465E-002  0.1304783E+03  0.7546771E-02  0.1226748E+00
         21   -1    0    0  503  502  0.00000000000E+00  0.00000000000E+00  0.19891535971E+03  0.19891535971E+03  0.00000000000E+00 0. -1.
         21   -1    0    0  504  503 -0.00000000000E+00 -0.00000000000E+00 -0.95360866528E+02  0.95360866528E+02  0.00000000000E+00 0. -1.
         25    2    1    2    0    0  0.26763844101E+02  0.26132921082E+02 -0.47350380820E+02  0.13880431909E+03  0.12500139007E+03 0.  0.
          5    1    3    3  501    0  0.46291369708E+02 -0.30726024958E+02  0.91421177877E+01  0.56307795525E+02  0.10000000000E+00 0.  1.
         -5    1    3    3    0  501 -0.19527525608E+02  0.56858946040E+02 -0.56492498608E+02  0.82496523564E+02  0.10000000000E+00 0.  1.
         21    1    1    2  504  502 -0.26763844101E+02 -0.26132921082E+02  0.15090487400E+03  0.15547190715E+03  0.00000000000E+00 0. -1.
<mgrwt>
<rscale>  1 0.13047828E+03</rscale>
<asrwt>0</asrwt>
<pdfrwt beam="1">  1       21 0.30602363E-01 0.13047828E+03</pdfrwt>
<pdfrwt beam="2">  1       21 0.14670903E-01 0.13047828E+03</pdfrwt>
<totfact> 0.42273395E+05</totfact>
</mgrwt>
</event>
<event>
 6    1  0.4241465E-002  0.1304793E+03  0.7546771E-02  0.1226746E+00
         21   -1    0    0  503  502  0.00000000000E+00  0.00000000000E+00  0.11353883112E+02  0.11353883112E+02  0.00000000000E+00 0.  1.
         21   -1    0    0  504  503 -0.00000000000E+00 -0.00000000000E+00 -0.64525599014E+03  0.64525599014E+03  0.00000000000E+00 0.  1.
         25    2    1    2    0    0  0.28884088182E+02 -0.23873428602E+02 -0.53921854898E+03  0.55478056850E+03  0.12498241664E+03 0.  0.
          5    1    3    3  501    0  0.61052597279E+02 -0.30728803002E+01 -0.48237933490E+03  0.48623728258E+03  0.10000000000E+00 0. -1.
         -5    1    3    3    0  501 -0.32168509096E+02 -0.20800548302E+02 -0.56839214082E+02  0.68543285919E+02  0.10000000000E+00 0. -1.
         21    1    1    2  504  502 -0.28884088182E+02  0.23873428602E+02 -0.94683558045E+02  0.10182930476E+03  0.00000000000E+00 0.  1.
<mgrwt>
<rscale>  1 0.13047925E+03</rscale>
<asrwt>0</asrwt>
<pdfrwt beam="1">  1       21 0.17467513E-02 0.13047925E+03</pdfrwt>
<pdfrwt beam="2">  1       21 0.99270151E-01 0.13047925E+03</pdfrwt>
<totfact> 0.12852895E+06</totfact>
</mgrwt>
</event>
<event>
 6    1  0.4241465E-002  0.1259996E+03  0.7546771E-02  0.1233515E+00
         21   -1    0    0  503  502  0.00000000000E+00  0.00000000000E+00  0.26605435895E+03  0.26605435895E+03  0.00000000000E+00 0. -1.
         21   -1    0    0  504  503 -0.00000000000E+00 -0.00000000000E+00 -0.19138156471E+02  0.19138156471E+02  0.00000000000E+00 0. -1.
         25    2    1    2    0    0  0.90812025933E+00 -0.15796465621E+02  0.20805968820E+03  0.24323799587E+03  0.12500214308E+03 0.  0.
          5    1    3    3  501    0  0.48519879460E+02  0.26265323466E+02  0.56833630690E+02  0.79209327083E+02  0.10000000000E+00 0.  1.
         -5    1    3    3    0  501 -0.47611759201E+02 -0.42061789087E+02  0.15122605751E+03  0.16402866879E+03  0.10000000000E+00 0.  1.
         21    1    1    2  504  502 -0.90812025933E+00  0.15796465621E+02  0.38856514278E+02  0.41954519546E+02  0.00000000000E+00 0. -1.
<mgrwt>
<rscale>  1 0.12599956E+03</rscale>
<asrwt>0</asrwt>
<pdfrwt beam="1">  1       21 0.40931437E-01 0.12599956E+03</pdfrwt>
<pdfrwt beam="2">  1       21 0.29443320E-02 0.12599956E+03</pdfrwt>
<totfact> 0.37093246E+06</totfact>
</mgrwt>
</event>
<event>
 6    1  0.4241465E-002  0.1403717E+03  0.7546771E-02  0.1212830E+00
         21   -1    0    0  504  502  0.00000000000E+00  0.00000000000E+00  0.44439138737E+03  0.44439138737E+03  0.00000000000E+00 0.  1.
         21   -1    0    0  502  503 -0.00000000000E+00 -0.00000000000E+00 -0.40779787711E+02  0.40779787711E+02  0.00000000000E+00 0.  1.
         25    2    1    2    0    0  0.49695445081E+02  0.40128315375E+02  0.93761594388E+02  0.16880596725E+03  0.12499719614E+03 0.  0.
          5    1    3    3  501    0  0.29964525788E+02  0.74220635141E+02  0.15982625225E+02  0.81621258233E+02  0.10000000000E+00 0. -1.
         -5    1    3    3    0  501  0.19730919293E+02 -0.34092319766E+02  0.77778969162E+02  0.87184709021E+02  0.10000000000E+00 0. -1.
         21    1    1    2  504  503 -0.49695445081E+02 -0.40128315375E+02  0.30985000527E+03  0.31636520783E+03  0.00000000000E+00 0.  1.
<mgrwt>
<rscale>  1 0.14037171E+03</rscale>
<asrwt>0</asrwt>
<pdfrwt beam="1">  1       21 0.68367902E-01 0.14037171E+03</pdfrwt>
<pdfrwt beam="2">  1       21 0.62738138E-02 0.14037171E+03</pdfrwt>
<totfact> 0.36036950E+05</totfact>
</mgrwt>
</event>
<event>
 6    1  0.4241465E-002  0.1380765E+03  0.7546771E-02  0.1215941E+00
         21   -1    0    0  503  502  0.00000000000E+00  0.00000000000E+00  0.53056013225E+02  0.53056013225E+02  0.00000000000E+00 0. -1.
         21   -1    0    0  504  503 -0.00000000000E+00 -0.00000000000E+00 -0.19752430771E+03  0.19752430771E+03  0.00000000000E+00 0. -1.
         25    2    1    2    0    0  0.57720579573E+02  0.10337595772E+02 -0.13117782448E+03  0.19045405558E+03  0.12500637768E+03 0.  0.
          5    1    3    3  501    0  0.34644347704E+02  0.11159148796E+02  0.17223633394E+02  0.40266871955E+02  0.10000000000E+00 0. -1.
         -5    1    3    3    0  501  0.23076231869E+02 -0.82155302424E+00 -0.14840145787E+03  0.15018718363E+03  0.10000000000E+00 0. -1.
         21    1    1    2  504  502 -0.57720579573E+02 -0.10337595772E+02 -0.13290470007E+02  0.60126265356E+02  0.00000000000E+00 0. -1.
<mgrwt>
<rscale>  1 0.13807652E+03</rscale>
<asrwt>0</asrwt>
<pdfrwt beam="1">  1       21 0.81624635E-02 0.13807652E+03</pdfrwt>
<pdfrwt beam="2">  1       21 0.30388355E-01 0.13807652E+03</pdfrwt>
<totfact> 0.12044211E+06</totfact>
</mgrwt>
</event>
<event>
 6    1  0.4241465E-002  0.1287238E+03  0.7546771E-02  0.1229362E+00
         21   -1    0    0  503  502  0.00000000000E+00  0.00000000000E+00  0.50135065239E+02  0.50135065239E+02  0.00000000000E+00 0.  1.
         21   -1    0    0  504  503 -0.00000000000E+00 -0.00000000000E+00 -0.12935682922E+03  0.12935682922E+03  0.00000000000E+00 0.  1.
         25    2    1    2    0    0 -0.30724061815E+02 -0.16430406816E+01 -0.73392867078E+02  0.14817666500E+03  0.12499257400E+03 0.  0.
          5    1    3    3  501    0 -0.12113177719E+02 -0.44330962367E+02  0.14937029852E+02  0.48322749918E+02  0.10000000000E+00 0.  1.
         -5    1    3    3    0  501 -0.18610884096E+02  0.42687921685E+02 -0.88329896930E+02  0.99853915077E+02  0.10000000000E+00 0.  1.
         21    1    1    2  504  502  0.30724061815E+02  0.16430406816E+01 -0.58288969015E+01  0.31315229461E+02  0.00000000000E+00 0.  1.
<mgrwt>
<rscale>  1 0.12872378E+03</rscale>
<asrwt>0</asrwt>
<pdfrwt beam="1">  1       21 0.77130872E-02 0.12872378E+03</pdfrwt>
<pdfrwt beam="2">  1       21 0.19901050E-01 0.12872378E+03</pdfrwt>
<totfact> 0.29500074E+06</totfact>
</mgrwt>
</event>
<event>
 6    1  0.4241465E-002  0.1291818E+03  0.7546771E-02  0.1228675E+00
         21   -1    0    0  504  502  0.00000000000E+00  0.00000000000E+00  0.47676107487E+02  0.47676107487E+02  0.00000000000E+00 0. -1.
         21   -1    0    0  502  503 -0.00000000000E+00 -0.00000000000E+00 -0.22427275848E+03  0.22427275848E+03  0.00000000000E+00 0. -1.
         25    2    1    2    0    0 -0.27043202721E+02 -0.18269416792E+02 -0.19543154639E+03  0.23426784041E+03  0.12499130099E+03 0.  0.
          5    1    3    3  501    0  0.10247220611E+02 -0.47426882152E+02 -0.19862596814E+02  0.52429451962E+02  0.10000000000E+00 0.  1.
         -5    1    3    3    0  501 -0.37290423332E+02  0.29157465360E+02 -0.17556894957E+03  0.18183838844E+03  0.10000000000E+00 0.  1.
         21    1    1    2  504  503  0.27043202721E+02  0.18269416792E+02  0.18834895388E+02  0.37681025564E+02  0.00000000000E+00 0. -1.
<mgrwt>
<rscale>  1 0.12918178E+03</rscale>
<asrwt>0</asrwt>
<pdfrwt beam="1">  1       21 0.73347858E-02 0.12918178E+03</pdfrwt>
<pdfrwt beam="2">  1       21 0.34503501E-01 0.12918178E+03</pdfrwt>
<totfact> 0.11298049E+06</totfact>
</mgrwt>
</event>
<event>
 6    1  0.4241465E-002  0.1706555E+03  0.7546771E-02  0.1177166E+00
         21   -1    0    0  504  502  0.00000000000E+00  0.00000000000E+00  0.24028830250E+03  0.24028830250E+03  0.00000000000E+00 0.  1.
         21   -1    0    0  502  503 -0.00000000000E+00 -0.00000000000E+00 -0.97674208306E+02  0.97674208306E+02  0.00000000000E+00 0.  1.
         25    2    1    2    0    0  0.39213974568E+02  0.10936509245E+03  0.24712887843E+02  0.17243561358E+03  0.12499941902E+03 0.  0.
          5    1    3    3  501    0 -0.31266029543E+02  0.83201859728E+02  0.36967659025E+02  0.96263865907E+02  0.10000000000E+00 0. -1.
         -5    1    3    3    0  501  0.70480004111E+02  0.26163232724E+02 -0.12254771182E+02  0.76171747668E+02  0.10000000000E+00 0. -1.
         21    1    1    2  504  503 -0.39213974568E+02 -0.10936509245E+03  0.11790120636E+03  0.16552689724E+03  0.00000000000E+00 0.  1.
<mgrwt>
<rscale>  1 0.17065554E+03</rscale>
<asrwt>0</asrwt>
<pdfrwt beam="1">  1       21 0.36967431E-01 0.17065554E+03</pdfrwt>
<pdfrwt beam="2">  1       21 0.15026801E-01 0.17065554E+03</pdfrwt>
<totfact> 0.27743596E+05</totfact>
</mgrwt>
</event>
<event>
 6    1  0.4241465E-002  0.1281963E+03  0.7546771E-02  0.1230157E+00
         21   -1    0    0  503  502  0.00000000000E+00  0.00000000000E+00  0.66969542176E+01  0.66969542176E+01  0.00000000000E+00 0.  1.
         21   -1    0    0  504  503 -0.00000000000E+00 -0.00000000000E+00 -0.94028775246E+03  0.94028775246E+03  0.00000000000E+00 0.  1.
         25    2    1    2    0    0  0.23372843937E+02  0.16248939601E+02 -0.81529111675E+03  0.82530836340E+03  0.12499588704E+03 0.  0.
          5    1    3    3  501    0  0.58961391818E+02  0.29911853358E+02 -0.24560383365E+03  0.25434704205E+03  0.10000000000E+00 0. -1.
         -5    1    3    3    0  501 -0.35588547881E+02 -0.13662913757E+02 -0.56968728310E+03  0.57096132135E+03  0.10000000000E+00 0. -1.
         21    1    1    2  504  502 -0.23372843937E+02 -0.16248939601E+02 -0.11829968149E+03  0.12167634327E+03  0.00000000000E+00 0.  1.
<mgrwt>
<rscale>  1 0.12819629E+03</rscale>
<asrwt>0</asrwt>
<pdfrwt beam="1">  1       21 0.10303002E-02 0.12819629E+03</pdfrwt>
<pdfrwt beam="2">  1       21 0.14465971E+00 0.12819629E+03</pdfrwt>
<totfact> 0.11867413E+06</totfact>
</mgrwt>
</event>
<event>
 6    1  0.4241465E-002  0.1264753E+03  0.7546771E-02  0.1232782E+00
         21   -1    0    0  503  502  0.00000000000E+00  0.00000000000E+00  0.78627538830E+03  0.78627538830E+03  0.00000000000E+00 0.  1.
         21   -1    0    0  504  503 -0.00000000000E+00 -0.00000000000E+00 -0.70860560873E+01  0.70860560873E+01  0.00000000000E+00 0.  1.
         25    2    1    2    0    0 -0.40946552294E+01  0.18849136021E+02  0.60309810706E+03  0.61621693924E+03  0.12499573325E+03 0.  0.
          5    1    3    3  501    0  0.20286427078E+01 -0.47777394306E+02  0.38845863956E+03  0.39139100583E+03  0.10000000000E+00 0.  1.
         -5    1    3    3    0  501 -0.61232979373E+01  0.66626530328E+02  0.21463946750E+03  0.22482593340E+03  0.10000000000E+00 0.  1.
         21    1    1    2  504  502  0.40946552294E+01 -0.18849136021E+02  0.17609122515E+03  0.17714450515E+03  0.00000000000E+00 0.  1.
<mgrwt>
<rscale>  1 0.12647525E+03</rscale>
<asrwt>0</asrwt>
<pdfrwt beam="1">  1       21 0.12096538E+00 0.12647525E+03</pdfrwt>
<pdfrwt beam="2">  1       21 0.10901631E-02 0.12647525E+03</pdfrwt>
<totfact> 0.16980338E+06</totfact>
</mgrwt>
</event>
<event>
 6    1  0.4241465E-002  0.1340011E+03  0.7546771E-02  0.1221637E+00
         21   -1    0    0  503  502  0.00000000000E+00  0.00000000000E+00  0.13508444051E+04  0.13508444051E+04  0.00000000000E+00 0.  1.
         21   -1    0    0  504  503 -0.00000000000E+00 -0.00000000000E+00 -0.62583733950E+01  0.62583733950E+01  0.00000000000E+00 0.  1.
         25    2    1    2    0    0  0.47218235595E+02  0.10129410033E+02  0.90392461135E+03  0.91380304456E+03  0.12499653802E+03 0.  0.
          5    1    3    3  501    0  0.79931708925E+02  0.38959532211E+02  0.53948772720E+03  0.54676680682E+03  0.10000000000E+00 0.  1.
         -5    1    3    3    0  501 -0.32713473331E+02 -0.28830122178E+02  0.36443688416E+03  0.36703623774E+03  0.10000000000E+00 0.  1.
         21    1    1    2  504  502 -0.47218235595E+02 -0.10129410033E+02  0.44066142030E+03  0.44329973389E+03  0.00000000000E+00 0.  1.
<mgrwt>
<rscale>  1 0.13400112E+03</rscale>
<asrwt>0</asrwt>
<pdfrwt beam="1">  1       21 0.20782198E+00 0.13400112E+03</pdfrwt>
<pdfrwt beam="2">  1       21 0.96282775E-03 0.13400112E+03</pdfrwt>
<totfact> 0.48900378E+05</totfact>
</mgrwt>
</event>
<event>
 6    1  0.4241465E-002  0.1443908E+03  0.7546771E-02  0.1207540E+00
         21   -1    0    0  503  502  0.00000000000E+00  0.00000000000E+00  0.16884785902E+03  0.16884785902E+03  0.00000000000E+00 0. -1.
         21   -1    0    0  504  503 -0.00000000000E+00 -0.00000000000E+00 -0.73956479505E+02  0.73956479505E+02  0.00000000000E+00 0. -1.
         25    2    1    2    0    0  0.29377060860E+02  0.66036541044E+02  0.34102717503E+02  0.14836336285E+03  0.12499942254E+03 0.  0.
          5    1    3    3  501    0  0.50499785546E+02 -0.30311373313E+01 -0.23689222368E+02  0.55862379023E+02  0.10000000000E+00 0.  1.
         -5    1    3    3    0  501 -0.21122724686E+02  0.69067678376E+02  0.57791939871E+02  0.92500983824E+02  0.10000000000E+00 0.  1.
         21    1    1    2  504  502 -0.29377060860E+02 -0.66036541044E+02  0.60788662013E+02  0.94440975679E+02  0.00000000000E+00 0. -1.
<mgrwt>
<rscale>  1 0.14439076E+03</rscale>
<asrwt>0</asrwt>
<pdfrwt beam="1">  1       21 0.25976594E-01 0.14439076E+03</pdfrwt>
<pdfrwt beam="2">  1       21 0.11377920E-01 0.14439076E+03</pdfrwt>
<totfact> 0.91062304E+05</totfact>
</mgrwt>
</event>
<event>
 6    1  0.4241465E-002  0.1563311E+03  0.7546771E-02  0.1192902E+00
         21   -1    0    0  503  502  0.00000000000E+00  0.00000000000E+00  0.32228295940E+02  0.32228295940E+02  0.00000000000E+00 0. -1.
         21   -1    0    0  504  503 -0.00000000000E+00 -0.00000000000E+00 -0.48574608582E+03  0.48574608582E+03  0.00000000000E+00 0. -1.
         25    2    1    2    0    0 -0.82121720671E+02  0.45500177646E+02 -0.28672563898E+03  0.32657463052E+03  0.12500061632E+03 0.  0.
          5    1    3    3  501    0 -0.40452588769E+02 -0.46964783310E+01 -0.95556593585E+01  0.41830484968E+02  0.10000000000E+00 0. -1.
         -5    1    3    3    0  501 -0.41669131902E+02  0.50196655977E+02 -0.27716997962E+03  0.28474414556E+03  0.10000000000E+00 0. -1.
         21    1    1    2  504  502  0.82121720671E+02 -0.45500177646E+02 -0.16679215090E+03  0.19139975124E+03  0.00000000000E+00 0. -1.
<mgrwt>
<rscale>  1 0.15633105E+03</rscale>
<asrwt>0</asrwt>
<pdfrwt beam="1">  1       21 0.49581995E-02 0.15633105E+03</pdfrwt>
<pdfrwt beam="2">  1       21 0.74730165E-01 0.15633105E+03</pdfrwt>
<totfact> 0.44055618E+05</totfact>
</mgrwt>
</event>
<event>
 6    1  0.4241465E-002  0.1297673E+03  0.7546771E-02  0.1227801E+00
         21   -1    0    0  503  502  0.00000000000E+00  0.00000000000E+00  0.24278748639E+03  0.24278748639E+03  0.00000000000E+00 0.  1.
         21   -1    0    0  504  503 -0.00000000000E+00 -0.00000000000E+00 -0.58199596190E+02  0.58199596190E+02  0.00000000000E+00 0.  1.
         25    2    1    2    0    0 -0.26017285069E+02  0.23221991351E+02  0.18263721933E+02  0.13104624301E+03  0.12499357689E+03 0.  0.
          5    1    3    3  501    0  0.21909466488E+02  0.54924076921E+02 -0.19523137398E+02  0.62272320025E+02  0.10000000000E+00 0.  1.
         -5    1    3    3    0  501 -0.47926751558E+02 -0.31702085570E+02  0.37786859331E+02  0.68773922983E+02  0.10000000000E+00 0.  1.
         21    1    1    2  504  502  0.26017285069E+02 -0.23221991351E+02  0.16632416827E+03  0.16994083957E+03  0.00000000000E+00 0.  1.
<mgrwt>
<rscale>  1 0.12976731E+03</rscale>
<asrwt>0</asrwt>
<pdfrwt beam="1">  1       21 0.37351920E-01 0.12976731E+03</pdfrwt>
<pdfrwt beam="2">  1       21 0.89537842E-02 0.12976731E+03</pdfrwt>
<totfact> 0.68493037E+05</totfact>
</mgrwt>
</event>
<event>
 6    1  0.4241465E-002  0.1265619E+03  0.7546771E-02  0.1232648E+00
         21   -1    0    0  504  502  0.00000000000E+00  0.00000000000E+00  0.11043104870E+03  0.11043104870E+03  0.00000000000E+00 0. -1.
         21   -1    0    0  502  503 -0.00000000000E+00 -0.00000000000E+00 -0.52767031032E+02  0.52767031032E+02  0.00000000000E+00 0. -1.
         25    2    1    2    0    0  0.19043096781E+02 -0.45744032307E+01  0.31334247668E+02  0.13038312143E+03  0.12503742871E+03 0.  0.
          5    1    3    3  501    0 -0.26732215963E+02 -0.49364447563E+02 -0.56605906369E+01  0.56422622589E+02  0.10000000000E+00 0.  1.
         -5    1    3    3    0  501  0.45775312744E+02  0.44790044332E+02  0.36994838305E+02  0.73960498844E+02  0.10000000000E+00 0.  1.
         21    1    1    2  504  503 -0.19043096781E+02  0.45744032307E+01  0.26329770001E+02  0.32814958300E+02  0.00000000000E+00 0. -1.
<mgrwt>
<rscale>  1 0.12656193E+03</rscale>
<asrwt>0</asrwt>
<pdfrwt beam="1">  1       21 0.16989392E-01 0.12656193E+03</pdfrwt>
<pdfrwt beam="2">  1       21 0.81180048E-02 0.12656193E+03</pdfrwt>
<totfact> 0.36076668E+06</totfact>
</mgrwt>
</event>
<event>
 6    1  0.4241465E-002  0.1260935E+03  0.7546771E-02  0.1233370E+00
         21   -1    0    0  504  502  0.00000000000E+00  0.00000000000E+00  0.12248812976E+03  0.12248812976E+03  0.00000000000E+00 0.  1.
         21   -1    0    0  502  503 -0.00000000000E+00 -0.00000000000E+00 -0.67937804553E+02  0.67937804553E+02  0.00000000000E+00 0.  1.
         25    2    1    2    0    0 -0.10080755333E+02  0.13180573039E+02 -0.73817384974E+01  0.12630940253E+03  0.12499690384E+03 0.  0.
          5    1    3    3  501    0  0.27108950301E+02  0.58598602835E+02 -0.17140978095E+02  0.66802055138E+02  0.10000000000E+00 0.  1.
         -5    1    3    3    0  501 -0.37189705634E+02 -0.45418029796E+02  0.97592395977E+01  0.59507347388E+02  0.10000000000E+00 0.  1.
         21    1    1    2  504  503  0.10080755333E+02 -0.13180573039E+02  0.61932063707E+02  0.64116531790E+02  0.00000000000E+00 0.  1.
<mgrwt>
<rscale>  1 0.12609352E+03</rscale>
<asrwt>0</asrwt>
<pdfrwt beam="1">  1       21 0.18844328E-01 0.12609352E+03</pdfrwt>
<pdfrwt beam="2">  1       21 0.10451970E-01 0.12609352E+03</pdfrwt>
<totfact> 0.19232443E+06</totfact>
</mgrwt>
</event>
<event>
 6    1  0.4241465E-002  0.1266236E+03  0.7546771E-02  0.1232553E+00
         21   -1    0    0  504  502  0.00000000000E+00  0.00000000000E+00  0.44972494762E+02  0.44972494762E+02  0.00000000000E+00 0.  1.
         21   -1    0    0  502  503 -0.00000000000E+00 -0.00000000000E+00 -0.19245638444E+03  0.19245638444E+03  0.00000000000E+00 0.  1.
         25    2    1    2    0    0  0.90478737034E+01 -0.18063707858E+02 -0.16684024600E+03  0.20944977825E+03  0.12500152145E+03 0.  0.
          5    1    3    3  501    0  0.41539328105E+02 -0.49588752665E+02 -0.14584349787E+03  0.15954590575E+03  0.10000000000E+00 0. -1.
         -5    1    3    3    0  501 -0.32491454401E+02  0.31525044807E+02 -0.20996748129E+02  0.49903872507E+02  0.10000000000E+00 0. -1.
         21    1    1    2  504  503 -0.90478737034E+01  0.18063707858E+02  0.19356356317E+02  0.27979100950E+02  0.00000000000E+00 0.  1.
<mgrwt>
<rscale>  1 0.12662362E+03</rscale>
<asrwt>0</asrwt>
<pdfrwt beam="1">  1       21 0.69188452E-02 0.12662362E+03</pdfrwt>
<pdfrwt beam="2">  1       21 0.29608675E-01 0.12662362E+03</pdfrwt>
<totfact> 0.16801322E+06</totfact>
</mgrwt>
</event>
<event>
 6    1  0.4241465E-002  0.2303978E+03  0.7546771E-02  0.1126360E+00
         21   -1    0    0  504  502  0.00000000000E+00  0.00000000000E+00  0.11867408271E+04  0.11867408271E+04  0.00000000000E+00 0. -1.
         21   -1    0    0  502  503 -0.00000000000E+00 -0.00000000000E+00 -0.12019314913E+03  0.12019314913E+03  0.00000000000E+00 0. -1.
         25    2    1    2    0    0 -0.64089533740E+02 -0.18262556470E+03  0.76828060810E+01  0.23052588347E+03  0.12499436877E+03 0.  0.
          5    1    3    3  501    0 -0.70492094388E+02 -0.19110211915E+03 -0.16255238210E+02  0.20433648251E+03  0.10000000000E+00 0.  1.
         -5    1    3    3    0  501  0.64025606474E+01  0.84765544535E+01  0.23938044291E+02  0.26189400961E+02  0.10000000000E+00 0.  1.
         21    1    1    2  504  503  0.64089533740E+02  0.18262556470E+03  0.10588648719E+04  0.10764080928E+04  0.00000000000E+00 0. -1.
<mgrwt>
<rscale>  1 0.23039782E+03</rscale>
<asrwt>0</asrwt>
<pdfrwt beam="1">  1       21 0.18257550E+00 0.23039782E+03</pdfrwt>
<pdfrwt beam="2">  1       21 0.18491255E-01 0.23039782E+03</pdfrwt>
<totfact> 0.45212336E+03</totfact>
</mgrwt>
</event>
<event>
 6    1  0.4241465E-002  0.1268981E+03  0.7546771E-02  0.1232132E+00
         21   -1    0    0  503  502  0.00000000000E+00  0.00000000000E+00  0.20745884859E+02  0.20745884859E+02  0.00000000000E+00 0.  1.
         21   -1    0    0  504  503 -0.00000000000E+00 -0.00000000000E+00 -0.37416634768E+03  0.37416634768E+03  0.00000000000E+00 0.  1.
         25    2    1    2    0    0  0.87522351302E+01  0.20141812014E+02 -0.35049156241E+03  0.37275658611E+03  0.12498337074E+03 0.  0.
          5    1    3    3  501    0  0.66750960548E+02  0.71201806455E+01 -0.19915690535E+03  0.21016629286E+03  0.10000000000E+00 0. -1.
         -5    1    3    3    0  501 -0.57998725418E+02  0.13021631369E+02 -0.15133465705E+03  0.16259029325E+03  0.10000000000E+00 0. -1.
         21    1    1    2  504  502 -0.87522351302E+01 -0.20141812014E+02 -0.29289004179E+01  0.22155646428E+02  0.00000000000E+00 0.  1.
<mgrwt>
<rscale>  1 0.12689814E+03</rscale>
<asrwt>0</asrwt>
<pdfrwt beam="1">  1       21 0.31916745E-02 0.12689814E+03</pdfrwt>
<pdfrwt beam="2">  1       21 0.57564056E-01 0.12689814E+03</pdfrwt>
<totfact> 0.16133619E+06</totfact>
</mgrwt>
</event>
<event>
 6    1  0.4241465E-002  0.1273139E+03  0.7546771E-02  0.1231497E+00
         21   -1    0    0  503  502  0.00000000000E+00  0.00000000000E+00  0.30870960413E+02  0.30870960413E+02  0.00000000000E+00 0.  1.
         21   -1    0    0  504  503 -0.00000000000E+00 -0.00000000000E+00 -0.21913138071E+03  0.21913138071E+03  0.00000000000E+00 0.  1.
         25    2    1    2    0    0  0.23966120103E+02  0.31512374422E+01 -0.18643867156E+03  0.22576138448E+03  0.12499807703E+03 0.  0.
          5    1    3    3  501    0  0.23103085909E+02  0.54026240486E+02 -0.40920116283E+02  0.71603443745E+02  0.10000000000E+00 0.  1.
         -5    1    3    3    0  501  0.86303419493E+00 -0.50875003044E+02 -0.14551855528E+03  0.15415794074E+03  0.10000000000E+00 0.  1.
         21    1    1    2  504  502 -0.23966120103E+02 -0.31512374422E+01 -0.18217487359E+01  0.24240956637E+02  0.00000000000E+00 0.  1.
<mgrwt>
<rscale>  1 0.12731388E+03</rscale>
<asrwt>0</asrwt>
<pdfrwt beam="1">  1       21 0.47493786E-02 0.12731388E+03</pdfrwt>
<pdfrwt beam="2">  1       21 0.33712519E-01 0.12731388E+03</pdfrwt>
<totfact> 0.24682396E+06</totfact>
</mgrwt>
</event>
<event>
 6    1  0.4241465E-002  0.1271633E+03  0.7546771E-02  0.1231727E+00
         21   -1    0    0  504  502  0.00000000000E+00  0.00000000000E+00  0.36904558339E+02  0.36904558339E+02  0.00000000000E+00 0.  1.
         21   -1    0    0  502  503 -0.00000000000E+00 -0.00000000000E+00 -0.17843270323E+03  0.17843270323E+03  0.00000000000E+00 0.  1.
         25    2    1    2    0    0  0.10310478227E+02 -0.21125347660E+02 -0.14351369831E+03  0.19174640111E+03  0.12497165463E+03 0.  0.
          5    1    3    3  501    0  0.43097463068E+02  0.19438703692E+02 -0.98871975172E+01  0.48301358147E+02  0.10000000000E+00 0.  1.
         -5    1    3    3    0  501 -0.32786984841E+02 -0.40564051351E+02 -0.13362650079E+03  0.14344504296E+03  0.10000000000E+00 0.  1.
         21    1    1    2  504  503 -0.10310478227E+02  0.21125347660E+02  0.19855534137E+01  0.23590860463E+02  0.00000000000E+00 0. -1.
<mgrwt>
<rscale>  1 0.12716328E+03</rscale>
<asrwt>0</asrwt>
<pdfrwt beam="1">  1       21 0.56776243E-02 0.12716328E+03</pdfrwt>
<pdfrwt beam="2">  1       21 0.27451185E-01 0.12716328E+03</pdfrwt>
<totfact> 0.27182848E+06</totfact>
</mgrwt>
</event>
<event>
 6    1  0.4241465E-002  0.1265181E+03  0.7546771E-02  0.1232716E+00
         21   -1    0    0  504  502  0.00000000000E+00  0.00000000000E+00  0.65773258478E+02  0.65773258478E+02  0.00000000000E+00 0.  1.
         21   -1    0    0  502  503 -0.00000000000E+00 -0.00000000000E+00 -0.10916128082E+03  0.10916128082E+03  0.00000000000E+00 0.  1.
         25    2    1    2    0    0  0.10362551022E+02 -0.16570262281E+02 -0.67898370059E+02  0.14358628255E+03  0.12499950329E+03 0.  0.
          5    1    3    3  501    0 -0.46322621877E+02  0.13094298555E+02 -0.63187416627E+02  0.79434914063E+02  0.10000000000E+00 0. -1.
         -5    1    3    3    0  501  0.56685172899E+02 -0.29664560836E+02 -0.47109534319E+01  0.64151368484E+02  0.10000000000E+00 0. -1.
         21    1    1    2  504  503 -0.10362551022E+02  0.16570262281E+02  0.24510347720E+02  0.31348256748E+02  0.00000000000E+00 0.  1.
<mgrwt>
<rscale>  1 0.12651811E+03</rscale>
<asrwt>0</asrwt>
<pdfrwt beam="1">  1       21 0.10118963E-01 0.12651811E+03</pdfrwt>
<pdfrwt beam="2">  1       21 0.16794043E-01 0.12651811E+03</pdfrwt>
<totfact> 0.25126862E+06</totfact>
</mgrwt>
</event>
<event>
 6    1  0.4241465E-002  0.1271064E+03  0.7546771E-02  0.1231814E+00
         21   -1    0    0  503  502  0.00000000000E+00  0.00000000000E+00  0.73728441483E+03  0.73728441483E+03  0.00000000000E+00 0.  1.
         21   -1    0    0  504  503 -0.00000000000E+00 -0.00000000000E+00 -0.80409605900E+01  0.80409605900E+01  0.00000000000E+00 0.  1.
         25    2    1    2    0    0  0.18658717303E+02  0.13582690337E+02  0.66557187486E+03  0.67760014210E+03  0.12499357885E+03 0.  0.
          5    1    3    3  501    0  0.23602543867E+02  0.55245811033E+02  0.17089322125E+03  0.18114547409E+03  0.10000000000E+00 0.  1.
         -5    1    3    3    0  501 -0.49438265633E+01 -0.41663120696E+02  0.49467865361E+03  0.49645466801E+03  0.10000000000E+00 0.  1.
         21    1    1    2  504  502 -0.18658717303E+02 -0.13582690337E+02  0.63671579375E+02  0.67725233321E+02  0.00000000000E+00 0.  1.
<mgrwt>
<rscale>  1 0.12710638E+03</rscale>
<asrwt>0</asrwt>
<pdfrwt beam="1">  1       21 0.11342832E+00 0.12710638E+03</pdfrwt>
<pdfrwt beam="2">  1       21 0.12370714E-02 0.12710638E+03</pdfrwt>
<totfact> 0.16242849E+06</totfact>
</mgrwt>
</event>
<event>
 6    1  0.4241465E-002  0.1294295E+03  0.7546771E-02  0.1228305E+00
         21   -1    0    0  504  502  0.00000000000E+00  0.00000000000E+00  0.90001811930E+03  0.90001811930E+03  0.00000000000E+00 0. -1.
         21   -1    0    0  502  503 -0.00000000000E+00 -0.00000000000E+00 -0.77067128356E+02  0.77067128356E+02  0.00000000000E+00 0.  1.
         25    2    1    2    0    0 -0.32957687327E+02  0.68210023268E+01 -0.22152748953E+02  0.13131159802E+03  0.12497702294E+03 0.  0.
          5    1    3    3  501    0  0.33358792679E+02  0.34687750624E+02  0.14922102240E+02  0.50385793907E+02  0.10000000000E+00 0.  1.
         -5    1    3    3    0  501 -0.66316480006E+02 -0.27866748297E+02 -0.37074851193E+02  0.80925804117E+02  0.10000000000E+00 0.  1.
         21    1    1    2  504  503  0.32957687327E+02 -0.68210023268E+01  0.84510373989E+03  0.84577364963E+03  0.00000000000E+00 0. -1.
<mgrwt>
<rscale>  1 0.12942948E+03</rscale>
<asrwt>0</asrwt>
<pdfrwt beam="1">  1       21 0.13846432E+00 0.12942948E+03</pdfrwt>
<pdfrwt beam="2">  1       21 0.11856482E-01 0.12942948E+03</pdfrwt>
<totfact> 0.23076155E+04</totfact>
</mgrwt>
</event>
<event>
 6    1  0.4241465E-002  0.1505520E+03  0.7546771E-02  0.1199796E+00
         21   -1    0    0  503  502  0.00000000000E+00  0.00000000000E+00  0.55073266742E+03  0.55073266742E+03  0.00000000000E+00 0.  1.
         21   -1    0    0  504  503 -0.00000000000E+00 -0.00000000000E+00 -0.32389189047E+02  0.32389189047E+02  0.00000000000E+00 0.  1.
         25    2    1    2    0    0  0.72605181502E+02  0.42055712347E+02  0.18064837818E+03  0.23515896187E+03  0.12500282192E+03 0.  0.
          5    1    3    3  501    0  0.41280566700E+02  0.38269630538E+02  0.47921072143E+01  0.56494460792E+02  0.10000000000E+00 0. -1.
         -5    1    3    3    0  501  0.31324614802E+02  0.37860818092E+01  0.17585627097E+03  0.17866450108E+03  0.10000000000E+00 0. -1.
         21    1    1    2  504  502 -0.72605181502E+02 -0.42055712347E+02  0.33769510019E+03  0.34796289459E+03  0.00000000000E+00 0.  1.
<mgrwt>
<rscale>  1 0.15055199E+03</rscale>
<asrwt>0</asrwt>
<pdfrwt beam="1">  1       21 0.84728096E-01 0.15055199E+03</pdfrwt>
<pdfrwt beam="2">  1       21 0.49829526E-02 0.15055199E+03</pdfrwt>
<totfact> 0.32993014E+05</totfact>
</mgrwt>
</event>
<event>
 6    1  0.4241465E-002  0.1381712E+03  0.7546771E-02  0.1215811E+00
         21   -1    0    0  503  502  0.00000000000E+00  0.00000000000E+00  0.44161412341E+01  0.44161412341E+01  0.00000000000E+00 0. -1.
         21   -1    0    0  504  503 -0.00000000000E+00 -0.00000000000E+00 -0.31210630081E+04  0.31210630081E+04  0.00000000000E+00 0. -1.
         25    2    1    2    0    0  0.58843418745E+02 -0.19799604443E+01 -0.27998716723E+04  0.28032789134E+04  0.12499926612E+03 0.  0.
          5    1    3    3  501    0 -0.34767988889E+01  0.45958052644E+02 -0.51600516466E+03  0.51805942776E+03  0.10000000000E+00 0. -1.
         -5    1    3    3    0  501  0.62320217634E+02 -0.47938013088E+02 -0.22838665077E+04  0.22852194856E+04  0.10000000000E+00 0. -1.
         21    1    1    2  504  502 -0.58843418745E+02  0.19799604443E+01 -0.31677519449E+03  0.32220023591E+03  0.00000000000E+00 0. -1.
<mgrwt>
<rscale>  1 0.13817122E+03</rscale>
<asrwt>0</asrwt>
<pdfrwt beam="1">  1       21 0.67941029E-03 0.13817122E+03</pdfrwt>
<pdfrwt beam="2">  1       21 0.48016075E+00 0.13817122E+03</pdfrwt>
<totfact> 0.19507285E+04</totfact>
</mgrwt>
</event>
<event>
 6    1  0.4241465E-002  0.1265915E+03  0.7546771E-02  0.1232603E+00
         21   -1    0    0  504  502  0.00000000000E+00  0.00000000000E+00  0.14766770551E+02  0.14766770551E+02  0.00000000000E+00 0.  1.
         21   -1    0    0  502  503 -0.00000000000E+00 -0.00000000000E+00 -0.47230625358E+03  0.47230625358E+03  0.00000000000E+00 0.  1.
         25    2    1    2    0    0 -0.13678052432E+01  0.19997882414E+02 -0.44668790703E+03  0.46427954055E+03  0.12499447704E+03 0.  0.
          5    1    3    3  501    0  0.55199061549E+02 -0.15813063602E+02 -0.25000975111E+03  0.25651876155E+03  0.10000000000E+00 0.  1.
         -5    1    3    3    0  501 -0.56566866792E+02  0.35810946015E+02 -0.19667815593E+03  0.20776077900E+03  0.10000000000E+00 0.  1.
         21    1    1    2  504  503  0.13678052432E+01 -0.19997882414E+02 -0.10851575993E+02  0.22793483581E+02  0.00000000000E+00 0.  1.
<mgrwt>
<rscale>  1 0.12659149E+03</rscale>
<asrwt>0</asrwt>
<pdfrwt beam="1">  1       21 0.22718109E-02 0.12659149E+03</pdfrwt>
<pdfrwt beam="2">  1       21 0.72662498E-01 0.12659149E+03</pdfrwt>
<totfact> 0.17028212E+06</totfact>
</mgrwt>
</event>
<event>
 6    1  0.4241465E-002  0.1337824E+03  0.7546771E-02  0.1221949E+00
         21   -1    0    0  504  502  0.00000000000E+00  0.00000000000E+00  0.16053891414E+03  0.16053891414E+03  0.00000000000E+00 0. -1.
         21   -1    0    0  502  503 -0.00000000000E+00 -0.00000000000E+00 -0.57706651044E+02  0.57706651044E+02  0.00000000000E+00 0. -1.
         25    2    1    2    0    0  0.18090516145E+02 -0.44097463275E+02  0.40500742415E+02  0.13977855612E+03  0.12500352624E+03 0.  0.
          5    1    3    3  501    0 -0.21102070875E+02  0.30210493709E+02 -0.14241137297E+02  0.39506851518E+02  0.10000000000E+00 0.  1.
         -5    1    3    3    0  501  0.39192587020E+02 -0.74307956984E+02  0.54741879713E+02  0.10027170460E+03  0.10000000000E+00 0.  1.
         21    1    1    2  504  503 -0.18090516145E+02  0.44097463275E+02  0.62331520678E+02  0.78467009066E+02  0.00000000000E+00 0. -1.
<mgrwt>
<rscale>  1 0.13378242E+03</rscale>
<asrwt>0</asrwt>
<pdfrwt beam="1">  1       21 0.24698294E-01 0.13378242E+03</pdfrwt>
<pdfrwt beam="2">  1       21 0.88779464E-02 0.13378242E+03</pdfrwt>
<totfact> 0.15470465E+06</totfact>
</mgrwt>
</event>
<event>
 6    1  0.4241465E-002  0.1262434E+03  0.7546771E-02  0.1233139E+00
         21   -1    0    0  504  502  0.00000000000E+00  0.00000000000E+00  0.40455221359E+03  0.40455221359E+03  0.00000000000E+00 0.  1.
         21   -1    0    0  502  503 -0.00000000000E+00 -0.00000000000E+00 -0.45478761094E+02  0.45478761094E+02  0.00000000000E+00 0.  1.
         25    2    1    2    0    0  0.15523835555E+02 -0.84804064089E+01  0.42856155535E+02  0.13331929877E+03  0.12499791436E+03 0.  0.
          5    1    3    3  501    0  0.40833803882E+02 -0.34600302236E+02  0.69869984985E+02  0.88013665166E+02  0.10000000000E+00 0. -1.
         -5    1    3    3    0  501 -0.25309968327E+02  0.26119895827E+02 -0.27013829449E+02  0.45305633604E+02  0.10000000000E+00 0. -1.
         21    1    1    2  504  503 -0.15523835555E+02  0.84804064089E+01  0.31621729696E+03  0.31671167591E+03  0.00000000000E+00 0.  1.
<mgrwt>
<rscale>  1 0.12624336E+03</rscale>
<asrwt>0</asrwt>
<pdfrwt beam="1">  1       21 0.62238800E-01 0.12624336E+03</pdfrwt>
<pdfrwt beam="2">  1       21 0.69967328E-02 0.12624336E+03</pdfrwt>
<totfact> 0.36716585E+05</totfact>
</mgrwt>
</event>
<event>
 6    1  0.4241465E-002  0.1694208E+03  0.7546771E-02  0.1178453E+00
         21   -1    0    0  504  502  0.00000000000E+00  0.00000000000E+00  0.50624844324E+02  0.50624844324E+02  0.00000000000E+00 0. -1.
         21   -1    0    0  502  503 -0.00000000000E+00 -0.00000000000E+00 -0.10934561017E+04  0.10934561017E+04  0.00000000000E+00 0. -1.
         25    2    1    2    0    0 -0.91569585074E+02  0.68512069428E+02 -0.10113799857E+04  0.10254720296E+04  0.12499806182E+03 0.  0.
          5    1    3    3  501    0  0.12723587820E+02  0.67423707356E+01 -0.48905209954E+03  0.48926405479E+03  0.10000000000E+00 0.  1.
         -5    1    3    3    0  501 -0.10429317289E+03  0.61769698692E+02 -0.52232788617E+03  0.53620797482E+03  0.10000000000E+00 0.  1.
         21    1    1    2  504  503  0.91569585074E+02 -0.68512069428E+02 -0.31451271697E+02  0.11860891644E+03  0.00000000000E+00 0. -1.
<mgrwt>
<rscale>  1 0.16942080E+03</rscale>
<asrwt>0</asrwt>
<pdfrwt beam="1">  1       21 0.77884377E-02 0.16942080E+03</pdfrwt>
<pdfrwt beam="2">  1       21 0.16822401E+00 0.16942080E+03</pdfrwt>
<totfact> 0.28053996E+04</totfact>
</mgrwt>
</event>
<event>
 6    1  0.4241465E-002  0.1335482E+03  0.7546771E-02  0.1222284E+00
         21   -1    0    0  504  502  0.00000000000E+00  0.00000000000E+00  0.11422145293E+03  0.11422145293E+03  0.00000000000E+00 0.  1.
         21   -1    0    0  502  503 -0.00000000000E+00 -0.00000000000E+00 -0.76611999151E+02  0.76611999151E+02  0.00000000000E+00 0.  1.
         25    2    1    2    0    0  0.48892298084E+01  0.46768374979E+02  0.50603696729E+01  0.13364404447E+03  0.12499575119E+03 0.  0.
          5    1    3    3  501    0  0.21188705405E+02 -0.39995435639E+02  0.22664368717E+01  0.45318239648E+02  0.10000000000E+00 0. -1.
         -5    1    3    3    0  501 -0.16299475596E+02  0.86763810618E+02  0.27939328012E+01  0.88325804826E+02  0.10000000000E+00 0. -1.
         21    1    1    2  504  503 -0.48892298084E+01 -0.46768374979E+02  0.32549084104E+02  0.57189407606E+02  0.00000000000E+00 0.  1.
<mgrwt>
<rscale>  1 0.13354821E+03</rscale>
<asrwt>0</asrwt>
<pdfrwt beam="1">  1       21 0.17572531E-01 0.13354821E+03</pdfrwt>
<pdfrwt beam="2">  1       21 0.11786461E-01 0.13354821E+03</pdfrwt>
<totfact> 0.17714770E+06</totfact>
</mgrwt>
</event>
<event>
 6    1  0.4241465E-002  0.1434688E+03  0.7546771E-02  0.1208736E+00
         21   -1    0    0  503  502  0.00000000000E+00  0.00000000000E+00  0.88414431268E+02  0.88414431268E+02  0.00000000000E+00 0. -1.
         21   -1    0    0  504  503 -0.00000000000E+00 -0.00000000000E+00 -0.15998784276E+03  0.15998784276E+03  0.00000000000E+00 0. -1.
         25    2    1    2    0    0  0.57243161540E+02 -0.41150880759E+02 -0.97304787737E+02  0.17335376803E+03  0.12495252155E+03 0.  0.
          5    1    3    3  501    0  0.41619516104E+02  0.28360121974E+02 -0.88149678846E+02  0.10152268968E+03  0.10000000000E+00 0.  1.
         -5    1    3    3    0  501  0.15623645435E+02 -0.69511002733E+02 -0.91551088906E+01  0.71831078346E+02  0.10000000000E+00 0.  1.
         21    1    1    2  504  502 -0.57243161540E+02  0.41150880759E+02  0.25731376242E+02  0.75048506005E+02  0.00000000000E+00 0. -1.
<mgrwt>
<rscale>  1 0.14346884E+03</rscale>
<asrwt>0</asrwt>
<pdfrwt beam="1">  1       21 0.13602220E-01 0.14346884E+03</pdfrwt>
<pdfrwt beam="2">  1       21 0.24613514E-01 0.14346884E+03</pdfrwt>
<totfact> 0.73385193E+05</totfact>
</mgrwt>
</event>
<event>
 6    1  0.4241465E-002  0.1261949E+03  0.7546771E-02  0.1233214E+00
         21   -1    0    0  503  502  0.00000000000E+00  0.00000000000E+00  0.87417563965E+02  0.87417563965E+02  0.00000000000E+00 0. -1.
         21   -1    0    0  504  503 -0.00000000000E+00 -0.00000000000E+00 -0.80155553345E+02  0.80155553345E+02  0.00000000000E+00 0. -1.
         25    2    1    2    0    0 -0.12736224203E+02  0.11782137890E+02 -0.27106628272E+02  0.12907333134E+03  0.12499650150E+03 0.  0.
          5    1    3    3  501    0 -0.46155178636E+02  0.42503527850E+02 -0.48099802541E+02  0.79059796351E+02  0.10000000000E+00 0. -1.
         -5    1    3    3    0  501  0.33418954433E+02 -0.30721389960E+02  0.20993174269E+02  0.50013534992E+02  0.10000000000E+00 0. -1.
         21    1    1    2  504  502  0.12736224203E+02 -0.11782137890E+02  0.34368638892E+02  0.38499785967E+02  0.00000000000E+00 0. -1.
<mgrwt>
<rscale>  1 0.12619491E+03</rscale>
<asrwt>0</asrwt>
<pdfrwt beam="1">  1       21 0.13448856E-01 0.12619491E+03</pdfrwt>
<pdfrwt beam="2">  1       21 0.12331624E-01 0.12619491E+03</pdfrwt>
<totfact> 0.26463821E+06</totfact>
</mgrwt>
</event>
<event>
 6    1  0.4241465E-002  0.1467861E+03  0.7546771E-02  0.1204479E+00
         21   -1    0    0  504  502  0.00000000000E+00  0.00000000000E+00  0.23050684871E+03  0.23050684871E+03  0.00000000000E+00 0.  1.
         21   -1    0    0  502  503 -0.00000000000E+00 -0.00000000000E+00 -0.66771042446E+02  0.66771042446E+02  0.00000000000E+00 0.  1.
         25    2    1    2    0    0  0.24554121314E+02  0.72928789795E+02  0.40984014230E+02  0.15240030247E+03  0.12499859806E+03 0.  0.
          5    1    3    3  501    0  0.34448214939E+02  0.74131619709E+02  0.78650334750E+02  0.11343747930E+03  0.10000000000E+00 0. -1.
         -5    1    3    3    0  501 -0.98940936245E+01 -0.12028299144E+01 -0.37666320519E+02  0.38962823177E+02  0.10000000000E+00 0. -1.
         21    1    1    2  504  503 -0.24554121314E+02 -0.72928789795E+02  0.12275179203E+03  0.14487758868E+03  0.00000000000E+00 0.  1.
<mgrwt>
<rscale>  1 0.14678611E+03</rscale>
<asrwt>0</asrwt>
<pdfrwt beam="1">  1       21 0.35462592E-01 0.14678611E+03</pdfrwt>
<pdfrwt beam="2">  1       21 0.10272468E-01 0.14678611E+03</pdfrwt>
<totfact> 0.59651932E+05</totfact>
</mgrwt>
</event>
<event>
 6    1  0.4241465E-002  0.1343267E+03  0.7546771E-02  0.1221173E+00
         21   -1    0    0  503  502  0.00000000000E+00  0.00000000000E+00  0.50691002962E+03  0.50691002962E+03  0.00000000000E+00 0. -1.
         21   -1    0    0  504  503 -0.00000000000E+00 -0.00000000000E+00 -0.18126425347E+02  0.18126425347E+02  0.00000000000E+00 0. -1.
         25    2    1    2    0    0  0.23670022540E+02  0.43130105470E+02  0.41628499467E+03  0.43742067808E+03  0.12499270723E+03 0.  0.
          5    1    3    3  501    0  0.32779425446E+02 -0.30700117098E+02  0.26563561146E+03  0.26940541197E+03  0.10000000000E+00 0.  1.
         -5    1    3    3    0  501 -0.91094029061E+01  0.73830222568E+02  0.15064938321E+03  0.16801526612E+03  0.10000000000E+00 0.  1.
         21    1    1    2  504  502 -0.23670022540E+02 -0.43130105470E+02  0.72498609603E+02  0.87615776886E+02  0.00000000000E+00 0. -1.
<mgrwt>
<rscale>  1 0.13432666E+03</rscale>
<asrwt>0</asrwt>
<pdfrwt beam="1">  1       21 0.77986148E-01 0.13432666E+03</pdfrwt>
<pdfrwt beam="2">  1       21 0.27886812E-02 0.13432666E+03</pdfrwt>
<totfact> 0.10436745E+06</totfact>
</mgrwt>
</event>
<event>
 6    1  0.4241465E-002  0.1260247E+03  0.7546771E-02  0.1233476E+00
         21   -1    0    0  503  502  0.00000000000E+00  0.00000000000E+00  0.32734941485E+02  0.32734941485E+02  0.00000000000E+00 0. -1.
         21   -1    0    0  504  503 -0.00000000000E+00 -0.00000000000E+00 -0.54554356124E+03  0.54554356124E+03  0.00000000000E+00 0.  1.
         25    2    1    2    0    0 -0.13415428331E+02 -0.88137352636E+01 -0.53569772707E+03  0.55032198506E+03  0.12499830722E+03 0.  0.
          5    1    3    3  501    0  0.46147998623E+02 -0.37552213395E+02 -0.27550544063E+03  0.28185646050E+03  0.10000000000E+00 0.  1.
         -5    1    3    3    0  501 -0.59563426954E+02  0.28738478132E+02 -0.26019228644E+03  0.26846552456E+03  0.10000000000E+00 0.  1.
         21    1    1    2  504  502  0.13415428331E+02  0.88137352636E+01  0.22889107312E+02  0.27956517668E+02  0.00000000000E+00 0. -1.
<mgrwt>
<rscale>  1 0.12602473E+03</rscale>
<asrwt>0</asrwt>
<pdfrwt beam="1">  1       21 0.50361455E-02 0.12602473E+03</pdfrwt>
<pdfrwt beam="2">  1       21 0.83929768E-01 0.12602473E+03</pdfrwt>
<totfact> 0.33273165E+05</totfact>
</mgrwt>
</event>
<event>
 6    1  0.4241465E-002  0.1262208E+03  0.7546771E-02  0.1233174E+00
         21   -1    0    0  504  502  0.00000000000E+00  0.00000000000E+00  0.14769621377E+02  0.14769621377E+02  0.00000000000E+00 0. -1.
         21   -1    0    0  502  503 -0.00000000000E+00 -0.00000000000E+00 -0.37351783723E+03  0.37351783723E+03  0.00000000000E+00 0. -1.
         25    2    1    2    0    0 -0.96439387289E+01  0.14628073655E+02 -0.33977335720E+03  0.36246050846E+03  0.12499879933E+03 0.  0.
          5    1    3    3  501    0 -0.61864756285E+02  0.33539854021E+01 -0.10706902543E+03  0.12370239890E+03  0.10000000000E+00 0. -1.
         -5    1    3    3    0  501  0.52220817556E+02  0.11274088253E+02 -0.23270433177E+03  0.23875810956E+03  0.10000000000E+00 0. -1.
         21    1    1    2  504  503  0.96439387289E+01 -0.14628073655E+02 -0.18974858650E+02  0.25826950146E+02  0.00000000000E+00 0. -1.
<mgrwt>
<rscale>  1 0.12622078E+03</rscale>
<asrwt>0</asrwt>
<pdfrwt beam="1">  1       21 0.22722496E-02 0.12622078E+03</pdfrwt>
<pdfrwt beam="2">  1       21 0.57464280E-01 0.12622078E+03</pdfrwt>
<totfact> 0.28188675E+06</totfact>
</mgrwt>
</event>
<event>
 6    1  0.4241465E-002  0.1289444E+03  0.7546771E-02  0.1229030E+00
         21   -1    0    0  503  502  0.00000000000E+00  0.00000000000E+00  0.29984786507E+02  0.29984786507E+02  0.00000000000E+00 0.  1.
         21   -1    0    0  504  503 -0.00000000000E+00 -0.00000000000E+00 -0.44830202878E+03  0.44830202878E+03  0.00000000000E+00 0. -1.
         25    2    1    2    0    0 -0.29473044570E+02  0.11565961334E+02 -0.42651610998E+03  0.44558126148E+03  0.12499694674E+03 0.  0.
          5    1    3    3  501    0  0.48329144401E+02  0.43383664169E+01 -0.20577604413E+03  0.21141976719E+03  0.10000000000E+00 0. -1.
         -5    1    3    3    0  501 -0.77802188971E+02  0.72275949171E+01 -0.22074006585E+03  0.23416149429E+03  0.10000000000E+00 0. -1.
         21    1    1    2  504  502  0.29473044570E+02 -0.11565961334E+02  0.81988677086E+01  0.32705553802E+02  0.00000000000E+00 0.  1.
<mgrwt>
<rscale>  1 0.12894444E+03</rscale>
<asrwt>0</asrwt>
<pdfrwt beam="1">  1       21 0.46130441E-02 0.12894444E+03</pdfrwt>
<pdfrwt beam="2">  1       21 0.68969543E-01 0.12894444E+03</pdfrwt>
<totfact> 0.59494421E+05</totfact>
</mgrwt>
</event>
<event>
 6    1  0.4241465E-002  0.1262747E+03  0.7546771E-02  0.1233090E+00
         21   -1    0    0  504  502  0.00000000000E+00  0.00000000000E+00  0.63074162389E+02  0.63074162389E+02  0.00000000000E+00 0. -1.
         21   -1    0    0  502  503 -0.00000000000E+00 -0.00000000000E+00 -0.87599438431E+02  0.87599438431E+02  0.00000000000E+00 0. -1.
         25    2    1    2    0    0 -0.94513549416E+01 -0.15204704824E+02 -0.33506192317E+02  0.13064442170E+03  0.12499915535E+03 0.  0.
          5    1    3    3  501    0 -0.18402357907E+02 -0.18831252208E+02 -0.79448493329E+02  0.83697884851E+02  0.10000000000E+00 0.  1.
         -5    1    3    3    0  501  0.89510029657E+01  0.36265473836E+01  0.45942301012E+02  0.46946536851E+02  0.10000000000E+00 0.  1.
         21    1    1    2  504  503  0.94513549416E+01  0.15204704824E+02  0.89809162748E+01  0.20029179118E+02  0.00000000000E+00 0. -1.
<mgrwt>
<rscale>  1 0.12627470E+03</rscale>
<asrwt>0</asrwt>
<pdfrwt beam="1">  1       21 0.97037174E-02 0.12627470E+03</pdfrwt>
<pdfrwt beam="2">  1       21 0.13476837E-01 0.12627470E+03</pdfrwt>
<totfact> 0.40192864E+06</totfact>
</mgrwt>
</event>
<event>
 6    1  0.4241465E-002  0.1259856E+03  0.7546771E-02  0.1233537E+00
         21   -1    0    0  504  502  0.00000000000E+00  0.00000000000E+00  0.85490420428E+02  0.85490420428E+02  0.00000000000E+00 0.  1.
         21   -1    0    0  502  503 -0.00000000000E+00 -0.00000000000E+00 -0.94750538095E+02  0.94750538095E+02  0.00000000000E+00 0.  1.
         25    2    1    2    0    0  0.15211403482E+02  0.37322208542E+01 -0.50803482571E+02  0.13584312709E+03  0.12500818000E+03 0.  0.
          5    1    3    3  501    0 -0.22662318819E+02 -0.10277889320E+02 -0.81438637251E+02  0.85155606630E+02  0.10000000000E+00 0.  1.
         -5    1    3    3    0  501  0.37873722301E+02  0.14010110175E+02  0.30635154680E+02  0.50687520460E+02  0.10000000000E+00 0.  1.
         21    1    1    2  504  503 -0.15211403482E+02 -0.37322208542E+01  0.41543364904E+02  0.44397831433E+02  0.00000000000E+00 0.  1.
<mgrwt>
<rscale>  1 0.12598556E+03</rscale>
<asrwt>0</asrwt>
<pdfrwt beam="1">  1       21 0.13152372E-01 0.12598556E+03</pdfrwt>
<pdfrwt beam="2">  1       21 0.14577006E-01 0.12598556E+03</pdfrwt>
<totfact> 0.20425622E+06</totfact>
</mgrwt>
</event>
<event>
 6    1  0.4241465E-002  0.1263819E+03  0.7546771E-02  0.1232925E+00
         21   -1    0    0  503  502  0.00000000000E+00  0.00000000000E+00  0.40678478942E+02  0.40678478942E+02  0.00000000000E+00 0. -1.
         21   -1    0    0  504  503 -0.00000000000E+00 -0.00000000000E+00 -0.13047088153E+03  0.13047088153E+03  0.00000000000E+00 0. -1.
         25    2    1    2    0    0 -0.14716503694E+02 -0.11589962205E+02 -0.83112591285E+02  0.15126161087E+03  0.12498587676E+03 0.  0.
          5    1    3    3  501    0  0.17482616820E+02 -0.25538916621E+02  0.23604168849E+02  0.38923578202E+02  0.10000000000E+00 0.  1.
         -5    1    3    3    0  501 -0.32199120514E+02  0.13948954415E+02 -0.10671676013E+03  0.11233803267E+03  0.10000000000E+00 0.  1.
         21    1    1    2  504  502  0.14716503694E+02  0.11589962205E+02 -0.66798112986E+01  0.19887749594E+02  0.00000000000E+00 0. -1.
<mgrwt>
<rscale>  1 0.12638185E+03</rscale>
<asrwt>0</asrwt>
<pdfrwt beam="1">  1       21 0.62582275E-02 0.12638185E+03</pdfrwt>
<pdfrwt beam="2">  1       21 0.20072443E-01 0.12638185E+03</pdfrwt>
<totfact> 0.41474761E+06</totfact>
</mgrwt>
</event>
<event>
 6    1  0.4241465E-002  0.1272922E+03  0.7546771E-02  0.1231530E+00
         21   -1    0    0  504  502  0.00000000000E+00  0.00000000000E+00  0.22639216706E+02  0.22639216706E+02  0.00000000000E+00 0.  1.
         21   -1    0    0  502  503 -0.00000000000E+00 -0.00000000000E+00 -0.38354460890E+03  0.38354460890E+03  0.00000000000E+00 0.  1.
         25    2    1    2    0    0  0.18434595949E+02 -0.15388348561E+02 -0.36034149586E+03  0.38216396760E+03  0.12500667540E+03 0.  0.
          5    1    3    3  501    0 -0.84520296828E+01  0.44096786338E+02 -0.24966411172E+03  0.25366935577E+03  0.10000000000E+00 0. -1.
         -5    1    3    3    0  501  0.26886625632E+02 -0.59485134899E+02 -0.11067738414E+03  0.12849461184E+03  0.10000000000E+00 0. -1.
         21    1    1    2  504  503 -0.18434595949E+02  0.15388348561E+02 -0.56389632929E+00  0.24019857999E+02  0.00000000000E+00 0.  1.
<mgrwt>
<rscale>  1 0.12729220E+03</rscale>
<asrwt>0</asrwt>
<pdfrwt beam="1">  1       21 0.34829566E-02 0.12729220E+03</pdfrwt>
<pdfrwt beam="2">  1       21 0.59006860E-01 0.12729220E+03</pdfrwt>
<totfact> 0.13260640E+06</totfact>
</mgrwt>
</event>
<event>
 6    1  0.4241465E-002  0.1337755E+03  0.7546771E-02  0.1221959E+00
         21   -1    0    0  503  502  0.00000000000E+00  0.00000000000E+00  0.99597196777E+03  0.99597196777E+03  0.00000000000E+00 0. -1.
         21   -1    0    0  504  503 -0.00000000000E+00 -0.00000000000E+00 -0.34887876128E+02  0.34887876128E+02  0.00000000000E+00 0. -1.
         25    2    1    2    0    0  0.42634873488E+02 -0.21226193587E+02  0.96461091222E+02  0.16492611861E+03  0.12501039456E+03 0.  0.
          5    1    3    3  501    0  0.71464018892E+02 -0.47105832246E+01  0.10016291364E+02  0.72316192400E+02  0.10000000000E+00 0.  1.
         -5    1    3    3    0  501 -0.28829145404E+02 -0.16515610362E+02  0.86444799858E+02  0.92609926212E+02  0.10000000000E+00 0.  1.
         21    1    1    2  504  502 -0.42634873488E+02  0.21226193587E+02  0.86462300042E+03  0.86593372529E+03  0.00000000000E+00 0. -1.
<mgrwt>
<rscale>  1 0.13377549E+03</rscale>
<asrwt>0</asrwt>
<pdfrwt beam="1">  1       21 0.15322643E+00 0.13377549E+03</pdfrwt>
<pdfrwt beam="2">  1       21 0.53673663E-02 0.13377549E+03</pdfrwt>
<totfact> 0.69628166E+04</totfact>
</mgrwt>
</event>
<event>
 6    1  0.4241465E-002  0.1291448E+03  0.7546771E-02  0.1228730E+00
         21   -1    0    0  503  502  0.00000000000E+00  0.00000000000E+00  0.63045297506E+02  0.63045297506E+02  0.00000000000E+00 0.  1.
         21   -1    0    0  504  503 -0.00000000000E+00 -0.00000000000E+00 -0.17327306419E+03  0.17327306419E+03  0.00000000000E+00 0.  1.
         25    2    1    2    0    0 -0.26142173411E+02  0.19271371519E+02 -0.14126107868E+03  0.19139770449E+03  0.12499435965E+03 0.  0.
          5    1    3    3  501    0  0.47626226135E+02  0.27271708550E+02 -0.57138153265E+02  0.79226145063E+02  0.10000000000E+00 0.  1.
         -5    1    3    3    0  501 -0.73768399546E+02 -0.80003370309E+01 -0.84122925415E+02  0.11217155943E+03  0.10000000000E+00 0.  1.
         21    1    1    2  504  502  0.26142173411E+02 -0.19271371519E+02  0.31033311992E+02  0.44920657209E+02  0.00000000000E+00 0.  1.
<mgrwt>
<rscale>  1 0.12914484E+03</rscale>
<asrwt>0</asrwt>
<pdfrwt beam="1">  1       21 0.96992766E-02 0.12914484E+03</pdfrwt>
<pdfrwt beam="2">  1       21 0.26657394E-01 0.12914484E+03</pdfrwt>
<totfact> 0.11467861E+06</totfact>
</mgrwt>
</event>
<event>
 6    1  0.4241465E-002  0.1272880E+03  0.7546771E-02  0.1231536E+00
         21   -1    0    0  503  502  0.00000000000E+00  0.00000000000E+00  0.72542172035E+02  0.72542172035E+02  0.00000000000E+00 0.  1.
         21   -1    0    0  504  503 -0.00000000000E+00 -0.00000000000E+00 -0.92751935953E+02  0.92751935953E+02  0.00000000000E+00 0.  1.
         25    2    1    2    0    0  0.75761401966E+01 -0.22800088111E+02 -0.40784699143E+02  0.13366232211E+03  0.12499993100E+03 0.  0.
          5    1    3    3  501    0  0.23918209548E+02  0.46384577574E+02 -0.33920153816E+02  0.62243044749E+02  0.10000000000E+00 0.  1.
         -5    1    3    3    0  501 -0.16342069351E+02 -0.69184665685E+02 -0.68645453276E+01  0.71419277364E+02  0.10000000000E+00 0.  1.
         21    1    1    2  504  502 -0.75761401966E+01  0.22800088111E+02  0.20574935225E+02  0.31631785875E+02  0.00000000000E+00 0.  1.
<mgrwt>
<rscale>  1 0.12728796E+03</rscale>
<asrwt>0</asrwt>
<pdfrwt beam="1">  1       21 0.11160334E-01 0.12728796E+03</pdfrwt>
<pdfrwt beam="2">  1       21 0.14269529E-01 0.12728796E+03</pdfrwt>
<totfact> 0.28402125E+06</totfact>
</mgrwt>
</event>
<event>
 6    1  0.4241465E-002  0.1276204E+03  0.7546771E-02  0.1231030E+00
         21   -1    0    0  504  502  0.00000000000E+00  0.00000000000E+00  0.46129512475E+02  0.46129512475E+02  0.00000000000E+00 0.  1.
         21   -1    0    0  502  503 -0.00000000000E+00 -0.00000000000E+00 -0.25897905234E+03  0.25897905234E+03  0.00000000000E+00 0.  1.
         25    2    1    2    0    0  0.21266173176E+02  0.14487863166E+02 -0.23740942250E+03  0.26953700124E+03  0.12499925138E+03 0.  0.
          5    1    3    3  501    0  0.28471448288E+02 -0.21194048641E+02 -0.22957322261E+03  0.23230085149E+03  0.10000000000E+00 0.  1.
         -5    1    3    3    0  501 -0.72052751117E+01  0.35681911807E+02 -0.78361998936E+01  0.37236149752E+02  0.10000000000E+00 0.  1.
         21    1    1    2  504  503 -0.21266173176E+02 -0.14487863166E+02  0.24559882629E+02  0.35571563579E+02  0.00000000000E+00 0.  1.
<mgrwt>
<rscale>  1 0.12762038E+03</rscale>
<asrwt>0</asrwt>
<pdfrwt beam="1">  1       21 0.70968482E-02 0.12762038E+03</pdfrwt>
<pdfrwt beam="2">  1       21 0.39842930E-01 0.12762038E+03</pdfrwt>
<totfact> 0.89921266E+05</totfact>
</mgrwt>
</event>
<event>
 6    1  0.4241465E-002  0.1414304E+03  0.7546771E-02  0.1211417E+00
         21   -1    0    0  504  502  0.00000000000E+00  0.00000000000E+00  0.25267212812E+03  0.25267212812E+03  0.00000000000E+00 0.  1.
         21   -1    0    0  502  503 -0.00000000000E+00 -0.00000000000E+00 -0.43584179043E+02  0.43584179043E+02  0.00000000000E+00 0.  1.
         25    2    1    2    0    0  0.58929020430E+02  0.30104873039E+02  0.12131004501E+03  0.18632954395E+03  0.12499455627E+03 0.  0.
          5    1    3    3  501    0  0.14363278301E+02 -0.48072115345E+02  0.55689937558E+02  0.74957395782E+02  0.10000000000E+00 0. -1.
         -5    1    3    3    0  501  0.44565742129E+02  0.78176988384E+02  0.65620107457E+02  0.11137214817E+03  0.10000000000E+00 0. -1.
         21    1    1    2  504  503 -0.58929020430E+02 -0.30104873039E+02  0.87777904061E+02  0.10992676322E+03  0.00000000000E+00 0.  1.
<mgrwt>
<rscale>  1 0.14143045E+03</rscale>
<asrwt>0</asrwt>
<pdfrwt beam="1">  1       21 0.38872634E-01 0.14143045E+03</pdfrwt>
<pdfrwt beam="2">  1       21 0.67052585E-02 0.14143045E+03</pdfrwt>
<totfact> 0.10414323E+06</totfact>
</mgrwt>
</event>
<event>
 6    1  0.4241465E-002  0.1581323E+03  0.7546771E-02  0.1190822E+00
         21   -1    0    0  504  502  0.00000000000E+00  0.00000000000E+00  0.67868775427E+02  0.67868775427E+02  0.00000000000E+00 0. -1.
         21   -1    0    0  502  503 -0.00000000000E+00 -0.00000000000E+00 -0.51665174101E+03  0.51665174101E+03  0.00000000000E+00 0. -1.
         25    2    1    2    0    0  0.92858366372E+02  0.27526503384E+02 -0.46056344225E+03  0.48695431212E+03  0.12500173266E+03 0.  0.
          5    1    3    3  501    0  0.68331161232E+02  0.58212889311E+02 -0.15692680610E+03  0.18078694795E+03  0.10000000000E+00 0.  1.
         -5    1    3    3    0  501  0.24527205140E+02 -0.30686385927E+02 -0.30363663615E+03  0.30616736417E+03  0.10000000000E+00 0.  1.
         21    1    1    2  504  503 -0.92858366372E+02 -0.27526503384E+02  0.11780476663E+02  0.97566204314E+02  0.00000000000E+00 0. -1.
<mgrwt>
<rscale>  1 0.15813228E+03</rscale>
<asrwt>0</asrwt>
<pdfrwt beam="1">  1       21 0.10441350E-01 0.15813228E+03</pdfrwt>
<pdfrwt beam="2">  1       21 0.79484884E-01 0.15813228E+03</pdfrwt>
<totfact> 0.10637810E+05</totfact>
</mgrwt>
</event>
<event>
 6    1  0.4241465E-002  0.1262611E+03  0.7546771E-02  0.1233111E+00
         21   -1    0    0  503  502  0.00000000000E+00  0.00000000000E+00  0.62652603359E+03  0.62652603359E+03  0.00000000000E+00 0.  1.
         21   -1    0    0  504  503 -0.00000000000E+00 -0.00000000000E+00 -0.21715792476E+02  0.21715792476E+02  0.00000000000E+00 0.  1.
         25    2    1    2    0    0 -0.89512310113E+01  0.15363046441E+02  0.16351737203E+03  0.20659089599E+03  0.12500287844E+03 0.  0.
          5    1    3    3  501    0 -0.26786873701E+02 -0.88453873288E+01  0.17282636904E+03  0.17511350980E+03  0.10000000000E+00 0. -1.
         -5    1    3    3    0  501  0.17835642689E+02  0.24208433770E+02 -0.93089970124E+01  0.31477386186E+02  0.10000000000E+00 0. -1.
         21    1    1    2  504  502  0.89512310113E+01 -0.15363046441E+02  0.44129286908E+03  0.44165093007E+03  0.00000000000E+00 0.  1.
<mgrwt>
<rscale>  1 0.12626111E+03</rscale>
<asrwt>0</asrwt>
<pdfrwt beam="1">  1       21 0.96388607E-01 0.12626111E+03</pdfrwt>
<pdfrwt beam="2">  1       21 0.33408916E-02 0.12626111E+03</pdfrwt>
<totfact> 0.47979365E+05</totfact>
</mgrwt>
</event>
<event>
 6    1  0.4241465E-002  0.1453448E+03  0.7546771E-02  0.1206313E+00
         21   -1    0    0  503  502  0.00000000000E+00  0.00000000000E+00  0.14929222780E+04  0.14929222780E+04  0.00000000000E+00 0. -1.
         21   -1    0    0  504  503 -0.00000000000E+00 -0.00000000000E+00 -0.27141448243E+02  0.27141448243E+02  0.00000000000E+00 0. -1.
         25    2    1    2    0    0 -0.96444302118E+01 -0.73553665975E+02  0.17646456454E+03  0.22861508670E+03  0.12498783348E+03 0.  0.
          5    1    3    3  501    0  0.21167072818E+02  0.19905675537E+02  0.99584348281E+02  0.10373684646E+03  0.10000000000E+00 0. -1.
         -5    1    3    3    0  501 -0.30811503030E+02 -0.93459341512E+02  0.76880216255E+02  0.12487824024E+03  0.10000000000E+00 0. -1.
         21    1    1    2  504  502  0.96444302118E+01  0.73553665975E+02  0.12893162652E+04  0.12914486395E+04  0.00000000000E+00 0. -1.
<mgrwt>
<rscale>  1 0.14534482E+03</rscale>
<asrwt>0</asrwt>
<pdfrwt beam="1">  1       21 0.22968029E+00 0.14534482E+03</pdfrwt>
<pdfrwt beam="2">  1       21 0.41756086E-02 0.14534482E+03</pdfrwt>
<totfact> 0.33312449E+04</totfact>
</mgrwt>
</event>
<event>
 6    1  0.4241465E-002  0.1429919E+03  0.7546771E-02  0.1209359E+00
         21   -1    0    0  504  502  0.00000000000E+00  0.00000000000E+00  0.32091355306E+02  0.32091355306E+02  0.00000000000E+00 0. -1.
         21   -1    0    0  502  503 -0.00000000000E+00 -0.00000000000E+00 -0.35782376749E+03  0.35782376749E+03  0.00000000000E+00 0. -1.
         25    2    1    2    0    0  0.60130500469E+02  0.34721251366E+02 -0.24254194151E+03  0.28155508960E+03  0.12500173081E+03 0.  0.
          5    1    3    3  501    0  0.89173740867E+02 -0.58439834029E+01 -0.12314567525E+03  0.15215444632E+03  0.10000000000E+00 0.  1.
         -5    1    3    3    0  501 -0.29043240398E+02  0.40565234769E+02 -0.11939626626E+03  0.12940064328E+03  0.10000000000E+00 0.  1.
         21    1    1    2  504  503 -0.60130500469E+02 -0.34721251366E+02 -0.83190470676E+02  0.10836003320E+03  0.00000000000E+00 0. -1.
<mgrwt>
<rscale>  1 0.14299187E+03</rscale>
<asrwt>0</asrwt>
<pdfrwt beam="1">  1       21 0.49371317E-02 0.14299187E+03</pdfrwt>
<pdfrwt beam="2">  1       21 0.55049809E-01 0.14299187E+03</pdfrwt>
<totfact> 0.85884233E+05</totfact>
</mgrwt>
</event>
<event>
 6    1  0.4241465E-002  0.1259788E+03  0.7546771E-02  0.1233548E+00
         21   -1    0    0  503  502  0.00000000000E+00  0.00000000000E+00  0.66231475474E+02  0.66231475474E+02  0.00000000000E+00 0.  1.
         21   -1    0    0  504  503 -0.00000000000E+00 -0.00000000000E+00 -0.76409188727E+02  0.76409188727E+02  0.00000000000E+00 0.  1.
         25    2    1    2    0    0 -0.99672175347E+01  0.12077735383E+02 -0.13280399952E+02  0.12667683690E+03  0.12500173945E+03 0.  0.
          5    1    3    3  501    0 -0.31546485175E+00 -0.42000109775E+02  0.34125530627E+02  0.54117193014E+02  0.10000000000E+00 0.  1.
         -5    1    3    3    0  501 -0.96517526830E+01  0.54077845158E+02 -0.47405930578E+02  0.72559643885E+02  0.10000000000E+00 0.  1.
         21    1    1    2  504  502  0.99672175347E+01 -0.12077735383E+02  0.31026866983E+01  0.15963827302E+02  0.00000000000E+00 0. -1.
<mgrwt>
<rscale>  1 0.12597878E+03</rscale>
<asrwt>0</asrwt>
<pdfrwt beam="1">  1       21 0.10189458E-01 0.12597878E+03</pdfrwt>
<pdfrwt beam="2">  1       21 0.11755260E-01 0.12597878E+03</pdfrwt>
<totfact> 0.47043169E+06</totfact>
</mgrwt>
</event>
<event>
 6    1  0.4241465E-002  0.1268255E+03  0.7546771E-02  0.1232244E+00
         21   -1    0    0  503  502  0.00000000000E+00  0.00000000000E+00  0.43741549306E+02  0.43741549306E+02  0.00000000000E+00 0. -1.
         21   -1    0    0  504  503 -0.00000000000E+00 -0.00000000000E+00 -0.10662653492E+04  0.10662653492E+04  0.00000000000E+00 0. -1.
         25    2    1    2    0    0  0.20635952746E+02  0.57766033947E+01 -0.10596109488E+04  0.10671738703E+04  0.12500197970E+03 0.  0.
          5    1    3    3  501    0  0.46306606698E+02 -0.12590936098E+02 -0.16077690200E+03  0.16778574347E+03  0.10000000000E+00 0.  1.
         -5    1    3    3    0  501 -0.25670653952E+02  0.18367539492E+02 -0.89883404680E+03  0.89938812682E+03  0.10000000000E+00 0.  1.
         21    1    1    2  504  502 -0.20635952746E+02 -0.57766033947E+01  0.37087148902E+02  0.42833028216E+02  0.00000000000E+00 0. -1.
<mgrwt>
<rscale>  1 0.12682550E+03</rscale>
<asrwt>0</asrwt>
<pdfrwt beam="1">  1       21 0.67294699E-02 0.12682550E+03</pdfrwt>
<pdfrwt beam="2">  1       21 0.16404080E+00 0.12682550E+03</pdfrwt>
<totfact> 0.39810220E+04</totfact>
</mgrwt>
</event>
<event>
 6    1  0.4241465E-002  0.1273802E+03  0.7546771E-02  0.1231396E+00
         21   -1    0    0  503  502  0.00000000000E+00  0.00000000000E+00  0.13976250976E+04  0.13976250976E+04  0.00000000000E+00 0. -1.
         21   -1    0    0  504  503 -0.00000000000E+00 -0.00000000000E+00 -0.15134098654E+02  0.15134098654E+02  0.00000000000E+00 0. -1.
         25    2    1    2    0    0 -0.22693541608E+02 -0.93009884925E+01  0.25541531702E+03  0.28541670259E+03  0.12499681890E+03 0.  0.
          5    1    3    3  501    0  0.21632813654E+02 -0.57408449235E+02  0.10964344727E+03  0.12563997851E+03  0.10000000000E+00 0. -1.
         -5    1    3    3    0  501 -0.44326355263E+02  0.48107460742E+02  0.14577186975E+03  0.15977672409E+03  0.10000000000E+00 0. -1.
         21    1    1    2  504  502  0.22693541608E+02  0.93009884925E+01  0.11270756819E+04  0.11273424936E+04  0.00000000000E+00 0. -1.
<mgrwt>
<rscale>  1 0.12738018E+03</rscale>
<asrwt>0</asrwt>
<pdfrwt beam="1">  1       21 0.21501914E+00 0.12738018E+03</pdfrwt>
<pdfrwt beam="2">  1       21 0.23283240E-02 0.12738018E+03</pdfrwt>
<totfact> 0.10820065E+05</totfact>
</mgrwt>
</event>
<event>
 6    1  0.4241465E-002  0.1282308E+03  0.7546771E-02  0.1230105E+00
         21   -1    0    0  503  502  0.00000000000E+00  0.00000000000E+00  0.12855704913E+02  0.12855704913E+02  0.00000000000E+00 0. -1.
         21   -1    0    0  504  503 -0.00000000000E+00 -0.00000000000E+00 -0.56477074400E+03  0.56477074400E+03  0.00000000000E+00 0. -1.
         25    2    1    2    0    0  0.26749526905E+02 -0.10103433463E+02 -0.51612862085E+03  0.53181941575E+03  0.12500208457E+03 0.  0.
          5    1    3    3  501    0  0.50365430599E+02  0.32011263609E+02 -0.13445643422E+03  0.14710520147E+03  0.10000000000E+00 0.  1.
         -5    1    3    3    0  501 -0.23615903694E+02 -0.42114697072E+02 -0.38167218663E+03  0.38471421428E+03  0.10000000000E+00 0.  1.
         21    1    1    2  504  502 -0.26749526905E+02  0.10103433463E+02 -0.35786418239E+02  0.45807033169E+02  0.00000000000E+00 0. -1.
<mgrwt>
<rscale>  1 0.12823080E+03</rscale>
<asrwt>0</asrwt>
<pdfrwt beam="1">  1       21 0.19778010E-02 0.12823080E+03</pdfrwt>
<pdfrwt beam="2">  1       21 0.86887797E-01 0.12823080E+03</pdfrwt>
<totfact> 0.14299712E+06</totfact>
</mgrwt>
</event>
<event>
 6    1  0.4241465E-002  0.1308845E+03  0.7546771E-02  0.1226149E+00
         21   -1    0    0  503  502  0.00000000000E+00  0.00000000000E+00  0.39013042649E+02  0.39013042649E+02  0.00000000000E+00 0.  1.
         21   -1    0    0  504  503 -0.00000000000E+00 -0.00000000000E+00 -0.40601225488E+03  0.40601225488E+03  0.00000000000E+00 0.  1.
         25    2    1    2    0    0  0.10223105844E+02  0.37344931352E+02 -0.38177137809E+03  0.40358410215E+03  0.12502634356E+03 0.  0.
          5    1    3    3  501    0 -0.30871637017E+02  0.60304322146E+02 -0.31298061924E+03  0.32022889823E+03  0.10000000000E+00 0.  1.
         -5    1    3    3    0  501  0.41094742861E+02 -0.22959390794E+02 -0.68790758854E+02  0.83355203918E+02  0.10000000000E+00 0.  1.
         21    1    1    2  504  502 -0.10223105844E+02 -0.37344931352E+02  0.14772165860E+02  0.41441195386E+02  0.00000000000E+00 0.  1.
<mgrwt>
<rscale>  1 0.13088446E+03</rscale>
<asrwt>0</asrwt>
<pdfrwt beam="1">  1       21 0.60020073E-02 0.13088446E+03</pdfrwt>
<pdfrwt beam="2">  1       21 0.62463416E-01 0.13088446E+03</pdfrwt>
<totfact> 0.47280328E+05</totfact>
</mgrwt>
</event>
<event>
 6    1  0.4241465E-002  0.1271564E+03  0.7546771E-02  0.1231737E+00
         21   -1    0    0  503  502  0.00000000000E+00  0.00000000000E+00  0.26116014110E+03  0.26116014110E+03  0.00000000000E+00 0.  1.
         21   -1    0    0  504  503 -0.00000000000E+00 -0.00000000000E+00 -0.48607565349E+02  0.48607565349E+02  0.00000000000E+00 0.  1.
         25    2    1    2    0    0 -0.22641001257E+02 -0.58948305159E+01  0.36673425440E+02  0.13233929982E+03  0.12498554388E+03 0.  0.
          5    1    3    3  501    0 -0.46261989990E+02  0.38977756955E+02  0.51564537959E+02  0.79488042057E+02  0.10000000000E+00 0. -1.
         -5    1    3    3    0  501  0.23620988733E+02 -0.44872587471E+02 -0.14891112519E+02  0.52851257763E+02  0.10000000000E+00 0. -1.
         21    1    1    2  504  502  0.22641001257E+02  0.58948305159E+01  0.17587915031E+03  0.17742840663E+03  0.00000000000E+00 0.  1.
<mgrwt>
<rscale>  1 0.12715640E+03</rscale>
<asrwt>0</asrwt>
<pdfrwt beam="1">  1       21 0.40178483E-01 0.12715640E+03</pdfrwt>
<pdfrwt beam="2">  1       21 0.74780871E-02 0.12715640E+03</pdfrwt>
<totfact> 0.80839419E+05</totfact>
</mgrwt>
</event>
<event>
 6    1  0.4241465E-002  0.1318973E+03  0.7546771E-02  0.1224667E+00
         21   -1    0    0  504  502  0.00000000000E+00  0.00000000000E+00  0.22989526838E+03  0.22989526838E+03  0.00000000000E+00 0. -1.
         21   -1    0    0  502  503 -0.00000000000E+00 -0.00000000000E+00 -0.34996475522E+02  0.34996475522E+02  0.00000000000E+00 0. -1.
         25    2    1    2    0    0 -0.30287664541E+02  0.29239838632E+02  0.11684748053E+03  0.17621075303E+03  0.12499833995E+03 0.  0.
          5    1    3    3  501    0 -0.77937064183E+02  0.27149839921E+02  0.87143377539E+02  0.12002198978E+03  0.10000000000E+00 0.  1.
         -5    1    3    3    0  501  0.47649399642E+02  0.20899987115E+01  0.29704102991E+02  0.56188763249E+02  0.10000000000E+00 0.  1.
         21    1    1    2  504  503  0.30287664541E+02 -0.29239838632E+02  0.78051312325E+02  0.88680990873E+02  0.00000000000E+00 0. -1.
<mgrwt>
<rscale>  1 0.13189729E+03</rscale>
<asrwt>0</asrwt>
<pdfrwt beam="1">  1       21 0.35368502E-01 0.13189729E+03</pdfrwt>
<pdfrwt beam="2">  1       21 0.53840733E-02 0.13189729E+03</pdfrwt>
<totfact> 0.18214336E+06</totfact>
</mgrwt>
</event>
<event>
 6    1  0.4241465E-002  0.1502715E+03  0.7546771E-02  0.1200140E+00
         21   -1    0    0  503  502  0.00000000000E+00  0.00000000000E+00  0.52056835167E+03  0.52056835167E+03  0.00000000000E+00 0.  1.
         21   -1    0    0  504  503 -0.00000000000E+00 -0.00000000000E+00 -0.28268751332E+02  0.28268751332E+02  0.00000000000E+00 0.  1.
         25    2    1    2    0    0  0.82519278766E+02  0.12227164271E+02  0.38237369201E+03  0.41084202977E+03  0.12499039231E+03 0.  0.
          5    1    3    3  501    0  0.29259270620E+02  0.67239305227E+02  0.17263617833E+03  0.18756462661E+03  0.10000000000E+00 0.  1.
         -5    1    3    3    0  501  0.53260008146E+02 -0.55012140955E+02  0.20973751368E+03  0.22327740317E+03  0.10000000000E+00 0.  1.
         21    1    1    2  504  502 -0.82519278766E+02 -0.12227164271E+02  0.10992590832E+03  0.13799507323E+03  0.00000000000E+00 0.  1.
<mgrwt>
<rscale>  1 0.15027153E+03</rscale>
<asrwt>0</asrwt>
<pdfrwt beam="1">  1       21 0.80087432E-01 0.15027153E+03</pdfrwt>
<pdfrwt beam="2">  1       21 0.43490390E-02 0.15027153E+03</pdfrwt>
<totfact> 0.47089519E+05</totfact>
</mgrwt>
</event>
<event>
 6    1  0.4241465E-002  0.1292851E+03  0.7546771E-02  0.1228520E+00
         21   -1    0    0  504  502  0.00000000000E+00  0.00000000000E+00  0.37842763339E+03  0.37842763339E+03  0.00000000000E+00 0.  1.
         21   -1    0    0  502  503 -0.00000000000E+00 -0.00000000000E+00 -0.50421753142E+02  0.50421753142E+02  0.00000000000E+00 0.  1.
         25    2    1    2    0    0  0.50820564049E+01 -0.32611746959E+02  0.34929717794E+02  0.13392059795E+03  0.12500115212E+03 0.  0.
          5    1    3    3  501    0 -0.20662782682E+02 -0.43034294793E+02  0.72739607112E+02  0.87005526027E+02  0.10000000000E+00 0.  1.
         -5    1    3    3    0  501  0.25744839087E+02  0.10422547834E+02 -0.37809889318E+02  0.46915071919E+02  0.10000000000E+00 0.  1.
         21    1    1    2  504  503 -0.50820564049E+01  0.32611746959E+02  0.29307616245E+03  0.29492878858E+03  0.00000000000E+00 0.  1.
<mgrwt>
<rscale>  1 0.12928512E+03</rscale>
<asrwt>0</asrwt>
<pdfrwt beam="1">  1       21 0.58219634E-01 0.12928512E+03</pdfrwt>
<pdfrwt beam="2">  1       21 0.77571930E-02 0.12928512E+03</pdfrwt>
<totfact> 0.35431411E+05</totfact>
</mgrwt>
</event>
<event>
 6    1  0.4241465E-002  0.1305428E+03  0.7546771E-02  0.1226653E+00
         21   -1    0    0  504  502  0.00000000000E+00  0.00000000000E+00  0.31996660436E+02  0.31996660436E+02  0.00000000000E+00 0. -1.
         21   -1    0    0  502  503 -0.00000000000E+00 -0.00000000000E+00 -0.36231860481E+03  0.36231860481E+03  0.00000000000E+00 0. -1.
         25    2    1    2    0    0 -0.28861663051E+02 -0.24142148616E+02 -0.33190494993E+03  0.35665434598E+03  0.12500235110E+03 0.  0.
          5    1    3    3  501    0 -0.49642556737E+02  0.18893215255E+02 -0.28422902796E+03  0.28914959339E+03  0.10000000000E+00 0.  1.
         -5    1    3    3    0  501  0.20780893686E+02 -0.43035363872E+02 -0.47675921974E+02  0.67504752589E+02  0.10000000000E+00 0.  1.
         21    1    1    2  504  503  0.28861663051E+02  0.24142148616E+02  0.15830055559E+01  0.37660919272E+02  0.00000000000E+00 0. -1.
<mgrwt>
<rscale>  1 0.13054282E+03</rscale>
<asrwt>0</asrwt>
<pdfrwt beam="1">  1       21 0.49225631E-02 0.13054282E+03</pdfrwt>
<pdfrwt beam="2">  1       21 0.55741324E-01 0.13054282E+03</pdfrwt>
<totfact> 0.84088593E+05</totfact>
</mgrwt>
</event>
<event>
 6    1  0.4241465E-002  0.1447210E+03  0.7546771E-02  0.1207114E+00
         21   -1    0    0  504  502  0.00000000000E+00  0.00000000000E+00  0.73251227901E+02  0.73251227901E+02  0.00000000000E+00 0.  1.
         21   -1    0    0  502  503 -0.00000000000E+00 -0.00000000000E+00 -0.16430096216E+03  0.16430096216E+03  0.00000000000E+00 0.  1.
         25    2    1    2    0    0  0.63573264788E+02  0.35745613772E+02 -0.74472040261E+02  0.16275828096E+03  0.12499945737E+03 0.  0.
          5    1    3    3  501    0  0.40017937142E+02  0.80833091636E+02 -0.29610313975E+02  0.94932632378E+02  0.10000000000E+00 0. -1.
         -5    1    3    3    0  501  0.23555327646E+02 -0.45087477864E+02 -0.44861726286E+02  0.67825648585E+02  0.10000000000E+00 0. -1.
         21    1    1    2  504  503 -0.63573264788E+02 -0.35745613772E+02 -0.16577693996E+02  0.74793909097E+02  0.00000000000E+00 0.  1.
<mgrwt>
<rscale>  1 0.14472102E+03</rscale>
<asrwt>0</asrwt>
<pdfrwt beam="1">  1       21 0.11269420E-01 0.14472102E+03</pdfrwt>
<pdfrwt beam="2">  1       21 0.25277071E-01 0.14472102E+03</pdfrwt>
<totfact> 0.97551245E+05</totfact>
</mgrwt>
</event>
<event>
 6    1  0.4241465E-002  0.1267166E+03  0.7546771E-02  0.1232411E+00
         21   -1    0    0  504  502  0.00000000000E+00  0.00000000000E+00  0.22068665901E+03  0.22068665901E+03  0.00000000000E+00 0. -1.
         21   -1    0    0  502  503 -0.00000000000E+00 -0.00000000000E+00 -0.74586547334E+03  0.74586547334E+03  0.00000000000E+00 0.  1.
         25    2    1    2    0    0  0.26663759675E+01  0.20618955487E+02 -0.73997790191E+03  0.75074921553E+03  0.12499935370E+03 0.  0.
          5    1    3    3  501    0 -0.50680896370E+02  0.76551459405E+01 -0.56597001227E+03  0.56828621248E+03  0.10000000000E+00 0. -1.
         -5    1    3    3    0  501  0.53347272338E+02  0.12963809547E+02 -0.17400788964E+03  0.18246300305E+03  0.10000000000E+00 0. -1.
         21    1    1    2  504  503 -0.26663759675E+01 -0.20618955487E+02  0.21479908757E+03  0.21580291682E+03  0.00000000000E+00 0. -1.
<mgrwt>
<rscale>  1 0.12671657E+03</rscale>
<asrwt>0</asrwt>
<pdfrwt beam="1">  1       21 0.33951794E-01 0.12671657E+03</pdfrwt>
<pdfrwt beam="2">  1       21 0.11474853E+00 0.12671657E+03</pdfrwt>
<totfact> 0.52327895E+03</totfact>
</mgrwt>
</event>
<event>
 6    1  0.4241465E-002  0.1390507E+03  0.7546771E-02  0.1214612E+00
         21   -1    0    0  503  502  0.00000000000E+00  0.00000000000E+00  0.84893957918E+03  0.84893957918E+03  0.00000000000E+00 0.  1.
         21   -1    0    0  504  503 -0.00000000000E+00 -0.00000000000E+00 -0.18928057243E+02  0.18928057243E+02  0.00000000000E+00 0.  1.
         25    2    1    2    0    0  0.40438707819E+02  0.45595747307E+02  0.26215103544E+03  0.29674611399E+03  0.12498331698E+03 0.  0.
          5    1    3    3  501    0 -0.72805787385E+01  0.76026080727E+02  0.10594890054E+03  0.13060685780E+03  0.10000000000E+00 0. -1.
         -5    1    3    3    0  501  0.47719286558E+02 -0.30430333419E+02  0.15620213490E+03  0.16613925619E+03  0.10000000000E+00 0. -1.
         21    1    1    2  504  502 -0.40438707819E+02 -0.45595747307E+02  0.56786048650E+03  0.57112152244E+03  0.00000000000E+00 0.  1.
<mgrwt>
<rscale>  1 0.13905068E+03</rscale>
<asrwt>0</asrwt>
<pdfrwt beam="1">  1       21 0.13060606E+00 0.13905068E+03</pdfrwt>
<pdfrwt beam="2">  1       21 0.29120095E-02 0.13905068E+03</pdfrwt>
<totfact> 0.28875712E+05</totfact>
</mgrwt>
</event>
<event>
 6    1  0.4241465E-002  0.1311286E+03  0.7546771E-02  0.1225791E+00
         21   -1    0    0  504  502  0.00000000000E+00  0.00000000000E+00  0.52151695169E+03  0.52151695169E+03  0.00000000000E+00 0. -1.
         21   -1    0    0  502  503 -0.00000000000E+00 -0.00000000000E+00 -0.24332768223E+02  0.24332768223E+02  0.00000000000E+00 0. -1.
         25    2    1    2    0    0  0.32055514892E+02 -0.23292586939E+02  0.16240871824E+03  0.20873740515E+03  0.12499844763E+03 0.  0.
          5    1    3    3  501    0  0.42208995737E+02 -0.67610712183E+02  0.13146642084E+03  0.15374081284E+03  0.10000000000E+00 0.  1.
         -5    1    3    3    0  501 -0.10153480844E+02  0.44318125245E+02  0.30942297396E+02  0.54996592318E+02  0.10000000000E+00 0.  1.
         21    1    1    2  504  503 -0.32055514892E+02  0.23292586939E+02  0.33477546524E+03  0.33711231476E+03  0.00000000000E+00 0. -1.
<mgrwt>
<rscale>  1 0.13112861E+03</rscale>
<asrwt>0</asrwt>
<pdfrwt beam="1">  1       21 0.80233369E-01 0.13112861E+03</pdfrwt>
<pdfrwt beam="2">  1       21 0.37435032E-02 0.13112861E+03</pdfrwt>
<totfact> 0.60330729E+05</totfact>
</mgrwt>
</event>
<event>
 6    1  0.4241465E-002  0.1301198E+03  0.7546771E-02  0.1227278E+00
         21   -1    0    0  504  502  0.00000000000E+00  0.00000000000E+00  0.12501869180E+02  0.12501869180E+02  0.00000000000E+00 0. -1.
         21   -1    0    0  502  503 -0.00000000000E+00 -0.00000000000E+00 -0.92544380389E+03  0.92544380389E+03  0.00000000000E+00 0. -1.
         25    2    1    2    0    0  0.19991311254E+02  0.30108847371E+02 -0.87828935879E+03  0.88787575961E+03  0.12499988614E+03 0.  0.
          5    1    3    3  501    0  0.27968557068E+02  0.76601340574E+02 -0.61655489420E+03  0.62192439502E+03  0.10000000000E+00 0. -1.
         -5    1    3    3    0  501 -0.79772458140E+01 -0.46492493203E+02 -0.26173446459E+03  0.26595136459E+03  0.10000000000E+00 0. -1.
         21    1    1    2  504  503 -0.19991311254E+02 -0.30108847371E+02 -0.34652575926E+02  0.50069913461E+02  0.00000000000E+00 0. -1.
<mgrwt>
<rscale>  1 0.13011982E+03</rscale>
<asrwt>0</asrwt>
<pdfrwt beam="1">  1       21 0.19233643E-02 0.13011982E+03</pdfrwt>
<pdfrwt beam="2">  1       21 0.14237598E+00 0.13011982E+03</pdfrwt>
<totfact> 0.45693012E+05</totfact>
</mgrwt>
</event>
<event>
 6    1  0.4241465E-002  0.1263100E+03  0.7546771E-02  0.1233036E+00
         21   -1    0    0  504  502  0.00000000000E+00  0.00000000000E+00  0.50264745147E+01  0.50264745147E+01  0.00000000000E+00 0. -1.
         21   -1    0    0  502  503 -0.00000000000E+00 -0.00000000000E+00 -0.11665979323E+04  0.11665979323E+04  0.00000000000E+00 0. -1.
         25    2    1    2    0    0 -0.16366848406E+02 -0.78247476275E+01 -0.11054734062E+04  0.11126660164E+04  0.12500044784E+03 0.  0.
          5    1    3    3  501    0  0.75797351591E+00 -0.45339835113E+02 -0.16022000052E+03  0.16651346414E+03  0.10000000000E+00 0. -1.
         -5    1    3    3    0  501 -0.17124821922E+02  0.37515087485E+02 -0.94525340565E+03  0.94615255229E+03  0.10000000000E+00 0. -1.
         21    1    1    2  504  503  0.16366848406E+02  0.78247476275E+01 -0.56098051643E+02  0.58958390415E+02  0.00000000000E+00 0.  1.
<mgrwt>
<rscale>  1 0.12630999E+03</rscale>
<asrwt>0</asrwt>
<pdfrwt beam="1">  1       21 0.77330347E-03 0.12630999E+03</pdfrwt>
<pdfrwt beam="2">  1       21 0.17947668E+00 0.12630999E+03</pdfrwt>
<totfact> 0.10505781E+06</totfact>
</mgrwt>
</event>
<event>
 6    1  0.4241465E-002  0.1296964E+03  0.7546771E-02  0.1227907E+00
         21   -1    0    0  504  502  0.00000000000E+00  0.00000000000E+00  0.16176215295E+04  0.16176215295E+04  0.00000000000E+00 0.  1.
         21   -1    0    0  502  503 -0.00000000000E+00 -0.00000000000E+00 -0.41980547119E+01  0.41980547119E+01  0.00000000000E+00 0.  1.
         25    2    1    2    0    0 -0.34546035653E+02 -0.23968459828E+01  0.13215935762E+04  0.13279422916E+04  0.12498790143E+03 0.  0.
          5    1    3    3  501    0 -0.67467417998E+02  0.12489599341E+02  0.11735285910E+04  0.11755327331E+04  0.10000000000E+00 0. -1.
         -5    1    3    3    0  501  0.32921382345E+02 -0.14886445324E+02  0.14806498520E+03  0.15240955847E+03  0.10000000000E+00 0. -1.
         21    1    1    2  504  503  0.34546035653E+02  0.23968459828E+01  0.29182989851E+03  0.29387729261E+03  0.00000000000E+00 0.  1.
<mgrwt>
<rscale>  1 0.12969637E+03</rscale>
<asrwt>0</asrwt>
<pdfrwt beam="1">  1       21 0.24886435E+00 0.12969637E+03</pdfrwt>
<pdfrwt beam="2">  1       21 0.64585587E-03 0.12969637E+03</pdfrwt>
<totfact> 0.52268600E+05</totfact>
</mgrwt>
</event>
<event>
 6    1  0.4241465E-002  0.1260648E+03  0.7546771E-02  0.1233415E+00
         21   -1    0    0  503  502  0.00000000000E+00  0.00000000000E+00  0.30602056457E+03  0.30602056457E+03  0.00000000000E+00 0. -1.
         21   -1    0    0  504  503 -0.00000000000E+00 -0.00000000000E+00 -0.25754606280E+02  0.25754606280E+02  0.00000000000E+00 0. -1.
         25    2    1    2    0    0 -0.75025752312E+01  0.14507521141E+02  0.13168756318E+03  0.18230177423E+03  0.12500226312E+03 0.  0.
          5    1    3    3  501    0  0.41682613464E+02  0.32966510439E+02  0.16412862394E+02  0.55620348144E+02  0.10000000000E+00 0. -1.
         -5    1    3    3    0  501 -0.49185188695E+02 -0.18458989298E+02  0.11527470078E+03  0.12668142608E+03  0.10000000000E+00 0. -1.
         21    1    1    2  504  502  0.75025752312E+01 -0.14507521141E+02  0.14857839511E+03  0.14947339663E+03  0.00000000000E+00 0. -1.
<mgrwt>
<rscale>  1 0.12606476E+03</rscale>
<asrwt>0</asrwt>
<pdfrwt beam="1">  1       21 0.47080084E-01 0.12606476E+03</pdfrwt>
<pdfrwt beam="2">  1       21 0.39622473E-02 0.12606476E+03</pdfrwt>
<totfact> 0.17128324E+06</totfact>
</mgrwt>
</event>
<event>
 6    1  0.4241465E-002  0.1327376E+03  0.7546771E-02  0.1223449E+00
         21   -1    0    0  504  502  0.00000000000E+00  0.00000000000E+00  0.80912611954E+02  0.80912611954E+02  0.00000000000E+00 0. -1.
         21   -1    0    0  502  503 -0.00000000000E+00 -0.00000000000E+00 -0.15900455927E+03  0.15900455927E+03  0.00000000000E+00 0. -1.
         25    2    1    2    0    0  0.37015895297E+02  0.24994576893E+02 -0.11980124270E+03  0.17880603722E+03  0.12499742323E+03 0.  0.
          5    1    3    3  501    0  0.31787995479E+02 -0.15659880068E+02 -0.13149111487E+03  0.13618234757E+03  0.10000000000E+00 0. -1.
         -5    1    3    3    0  501  0.52278998183E+01  0.40654456961E+02  0.11689872175E+02  0.42623689643E+02  0.10000000000E+00 0. -1.
         21    1    1    2  504  503 -0.37015895297E+02 -0.24994576893E+02  0.41709295380E+02  0.61111134009E+02  0.00000000000E+00 0. -1.
<mgrwt>
<rscale>  1 0.13273757E+03</rscale>
<asrwt>0</asrwt>
<pdfrwt beam="1">  1       21 0.12448094E-01 0.13273757E+03</pdfrwt>
<pdfrwt beam="2">  1       21 0.24462240E-01 0.13273757E+03</pdfrwt>
<totfact> 0.86984378E+05</totfact>
</mgrwt>
</event>
<event>
 6    1  0.4241465E-002  0.1403026E+03  0.7546771E-02  0.1212922E+00
         21   -1    0    0  503  502  0.00000000000E+00  0.00000000000E+00  0.13443123163E+04  0.13443123163E+04  0.00000000000E+00 0. -1.
         21   -1    0    0  504  503 -0.00000000000E+00 -0.00000000000E+00 -0.30821048828E+02  0.30821048828E+02  0.00000000000E+00 0. -1.
         25    2    1    2    0    0 -0.13847433477E+02 -0.62193538721E+02  0.13429288201E+03  0.19421481589E+03  0.12500011551E+03 0.  0.
          5    1    3    3  501    0  0.11844692907E+02 -0.58676058599E+01  0.13158444531E+03  0.13224674588E+03  0.10000000000E+00 0.  1.
         -5    1    3    3    0  501 -0.25692126384E+02 -0.56325932861E+02  0.27084367025E+01  0.61968070005E+02  0.10000000000E+00 0.  1.
         21    1    1    2  504  502  0.13847433477E+02  0.62193538721E+02  0.11791983854E+04  0.11809185492E+04  0.00000000000E+00 0. -1.
<mgrwt>
<rscale>  1 0.14030259E+03</rscale>
<asrwt>0</asrwt>
<pdfrwt beam="1">  1       21 0.20681723E+00 0.14030259E+03</pdfrwt>
<pdfrwt beam="2">  1       21 0.47417009E-02 0.14030259E+03</pdfrwt>
<totfact> 0.37208901E+04</totfact>
</mgrwt>
</event>
<event>
 6    1  0.4241465E-002  0.1306483E+03  0.7546771E-02  0.1226497E+00
         21   -1    0    0  504  502  0.00000000000E+00  0.00000000000E+00  0.45064382684E+03  0.45064382684E+03  0.00000000000E+00 0. -1.
         21   -1    0    0  502  503 -0.00000000000E+00 -0.00000000000E+00 -0.81488832806E+02  0.81488832806E+02  0.00000000000E+00 0.  1.
         25    2    1    2    0    0  0.14946662474E+02 -0.35140730224E+02 -0.27610261829E+02  0.13353393674E+03  0.12494283518E+03 0.  0.
          5    1    3    3  501    0  0.37365636058E+02 -0.75249504282E+02 -0.24329127855E+02  0.87467680402E+02  0.10000000000E+00 0. -1.
         -5    1    3    3    0  501 -0.22418973585E+02  0.40108774058E+02 -0.32811339742E+01  0.46066256340E+02  0.10000000000E+00 0. -1.
         21    1    1    2  504  503 -0.14946662474E+02  0.35140730224E+02  0.39676525586E+03  0.39859872290E+03  0.00000000000E+00 0. -1.
<mgrwt>
<rscale>  1 0.13064833E+03</rscale>
<asrwt>0</asrwt>
<pdfrwt beam="1">  1       21 0.69329818E-01 0.13064833E+03</pdfrwt>
<pdfrwt beam="2">  1       21 0.12536744E-01 0.13064833E+03</pdfrwt>
<totfact> 0.10520111E+05</totfact>
</mgrwt>
</event>
<event>
 6    1  0.4241465E-002  0.1309875E+03  0.7546771E-02  0.1225998E+00
         21   -1    0    0  504  502  0.00000000000E+00  0.00000000000E+00  0.11232740529E+04  0.11232740529E+04  0.00000000000E+00 0.  1.
         21   -1    0    0  502  503 -0.00000000000E+00 -0.00000000000E+00 -0.61350877373E+02  0.61350877373E+02  0.00000000000E+00 0.  1.
         25    2    1    2    0    0  0.25341768375E+02  0.29838263733E+02  0.93464862927E+01  0.13132050423E+03  0.12500076327E+03 0.  0.
          5    1    3    3  501    0  0.64727021341E+02 -0.14794774983E+02  0.22966801278E+02  0.70256363551E+02  0.10000000000E+00 0.  1.
         -5    1    3    3    0  501 -0.39385252966E+02  0.44633038715E+02 -0.13620314985E+02  0.61064140676E+02  0.10000000000E+00 0.  1.
         21    1    1    2  504  503 -0.25341768375E+02 -0.29838263733E+02  0.10525766893E+04  0.10533044261E+04  0.00000000000E+00 0.  1.
<mgrwt>
<rscale>  1 0.13098747E+03</rscale>
<asrwt>0</asrwt>
<pdfrwt beam="1">  1       21 0.17281138E+00 0.13098747E+03</pdfrwt>
<pdfrwt beam="2">  1       21 0.94385973E-02 0.13098747E+03</pdfrwt>
<totfact> 0.19240572E+04</totfact>
</mgrwt>
</event>
<event>
 6    1  0.4241465E-002  0.1363454E+03  0.7546771E-02  0.1218333E+00
         21   -1    0    0  504  502  0.00000000000E+00  0.00000000000E+00  0.74085282050E+02  0.74085282050E+02  0.00000000000E+00 0.  1.
         21   -1    0    0  502  503 -0.00000000000E+00 -0.00000000000E+00 -0.12339216040E+03  0.12339216040E+03  0.00000000000E+00 0.  1.
         25    2    1    2    0    0  0.48887982661E+02  0.23982638448E+02 -0.41124926701E+02  0.14241251597E+03  0.12499945325E+03 0.  0.
          5    1    3    3  501    0 -0.33162308093E+02  0.33501110724E+02 -0.36615454688E+02  0.59688898631E+02  0.10000000000E+00 0. -1.
         -5    1    3    3    0  501  0.82050290754E+02 -0.95184722758E+01 -0.45094720136E+01  0.82723617336E+02  0.10000000000E+00 0. -1.
         21    1    1    2  504  503 -0.48887982661E+02 -0.23982638448E+02 -0.81819516455E+01  0.55064926480E+02  0.00000000000E+00 0.  1.
<mgrwt>
<rscale>  1 0.13634539E+03</rscale>
<asrwt>0</asrwt>
<pdfrwt beam="1">  1       21 0.11397736E-01 0.13634539E+03</pdfrwt>
<pdfrwt beam="2">  1       21 0.18983409E-01 0.13634539E+03</pdfrwt>
<totfact> 0.16320176E+06</totfact>
</mgrwt>
</event>
<event>
 6    1  0.4241465E-002  0.1297745E+03  0.7546771E-02  0.1227791E+00
         21   -1    0    0  503  502  0.00000000000E+00  0.00000000000E+00  0.26831713204E+03  0.26831713204E+03  0.00000000000E+00 0.  1.
         21   -1    0    0  504  503 -0.00000000000E+00 -0.00000000000E+00 -0.93801701092E+02  0.93801701092E+02  0.00000000000E+00 0. -1.
         25    2    1    2    0    0  0.44544286309E+01 -0.34606054608E+02 -0.46886300374E+02  0.13798461535E+03  0.12499603177E+03 0.  0.
          5    1    3    3  501    0  0.22837487403E+02  0.26460965351E+02  0.24177576215E+02  0.42500573053E+02  0.10000000000E+00 0.  1.
         -5    1    3    3    0  501 -0.18383058772E+02 -0.61067019960E+02 -0.71063876589E+02  0.95484042292E+02  0.10000000000E+00 0.  1.
         21    1    1    2  504  502 -0.44544286309E+01  0.34606054608E+02  0.22140173132E+03  0.22413421779E+03  0.00000000000E+00 0.  1.
<mgrwt>
<rscale>  1 0.12977453E+03</rscale>
<asrwt>0</asrwt>
<pdfrwt beam="1">  1       21 0.41279558E-01 0.12977453E+03</pdfrwt>
<pdfrwt beam="2">  1       21 0.14431031E-01 0.12977453E+03</pdfrwt>
<totfact> 0.24155374E+05</totfact>
</mgrwt>
</event>
<event>
 6    1  0.4241465E-002  0.1283326E+03  0.7546771E-02  0.1229951E+00
         21   -1    0    0  503  502  0.00000000000E+00  0.00000000000E+00  0.11325969739E+03  0.11325969739E+03  0.00000000000E+00 0.  1.
         21   -1    0    0  504  503 -0.00000000000E+00 -0.00000000000E+00 -0.14032184785E+03  0.14032184785E+03  0.00000000000E+00 0.  1.
         25    2    1    2    0    0 -0.53947672678E+01 -0.28901331072E+02 -0.10783552838E+03  0.16762382870E+03  0.12491939928E+03 0.  0.
          5    1    3    3  501    0  0.32299186330E+02  0.27900056287E+02 -0.32789495423E+01  0.42806682755E+02  0.10000000000E+00 0.  1.
         -5    1    3    3    0  501 -0.37693953598E+02 -0.56801387358E+02 -0.10455657884E+03  0.12481714595E+03  0.10000000000E+00 0.  1.
         21    1    1    2  504  502  0.53947672678E+01  0.28901331072E+02  0.80773377917E+02  0.85957716534E+02  0.00000000000E+00 0.  1.
<mgrwt>
<rscale>  1 0.12833256E+03</rscale>
<asrwt>0</asrwt>
<pdfrwt beam="1">  1       21 0.17424569E-01 0.12833256E+03</pdfrwt>
<pdfrwt beam="2">  1       21 0.21587977E-01 0.12833256E+03</pdfrwt>
<totfact> 0.59996929E+05</totfact>
</mgrwt>
</event>
<event>
 6    1  0.4241465E-002  0.1265641E+03  0.7546771E-02  0.1232645E+00
         21   -1    0    0  504  502  0.00000000000E+00  0.00000000000E+00  0.73645447573E+02  0.73645447573E+02  0.00000000000E+00 0. -1.
         21   -1    0    0  502  503 -0.00000000000E+00 -0.00000000000E+00 -0.10696598561E+03  0.10696598561E+03  0.00000000000E+00 0. -1.
         25    2    1    2    0    0 -0.14107608788E+02  0.13847810552E+02 -0.65756051584E+02  0.14262658065E+03  0.12501078635E+03 0.  0.
          5    1    3    3  501    0  0.15724899224E+02 -0.51899412066E+02 -0.31484004145E+02  0.62706251246E+02  0.10000000000E+00 0. -1.
         -5    1    3    3    0  501 -0.29832508012E+02  0.65747222618E+02 -0.34272047439E+02  0.79920329403E+02  0.10000000000E+00 0. -1.
         21    1    1    2  504  503  0.14107608788E+02 -0.13847810552E+02  0.32435513548E+02  0.37984852533E+02  0.00000000000E+00 0. -1.
<mgrwt>
<rscale>  1 0.12656415E+03</rscale>
<asrwt>0</asrwt>
<pdfrwt beam="1">  1       21 0.11330069E-01 0.12656415E+03</pdfrwt>
<pdfrwt beam="2">  1       21 0.16456305E-01 0.12656415E+03</pdfrwt>
<totfact> 0.21376303E+06</totfact>
</mgrwt>
</event>
<event>
 6    1  0.4241465E-002  0.2083306E+03  0.7546771E-02  0.1142895E+00
         21   -1    0    0  504  502  0.00000000000E+00  0.00000000000E+00  0.39905200843E+03  0.39905200843E+03  0.00000000000E+00 0.  1.
         21   -1    0    0  502  503 -0.00000000000E+00 -0.00000000000E+00 -0.89254196364E+02  0.89254196364E+02  0.00000000000E+00 0.  1.
         25    2    1    2    0    0 -0.72620066618E+01 -0.16650633944E+03  0.14425829490E+03  0.25340105467E+03  0.12499816416E+03 0.  0.
          5    1    3    3  501    0  0.21038203166E+02 -0.17218175006E+03  0.99009175841E+02  0.19972978733E+03  0.10000000000E+00 0.  1.
         -5    1    3    3    0  501 -0.28300209828E+02  0.56754106172E+01  0.45249119064E+02  0.53671267341E+02  0.10000000000E+00 0.  1.
         21    1    1    2  504  503  0.72620066618E+01  0.16650633944E+03  0.16553951716E+03  0.23490515013E+03  0.00000000000E+00 0.  1.
<mgrwt>
<rscale>  1 0.20833060E+03</rscale>
<asrwt>0</asrwt>
<pdfrwt beam="1">  1       21 0.61392616E-01 0.20833060E+03</pdfrwt>
<pdfrwt beam="2">  1       21 0.13731415E-01 0.20833060E+03</pdfrwt>
<totfact> 0.11288123E+05</totfact>
</mgrwt>
</event>
<event>
 6    1  0.4241465E-002  0.1275872E+03  0.7546771E-02  0.1231080E+00
         21   -1    0    0  503  502  0.00000000000E+00  0.00000000000E+00  0.37185336240E+03  0.37185336240E+03  0.00000000000E+00 0.  1.
         21   -1    0    0  504  503 -0.00000000000E+00 -0.00000000000E+00 -0.24071721921E+02  0.24071721921E+02  0.00000000000E+00 0.  1.
         25    2    1    2    0    0  0.48748635668E+01 -0.25130477720E+02  0.15188162074E+03  0.19835959407E+03  0.12499278633E+03 0.  0.
          5    1    3    3  501    0 -0.34076515440E+02  0.19054668301E+02  0.40821196687E+01  0.39255101447E+02  0.10000000000E+00 0. -1.
         -5    1    3    3    0  501  0.38951379007E+02 -0.44185146021E+02  0.14779950107E+03  0.15910449262E+03  0.10000000000E+00 0. -1.
         21    1    1    2  504  502 -0.48748635668E+01  0.25130477720E+02  0.19590001973E+03  0.19756549025E+03  0.00000000000E+00 0.  1.
<mgrwt>
<rscale>  1 0.12758723E+03</rscale>
<asrwt>0</asrwt>
<pdfrwt beam="1">  1       21 0.57208206E-01 0.12758723E+03</pdfrwt>
<pdfrwt beam="2">  1       21 0.37033421E-02 0.12758723E+03</pdfrwt>
<totfact> 0.12792050E+06</totfact>
</mgrwt>
</event>
<event>
 6    1  0.4241465E-002  0.1294166E+03  0.7546771E-02  0.1228324E+00
         21   -1    0    0  503  502  0.00000000000E+00  0.00000000000E+00  0.15555402832E+03  0.15555402832E+03  0.00000000000E+00 0. -1.
         21   -1    0    0  504  503 -0.00000000000E+00 -0.00000000000E+00 -0.55590880776E+02  0.55590880776E+02  0.00000000000E+00 0. -1.
         25    2    1    2    0    0 -0.28499415332E+02 -0.17638931347E+02  0.28943263296E+02  0.13261356165E+03  0.12500118267E+03 0.  0.
          5    1    3    3  501    0 -0.71811559773E+02 -0.28369885031E+02  0.39544390469E+02  0.86749751074E+02  0.10000000000E+00 0. -1.
         -5    1    3    3    0  501  0.43312144442E+02  0.10730953684E+02 -0.10601127174E+02  0.45863810575E+02  0.10000000000E+00 0. -1.
         21    1    1    2  504  502  0.28499415332E+02  0.17638931347E+02  0.71019884245E+02  0.78531347445E+02  0.00000000000E+00 0. -1.
<mgrwt>
<rscale>  1 0.12941655E+03</rscale>
<asrwt>0</asrwt>
<pdfrwt beam="1">  1       21 0.23931389E-01 0.12941655E+03</pdfrwt>
<pdfrwt beam="2">  1       21 0.85524433E-02 0.12941655E+03</pdfrwt>
<totfact> 0.17504473E+06</totfact>
</mgrwt>
</event>
<event>
 6    1  0.4241465E-002  0.1329247E+03  0.7546771E-02  0.1223179E+00
         21   -1    0    0  504  502  0.00000000000E+00  0.00000000000E+00  0.24423823857E+03  0.24423823857E+03  0.00000000000E+00 0.  1.
         21   -1    0    0  502  503 -0.00000000000E+00 -0.00000000000E+00 -0.44379021186E+02  0.44379021186E+02  0.00000000000E+00 0.  1.
         25    2    1    2    0    0  0.39596443143E+02  0.21805558330E+02  0.68170178516E+02  0.14938592836E+03  0.12500248666E+03 0.  0.
          5    1    3    3  501    0  0.44275823502E+02  0.70907196175E+02  0.42238783517E+02  0.93660577881E+02  0.10000000000E+00 0.  1.
         -5    1    3    3    0  501 -0.46793803584E+01 -0.49101637845E+02  0.25931394999E+02  0.55725350481E+02  0.10000000000E+00 0.  1.
         21    1    1    2  504  503 -0.39596443143E+02 -0.21805558330E+02  0.13168903886E+03  0.13923133139E+03  0.00000000000E+00 0.  1.
<mgrwt>
<rscale>  1 0.13292472E+03</rscale>
<asrwt>0</asrwt>
<pdfrwt beam="1">  1       21 0.37575113E-01 0.13292472E+03</pdfrwt>
<pdfrwt beam="2">  1       21 0.68275419E-02 0.13292472E+03</pdfrwt>
<totfact> 0.10799214E+06</totfact>
</mgrwt>
</event>
<event>
 6    1  0.4241465E-002  0.1277348E+03  0.7546771E-02  0.1230856E+00
         21   -1    0    0  504  502  0.00000000000E+00  0.00000000000E+00  0.13453354078E+03  0.13453354078E+03  0.00000000000E+00 0.  1.
         21   -1    0    0  502  503 -0.00000000000E+00 -0.00000000000E+00 -0.45413362163E+02  0.45413362163E+02  0.00000000000E+00 0.  1.
         25    2    1    2    0    0  0.16502026498E+02  0.20461940544E+02  0.61335108685E+02  0.14169748464E+03  0.12500069482E+03 0.  0.
          5    1    3    3  501    0 -0.41893295422E+02 -0.15704196940E+02 -0.64402670137E+01  0.45201294695E+02  0.10000000000E+00 0. -1.
         -5    1    3    3    0  501  0.58395321920E+02  0.36166137485E+02  0.67775375699E+02  0.96496189945E+02  0.10000000000E+00 0. -1.
         21    1    1    2  504  503 -0.16502026498E+02 -0.20461940544E+02  0.27785069927E+02  0.38249418299E+02  0.00000000000E+00 0.  1.
<mgrwt>
<rscale>  1 0.12773481E+03</rscale>
<asrwt>0</asrwt>
<pdfrwt beam="1">  1       21 0.20697468E-01 0.12773481E+03</pdfrwt>
<pdfrwt beam="2">  1       21 0.69866712E-02 0.12773481E+03</pdfrwt>
<totfact> 0.32495289E+06</totfact>
</mgrwt>
</event>
<event>
 6    1  0.4241465E-002  0.1284917E+03  0.7546771E-02  0.1229711E+00
         21   -1    0    0  503  502  0.00000000000E+00  0.00000000000E+00  0.31101410448E+02  0.31101410448E+02  0.00000000000E+00 0.  1.
         21   -1    0    0  504  503 -0.00000000000E+00 -0.00000000000E+00 -0.37320215311E+03  0.37320215311E+03  0.00000000000E+00 0.  1.
         25    2    1    2    0    0 -0.28092221486E+02 -0.95395473965E+01 -0.35063166957E+03  0.37343363343E+03  0.12501973843E+03 0.  0.
          5    1    3    3  501    0 -0.12305857031E+02  0.18067434140E+02 -0.50558353085E+00  0.21866227575E+02  0.10000000000E+00 0. -1.
         -5    1    3    3    0  501 -0.15786364455E+02 -0.27606981536E+02 -0.35012608604E+03  0.35156740585E+03  0.10000000000E+00 0. -1.
         21    1    1    2  504  502  0.28092221486E+02  0.95395473965E+01  0.85309269060E+01  0.30869930133E+02  0.00000000000E+00 0.  1.
<mgrwt>
<rscale>  1 0.12849168E+03</rscale>
<asrwt>0</asrwt>
<pdfrwt beam="1">  1       21 0.47848325E-02 0.12849168E+03</pdfrwt>
<pdfrwt beam="2">  1       21 0.57415715E-01 0.12849168E+03</pdfrwt>
<totfact> 0.82864950E+05</totfact>
</mgrwt>
</event>
<event>
 6    1  0.4241465E-002  0.1713278E+03  0.7546771E-02  0.1176470E+00
         21   -1    0    0  504  502  0.00000000000E+00  0.00000000000E+00  0.26426291624E+03  0.26426291624E+03  0.00000000000E+00 0.  1.
         21   -1    0    0  502  503 -0.00000000000E+00 -0.00000000000E+00 -0.31797953624E+03  0.31797953624E+03  0.00000000000E+00 0.  1.
         25    2    1    2    0    0 -0.11612844130E+03  0.15558598762E+02 -0.27952139289E+03  0.32784968463E+03  0.12500128700E+03 0.  0.
          5    1    3    3  501    0  0.20859623867E+02  0.13959265501E+02 -0.13202893403E+02  0.28360384261E+02  0.10000000000E+00 0. -1.
         -5    1    3    3    0  501 -0.13698806516E+03  0.15993332607E+01 -0.26631849949E+03  0.29948930037E+03  0.10000000000E+00 0. -1.
         21    1    1    2  504  503  0.11612844130E+03 -0.15558598762E+02  0.22580477289E+03  0.25439276785E+03  0.00000000000E+00 0.  1.
<mgrwt>
<rscale>  1 0.17132778E+03</rscale>
<asrwt>0</asrwt>
<pdfrwt beam="1">  1       21 0.40655833E-01 0.17132778E+03</pdfrwt>
<pdfrwt beam="2">  1       21 0.48919929E-01 0.17132778E+03</pdfrwt>
<totfact> 0.23534368E+04</totfact>
</mgrwt>
</event>
<event>
 6    1  0.4241465E-002  0.1284619E+03  0.7546771E-02  0.1229756E+00
         21   -1    0    0  504  502  0.00000000000E+00  0.00000000000E+00  0.67026162425E+02  0.67026162425E+02  0.00000000000E+00 0. -1.
         21   -1    0    0  502  503 -0.00000000000E+00 -0.00000000000E+00 -0.26157648208E+03  0.26157648208E+03  0.00000000000E+00 0. -1.
         25    2    1    2    0    0  0.13591422472E+02  0.26337027890E+02 -0.24123379973E+03  0.27330605226E+03  0.12499634502E+03 0.  0.
          5    1    3    3  501    0  0.21176461701E+02  0.73761371113E+02 -0.11509192405E+03  0.13833055838E+03  0.10000000000E+00 0.  1.
         -5    1    3    3    0  501 -0.75850392289E+01 -0.47424343224E+02 -0.12614187568E+03  0.13497549388E+03  0.10000000000E+00 0.  1.
         21    1    1    2  504  503 -0.13591422472E+02 -0.26337027890E+02  0.46683480069E+02  0.55296592248E+02  0.00000000000E+00 0. -1.
<mgrwt>
<rscale>  1 0.12846187E+03</rscale>
<asrwt>0</asrwt>
<pdfrwt beam="1">  1       21 0.10311717E-01 0.12846187E+03</pdfrwt>
<pdfrwt beam="2">  1       21 0.40242535E-01 0.12846187E+03</pdfrwt>
<totfact> 0.46157021E+05</totfact>
</mgrwt>
</event>
<event>
 6    1  0.4241465E-002  0.1285984E+03  0.7546771E-02  0.1229550E+00
         21   -1    0    0  504  502  0.00000000000E+00  0.00000000000E+00  0.22420393517E+03  0.22420393517E+03  0.00000000000E+00 0.  1.
         21   -1    0    0  502  503 -0.00000000000E+00 -0.00000000000E+00 -0.28278286187E+02  0.28278286187E+02  0.00000000000E+00 0.  1.
         25    2    1    2    0    0 -0.29234098148E+02 -0.77195388114E+01  0.15115018360E+03  0.19845383924E+03  0.12499329795E+03 0.  0.
          5    1    3    3  501    0  0.34460189402E+02 -0.41945800442E+02  0.47869017469E+02  0.72376844790E+02  0.10000000000E+00 0. -1.
         -5    1    3    3    0  501 -0.63694287550E+02  0.34226261630E+02  0.10328116613E+03  0.12607699445E+03  0.10000000000E+00 0. -1.
         21    1    1    2  504  503  0.29234098148E+02  0.77195388114E+01  0.44775465380E+02  0.54028382115E+02  0.00000000000E+00 0.  1.
<mgrwt>
<rscale>  1 0.12859840E+03</rscale>
<asrwt>0</asrwt>
<pdfrwt beam="1">  1       21 0.34492912E-01 0.12859840E+03</pdfrwt>
<pdfrwt beam="2">  1       21 0.43505057E-02 0.12859840E+03</pdfrwt>
<totfact> 0.27336884E+06</totfact>
</mgrwt>
</event>
<event>
 6    1  0.4241465E-002  0.1283498E+03  0.7546771E-02  0.1229925E+00
         21   -1    0    0  503  502  0.00000000000E+00  0.00000000000E+00  0.53638057340E+02  0.53638057340E+02  0.00000000000E+00 0. -1.
         21   -1    0    0  504  503 -0.00000000000E+00 -0.00000000000E+00 -0.11623185298E+03  0.11623185298E+03  0.00000000000E+00 0. -1.
         25    2    1    2    0    0 -0.94112424346E+01  0.27563361600E+02 -0.55844301838E+02  0.13997231755E+03  0.12500141298E+03 0.  0.
          5    1    3    3  501    0  0.17153562988E+02 -0.15481886216E+02  0.31483281383E+02  0.39053047648E+02  0.10000000000E+00 0. -1.
         -5    1    3    3    0  501 -0.26564805423E+02  0.43045247816E+02 -0.87327583220E+02  0.10091926990E+03  0.10000000000E+00 0. -1.
         21    1    1    2  504  502  0.94112424346E+01 -0.27563361600E+02 -0.67494938039E+01  0.29897592770E+02  0.00000000000E+00 0. -1.
<mgrwt>
<rscale>  1 0.12834977E+03</rscale>
<asrwt>0</asrwt>
<pdfrwt beam="1">  1       21 0.82520089E-02 0.12834977E+03</pdfrwt>
<pdfrwt beam="2">  1       21 0.17881823E-01 0.12834977E+03</pdfrwt>
<totfact> 0.31962608E+06</totfact>
</mgrwt>
</event>
<event>
 6    1  0.4241465E-002  0.1286648E+03  0.7546771E-02  0.1229450E+00
         21   -1    0    0  503  502  0.00000000000E+00  0.00000000000E+00  0.61367275537E+02  0.61367275537E+02  0.00000000000E+00 0.  1.
         21   -1    0    0  504  503 -0.00000000000E+00 -0.00000000000E+00 -0.29676803846E+03  0.29676803846E+03  0.00000000000E+00 0.  1.
         25    2    1    2    0    0  0.27253111953E+02  0.13691207303E+02 -0.27765849089E+03  0.30602104683E+03  0.12499784908E+03 0.  0.
          5    1    3    3  501    0  0.64498257581E+02 -0.17542697396E+01 -0.24721956446E+03  0.25550073532E+03  0.10000000000E+00 0. -1.
         -5    1    3    3    0  501 -0.37245145628E+02  0.15445477042E+02 -0.30438926425E+02  0.50520311517E+02  0.10000000000E+00 0. -1.
         21    1    1    2  504  502 -0.27253111953E+02 -0.13691207303E+02  0.42257727969E+02  0.52114267161E+02  0.00000000000E+00 0.  1.
<mgrwt>
<rscale>  1 0.12866485E+03</rscale>
<asrwt>0</asrwt>
<pdfrwt beam="1">  1       21 0.94411194E-02 0.12866485E+03</pdfrwt>
<pdfrwt beam="2">  1       21 0.45656621E-01 0.12866485E+03</pdfrwt>
<totfact> 0.41739055E+05</totfact>
</mgrwt>
</event>
<event>
 6    1  0.4241465E-002  0.1312650E+03  0.7546771E-02  0.1225591E+00
         21   -1    0    0  503  502  0.00000000000E+00  0.00000000000E+00  0.15999672086E+03  0.15999672086E+03  0.00000000000E+00 0.  1.
         21   -1    0    0  504  503 -0.00000000000E+00 -0.00000000000E+00 -0.26418787132E+03  0.26418787132E+03  0.00000000000E+00 0.  1.
         25    2    1    2    0    0  0.38768264767E+02 -0.99187773405E+01 -0.24491922381E+03  0.27787754818E+03  0.12501657926E+03 0.  0.
          5    1    3    3  501    0  0.32008091800E+01  0.41186045146E+02 -0.19129623222E+03  0.19570588636E+03  0.10000000000E+00 0. -1.
         -5    1    3    3    0  501  0.35567455587E+02 -0.51104822486E+02 -0.53622991588E+02  0.82171661813E+02  0.10000000000E+00 0. -1.
         21    1    1    2  504  502 -0.38768264767E+02  0.99187773405E+01  0.14072807335E+03  0.14630704401E+03  0.00000000000E+00 0.  1.
<mgrwt>
<rscale>  1 0.13126502E+03</rscale>
<asrwt>0</asrwt>
<pdfrwt beam="1">  1       21 0.24614880E-01 0.13126502E+03</pdfrwt>
<pdfrwt beam="2">  1       21 0.40644288E-01 0.13126502E+03</pdfrwt>
<totfact> 0.93234532E+04</totfact>
</mgrwt>
</event>
<event>
 6    1  0.4241465E-002  0.1626004E+03  0.7546771E-02  0.1185792E+00
         21   -1    0    0  504  502  0.00000000000E+00  0.00000000000E+00  0.95153801136E+02  0.95153801136E+02  0.00000000000E+00 0. -1.
         21   -1    0    0  502  503 -0.00000000000E+00 -0.00000000000E+00 -0.18788680830E+03  0.18788680830E+03  0.00000000000E+00 0. -1.
         25    2    1    2    0    0 -0.31609849799E+02 -0.99070347994E+02 -0.67347790084E+02  0.17599610607E+03  0.12499915226E+03 0.  0.
          5    1    3    3  501    0 -0.26102733802E+02  0.25679383721E+02 -0.24151937681E+02  0.43864673189E+02  0.10000000000E+00 0.  1.
         -5    1    3    3    0  501 -0.55071159975E+01 -0.12474973172E+03 -0.43195852403E+02  0.13213143288E+03  0.10000000000E+00 0.  1.
         21    1    1    2  504  503  0.31609849799E+02  0.99070347994E+02 -0.25385217085E+02  0.10704450337E+03  0.00000000000E+00 0. -1.
<mgrwt>
<rscale>  1 0.16260044E+03</rscale>
<asrwt>0</asrwt>
<pdfrwt beam="1">  1       21 0.14639046E-01 0.16260044E+03</pdfrwt>
<pdfrwt beam="2">  1       21 0.28905663E-01 0.16260044E+03</pdfrwt>
<totfact> 0.47217735E+05</totfact>
</mgrwt>
</event>
<event>
 6    1  0.4241465E-002  0.1474963E+03  0.7546771E-02  0.1203584E+00
         21   -1    0    0  503  502  0.00000000000E+00  0.00000000000E+00  0.45355019510E+02  0.45355019510E+02  0.00000000000E+00 0.  1.
         21   -1    0    0  504  503 -0.00000000000E+00 -0.00000000000E+00 -0.16871738017E+04  0.16871738017E+04  0.00000000000E+00 0.  1.
         25    2    1    2    0    0 -0.75154005995E+02  0.21969161044E+02 -0.16474386299E+04  0.16540281757E+04  0.12499759210E+03 0.  0.
          5    1    3    3  501    0 -0.76376300331E+01  0.52829173071E+02 -0.31241975216E+03  0.31694694582E+03  0.10000000000E+00 0. -1.
         -5    1    3    3    0  501 -0.67516375961E+02 -0.30860012026E+02 -0.13350188777E+04  0.13370812299E+04  0.10000000000E+00 0. -1.
         21    1    1    2  504  502  0.75154005995E+02 -0.21969161044E+02  0.56198477402E+01  0.78500645492E+02  0.00000000000E+00 0.  1.
<mgrwt>
<rscale>  1 0.14749633E+03</rscale>
<asrwt>0</asrwt>
<pdfrwt beam="1">  1       21 0.69776953E-02 0.14749633E+03</pdfrwt>
<pdfrwt beam="2">  1       21 0.25956520E+00 0.14749633E+03</pdfrwt>
<totfact> 0.93383357E+03</totfact>
</mgrwt>
</event>
<event>
 6    1  0.4241465E-002  0.1263051E+03  0.7546771E-02  0.1233044E+00
         21   -1    0    0  504  502  0.00000000000E+00  0.00000000000E+00  0.66628694183E+03  0.66628694183E+03  0.00000000000E+00 0. -1.
         21   -1    0    0  502  503 -0.00000000000E+00 -0.00000000000E+00 -0.32014099770E+02  0.32014099770E+02  0.00000000000E+00 0.  1.
         25    2    1    2    0    0  0.18095141941E+02 -0.44586624623E+00  0.93306876876E+02  0.15703233897E+03  0.12500139700E+03 0.  0.
          5    1    3    3  501    0  0.14063278423E+02  0.11588971749E+02  0.12320821407E+03  0.12454860127E+03  0.10000000000E+00 0.  1.
         -5    1    3    3    0  501  0.40318635175E+01 -0.12034837995E+02 -0.29901337189E+02  0.32483737696E+02  0.10000000000E+00 0.  1.
         21    1    1    2  504  503 -0.18095141941E+02  0.44586624623E+00  0.54096596518E+03  0.54126870263E+03  0.00000000000E+00 0. -1.
<mgrwt>
<rscale>  1 0.12630512E+03</rscale>
<asrwt>0</asrwt>
<pdfrwt beam="1">  1       21 0.10250567E+00 0.12630512E+03</pdfrwt>
<pdfrwt beam="2">  1       21 0.49252466E-02 0.12630512E+03</pdfrwt>
<totfact> 0.21801827E+05</totfact>
</mgrwt>
</event>
<event>
 6    1  0.4241465E-002  0.1273418E+03  0.7546771E-02  0.1231454E+00
         21   -1    0    0  504  502  0.00000000000E+00  0.00000000000E+00  0.15387261956E+02  0.15387261956E+02  0.00000000000E+00 0. -1.
         21   -1    0    0  502  503 -0.00000000000E+00 -0.00000000000E+00 -0.43388178547E+03  0.43388178547E+03  0.00000000000E+00 0.  1.
         25    2    1    2    0    0  0.57888861695E+00  0.24268295684E+02 -0.39672857032E+03  0.41666472247E+03  0.12500658844E+03 0.  0.
          5    1    3    3  501    0  0.13614864396E+02  0.42143833422E+02 -0.41328174788E+02  0.60576358915E+02  0.10000000000E+00 0.  1.
         -5    1    3    3    0  501 -0.13035975779E+02 -0.17875537738E+02 -0.35540039553E+03  0.35608836355E+03  0.10000000000E+00 0.  1.
         21    1    1    2  504  503 -0.57888861695E+00 -0.24268295684E+02 -0.21765953192E+02  0.32604324955E+02  0.00000000000E+00 0. -1.
<mgrwt>
<rscale>  1 0.12734179E+03</rscale>
<asrwt>0</asrwt>
<pdfrwt beam="1">  1       21 0.23672709E-02 0.12734179E+03</pdfrwt>
<pdfrwt beam="2">  1       21 0.66751050E-01 0.12734179E+03</pdfrwt>
<totfact> 0.19162785E+06</totfact>
</mgrwt>
</event>
<event>
 6    1  0.4241465E-002  0.1259041E+03  0.7546771E-02  0.1233663E+00
         21   -1    0    0  503  502  0.00000000000E+00  0.00000000000E+00  0.45100116897E+02  0.45100116897E+02  0.00000000000E+00 0. -1.
         21   -1    0    0  504  503 -0.00000000000E+00 -0.00000000000E+00 -0.11072899386E+03  0.11072899386E+03  0.00000000000E+00 0. -1.
         25    2    1    2    0    0  0.73807684752E+01 -0.13138943527E+02 -0.61933784087E+02  0.14031262625E+03  0.12499892757E+03 0.  0.
          5    1    3    3  501    0 -0.15100121568E+02 -0.33063131601E+02 -0.91321047459E+02  0.98289002700E+02  0.10000000000E+00 0. -1.
         -5    1    3    3    0  501  0.22480890043E+02  0.19924188074E+02  0.29387263372E+02  0.42023623547E+02  0.10000000000E+00 0. -1.
         21    1    1    2  504  502 -0.73807684752E+01  0.13138943527E+02 -0.36950928809E+01  0.15516484514E+02  0.00000000000E+00 0.  1.
<mgrwt>
<rscale>  1 0.12590409E+03</rscale>
<asrwt>0</asrwt>
<pdfrwt beam="1">  1       21 0.69384796E-02 0.12590409E+03</pdfrwt>
<pdfrwt beam="2">  1       21 0.17035230E-01 0.12590409E+03</pdfrwt>
<totfact> 0.46993680E+06</totfact>
</mgrwt>
</event>
<event>
 6    1  0.4241465E-002  0.1262925E+03  0.7546771E-02  0.1233063E+00
         21   -1    0    0  504  502  0.00000000000E+00  0.00000000000E+00  0.57920848320E+02  0.57920848320E+02  0.00000000000E+00 0. -1.
         21   -1    0    0  502  503 -0.00000000000E+00 -0.00000000000E+00 -0.10567998259E+03  0.10567998259E+03  0.00000000000E+00 0. -1.
         25    2    1    2    0    0  0.20069359665E+01 -0.17910490194E+02 -0.61943887777E+02  0.14066569012E+03  0.12499991078E+03 0.  0.
          5    1    3    3  501    0  0.12444458947E+02 -0.41141972823E+02 -0.91834656579E+02  0.10139595966E+03  0.10000000000E+00 0.  1.
         -5    1    3    3    0  501 -0.10437522980E+02  0.23231482629E+02  0.29890768802E+02  0.39269730464E+02  0.10000000000E+00 0.  1.
         21    1    1    2  504  503 -0.20069359665E+01  0.17910490194E+02  0.14184753506E+02  0.22935140788E+02  0.00000000000E+00 0. -1.
<mgrwt>
<rscale>  1 0.12629248E+03</rscale>
<asrwt>0</asrwt>
<pdfrwt beam="1">  1       21 0.89108998E-02 0.12629248E+03</pdfrwt>
<pdfrwt beam="2">  1       21 0.16258459E-01 0.12629248E+03</pdfrwt>
<totfact> 0.33257205E+06</totfact>
</mgrwt>
</event>
<event>
 6    1  0.4241465E-002  0.1579513E+03  0.7546771E-02  0.1191029E+00
         21   -1    0    0  504  502  0.00000000000E+00  0.00000000000E+00  0.35531779640E+03  0.35531779640E+03  0.00000000000E+00 0.  1.
         21   -1    0    0  502  503 -0.00000000000E+00 -0.00000000000E+00 -0.51065172875E+02  0.51065172875E+02  0.00000000000E+00 0.  1.
         25    2    1    2    0    0 -0.71225684448E+02 -0.65197822408E+02  0.12001159435E+03  0.19837188543E+03  0.12499907191E+03 0.  0.
          5    1    3    3  501    0 -0.18938315796E+02 -0.76371978375E+02  0.12164902859E+03  0.14487869079E+03  0.10000000000E+00 0. -1.
         -5    1    3    3    0  501 -0.52287368651E+02  0.11174155967E+02 -0.16374342430E+01  0.53493194642E+02  0.10000000000E+00 0. -1.
         21    1    1    2  504  503  0.71225684448E+02  0.65197822408E+02  0.18424102917E+03  0.20801108384E+03  0.00000000000E+00 0.  1.
<mgrwt>
<rscale>  1 0.15795133E+03</rscale>
<asrwt>0</asrwt>
<pdfrwt beam="1">  1       21 0.54664275E-01 0.15795133E+03</pdfrwt>
<pdfrwt beam="2">  1       21 0.78561807E-02 0.15795133E+03</pdfrwt>
<totfact> 0.39417150E+05</totfact>
</mgrwt>
</event>
<event>
 6    1  0.4241465E-002  0.1285915E+03  0.7546771E-02  0.1229561E+00
         21   -1    0    0  503  502  0.00000000000E+00  0.00000000000E+00  0.25555439651E+03  0.25555439651E+03  0.00000000000E+00 0. -1.
         21   -1    0    0  504  503 -0.00000000000E+00 -0.00000000000E+00 -0.24705654149E+02  0.24705654149E+02  0.00000000000E+00 0. -1.
         25    2    1    2    0    0 -0.22767547298E+02  0.19845143758E+02  0.19115626268E+03  0.23038336388E+03  0.12499434647E+03 0.  0.
          5    1    3    3  501    0  0.28874710899E+02  0.57509171399E+02  0.10405111865E+03  0.12234254786E+03  0.10000000000E+00 0. -1.
         -5    1    3    3    0  501 -0.51642258197E+02 -0.37664027640E+02  0.87105144024E+02  0.10804081602E+03  0.10000000000E+00 0. -1.
         21    1    1    2  504  502  0.22767547298E+02 -0.19845143758E+02  0.39692479681E+02  0.49876686778E+02  0.00000000000E+00 0.  1.
<mgrwt>
<rscale>  1 0.12859151E+03</rscale>
<asrwt>0</asrwt>
<pdfrwt beam="1">  1       21 0.39316059E-01 0.12859151E+03</pdfrwt>
<pdfrwt beam="2">  1       21 0.38008700E-02 0.12859151E+03</pdfrwt>
<totfact> 0.26417641E+06</totfact>
</mgrwt>
</event>
<event>
 6    1  0.4241465E-002  0.1356340E+03  0.7546771E-02  0.1219328E+00
         21   -1    0    0  504  502  0.00000000000E+00  0.00000000000E+00  0.19093853739E+03  0.19093853739E+03  0.00000000000E+00 0. -1.
         21   -1    0    0  502  503 -0.00000000000E+00 -0.00000000000E+00 -0.54759885155E+02  0.54759885155E+02  0.00000000000E+00 0. -1.
         25    2    1    2    0    0  0.18921099293E+01  0.52637753145E+02  0.49721590205E+02  0.14446040246E+03  0.12498903236E+03 0.  0.
          5    1    3    3  501    0 -0.30496956266E+02 -0.30400114504E+02  0.31838347530E+02  0.53552980092E+02  0.10000000000E+00 0.  1.
         -5    1    3    3    0  501  0.32389066195E+02  0.83037867649E+02  0.17883242675E+02  0.90907422366E+02  0.10000000000E+00 0.  1.
         21    1    1    2  504  503 -0.18921099293E+01 -0.52637753145E+02  0.86457062034E+02  0.10123802009E+03  0.00000000000E+00 0.  1.
<mgrwt>
<rscale>  1 0.13563396E+03</rscale>
<asrwt>0</asrwt>
<pdfrwt beam="1">  1       21 0.29375159E-01 0.13563396E+03</pdfrwt>
<pdfrwt beam="2">  1       21 0.84245978E-02 0.13563396E+03</pdfrwt>
<totfact> 0.12172745E+06</totfact>
</mgrwt>
</event>
<event>
 6    1  0.4241465E-002  0.1306131E+03  0.7546771E-02  0.1226549E+00
         21   -1    0    0  504  502  0.00000000000E+00  0.00000000000E+00  0.36749056305E+02  0.36749056305E+02  0.00000000000E+00 0. -1.
         21   -1    0    0  502  503 -0.00000000000E+00 -0.00000000000E+00 -0.24012256395E+03  0.24012256395E+03  0.00000000000E+00 0. -1.
         25    2    1    2    0    0 -0.34525321071E+02 -0.15458636268E+02 -0.20002870466E+03  0.23889590515E+03  0.12501521340E+03 0.  0.
          5    1    3    3  501    0 -0.26716646115E+02 -0.62005346143E+02 -0.57258877317E+02  0.88527008091E+02  0.10000000000E+00 0.  1.
         -5    1    3    3    0  501 -0.78086749555E+01  0.46546709875E+02 -0.14276982734E+03  0.15036889706E+03  0.10000000000E+00 0.  1.
         21    1    1    2  504  503  0.34525321071E+02  0.15458636268E+02 -0.33448029851E+01  0.37975715100E+02  0.00000000000E+00 0. -1.
<mgrwt>
<rscale>  1 0.13061306E+03</rscale>
<asrwt>0</asrwt>
<pdfrwt beam="1">  1       21 0.56537012E-02 0.13061306E+03</pdfrwt>
<pdfrwt beam="2">  1       21 0.36941932E-01 0.13061306E+03</pdfrwt>
<totfact> 0.15388119E+06</totfact>
</mgrwt>
</event>
<event>
 6    1  0.4241465E-002  0.1260753E+03  0.7546771E-02  0.1233398E+00
         21   -1    0    0  503  502  0.00000000000E+00  0.00000000000E+00  0.12776972558E+03  0.12776972558E+03  0.00000000000E+00 0. -1.
         21   -1    0    0  504  503 -0.00000000000E+00 -0.00000000000E+00 -0.45933994476E+02  0.45933994476E+02  0.00000000000E+00 0. -1.
         25    2    1    2    0    0 -0.14365024747E+02 -0.80136111738E+01  0.45879841235E+02  0.13416389309E+03  0.12499767389E+03 0.  0.
          5    1    3    3  501    0 -0.50397127041E+02  0.32642918962E+02 -0.43135154688E+01  0.60200058040E+02  0.10000000000E+00 0. -1.
         -5    1    3    3    0  501  0.36032102294E+02 -0.40656530136E+02  0.50193356703E+02  0.73963835052E+02  0.10000000000E+00 0. -1.
         21    1    1    2  504  502  0.14365024747E+02  0.80136111738E+01  0.35955889869E+02  0.39539826963E+02  0.00000000000E+00 0. -1.
<mgrwt>
<rscale>  1 0.12607534E+03</rscale>
<asrwt>0</asrwt>
<pdfrwt beam="1">  1       21 0.19656881E-01 0.12607534E+03</pdfrwt>
<pdfrwt beam="2">  1       21 0.70667684E-02 0.12607534E+03</pdfrwt>
<totfact> 0.35039115E+06</totfact>
</mgrwt>
</event>
<event>
 6    1  0.4241465E-002  0.1429936E+03  0.7546771E-02  0.1209357E+00
         21   -1    0    0  503  502  0.00000000000E+00  0.00000000000E+00  0.65095398438E+02  0.65095398438E+02  0.00000000000E+00 0.  1.
         21   -1    0    0  504  503 -0.00000000000E+00 -0.00000000000E+00 -0.29865288573E+03  0.29865288573E+03  0.00000000000E+00 0.  1.
         25    2    1    2    0    0 -0.23572987205E+02 -0.65316359192E+02 -0.25389360930E+03  0.29139173393E+03  0.12500106101E+03 0.  0.
          5    1    3    3  501    0 -0.71310355220E+02 -0.16270688275E+02 -0.15146535575E+03  0.16820126650E+03  0.10000000000E+00 0.  1.
         -5    1    3    3    0  501  0.47737368014E+02 -0.49045670917E+02 -0.10242825355E+03  0.12319046743E+03  0.10000000000E+00 0.  1.
         21    1    1    2  504  502  0.23572987205E+02  0.65316359192E+02  0.20336122011E+02  0.72356550238E+02  0.00000000000E+00 0.  1.
<mgrwt>
<rscale>  1 0.14299363E+03</rscale>
<asrwt>0</asrwt>
<pdfrwt beam="1">  1       21 0.10014677E-01 0.14299363E+03</pdfrwt>
<pdfrwt beam="2">  1       21 0.45946598E-01 0.14299363E+03</pdfrwt>
<totfact> 0.37093678E+05</totfact>
</mgrwt>
</event>
<event>
 6    1  0.4241465E-002  0.1270606E+03  0.7546771E-02  0.1231884E+00
         21   -1    0    0  503  502  0.00000000000E+00  0.00000000000E+00  0.65967596115E+03  0.65967596115E+03  0.00000000000E+00 0. -1.
         21   -1    0    0  504  503 -0.00000000000E+00 -0.00000000000E+00 -0.11348855315E+02  0.11348855315E+02  0.00000000000E+00 0. -1.
         25    2    1    2    0    0  0.22690603039E+02 -0.21015933453E+01  0.35937489748E+03  0.38117544373E+03  0.12500048721E+03 0.  0.
          5    1    3    3  501    0  0.62030272637E+02 -0.37030645957E+02  0.17201072768E+03  0.18656560214E+03  0.10000000000E+00 0. -1.
         -5    1    3    3    0  501 -0.39339669598E+02  0.34929052612E+02  0.18736416980E+03  0.19460984159E+03  0.10000000000E+00 0. -1.
         21    1    1    2  504  502 -0.22690603039E+02  0.21015933453E+01  0.28895220835E+03  0.28984937273E+03  0.00000000000E+00 0. -1.
<mgrwt>
<rscale>  1 0.12706062E+03</rscale>
<asrwt>0</asrwt>
<pdfrwt beam="1">  1       21 0.10148858E+00 0.12706062E+03</pdfrwt>
<pdfrwt beam="2">  1       21 0.17459783E-02 0.12706062E+03</pdfrwt>
<totfact> 0.12211200E+06</totfact>
</mgrwt>
</event>
<event>
 6    1  0.4241465E-002  0.1259303E+03  0.7546771E-02  0.1233623E+00
         21   -1    0    0  503  502  0.00000000000E+00  0.00000000000E+00  0.78150144479E+02  0.78150144479E+02  0.00000000000E+00 0.  1.
         21   -1    0    0  504  503 -0.00000000000E+00 -0.00000000000E+00 -0.48016094854E+03  0.48016094854E+03  0.00000000000E+00 0.  1.
         25    2    1    2    0    0  0.44867824878E+01  0.14591588052E+02 -0.47105600441E+03  0.48759839721E+03  0.12500156805E+03 0.  0.
          5    1    3    3  501    0 -0.48557203642E+01  0.63295529702E+02 -0.36551603516E+03  0.37098771416E+03  0.10000000000E+00 0. -1.
         -5    1    3    3    0  501  0.93425028519E+01 -0.48703941651E+02 -0.10553996925E+03  0.11661068305E+03  0.10000000000E+00 0. -1.
         21    1    1    2  504  502 -0.44867824878E+01 -0.14591588052E+02  0.69045200342E+02  0.70712695814E+02  0.00000000000E+00 0.  1.
<mgrwt>
<rscale>  1 0.12593029E+03</rscale>
<asrwt>0</asrwt>
<pdfrwt beam="1">  1       21 0.12023099E-01 0.12593029E+03</pdfrwt>
<pdfrwt beam="2">  1       21 0.73870914E-01 0.12593029E+03</pdfrwt>
<totfact> 0.98811886E+04</totfact>
</mgrwt>
</event>
<event>
 6    1  0.4241465E-002  0.1260828E+03  0.7546771E-02  0.1233387E+00
         21   -1    0    0  504  502  0.00000000000E+00  0.00000000000E+00  0.32892688852E+02  0.32892688852E+02  0.00000000000E+00 0. -1.
         21   -1    0    0  502  503 -0.00000000000E+00 -0.00000000000E+00 -0.33302048231E+03  0.33302048231E+03  0.00000000000E+00 0. -1.
         25    2    1    2    0    0  0.57171685789E+01  0.15487466029E+02 -0.31769886616E+03  0.34180321023E+03  0.12499726934E+03 0.  0.
          5    1    3    3  501    0 -0.41965324389E+02  0.25790296290E+02 -0.26677246723E+03  0.27128174856E+03  0.10000000000E+00 0.  1.
         -5    1    3    3    0  501  0.47682492968E+02 -0.10302830261E+02 -0.50926398930E+02  0.70521461662E+02  0.10000000000E+00 0.  1.
         21    1    1    2  504  503 -0.57171685789E+01 -0.15487466029E+02  0.17571072698E+02  0.24109960936E+02  0.00000000000E+00 0. -1.
<mgrwt>
<rscale>  1 0.12608277E+03</rscale>
<asrwt>0</asrwt>
<pdfrwt beam="1">  1       21 0.50604133E-02 0.12608277E+03</pdfrwt>
<pdfrwt beam="2">  1       21 0.51233924E-01 0.12608277E+03</pdfrwt>
<totfact> 0.95683057E+05</totfact>
</mgrwt>
</event>
<event>
 6    1  0.4241465E-002  0.1295824E+03  0.7546771E-02  0.1228077E+00
         21   -1    0    0  504  502  0.00000000000E+00  0.00000000000E+00  0.13596272678E+03  0.13596272678E+03  0.00000000000E+00 0.  1.
         21   -1    0    0  502  503 -0.00000000000E+00 -0.00000000000E+00 -0.51228625440E+02  0.51228625440E+02  0.00000000000E+00 0.  1.
         25    2    1    2    0    0 -0.32328595762E+02 -0.11231301634E+02  0.51363101406E+02  0.13939068406E+03  0.12498125610E+03 0.  0.
          5    1    3    3  501    0 -0.67057222576E+02  0.22481724111E+02  0.56766150774E+02  0.90689056078E+02  0.10000000000E+00 0. -1.
         -5    1    3    3    0  501  0.34728626815E+02 -0.33713025745E+02 -0.54030493684E+01  0.48701627979E+02  0.10000000000E+00 0. -1.
         21    1    1    2  504  503  0.32328595762E+02  0.11231301634E+02  0.33370999937E+02  0.47800668166E+02  0.00000000000E+00 0.  1.
<mgrwt>
<rscale>  1 0.12958239E+03</rscale>
<asrwt>0</asrwt>
<pdfrwt beam="1">  1       21 0.20917342E-01 0.12958239E+03</pdfrwt>
<pdfrwt beam="2">  1       21 0.78813270E-02 0.12958239E+03</pdfrwt>
<totfact> 0.25925438E+06</totfact>
</mgrwt>
</event>
<event>
 6    1  0.4241465E-002  0.1261084E+03  0.7546771E-02  0.1233347E+00
         21   -1    0    0  504  502  0.00000000000E+00  0.00000000000E+00  0.71447102598E+02  0.71447102598E+02  0.00000000000E+00 0.  1.
         21   -1    0    0  502  503 -0.00000000000E+00 -0.00000000000E+00 -0.16235627152E+03  0.16235627152E+03  0.00000000000E+00 0.  1.
         25    2    1    2    0    0 -0.11759923221E+02 -0.12386824049E+02 -0.13606918830E+03  0.18552132203E+03  0.12494641940E+03 0.  0.
          5    1    3    3  501    0  0.55228978453E+02 -0.34206004904E+01 -0.82216837777E+02  0.99103778852E+02  0.10000000000E+00 0. -1.
         -5    1    3    3    0  501 -0.66988901674E+02 -0.89662235583E+01 -0.53852350519E+02  0.86417543178E+02  0.10000000000E+00 0. -1.
         21    1    1    2  504  503  0.11759923221E+02  0.12386824049E+02  0.45160019373E+02  0.48282052089E+02  0.00000000000E+00 0.  1.
<mgrwt>
<rscale>  1 0.12610843E+03</rscale>
<asrwt>0</asrwt>
<pdfrwt beam="1">  1       21 0.10991862E-01 0.12610843E+03</pdfrwt>
<pdfrwt beam="2">  1       21 0.24977888E-01 0.12610843E+03</pdfrwt>
<totfact> 0.10415909E+06</totfact>
</mgrwt>
</event>
<event>
 6    1  0.4241465E-002  0.1266076E+03  0.7546771E-02  0.1232578E+00
         21   -1    0    0  504  502  0.00000000000E+00  0.00000000000E+00  0.69233316924E+03  0.69233316924E+03  0.00000000000E+00 0.  1.
         21   -1    0    0  502  503 -0.00000000000E+00 -0.00000000000E+00 -0.15682786319E+02  0.15682786319E+02  0.00000000000E+00 0. -1.
         25    2    1    2    0    0  0.15430012350E+02  0.12863125429E+02  0.24393074826E+03  0.27483028232E+03  0.12500371538E+03 0.  0.
          5    1    3    3  501    0  0.56464480101E+02 -0.16651740249E+02  0.59905119458E+02  0.83988995134E+02  0.10000000000E+00 0. -1.
         -5    1    3    3    0  501 -0.41034467751E+02  0.29514865677E+02  0.18402562880E+03  0.19084128719E+03  0.10000000000E+00 0. -1.
         21    1    1    2  504  503 -0.15430012350E+02 -0.12863125429E+02  0.43271963466E+03  0.43318567324E+03  0.00000000000E+00 0.  1.
<mgrwt>
<rscale>  1 0.12660756E+03</rscale>
<asrwt>0</asrwt>
<pdfrwt beam="1">  1       21 0.10651277E+00 0.12660756E+03</pdfrwt>
<pdfrwt beam="2">  1       21 0.24127369E-02 0.12660756E+03</pdfrwt>
<totfact> 0.64617133E+05</totfact>
</mgrwt>
</event>
<event>
 6    1  0.4241465E-002  0.1267878E+03  0.7546771E-02  0.1232301E+00
         21   -1    0    0  503  502  0.00000000000E+00  0.00000000000E+00  0.38629522475E+03  0.38629522475E+03  0.00000000000E+00 0.  1.
         21   -1    0    0  504  503 -0.00000000000E+00 -0.00000000000E+00 -0.22635627332E+02  0.22635627332E+02  0.00000000000E+00 0.  1.
         25    2    1    2    0    0 -0.76533478238E+01  0.19790167884E+02  0.15988617720E+03  0.20405569188E+03  0.12499964501E+03 0.  0.
          5    1    3    3  501    0 -0.35034303570E+02 -0.31868756498E+02  0.18124005913E+02  0.50710054799E+02  0.10000000000E+00 0.  1.
         -5    1    3    3    0  501  0.27380955746E+02  0.51658924382E+02  0.14176217128E+03  0.15334563708E+03  0.10000000000E+00 0.  1.
         21    1    1    2  504  502  0.76533478238E+01 -0.19790167884E+02  0.20377342022E+03  0.20487516020E+03  0.00000000000E+00 0.  1.
<mgrwt>
<rscale>  1 0.12678776E+03</rscale>
<asrwt>0</asrwt>
<pdfrwt beam="1">  1       21 0.59430030E-01 0.12678776E+03</pdfrwt>
<pdfrwt beam="2">  1       21 0.34824045E-02 0.12678776E+03</pdfrwt>
<totfact> 0.13064188E+06</totfact>
</mgrwt>
</event>
<event>
 6    1  0.4241465E-002  0.1260298E+03  0.7546771E-02  0.1233469E+00
         21   -1    0    0  504  502  0.00000000000E+00  0.00000000000E+00  0.10204330986E+04  0.10204330986E+04  0.00000000000E+00 0. -1.
         21   -1    0    0  502  503 -0.00000000000E+00 -0.00000000000E+00 -0.55333522025E+01  0.55333522025E+01  0.00000000000E+00 0. -1.
         25    2    1    2    0    0 -0.10160102031E+02  0.12489833112E+02  0.74483428564E+03  0.75542148837E+03  0.12499715364E+03 0.  0.
          5    1    3    3  501    0 -0.20597479519E+02 -0.31172698042E+02  0.72236848803E+02  0.81327520501E+02  0.10000000000E+00 0.  1.
         -5    1    3    3    0  501  0.10437377488E+02  0.43662531154E+02  0.67259743683E+03  0.67409396786E+03  0.10000000000E+00 0.  1.
         21    1    1    2  504  503  0.10160102031E+02 -0.12489833112E+02  0.27006546077E+03  0.27054496245E+03  0.00000000000E+00 0.  1.
<mgrwt>
<rscale>  1 0.12602981E+03</rscale>
<asrwt>0</asrwt>
<pdfrwt beam="1">  1       21 0.15698956E+00 0.12602981E+03</pdfrwt>
<pdfrwt beam="2">  1       21 0.85128577E-03 0.12602981E+03</pdfrwt>
<totfact> 0.12961189E+06</totfact>
</mgrwt>
</event>
<event>
 6    1  0.4241465E-002  0.1306857E+03  0.7546771E-02  0.1226442E+00
         21   -1    0    0  504  502  0.00000000000E+00  0.00000000000E+00  0.40995855547E+03  0.40995855547E+03  0.00000000000E+00 0. -1.
         21   -1    0    0  502  503 -0.00000000000E+00 -0.00000000000E+00 -0.18006583617E+02  0.18006583617E+02  0.00000000000E+00 0. -1.
         25    2    1    2    0    0  0.10603008572E+02 -0.36614110369E+02  0.26596502312E+03  0.29633790741E+03  0.12500297986E+03 0.  0.
          5    1    3    3  501    0 -0.46182838952E+02 -0.17197003462E+02  0.42889936844E+02  0.65331066302E+02  0.10000000000E+00 0. -1.
         -5    1    3    3    0  501  0.56785847524E+02 -0.19417106906E+02  0.22307508628E+03  0.23100684110E+03  0.10000000000E+00 0. -1.
         21    1    1    2  504  503 -0.10603008572E+02  0.36614110369E+02  0.12598694873E+03  0.13162723168E+03  0.00000000000E+00 0. -1.
<mgrwt>
<rscale>  1 0.13068574E+03</rscale>
<asrwt>0</asrwt>
<pdfrwt beam="1">  1       21 0.63070540E-01 0.13068574E+03</pdfrwt>
<pdfrwt beam="2">  1       21 0.27702439E-02 0.13068574E+03</pdfrwt>
<totfact> 0.16766780E+06</totfact>
</mgrwt>
</event>
<event>
 6    1  0.4241465E-002  0.1412260E+03  0.7546771E-02  0.1211689E+00
         21   -1    0    0  503  502  0.00000000000E+00  0.00000000000E+00  0.44594111613E+02  0.44594111613E+02  0.00000000000E+00 0. -1.
         21   -1    0    0  504  503 -0.00000000000E+00 -0.00000000000E+00 -0.24229455943E+03  0.24229455943E+03  0.00000000000E+00 0. -1.
         25    2    1    2    0    0  0.25124641074E+02  0.60671144723E+02 -0.12151443328E+03  0.18630763803E+03  0.12503016876E+03 0.  0.
          5    1    3    3  501    0 -0.49238535126E+02  0.15695957693E+02 -0.63247005693E+02  0.81676129674E+02  0.10000000000E+00 0. -1.
         -5    1    3    3    0  501  0.74363176201E+02  0.44975187029E+02 -0.58267427588E+02  0.10463150836E+03  0.10000000000E+00 0. -1.
         21    1    1    2  504  502 -0.25124641074E+02 -0.60671144723E+02 -0.76186014534E+02  0.10058103301E+03  0.00000000000E+00 0. -1.
<mgrwt>
<rscale>  1 0.14122598E+03</rscale>
<asrwt>0</asrwt>
<pdfrwt beam="1">  1       21 0.68606327E-02 0.14122598E+03</pdfrwt>
<pdfrwt beam="2">  1       21 0.37276085E-01 0.14122598E+03</pdfrwt>
<totfact> 0.10885448E+06</totfact>
</mgrwt>
</event>
<event>
 6    1  0.4241465E-002  0.1259884E+03  0.7546771E-02  0.1233533E+00
         21   -1    0    0  504  502  0.00000000000E+00  0.00000000000E+00  0.29752795717E+02  0.29752795717E+02  0.00000000000E+00 0. -1.
         21   -1    0    0  502  503 -0.00000000000E+00 -0.00000000000E+00 -0.19007960690E+03  0.19007960690E+03  0.00000000000E+00 0. -1.
         25    2    1    2    0    0 -0.30481562267E+01  0.15439555844E+02 -0.16056429514E+03  0.20409303987E+03  0.12500161963E+03 0.  0.
          5    1    3    3  501    0  0.60494047118E+02  0.35707162120E+01 -0.88817505631E+02  0.10752134234E+03  0.10000000000E+00 0.  1.
         -5    1    3    3    0  501 -0.63542203345E+02  0.11868839632E+02 -0.71746789506E+02  0.96571697534E+02  0.10000000000E+00 0.  1.
         21    1    1    2  504  503  0.30481562267E+01 -0.15439555844E+02  0.23748395618E+00  0.15739362746E+02  0.00000000000E+00 0. -1.
<mgrwt>
<rscale>  1 0.12598840E+03</rscale>
<asrwt>0</asrwt>
<pdfrwt beam="1">  1       21 0.45773530E-02 0.12598840E+03</pdfrwt>
<pdfrwt beam="2">  1       21 0.29243017E-01 0.12598840E+03</pdfrwt>
<totfact> 0.34573899E+06</totfact>
</mgrwt>
</event>
<event>
 6    1  0.4241465E-002  0.1275140E+03  0.7546771E-02  0.1231192E+00
         21   -1    0    0  504  502  0.00000000000E+00  0.00000000000E+00  0.16314785479E+04  0.16314785479E+04  0.00000000000E+00 0.  1.
         21   -1    0    0  502  503 -0.00000000000E+00 -0.00000000000E+00 -0.80490464565E+01  0.80490464565E+01  0.00000000000E+00 0.  1.
         25    2    1    2    0    0 -0.24356842827E+02 -0.43584488033E+01  0.50585167278E+03  0.52167588013E+03  0.12509019622E+03 0.  0.
          5    1    3    3  501    0 -0.44480568588E+02  0.51245295426E+02  0.24660657234E+03  0.25577218928E+03  0.10000000000E+00 0.  1.
         -5    1    3    3    0  501  0.20123725761E+02 -0.55603744229E+02  0.25924510043E+03  0.26590369085E+03  0.10000000000E+00 0.  1.
         21    1    1    2  504  503  0.24356842827E+02  0.43584488033E+01  0.11175778287E+04  0.11178517142E+04  0.00000000000E+00 0.  1.
<mgrwt>
<rscale>  1 0.12751396E+03</rscale>
<asrwt>0</asrwt>
<pdfrwt beam="1">  1       21 0.25099644E+00 0.12751396E+03</pdfrwt>
<pdfrwt beam="2">  1       21 0.12383161E-02 0.12751396E+03</pdfrwt>
<totfact> 0.18310682E+05</totfact>
</mgrwt>
</event>
<event>
 6    1  0.4241465E-002  0.1280335E+03  0.7546771E-02  0.1230403E+00
         21   -1    0    0  504  502  0.00000000000E+00  0.00000000000E+00  0.22542527355E+02  0.22542527355E+02  0.00000000000E+00 0. -1.
         21   -1    0    0  502  503 -0.00000000000E+00 -0.00000000000E+00 -0.27612371591E+03  0.27612371591E+03  0.00000000000E+00 0. -1.
         25    2    1    2    0    0  0.75659841484E+01 -0.26634362740E+02 -0.18775914134E+03  0.22725773331E+03  0.12500379513E+03 0.  0.
          5    1    3    3  501    0 -0.43767524622E+02  0.26692842832E+02 -0.54507693703E+02  0.74827820648E+02  0.10000000000E+00 0.  1.
         -5    1    3    3    0  501  0.51333508770E+02 -0.53327205571E+02 -0.13325144764E+03  0.15242991266E+03  0.10000000000E+00 0.  1.
         21    1    1    2  504  503 -0.75659841484E+01  0.26634362740E+02 -0.65822047212E+02  0.71408509955E+02  0.00000000000E+00 0.  1.
<mgrwt>
<rscale>  1 0.12803352E+03</rscale>
<asrwt>0</asrwt>
<pdfrwt beam="1">  1       21 0.34680812E-02 0.12803352E+03</pdfrwt>
<pdfrwt beam="2">  1       21 0.42480571E-01 0.12803352E+03</pdfrwt>
<totfact> 0.26316455E+06</totfact>
</mgrwt>
</event>
<event>
 6    1  0.4241465E-002  0.1295069E+03  0.7546771E-02  0.1228189E+00
         21   -1    0    0  503  502  0.00000000000E+00  0.00000000000E+00  0.60719836365E+03  0.60719836365E+03  0.00000000000E+00 0.  1.
         21   -1    0    0  504  503 -0.00000000000E+00 -0.00000000000E+00 -0.52949591501E+03  0.52949591501E+03  0.00000000000E+00 0. -1.
         25    2    1    2    0    0  0.26509483596E+01 -0.33762398174E+02 -0.52109141766E+03  0.53694347926E+03  0.12500042924E+03 0.  0.
          5    1    3    3  501    0  0.52707375423E+02 -0.10624903330E+02 -0.40346694087E+03  0.40703382952E+03  0.10000000000E+00 0. -1.
         -5    1    3    3    0  501 -0.50056427064E+02 -0.23137494843E+02 -0.11762447678E+03  0.12990964974E+03  0.10000000000E+00 0. -1.
         21    1    1    2  504  502 -0.26509483596E+01  0.33762398174E+02  0.59879386630E+03  0.59975079939E+03  0.00000000000E+00 0.  1.
<mgrwt>
<rscale>  1 0.12950689E+03</rscale>
<asrwt>0</asrwt>
<pdfrwt beam="1">  1       21 0.93415133E-01 0.12950689E+03</pdfrwt>
<pdfrwt beam="2">  1       21 0.81460910E-01 0.12950689E+03</pdfrwt>
<totfact> 0.13652530E+03</totfact>
</mgrwt>
</event>
<event>
 6    1  0.4241465E-002  0.1259890E+03  0.7546771E-02  0.1233532E+00
         21   -1    0    0  503  502  0.00000000000E+00  0.00000000000E+00  0.33055029129E+02  0.33055029129E+02  0.00000000000E+00 0.  1.
         21   -1    0    0  504  503 -0.00000000000E+00 -0.00000000000E+00 -0.19335726610E+03  0.19335726610E+03  0.00000000000E+00 0.  1.
         25    2    1    2    0    0 -0.14342886995E+02  0.64148515997E+01 -0.16711560385E+03  0.20928656323E+03  0.12500548697E+03 0.  0.
          5    1    3    3  501    0 -0.56789259095E+02  0.36814118985E+02 -0.12524735272E+03  0.14236294696E+03  0.10000000000E+00 0. -1.
         -5    1    3    3    0  501  0.42446372100E+02 -0.30399267386E+02 -0.41868251128E+02  0.66923616269E+02  0.10000000000E+00 0. -1.
         21    1    1    2  504  502  0.14342886995E+02 -0.64148515997E+01  0.68133668724E+01  0.17125732000E+02  0.00000000000E+00 0.  1.
<mgrwt>
<rscale>  1 0.12598905E+03</rscale>
<asrwt>0</asrwt>
<pdfrwt beam="1">  1       21 0.50853890E-02 0.12598905E+03</pdfrwt>
<pdfrwt beam="2">  1       21 0.29747273E-01 0.12598905E+03</pdfrwt>
<totfact> 0.28045984E+06</totfact>
</mgrwt>
</event>
<event>
 6    1  0.4241465E-002  0.1261605E+03  0.7546771E-02  0.1233267E+00
         21   -1    0    0  504  502  0.00000000000E+00  0.00000000000E+00  0.56423334859E+03  0.56423334859E+03  0.00000000000E+00 0. -1.
         21   -1    0    0  502  503 -0.00000000000E+00 -0.00000000000E+00 -0.13611054095E+02  0.13611054095E+02  0.00000000000E+00 0. -1.
         25    2    1    2    0    0 -0.16151495720E+02  0.52871851023E+01  0.28495537472E+03  0.31163445282E+03  0.12501056542E+03 0.  0.
          5    1    3    3  501    0 -0.10337096019E+02 -0.24746642396E+02  0.18518812017E+01  0.26882918888E+02  0.10000000000E+00 0. -1.
         -5    1    3    3    0  501 -0.58143997005E+01  0.30033827498E+02  0.28310349351E+03  0.28475153393E+03  0.10000000000E+00 0. -1.
         21    1    1    2  504  503  0.16151495720E+02 -0.52871851023E+01  0.26566691978E+03  0.26620994986E+03  0.00000000000E+00 0. -1.
<mgrwt>
<rscale>  1 0.12616048E+03</rscale>
<asrwt>0</asrwt>
<pdfrwt beam="1">  1       21 0.86805112E-01 0.12616048E+03</pdfrwt>
<pdfrwt beam="2">  1       21 0.20940088E-02 0.12616048E+03</pdfrwt>
<totfact> 0.13067253E+06</totfact>
</mgrwt>
</event>
<event>
 6    1  0.4241465E-002  0.1260038E+03  0.7546771E-02  0.1233509E+00
         21   -1    0    0  504  502  0.00000000000E+00  0.00000000000E+00  0.29468713239E+04  0.29468713239E+04  0.00000000000E+00 0.  1.
         21   -1    0    0  502  503 -0.00000000000E+00 -0.00000000000E+00 -0.22919891764E+01  0.22919891764E+01  0.00000000000E+00 0.  1.
         25    2    1    2    0    0  0.15153320934E+02 -0.48556794367E+01  0.17712961165E+04  0.17757721971E+04  0.12499505231E+03 0.  0.
          5    1    3    3  501    0 -0.38700554371E+02 -0.85176141255E+01  0.22020372856E+03  0.22374086514E+03  0.10000000000E+00 0. -1.
         -5    1    3    3    0  501  0.53853875305E+02  0.36619346888E+01  0.15510923879E+04  0.15520313320E+04  0.10000000000E+00 0. -1.
         21    1    1    2  504  503 -0.15153320934E+02  0.48556794367E+01  0.11732832182E+04  0.11733911159E+04  0.00000000000E+00 0.  1.
<mgrwt>
<rscale>  1 0.12600382E+03</rscale>
<asrwt>0</asrwt>
<pdfrwt beam="1">  1       21 0.45336179E+00 0.12600382E+03</pdfrwt>
<pdfrwt beam="2">  1       21 0.35261608E-03 0.12600382E+03</pdfrwt>
<totfact> 0.82948043E+04</totfact>
</mgrwt>
</event>
<event>
 6    1  0.4241465E-002  0.1287864E+03  0.7546771E-02  0.1229268E+00
         21   -1    0    0  503  502  0.00000000000E+00  0.00000000000E+00  0.16269531567E+02  0.16269531567E+02  0.00000000000E+00 0.  1.
         21   -1    0    0  504  503 -0.00000000000E+00 -0.00000000000E+00 -0.48172522733E+03  0.48172522733E+03  0.00000000000E+00 0.  1.
         25    2    1    2    0    0 -0.53506776095E+01 -0.30509847716E+02 -0.43820673179E+03  0.45673961866E+03  0.12500583550E+03 0.  0.
          5    1    3    3  501    0  0.52643434579E+02 -0.32629547802E+02 -0.14227754607E+03  0.15517386606E+03  0.10000000000E+00 0. -1.
         -5    1    3    3    0  501 -0.57994112188E+02  0.21197000856E+01 -0.29592918572E+03  0.30156575259E+03  0.10000000000E+00 0. -1.
         21    1    1    2  504  502  0.53506776095E+01  0.30509847716E+02 -0.27248963980E+02  0.41255140244E+02  0.00000000000E+00 0.  1.
<mgrwt>
<rscale>  1 0.12878641E+03</rscale>
<asrwt>0</asrwt>
<pdfrwt beam="1">  1       21 0.25030046E-02 0.12878641E+03</pdfrwt>
<pdfrwt beam="2">  1       21 0.74111582E-01 0.12878641E+03</pdfrwt>
<totfact> 0.13933416E+06</totfact>
</mgrwt>
</event>
<event>
 6    1  0.4241465E-002  0.1294014E+03  0.7546771E-02  0.1228347E+00
         21   -1    0    0  504  502  0.00000000000E+00  0.00000000000E+00  0.11591828765E+03  0.11591828765E+03  0.00000000000E+00 0.  1.
         21   -1    0    0  502  503 -0.00000000000E+00 -0.00000000000E+00 -0.15044219266E+03  0.15044219266E+03  0.00000000000E+00 0.  1.
         25    2    1    2    0    0 -0.19417046094E+02  0.27258258264E+02 -0.11881096687E+03  0.17567231614E+03  0.12499872994E+03 0.  0.
          5    1    3    3  501    0 -0.20985897629E+02  0.75245247189E+02 -0.91964167790E+02  0.12066347120E+03  0.10000000000E+00 0. -1.
         -5    1    3    3    0  501  0.15688515357E+01 -0.47986988924E+02 -0.26846799079E+02  0.55008844943E+02  0.10000000000E+00 0. -1.
         21    1    1    2  504  503  0.19417046094E+02 -0.27258258264E+02  0.84287061866E+02  0.90688164170E+02  0.00000000000E+00 0.  1.
<mgrwt>
<rscale>  1 0.12940138E+03</rscale>
<asrwt>0</asrwt>
<pdfrwt beam="1">  1       21 0.17833583E-01 0.12940138E+03</pdfrwt>
<pdfrwt beam="2">  1       21 0.23144953E-01 0.12940138E+03</pdfrwt>
<totfact> 0.50487530E+05</totfact>
</mgrwt>
</event>
<event>
 6    1  0.4241465E-002  0.1401820E+03  0.7546771E-02  0.1213084E+00
         21   -1    0    0  504  502  0.00000000000E+00  0.00000000000E+00  0.84104375646E+02  0.84104375646E+02  0.00000000000E+00 0.  1.
         21   -1    0    0  502  503 -0.00000000000E+00 -0.00000000000E+00 -0.20133638362E+03  0.20133638362E+03  0.00000000000E+00 0.  1.
         25    2    1    2    0    0  0.21468533141E+02  0.59710036721E+02 -0.15706317555E+03  0.21052274868E+03  0.12499920080E+03 0.  0.
          5    1    3    3  501    0  0.95373905451E+01 -0.10046529899E+02  0.17406612303E+02  0.22246229642E+02  0.10000000000E+00 0. -1.
         -5    1    3    3    0  501  0.11931142596E+02  0.69756566620E+02 -0.17446978785E+03  0.18827651904E+03  0.10000000000E+00 0. -1.
         21    1    1    2  504  503 -0.21468533141E+02 -0.59710036721E+02  0.39831167569E+02  0.74918010587E+02  0.00000000000E+00 0.  1.
<mgrwt>
<rscale>  1 0.14018198E+03</rscale>
<asrwt>0</asrwt>
<pdfrwt beam="1">  1       21 0.12939135E-01 0.14018198E+03</pdfrwt>
<pdfrwt beam="2">  1       21 0.30974828E-01 0.14018198E+03</pdfrwt>
<totfact> 0.51675376E+05</totfact>
</mgrwt>
</event>
<event>
 6    1  0.4241465E-002  0.1375177E+03  0.7546771E-02  0.1216709E+00
         21   -1    0    0  504  502  0.00000000000E+00  0.00000000000E+00  0.52945895396E+03  0.52945895396E+03  0.00000000000E+00 0.  1.
         21   -1    0    0  502  503 -0.00000000000E+00 -0.00000000000E+00 -0.16313732891E+03  0.16313732891E+03  0.00000000000E+00 0. -1.
         25    2    1    2    0    0  0.27996307932E+02 -0.50003280711E+02 -0.13222093543E+03  0.19077080928E+03  0.12500801802E+03 0.  0.
          5    1    3    3  501    0 -0.19990940216E+02 -0.63083128288E+02 -0.12372784737E+03  0.14031289670E+03  0.10000000000E+00 0. -1.
         -5    1    3    3    0  501  0.47987248148E+02  0.13079847577E+02 -0.84930880613E+01  0.50457912584E+02  0.10000000000E+00 0. -1.
         21    1    1    2  504  503 -0.27996307932E+02  0.50003280711E+02  0.49854256047E+03  0.50182547359E+03  0.00000000000E+00 0.  1.
<mgrwt>
<rscale>  1 0.13751773E+03</rscale>
<asrwt>0</asrwt>
<pdfrwt beam="1">  1       21 0.81455223E-01 0.13751773E+03</pdfrwt>
<pdfrwt beam="2">  1       21 0.25098051E-01 0.13751773E+03</pdfrwt>
<totfact> 0.20569485E+04</totfact>
</mgrwt>
</event>
<event>
 6    1  0.4241465E-002  0.1301958E+03  0.7546771E-02  0.1227165E+00
         21   -1    0    0  504  502  0.00000000000E+00  0.00000000000E+00  0.50977161280E+02  0.50977161280E+02  0.00000000000E+00 0. -1.
         21   -1    0    0  502  503 -0.00000000000E+00 -0.00000000000E+00 -0.19925246585E+03  0.19925246585E+03  0.00000000000E+00 0.  1.
         25    2    1    2    0    0 -0.36167985731E+02  0.39866921070E+01 -0.16500186144E+03  0.21018222259E+03  0.12500774179E+03 0.  0.
          5    1    3    3  501    0 -0.74253438411E+02 -0.22297494091E+02 -0.13290585038E+03  0.15386593653E+03  0.10000000000E+00 0. -1.
         -5    1    3    3    0  501  0.38085452680E+02  0.26284186198E+02 -0.32096011064E+02  0.56316286065E+02  0.10000000000E+00 0. -1.
         21    1    1    2  504  503  0.36167985731E+02 -0.39866921070E+01  0.16726556869E+02  0.40047404541E+02  0.00000000000E+00 0. -1.
<mgrwt>
<rscale>  1 0.13019582E+03</rscale>
<asrwt>0</asrwt>
<pdfrwt beam="1">  1       21 0.78426403E-02 0.13019582E+03</pdfrwt>
<pdfrwt beam="2">  1       21 0.30654225E-01 0.13019582E+03</pdfrwt>
<totfact> 0.12680041E+06</totfact>
</mgrwt>
</event>
<event>
 6    1  0.4241465E-002  0.1331745E+03  0.7546771E-02  0.1222820E+00
         21   -1    0    0  504  502  0.00000000000E+00  0.00000000000E+00  0.16618401632E+04  0.16618401632E+04  0.00000000000E+00 0. -1.
         21   -1    0    0  502  503 -0.00000000000E+00 -0.00000000000E+00 -0.18182952420E+02  0.18182952420E+02  0.00000000000E+00 0. -1.
         25    2    1    2    0    0 -0.30510263573E+02  0.34331768326E+02  0.23114812666E+03  0.26676749146E+03  0.12500356612E+03 0.  0.
          5    1    3    3  501    0 -0.19093845614E+02 -0.29463611028E+02  0.18219754318E+03  0.18554954610E+03  0.10000000000E+00 0.  1.
         -5    1    3    3    0  501 -0.11416417958E+02  0.63795379354E+02  0.48950583472E+02  0.81217945358E+02  0.10000000000E+00 0.  1.
         21    1    1    2  504  503  0.30510263573E+02 -0.34331768326E+02  0.14125090842E+04  0.14132556242E+04  0.00000000000E+00 0. -1.
<mgrwt>
<rscale>  1 0.13317446E+03</rscale>
<asrwt>0</asrwt>
<pdfrwt beam="1">  1       21 0.25566760E+00 0.13317446E+03</pdfrwt>
<pdfrwt beam="2">  1       21 0.27973786E-02 0.13317446E+03</pdfrwt>
<totfact> 0.46110437E+04</totfact>
</mgrwt>
</event>
<event>
 6    1  0.4241465E-002  0.1284740E+03  0.7546771E-02  0.1229738E+00
         21   -1    0    0  504  502  0.00000000000E+00  0.00000000000E+00  0.13133769379E+03  0.13133769379E+03  0.00000000000E+00 0.  1.
         21   -1    0    0  502  503 -0.00000000000E+00 -0.00000000000E+00 -0.26619914625E+03  0.26619914625E+03  0.00000000000E+00 0.  1.
         25    2    1    2    0    0  0.71913920349E+01 -0.28815574964E+02 -0.24868073234E+03  0.27990656353E+03  0.12499409662E+03 0.  0.
          5    1    3    3  501    0  0.31647053108E+02 -0.20592956809E+02 -0.89659708927E+01  0.38807273476E+02  0.10000000000E+00 0.  1.
         -5    1    3    3    0  501 -0.24455661073E+02 -0.82226181553E+01 -0.23971476145E+03  0.24109929005E+03  0.10000000000E+00 0.  1.
         21    1    1    2  504  503 -0.71913920349E+01  0.28815574964E+02  0.11381927988E+03  0.11763027651E+03  0.00000000000E+00 0.  1.
<mgrwt>
<rscale>  1 0.12847403E+03</rscale>
<asrwt>0</asrwt>
<pdfrwt beam="1">  1       21 0.20205799E-01 0.12847403E+03</pdfrwt>
<pdfrwt beam="2">  1       21 0.40953715E-01 0.12847403E+03</pdfrwt>
<totfact> 0.13292921E+05</totfact>
</mgrwt>
</event>
<event>
 6    1  0.4241465E-002  0.1525739E+03  0.7546771E-02  0.1197345E+00
         21   -1    0    0  503  502  0.00000000000E+00  0.00000000000E+00  0.36849752020E+03  0.36849752020E+03  0.00000000000E+00 0.  1.
         21   -1    0    0  504  503 -0.00000000000E+00 -0.00000000000E+00 -0.51793609336E+03  0.51793609336E+03  0.00000000000E+00 0.  1.
         25    2    1    2    0    0  0.84729082433E+02 -0.21783580121E+02 -0.50122486587E+03  0.52393238942E+03  0.12500096298E+03 0.  0.
          5    1    3    3  501    0  0.26144502318E+02 -0.71230097949E+02 -0.25491582028E+03  0.26596869606E+03  0.10000000000E+00 0.  1.
         -5    1    3    3    0  501  0.58584580115E+02  0.49446517828E+02 -0.24630904559E+03  0.25796369336E+03  0.10000000000E+00 0.  1.
         21    1    1    2  504  502 -0.84729082433E+02  0.21783580121E+02  0.35178629270E+03  0.36250122414E+03  0.00000000000E+00 0.  1.
<mgrwt>
<rscale>  1 0.15257386E+03</rscale>
<asrwt>0</asrwt>
<pdfrwt beam="1">  1       21 0.56691926E-01 0.15257386E+03</pdfrwt>
<pdfrwt beam="2">  1       21 0.79682476E-01 0.15257386E+03</pdfrwt>
<totfact> 0.42034857E+03</totfact>
</mgrwt>
</event>
<event>
 6    1  0.4241465E-002  0.1427870E+03  0.7546771E-02  0.1209627E+00
         21   -1    0    0  503  502  0.00000000000E+00  0.00000000000E+00  0.59293604316E+02  0.59293604316E+02  0.00000000000E+00 0. -1.
         21   -1    0    0  504  503 -0.00000000000E+00 -0.00000000000E+00 -0.19744224214E+03  0.19744224214E+03  0.00000000000E+00 0. -1.
         25    2    1    2    0    0 -0.25288141458E+02 -0.64207744182E+02 -0.11688172948E+03  0.18452500308E+03  0.12500405419E+03 0.  0.
          5    1    3    3  501    0  0.26329162410E+01 -0.90954472606E+02 -0.11384536617E+03  0.14574095421E+03  0.10000000000E+00 0.  1.
         -5    1    3    3    0  501 -0.27921057699E+02  0.26746728423E+02 -0.30363633041E+01  0.38784048867E+02  0.10000000000E+00 0.  1.
         21    1    1    2  504  502  0.25288141458E+02  0.64207744182E+02 -0.21266908351E+02  0.72210843384E+02  0.00000000000E+00 0. -1.
<mgrwt>
<rscale>  1 0.14278704E+03</rscale>
<asrwt>0</asrwt>
<pdfrwt beam="1">  1       21 0.91220930E-02 0.14278704E+03</pdfrwt>
<pdfrwt beam="2">  1       21 0.30375730E-01 0.14278704E+03</pdfrwt>
<totfact> 0.99410470E+05</totfact>
</mgrwt>
</event>
<event>
 6    1  0.4241465E-002  0.1281083E+03  0.7546771E-02  0.1230290E+00
         21   -1    0    0  504  502  0.00000000000E+00  0.00000000000E+00  0.24377528842E+02  0.24377528842E+02  0.00000000000E+00 0. -1.
         21   -1    0    0  502  503 -0.00000000000E+00 -0.00000000000E+00 -0.42920784332E+03  0.42920784332E+03  0.00000000000E+00 0. -1.
         25    2    1    2    0    0  0.12254426083E+02  0.25294188640E+02 -0.40571994272E+03  0.42546494585E+03  0.12498712448E+03 0.  0.
          5    1    3    3  501    0  0.52756374662E+02  0.55887431866E+02 -0.26232869866E+03  0.27335507357E+03  0.10000000000E+00 0. -1.
         -5    1    3    3    0  501 -0.40501948579E+02 -0.30593243226E+02 -0.14339124406E+03  0.15210987228E+03  0.10000000000E+00 0. -1.
         21    1    1    2  504  503 -0.12254426083E+02 -0.25294188640E+02  0.88962824536E+00  0.28120426312E+02  0.00000000000E+00 0. -1.
<mgrwt>
<rscale>  1 0.12810835E+03</rscale>
<asrwt>0</asrwt>
<pdfrwt beam="1">  1       21 0.37503892E-02 0.12810835E+03</pdfrwt>
<pdfrwt beam="2">  1       21 0.66031973E-01 0.12810835E+03</pdfrwt>
<totfact> 0.92270540E+05</totfact>
</mgrwt>
</event>
<event>
 6    1  0.4241465E-002  0.1299065E+03  0.7546771E-02  0.1227595E+00
         21   -1    0    0  504  502  0.00000000000E+00  0.00000000000E+00  0.56842306371E+02  0.56842306371E+02  0.00000000000E+00 0.  1.
         21   -1    0    0  502  503 -0.00000000000E+00 -0.00000000000E+00 -0.12872410608E+03  0.12872410608E+03  0.00000000000E+00 0.  1.
         25    2    1    2    0    0  0.52042111283E+01  0.34997178777E+02 -0.75076341161E+02  0.15004048627E+03  0.12499521663E+03 0.  0.
          5    1    3    3  501    0 -0.31836138722E+02  0.13548171335E+01  0.23431310669E+02  0.39552643121E+02  0.10000000000E+00 0.  1.
         -5    1    3    3    0  501  0.37040349850E+02  0.33642361644E+02 -0.98507651830E+02  0.11048784315E+03  0.10000000000E+00 0.  1.
         21    1    1    2  504  503 -0.52042111283E+01 -0.34997178777E+02  0.31945414560E+01  0.35525926180E+02  0.00000000000E+00 0.  1.
<mgrwt>
<rscale>  1 0.12990647E+03</rscale>
<asrwt>0</asrwt>
<pdfrwt beam="1">  1       21 0.87449704E-02 0.12990647E+03</pdfrwt>
<pdfrwt beam="2">  1       21 0.19803708E-01 0.12990647E+03</pdfrwt>
<totfact> 0.23973449E+06</totfact>
</mgrwt>
</event>
<event>
 6    1  0.4241465E-002  0.1264859E+03  0.7546771E-02  0.1232765E+00
         21   -1    0    0  504  502  0.00000000000E+00  0.00000000000E+00  0.55606103402E+03  0.55606103402E+03  0.00000000000E+00 0. -1.
         21   -1    0    0  502  503 -0.00000000000E+00 -0.00000000000E+00 -0.10018859121E+02  0.10018859121E+02  0.00000000000E+00 0. -1.
         25    2    1    2    0    0 -0.13477404965E+02  0.13879986004E+02  0.42233617890E+03  0.44087019742E+03  0.12499755402E+03 0.  0.
          5    1    3    3  501    0 -0.55774024810E+02 -0.30664043548E+02  0.18199611224E+03  0.19280461686E+03  0.10000000000E+00 0. -1.
         -5    1    3    3    0  501  0.42296619845E+02  0.44544029553E+02  0.24034006666E+03  0.24806558057E+03  0.10000000000E+00 0. -1.
         21    1    1    2  504  503  0.13477404965E+02 -0.13879986004E+02  0.12370599600E+03  0.12520969572E+03  0.00000000000E+00 0. -1.
<mgrwt>
<rscale>  1 0.12648590E+03</rscale>
<asrwt>0</asrwt>
<pdfrwt beam="1">  1       21 0.85547827E-01 0.12648590E+03</pdfrwt>
<pdfrwt beam="2">  1       21 0.15413634E-02 0.12648590E+03</pdfrwt>
<totfact> 0.22096617E+06</totfact>
</mgrwt>
</event>
<event>
 6    1  0.4241465E-002  0.1265697E+03  0.7546771E-02  0.1232636E+00
         21   -1    0    0  504  502  0.00000000000E+00  0.00000000000E+00  0.89052190508E+02  0.89052190508E+02  0.00000000000E+00 0. -1.
         21   -1    0    0  502  503 -0.00000000000E+00 -0.00000000000E+00 -0.13896185857E+03  0.13896185857E+03  0.00000000000E+00 0. -1.
         25    2    1    2    0    0  0.14861303600E+01  0.19796145487E+02 -0.10815071446E+03  0.16648263072E+03  0.12500317329E+03 0.  0.
          5    1    3    3  501    0 -0.60576550518E+02  0.15900057088E+02 -0.68080713500E+02  0.92505804351E+02  0.10000000000E+00 0. -1.
         -5    1    3    3    0  501  0.62062680878E+02  0.38960883989E+01 -0.40070000963E+02  0.73976826369E+02  0.10000000000E+00 0. -1.
         21    1    1    2  504  503 -0.14861303600E+01 -0.19796145487E+02  0.58241046399E+02  0.61531418359E+02  0.00000000000E+00 0. -1.
<mgrwt>
<rscale>  1 0.12656970E+03</rscale>
<asrwt>0</asrwt>
<pdfrwt beam="1">  1       21 0.13700337E-01 0.12656970E+03</pdfrwt>
<pdfrwt beam="2">  1       21 0.21378747E-01 0.12656970E+03</pdfrwt>
<totfact> 0.94330673E+05</totfact>
</mgrwt>
</event>
<event>
 6    1  0.4241465E-002  0.1278819E+03  0.7546771E-02  0.1230633E+00
         21   -1    0    0  503  502  0.00000000000E+00  0.00000000000E+00  0.17787371754E+02  0.17787371754E+02  0.00000000000E+00 0.  1.
         21   -1    0    0  504  503 -0.00000000000E+00 -0.00000000000E+00 -0.36453816570E+03  0.36453816570E+03  0.00000000000E+00 0.  1.
         25    2    1    2    0    0 -0.22139564998E+02 -0.15442614134E+02 -0.31868304193E+03  0.34338412796E+03  0.12500057383E+03 0.  0.
          5    1    3    3  501    0 -0.40914350000E+02 -0.63916206542E+02 -0.18708391967E+03  0.20189023873E+03  0.10000000000E+00 0. -1.
         -5    1    3    3    0  501  0.18774785001E+02  0.48473592409E+02 -0.13159912225E+03  0.14149388923E+03  0.10000000000E+00 0. -1.
         21    1    1    2  504  502  0.22139564998E+02  0.15442614134E+02 -0.28067752024E+02  0.38941409493E+02  0.00000000000E+00 0. -1.
<mgrwt>
<rscale>  1 0.12788189E+03</rscale>
<asrwt>0</asrwt>
<pdfrwt beam="1">  1       21 0.27365187E-02 0.12788189E+03</pdfrwt>
<pdfrwt beam="2">  1       21 0.56082796E-01 0.12788189E+03</pdfrwt>
<totfact> 0.21933088E+06</totfact>
</mgrwt>
</event>
<event>
 6    1  0.4241465E-002  0.1312909E+03  0.7546771E-02  0.1225553E+00
         21   -1    0    0  503  502  0.00000000000E+00  0.00000000000E+00  0.61307500022E+02  0.61307500022E+02  0.00000000000E+00 0. -1.
         21   -1    0    0  504  503 -0.00000000000E+00 -0.00000000000E+00 -0.40185105368E+03  0.40185105368E+03  0.00000000000E+00 0.  1.
         25    2    1    2    0    0  0.39506284088E+02  0.71678080489E+01 -0.38290743742E+03  0.40479056074E+03  0.12500067390E+03 0.  0.
          5    1    3    3  501    0 -0.61972848170E+01 -0.36457369320E+02 -0.34086174288E+02  0.50293373266E+02  0.10000000000E+00 0. -1.
         -5    1    3    3    0  501  0.45703568905E+02  0.43625177369E+02 -0.34882126313E+03  0.35449718747E+03  0.10000000000E+00 0. -1.
         21    1    1    2  504  502 -0.39506284088E+02 -0.71678080489E+01  0.42363883767E+02  0.58367992963E+02  0.00000000000E+00 0. -1.
<mgrwt>
<rscale>  1 0.13129087E+03</rscale>
<asrwt>0</asrwt>
<pdfrwt beam="1">  1       21 0.94319232E-02 0.13129087E+03</pdfrwt>
<pdfrwt beam="2">  1       21 0.61823238E-01 0.13129087E+03</pdfrwt>
<totfact> 0.22221454E+05</totfact>
</mgrwt>
</event>
<event>
 6    1  0.4241465E-002  0.1370040E+03  0.7546771E-02  0.1217418E+00
         21   -1    0    0  503  502  0.00000000000E+00  0.00000000000E+00  0.67759897551E+02  0.67759897551E+02  0.00000000000E+00 0.  1.
         21   -1    0    0  504  503 -0.00000000000E+00 -0.00000000000E+00 -0.13757758957E+03  0.13757758957E+03  0.00000000000E+00 0.  1.
         25    2    1    2    0    0 -0.31202653990E+02 -0.46596544594E+02 -0.50898031397E+02  0.14615305384E+03  0.12500104785E+03 0.  0.
          5    1    3    3  501    0 -0.69664300258E+02  0.23823810743E+01 -0.46356440897E+02  0.83712126258E+02  0.10000000000E+00 0. -1.
         -5    1    3    3    0  501  0.38461646268E+02 -0.48978925668E+02 -0.45415904998E+01  0.62440927584E+02  0.10000000000E+00 0. -1.
         21    1    1    2  504  502  0.31202653990E+02  0.46596544594E+02 -0.18919660617E+02  0.59184433274E+02  0.00000000000E+00 0.  1.
<mgrwt>
<rscale>  1 0.13700403E+03</rscale>
<asrwt>0</asrwt>
<pdfrwt beam="1">  1       21 0.10424600E-01 0.13700403E+03</pdfrwt>
<pdfrwt beam="2">  1       21 0.21165783E-01 0.13700403E+03</pdfrwt>
<totfact> 0.15614370E+06</totfact>
</mgrwt>
</event>
<event>
 6    1  0.4241465E-002  0.1386142E+03  0.7546771E-02  0.1215206E+00
         21   -1    0    0  504  502  0.00000000000E+00  0.00000000000E+00  0.13299723387E+03  0.13299723387E+03  0.00000000000E+00 0.  1.
         21   -1    0    0  502  503 -0.00000000000E+00 -0.00000000000E+00 -0.77834141745E+02  0.77834141745E+02  0.00000000000E+00 0.  1.
         25    2    1    2    0    0 -0.47260343617E+02 -0.36809408454E+02  0.59340763765E+02  0.15078201617E+03  0.12500167009E+03 0.  0.
          5    1    3    3  501    0  0.35423732541E+02 -0.99192161018E+01  0.51766377376E+02  0.63505901315E+02  0.10000000000E+00 0. -1.
         -5    1    3    3    0  501 -0.82684076157E+02 -0.26890192353E+02  0.75743863890E+01  0.87276114854E+02  0.10000000000E+00 0. -1.
         21    1    1    2  504  503  0.47260343617E+02  0.36809408454E+02 -0.41776716412E+01  0.60049359446E+02  0.00000000000E+00 0.  1.
<mgrwt>
<rscale>  1 0.13861418E+03</rscale>
<asrwt>0</asrwt>
<pdfrwt beam="1">  1       21 0.20461113E-01 0.13861418E+03</pdfrwt>
<pdfrwt beam="2">  1       21 0.11974483E-01 0.13861418E+03</pdfrwt>
<totfact> 0.13021237E+06</totfact>
</mgrwt>
</event>
<event>
 6    1  0.4241465E-002  0.1258983E+03  0.7546771E-02  0.1233672E+00
         21   -1    0    0  504  502  0.00000000000E+00  0.00000000000E+00  0.59328355824E+02  0.59328355824E+02  0.00000000000E+00 0. -1.
         21   -1    0    0  502  503 -0.00000000000E+00 -0.00000000000E+00 -0.97018742163E+02  0.97018742163E+02  0.00000000000E+00 0. -1.
         25    2    1    2    0    0  0.90894277656E+00  0.15024048877E+02 -0.51401199009E+02  0.13598697506E+03  0.12499530353E+03 0.  0.
          5    1    3    3  501    0  0.12977597319E+02  0.68584518161E+02 -0.37986519485E+02  0.79468483225E+02  0.10000000000E+00 0. -1.
         -5    1    3    3    0  501 -0.12068654542E+02 -0.53560469284E+02 -0.13414679524E+02  0.56518491833E+02  0.10000000000E+00 0. -1.
         21    1    1    2  504  503 -0.90894277656E+00 -0.15024048877E+02  0.13710812670E+02  0.20360122929E+02  0.00000000000E+00 0.  1.
<mgrwt>
<rscale>  1 0.12589827E+03</rscale>
<asrwt>0</asrwt>
<pdfrwt beam="1">  1       21 0.91274394E-02 0.12589827E+03</pdfrwt>
<pdfrwt beam="2">  1       21 0.14925960E-01 0.12589827E+03</pdfrwt>
<totfact> 0.37224742E+06</totfact>
</mgrwt>
</event>
<event>
 6    1  0.4241465E-002  0.1262403E+03  0.7546771E-02  0.1233144E+00
         21   -1    0    0  504  502  0.00000000000E+00  0.00000000000E+00  0.63930415903E+02  0.63930415903E+02  0.00000000000E+00 0. -1.
         21   -1    0    0  502  503 -0.00000000000E+00 -0.00000000000E+00 -0.89381520533E+02  0.89381520533E+02  0.00000000000E+00 0. -1.
         25    2    1    2    0    0  0.14718201486E+02  0.98434702574E+01 -0.37737685245E+02  0.13176015171E+03  0.12499234108E+03 0.  0.
          5    1    3    3  501    0 -0.11408221429E+02  0.48066912290E+02 -0.62171040128E+02  0.79409217373E+02  0.10000000000E+00 0. -1.
         -5    1    3    3    0  501  0.26126422914E+02 -0.38223442033E+02  0.24433354883E+02  0.52350934337E+02  0.10000000000E+00 0. -1.
         21    1    1    2  504  503 -0.14718201486E+02 -0.98434702574E+01  0.12286580615E+02  0.21551784726E+02  0.00000000000E+00 0. -1.
<mgrwt>
<rscale>  1 0.12624027E+03</rscale>
<asrwt>0</asrwt>
<pdfrwt beam="1">  1       21 0.98354486E-02 0.12624027E+03</pdfrwt>
<pdfrwt beam="2">  1       21 0.13751003E-01 0.12624027E+03</pdfrwt>
<totfact> 0.37868760E+06</totfact>
</mgrwt>
</event>
<event>
 6    1  0.4241465E-002  0.1597069E+03  0.7546771E-02  0.1189028E+00
         21   -1    0    0  503  502  0.00000000000E+00  0.00000000000E+00  0.18632304658E+03  0.18632304658E+03  0.00000000000E+00 0. -1.
         21   -1    0    0  504  503 -0.00000000000E+00 -0.00000000000E+00 -0.90178323721E+02  0.90178323721E+02  0.00000000000E+00 0. -1.
         25    2    1    2    0    0  0.50800670254E+02  0.85436922400E+02  0.54808555146E+02  0.16884982796E+03  0.12500444343E+03 0.  0.
          5    1    3    3  501    0  0.70896560583E+02  0.49586427786E+02 -0.15032992501E+02  0.87813079815E+02  0.10000000000E+00 0.  1.
         -5    1    3    3    0  501 -0.20095890328E+02  0.35850494615E+02  0.69841547648E+02  0.81036748146E+02  0.10000000000E+00 0.  1.
         21    1    1    2  504  502 -0.50800670254E+02 -0.85436922400E+02  0.41336167715E+02  0.10765154234E+03  0.00000000000E+00 0. -1.
<mgrwt>
<rscale>  1 0.15970688E+03</rscale>
<asrwt>0</asrwt>
<pdfrwt beam="1">  1       21 0.28665084E-01 0.15970688E+03</pdfrwt>
<pdfrwt beam="2">  1       21 0.13873588E-01 0.15970688E+03</pdfrwt>
<totfact> 0.52898538E+05</totfact>
</mgrwt>
</event>
<event>
 6    1  0.4241465E-002  0.1300048E+03  0.7546771E-02  0.1227449E+00
         21   -1    0    0  503  502  0.00000000000E+00  0.00000000000E+00  0.25268147806E+03  0.25268147806E+03  0.00000000000E+00 0. -1.
         21   -1    0    0  504  503 -0.00000000000E+00 -0.00000000000E+00 -0.41882106790E+03  0.41882106790E+03  0.00000000000E+00 0. -1.
         25    2    1    2    0    0 -0.29019870636E+02 -0.20806260925E+02 -0.40738657279E+03  0.42762724961E+03  0.12500476605E+03 0.  0.
          5    1    3    3  501    0 -0.40598644540E+02 -0.12628009318E+02 -0.35273990454E+02  0.55244736947E+02  0.10000000000E+00 0. -1.
         -5    1    3    3    0  501  0.11578773904E+02 -0.81782516070E+01 -0.37211258234E+03  0.37238251267E+03  0.10000000000E+00 0. -1.
         21    1    1    2  504  502  0.29019870636E+02  0.20806260925E+02  0.24124698295E+03  0.24387529635E+03  0.00000000000E+00 0. -1.
<mgrwt>
<rscale>  1 0.13000479E+03</rscale>
<asrwt>0</asrwt>
<pdfrwt beam="1">  1       21 0.38874074E-01 0.13000479E+03</pdfrwt>
<pdfrwt beam="2">  1       21 0.64434010E-01 0.13000479E+03</pdfrwt>
<totfact> 0.14810333E+04</totfact>
</mgrwt>
</event>
<event>
 6    1  0.4241465E-002  0.1302589E+03  0.7546771E-02  0.1227072E+00
         21   -1    0    0  503  502  0.00000000000E+00  0.00000000000E+00  0.81707201716E+02  0.81707201716E+02  0.00000000000E+00 0.  1.
         21   -1    0    0  504  503 -0.00000000000E+00 -0.00000000000E+00 -0.10935897734E+03  0.10935897734E+03  0.00000000000E+00 0.  1.
         25    2    1    2    0    0 -0.80357772236E+01 -0.35750339966E+02 -0.58855112647E+02  0.14293813354E+03  0.12499890085E+03 0.  0.
          5    1    3    3  501    0  0.46681088290E+01 -0.78930210324E+02 -0.57753805956E+02  0.97914664092E+02  0.10000000000E+00 0.  1.
         -5    1    3    3    0  501 -0.12703886053E+02  0.43179870358E+02 -0.11013066908E+01  0.45023469451E+02  0.10000000000E+00 0.  1.
         21    1    1    2  504  502  0.80357772236E+01  0.35750339966E+02  0.31203337024E+02  0.48128045512E+02  0.00000000000E+00 0. -1.
<mgrwt>
<rscale>  1 0.13025892E+03</rscale>
<asrwt>0</asrwt>
<pdfrwt beam="1">  1       21 0.12570339E-01 0.13025892E+03</pdfrwt>
<pdfrwt beam="2">  1       21 0.16824458E-01 0.13025892E+03</pdfrwt>
<totfact> 0.17097405E+06</totfact>
</mgrwt>
</event>
<event>
 6    1  0.4241465E-002  0.1267695E+03  0.7546771E-02  0.1232329E+00
         21   -1    0    0  504  502  0.00000000000E+00  0.00000000000E+00  0.14218450676E+03  0.14218450676E+03  0.00000000000E+00 0. -1.
         21   -1    0    0  502  503 -0.00000000000E+00 -0.00000000000E+00 -0.43250866438E+02  0.43250866438E+02  0.00000000000E+00 0. -1.
         25    2    1    2    0    0 -0.12918140993E+02  0.16705156014E+02  0.58067970655E+02  0.13943598666E+03  0.12499825821E+03 0.  0.
          5    1    3    3  501    0 -0.36100234418E+02  0.29649432715E+02  0.87873529732E+02  0.99519259508E+02  0.10000000000E+00 0.  1.
         -5    1    3    3    0  501  0.23182093425E+02 -0.12944276700E+02 -0.29805559078E+02  0.39916727155E+02  0.10000000000E+00 0.  1.
         21    1    1    2  504  503  0.12918140993E+02 -0.16705156014E+02  0.40865669669E+02  0.45999386536E+02  0.00000000000E+00 0.  1.
<mgrwt>
<rscale>  1 0.12676950E+03</rscale>
<asrwt>0</asrwt>
<pdfrwt beam="1">  1       21 0.21874539E-01 0.12676950E+03</pdfrwt>
<pdfrwt beam="2">  1       21 0.66539795E-02 0.12676950E+03</pdfrwt>
<totfact> 0.31857251E+06</totfact>
</mgrwt>
</event>
<event>
 6    1  0.4241465E-002  0.1847595E+03  0.7546771E-02  0.1163275E+00
         21   -1    0    0  504  502  0.00000000000E+00  0.00000000000E+00  0.60952495239E+03  0.60952495239E+03  0.00000000000E+00 0. -1.
         21   -1    0    0  502  503 -0.00000000000E+00 -0.00000000000E+00 -0.11917051222E+03  0.11917051222E+03  0.00000000000E+00 0.  1.
         25    2    1    2    0    0 -0.12812429839E+03 -0.45745082258E+02 -0.33230793789E+02  0.18772416630E+03  0.12501051383E+03 0.  0.
          5    1    3    3  501    0 -0.91792472693E+02 -0.68210844608E+02  0.23458161009E+02  0.11674276287E+03  0.10000000000E+00 0. -1.
         -5    1    3    3    0  501 -0.36331825694E+02  0.22465762350E+02 -0.56688954798E+02  0.70981403426E+02  0.10000000000E+00 0. -1.
         21    1    1    2  504  503  0.12812429839E+03  0.45745082258E+02  0.52358523396E+03  0.54097129832E+03  0.00000000000E+00 0. -1.
<mgrwt>
<rscale>  1 0.18475951E+03</rscale>
<asrwt>0</asrwt>
<pdfrwt beam="1">  1       21 0.93773068E-01 0.18475951E+03</pdfrwt>
<pdfrwt beam="2">  1       21 0.18333925E-01 0.18475951E+03</pdfrwt>
<totfact> 0.26031741E+04</totfact>
</mgrwt>
</event>
<event>
 6    1  0.4241465E-002  0.1716281E+03  0.7546771E-02  0.1176161E+00
         21   -1    0    0  503  502  0.00000000000E+00  0.00000000000E+00  0.14356281601E+03  0.14356281601E+03  0.00000000000E+00 0. -1.
         21   -1    0    0  504  503 -0.00000000000E+00 -0.00000000000E+00 -0.21285322740E+03  0.21285322740E+03  0.00000000000E+00 0. -1.
         25    2    1    2    0    0 -0.87112176374E+02  0.79011170780E+02 -0.13798368832E+03  0.22021742860E+03  0.12499968494E+03 0.  0.
          5    1    3    3  501    0  0.22738676778E+02  0.91975157366E+01  0.68746279330E+01  0.25473755643E+02  0.10000000000E+00 0.  1.
         -5    1    3    3    0  501 -0.10985085315E+03  0.69813655043E+02 -0.14485831625E+03  0.19474367295E+03  0.10000000000E+00 0.  1.
         21    1    1    2  504  502  0.87112176374E+02 -0.79011170780E+02  0.68693276937E+02  0.13619861481E+03  0.00000000000E+00 0. -1.
<mgrwt>
<rscale>  1 0.17162814E+03</rscale>
<asrwt>0</asrwt>
<pdfrwt beam="1">  1       21 0.22086587E-01 0.17162814E+03</pdfrwt>
<pdfrwt beam="2">  1       21 0.32746651E-01 0.17162814E+03</pdfrwt>
<totfact> 0.17309654E+05</totfact>
</mgrwt>
</event>
<event>
 6    1  0.4241465E-002  0.1259622E+03  0.7546771E-02  0.1233573E+00
         21   -1    0    0  504  502  0.00000000000E+00  0.00000000000E+00  0.18306961566E+02  0.18306961566E+02  0.00000000000E+00 0.  1.
         21   -1    0    0  502  503 -0.00000000000E+00 -0.00000000000E+00 -0.27646215068E+03  0.27646215068E+03  0.00000000000E+00 0.  1.
         25    2    1    2    0    0  0.74430698189E+01 -0.13649035392E+02 -0.21900910271E+03  0.25264890882E+03  0.12499915442E+03 0.  0.
          5    1    3    3  501    0  0.13338785754E+02 -0.48556107913E+02 -0.26481836964E+02  0.56893905738E+02  0.10000000000E+00 0.  1.
         -5    1    3    3    0  501 -0.58957159347E+01  0.34907072522E+02 -0.19252726574E+03  0.19575500308E+03  0.10000000000E+00 0.  1.
         21    1    1    2  504  503 -0.74430698189E+01  0.13649035392E+02 -0.39146086406E+02  0.42120203422E+02  0.00000000000E+00 0.  1.
<mgrwt>
<rscale>  1 0.12596223E+03</rscale>
<asrwt>0</asrwt>
<pdfrwt beam="1">  1       21 0.28164554E-02 0.12596223E+03</pdfrwt>
<pdfrwt beam="2">  1       21 0.42532642E-01 0.12596223E+03</pdfrwt>
<totfact> 0.36927402E+06</totfact>
</mgrwt>
</event>
<event>
 6    1  0.4241465E-002  0.1260169E+03  0.7546771E-02  0.1233488E+00
         21   -1    0    0  503  502  0.00000000000E+00  0.00000000000E+00  0.12131399890E+03  0.12131399890E+03  0.00000000000E+00 0. -1.
         21   -1    0    0  504  503 -0.00000000000E+00 -0.00000000000E+00 -0.41835893285E+02  0.41835893285E+02  0.00000000000E+00 0. -1.
         25    2    1    2    0    0 -0.36705201740E+00  0.15957867940E+02  0.65976209849E+02  0.14224320747E+03  0.12500192611E+03 0.  0.
          5    1    3    3  501    0  0.24093295631E+01  0.43398224243E+02  0.93604991113E+02  0.10320423973E+03  0.10000000000E+00 0. -1.
         -5    1    3    3    0  501 -0.27763815805E+01 -0.27440356303E+02 -0.27628781264E+02  0.39038967748E+02  0.10000000000E+00 0. -1.
         21    1    1    2  504  502  0.36705201740E+00 -0.15957867940E+02  0.13501895770E+02  0.20906684715E+02  0.00000000000E+00 0. -1.
<mgrwt>
<rscale>  1 0.12601694E+03</rscale>
<asrwt>0</asrwt>
<pdfrwt beam="1">  1       21 0.18663692E-01 0.12601694E+03</pdfrwt>
<pdfrwt beam="2">  1       21 0.64362914E-02 0.12601694E+03</pdfrwt>
<totfact> 0.45209242E+06</totfact>
</mgrwt>
</event>
<event>
 6    1  0.4241465E-002  0.1458251E+03  0.7546771E-02  0.1205699E+00
         21   -1    0    0  504  502  0.00000000000E+00  0.00000000000E+00  0.37462385822E+03  0.37462385822E+03  0.00000000000E+00 0. -1.
         21   -1    0    0  502  503 -0.00000000000E+00 -0.00000000000E+00 -0.46710718996E+03  0.46710718996E+03  0.00000000000E+00 0. -1.
         25    2    1    2    0    0 -0.74976084006E+02  0.44302563667E+01 -0.45174713898E+03  0.47470036344E+03  0.12499566844E+03 0.  0.
          5    1    3    3  501    0  0.13346640993E+01  0.46647057765E+02 -0.77834641247E+02  0.90752249033E+02  0.10000000000E+00 0. -1.
         -5    1    3    3    0  501 -0.76310748105E+02 -0.42216801398E+02 -0.37391249773E+03  0.38394811441E+03  0.10000000000E+00 0. -1.
         21    1    1    2  504  503  0.74976084006E+02 -0.44302563667E+01  0.35926380725E+03  0.36703068474E+03  0.00000000000E+00 0. -1.
<mgrwt>
<rscale>  1 0.14582509E+03</rscale>
<asrwt>0</asrwt>
<pdfrwt beam="1">  1       21 0.57634440E-01 0.14582509E+03</pdfrwt>
<pdfrwt beam="2">  1       21 0.71862645E-01 0.14582509E+03</pdfrwt>
<totfact> 0.51376789E+03</totfact>
</mgrwt>
</event>
<event>
 6    1  0.4241465E-002  0.1260569E+03  0.7546771E-02  0.1233427E+00
         21   -1    0    0  503  502  0.00000000000E+00  0.00000000000E+00  0.21134631860E+03  0.21134631860E+03  0.00000000000E+00 0. -1.
         21   -1    0    0  504  503 -0.00000000000E+00 -0.00000000000E+00 -0.14427254120E+04  0.14427254120E+04  0.00000000000E+00 0.  1.
         25    2    1    2    0    0 -0.16245285768E+02 -0.48933123997E+00 -0.14396546938E+04  0.14451629600E+04  0.12500477967E+03 0.  0.
          5    1    3    3  501    0  0.35420227606E+02 -0.44531767888E+02 -0.55593619217E+03  0.55884052344E+03  0.10000000000E+00 0.  1.
         -5    1    3    3    0  501 -0.51665513374E+02  0.44042436648E+02 -0.88371850158E+03  0.88632243655E+03  0.10000000000E+00 0.  1.
         21    1    1    2  504  502  0.16245285768E+02  0.48933123997E+00  0.20827560032E+03  0.20890877063E+03  0.00000000000E+00 0. -1.
<mgrwt>
<rscale>  1 0.12605691E+03</rscale>
<asrwt>0</asrwt>
<pdfrwt beam="1">  1       21 0.32514817E-01 0.12605691E+03</pdfrwt>
<pdfrwt beam="2">  1       21 0.22195776E+00 0.12605691E+03</pdfrwt>
<totfact> 0.97816779E+02</totfact>
</mgrwt>
</event>
<event>
 6    1  0.4241465E-002  0.1298221E+03  0.7546771E-02  0.1227720E+00
         21   -1    0    0  503  502  0.00000000000E+00  0.00000000000E+00  0.47596131592E+03  0.47596131592E+03  0.00000000000E+00 0. -1.
         21   -1    0    0  504  503 -0.00000000000E+00 -0.00000000000E+00 -0.17295175127E+02  0.17295175127E+02  0.00000000000E+00 0. -1.
         25    2    1    2    0    0  0.90040080364E+01 -0.33876281577E+02  0.25031754357E+03  0.28197986532E+03  0.12500038885E+03 0.  0.
          5    1    3    3  501    0 -0.16218965262E+02  0.44522097721E+02  0.86649769708E+02  0.98759630467E+02  0.10000000000E+00 0.  1.
         -5    1    3    3    0  501  0.25222973298E+02 -0.78398379298E+02  0.16366777386E+03  0.18322023486E+03  0.10000000000E+00 0.  1.
         21    1    1    2  504  502 -0.90040080364E+01  0.33876281577E+02  0.20834859722E+03  0.21127662573E+03  0.00000000000E+00 0. -1.
<mgrwt>
<rscale>  1 0.12982208E+03</rscale>
<asrwt>0</asrwt>
<pdfrwt beam="1">  1       21 0.73224808E-01 0.12982208E+03</pdfrwt>
<pdfrwt beam="2">  1       21 0.26607965E-02 0.12982208E+03</pdfrwt>
<totfact> 0.12951716E+06</totfact>
</mgrwt>
</event>
<event>
 6    1  0.4241465E-002  0.1391892E+03  0.7546771E-02  0.1214424E+00
         21   -1    0    0  504  502  0.00000000000E+00  0.00000000000E+00  0.37406708122E+02  0.37406708122E+02  0.00000000000E+00 0.  1.
         21   -1    0    0  502  503 -0.00000000000E+00 -0.00000000000E+00 -0.11314786621E+04  0.11314786621E+04  0.00000000000E+00 0.  1.
         25    2    1    2    0    0  0.59793571614E+02  0.13238336212E+02 -0.10986884673E+04  0.11074700875E+04  0.12499248725E+03 0.  0.
          5    1    3    3  501    0  0.57762036767E+02  0.60569879744E+02 -0.50446014654E+03  0.51135624829E+03  0.10000000000E+00 0.  1.
         -5    1    3    3    0  501  0.20315348462E+01 -0.47331543532E+02 -0.59422832075E+03  0.59611383924E+03  0.10000000000E+00 0.  1.
         21    1    1    2  504  503 -0.59793571614E+02 -0.13238336212E+02  0.46165133193E+01  0.61415282684E+02  0.00000000000E+00 0.  1.
<mgrwt>
<rscale>  1 0.13918925E+03</rscale>
<asrwt>0</asrwt>
<pdfrwt beam="1">  1       21 0.57548788E-02 0.13918925E+03</pdfrwt>
<pdfrwt beam="2">  1       21 0.17407362E+00 0.13918925E+03</pdfrwt>
<totfact> 0.43842375E+04</totfact>
</mgrwt>
</event>
<event>
 6    1  0.4241465E-002  0.1330484E+03  0.7546771E-02  0.1223001E+00
         21   -1    0    0  503  502  0.00000000000E+00  0.00000000000E+00  0.40306410803E+03  0.40306410803E+03  0.00000000000E+00 0. -1.
         21   -1    0    0  504  503 -0.00000000000E+00 -0.00000000000E+00 -0.13179633718E+03  0.13179633718E+03  0.00000000000E+00 0. -1.
         25    2    1    2    0    0 -0.12388045576E+02 -0.43853466175E+02 -0.96449607221E+02  0.16433020313E+03  0.12500119503E+03 0.  0.
          5    1    3    3  501    0  0.18151598462E+01 -0.26969620500E+02  0.27424373698E+02  0.38506642387E+02  0.10000000000E+00 0. -1.
         -5    1    3    3    0  501 -0.14203205422E+02 -0.16883845675E+02 -0.12387398092E+03  0.12582356074E+03  0.10000000000E+00 0. -1.
         21    1    1    2  504  502  0.12388045576E+02  0.43853466175E+02  0.36771737807E+03  0.37053024209E+03  0.00000000000E+00 0. -1.
<mgrwt>
<rscale>  1 0.13304845E+03</rscale>
<asrwt>0</asrwt>
<pdfrwt beam="1">  1       21 0.62009862E-01 0.13304845E+03</pdfrwt>
<pdfrwt beam="2">  1       21 0.20276360E-01 0.13304845E+03</pdfrwt>
<totfact> 0.55895064E+04</totfact>
</mgrwt>
</event>
<event>
 6    1  0.4241465E-002  0.1262822E+03  0.7546771E-02  0.1233079E+00
         21   -1    0    0  503  502  0.00000000000E+00  0.00000000000E+00  0.37375350912E+03  0.37375350912E+03  0.00000000000E+00 0.  1.
         21   -1    0    0  504  503 -0.00000000000E+00 -0.00000000000E+00 -0.14065477446E+02  0.14065477446E+02  0.00000000000E+00 0.  1.
         25    2    1    2    0    0  0.17823424334E+02 -0.22002689066E+01  0.30020964697E+03  0.32568852797E+03  0.12499867791E+03 0.  0.
          5    1    3    3  501    0 -0.19575001960E+01  0.60299986265E+02  0.15676417032E+03  0.16797301940E+03  0.10000000000E+00 0.  1.
         -5    1    3    3    0  501  0.19780924530E+02 -0.62500255172E+02  0.14344547665E+03  0.15771550856E+03  0.10000000000E+00 0.  1.
         21    1    1    2  504  502 -0.17823424334E+02  0.22002689066E+01  0.59478384709E+02  0.62130458600E+02  0.00000000000E+00 0. -1.
<mgrwt>
<rscale>  1 0.12628216E+03</rscale>
<asrwt>0</asrwt>
<pdfrwt beam="1">  1       21 0.57500532E-01 0.12628216E+03</pdfrwt>
<pdfrwt beam="2">  1       21 0.21639199E-02 0.12628216E+03</pdfrwt>
<totfact> 0.30468852E+06</totfact>
</mgrwt>
</event>
<event>
 6    1  0.4241465E-002  0.1438461E+03  0.7546771E-02  0.1208246E+00
         21   -1    0    0  504  502  0.00000000000E+00  0.00000000000E+00  0.61665709040E+02  0.61665709040E+02  0.00000000000E+00 0. -1.
         21   -1    0    0  502  503 -0.00000000000E+00 -0.00000000000E+00 -0.38191048737E+03  0.38191048737E+03  0.00000000000E+00 0. -1.
         25    2    1    2    0    0  0.37827765407E+02  0.60300633521E+02 -0.34044080383E+03  0.36958305021E+03  0.12499833540E+03 0.  0.
          5    1    3    3  501    0 -0.44533522813E+02  0.58908413164E+01 -0.97324269061E+02  0.10719123105E+03  0.10000000000E+00 0. -1.
         -5    1    3    3    0  501  0.82361288220E+02  0.54409792204E+02 -0.24311653477E+03  0.26239181916E+03  0.10000000000E+00 0. -1.
         21    1    1    2  504  503 -0.37827765407E+02 -0.60300633521E+02  0.20196025499E+02  0.73993146200E+02  0.00000000000E+00 0. -1.
<mgrwt>
<rscale>  1 0.14384606E+03</rscale>
<asrwt>0</asrwt>
<pdfrwt beam="1">  1       21 0.94870319E-02 0.14384606E+03</pdfrwt>
<pdfrwt beam="2">  1       21 0.58755461E-01 0.14384606E+03</pdfrwt>
<totfact> 0.24439275E+05</totfact>
</mgrwt>
</event>
<event>
 6    1  0.4241465E-002  0.1357471E+03  0.7546771E-02  0.1219169E+00
         21   -1    0    0  503  502  0.00000000000E+00  0.00000000000E+00  0.92180845069E+02  0.92180845069E+02  0.00000000000E+00 0.  1.
         21   -1    0    0  504  503 -0.00000000000E+00 -0.00000000000E+00 -0.41600112694E+03  0.41600112694E+03  0.00000000000E+00 0.  1.
         25    2    1    2    0    0 -0.52389999229E+02  0.77603902343E+01 -0.39602033069E+03  0.41863989964E+03  0.12498930984E+03 0.  0.
          5    1    3    3  501    0 -0.26867994357E+02 -0.32359513406E+02 -0.35620318333E+02  0.55116642739E+02  0.10000000000E+00 0. -1.
         -5    1    3    3    0  501 -0.25522004872E+02  0.40119903640E+02 -0.36040001236E+03  0.36352325690E+03  0.10000000000E+00 0. -1.
         21    1    1    2  504  502  0.52389999229E+02 -0.77603902343E+01  0.72200048815E+02  0.89542072373E+02  0.00000000000E+00 0.  1.
<mgrwt>
<rscale>  1 0.13574706E+03</rscale>
<asrwt>0</asrwt>
<pdfrwt beam="1">  1       21 0.14181668E-01 0.13574706E+03</pdfrwt>
<pdfrwt beam="2">  1       21 0.64000174E-01 0.13574706E+03</pdfrwt>
<totfact> 0.10013121E+05</totfact>
</mgrwt>
</event>
<event>
 6    1  0.4241465E-002  0.1277103E+03  0.7546771E-02  0.1230893E+00
         21   -1    0    0  503  502  0.00000000000E+00  0.00000000000E+00  0.25035899067E+02  0.25035899067E+02  0.00000000000E+00 0. -1.
         21   -1    0    0  504  503 -0.00000000000E+00 -0.00000000000E+00 -0.24857162927E+03  0.24857162927E+03  0.00000000000E+00 0. -1.
         25    2    1    2    0    0  0.26185223564E+02  0.15267237195E+01 -0.20486382374E+03  0.24141068207E+03  0.12498773669E+03 0.  0.
          5    1    3    3  501    0  0.10076139008E+02 -0.61468218851E+02 -0.10978463716E+03  0.12622419365E+03  0.10000000000E+00 0.  1.
         -5    1    3    3    0  501  0.16109084556E+02  0.62994942570E+02 -0.95079186574E+02  0.11518648842E+03  0.10000000000E+00 0.  1.
         21    1    1    2  504  502 -0.26185223564E+02 -0.15267237195E+01 -0.18671906465E+02  0.32196846266E+02  0.00000000000E+00 0. -1.
<mgrwt>
<rscale>  1 0.12771034E+03</rscale>
<asrwt>0</asrwt>
<pdfrwt beam="1">  1       21 0.38516770E-02 0.12771034E+03</pdfrwt>
<pdfrwt beam="2">  1       21 0.38241787E-01 0.12771034E+03</pdfrwt>
<totfact> 0.27300806E+06</totfact>
</mgrwt>
</event>
<event>
 6    1  0.4241465E-002  0.1283461E+03  0.7546771E-02  0.1229931E+00
         21   -1    0    0  504  502  0.00000000000E+00  0.00000000000E+00  0.58428731173E+01  0.58428731173E+01  0.00000000000E+00 0.  1.
         21   -1    0    0  502  503 -0.00000000000E+00 -0.00000000000E+00 -0.13470131632E+04  0.13470131632E+04  0.00000000000E+00 0.  1.
         25    2    1    2    0    0 -0.28327435792E+02  0.66942265897E+01 -0.12619075126E+04  0.12684176317E+04  0.12500184656E+03 0.  0.
          5    1    3    3  501    0 -0.31599840575E+02  0.31231709422E+02 -0.15522514007E+03  0.16145842718E+03  0.10000000000E+00 0.  1.
         -5    1    3    3    0  501  0.32724047837E+01 -0.24537482832E+02 -0.11066823726E+04  0.11069592045E+04  0.10000000000E+00 0.  1.
         21    1    1    2  504  503  0.28327435792E+02 -0.66942265897E+01 -0.79262777492E+02  0.84438404674E+02  0.00000000000E+00 0.  1.
<mgrwt>
<rscale>  1 0.12834609E+03</rscale>
<asrwt>0</asrwt>
<pdfrwt beam="1">  1       21 0.89890345E-03 0.12834609E+03</pdfrwt>
<pdfrwt beam="2">  1       21 0.20723282E+00 0.12834609E+03</pdfrwt>
<totfact> 0.55073134E+05</totfact>
</mgrwt>
</event>
<event>
 6    1  0.4241465E-002  0.1258994E+03  0.7546771E-02  0.1233670E+00
         21   -1    0    0  503  502  0.00000000000E+00  0.00000000000E+00  0.42128287592E+03  0.42128287592E+03  0.00000000000E+00 0.  1.
         21   -1    0    0  504  503 -0.00000000000E+00 -0.00000000000E+00 -0.10341509412E+03  0.10341509412E+03  0.00000000000E+00 0.  1.
         25    2    1    2    0    0  0.78673881335E+01 -0.12794473673E+02 -0.64895121772E+02  0.14164048779E+03  0.12500022640E+03 0.  0.
          5    1    3    3  501    0  0.12100390052E+02 -0.63427735675E+02 -0.63865294711E+02  0.90820058141E+02  0.10000000000E+00 0. -1.
         -5    1    3    3    0  501 -0.42330019183E+01  0.50633262002E+02 -0.10298270614E+01  0.50820429652E+02  0.10000000000E+00 0. -1.
         21    1    1    2  504  502 -0.78673881335E+01  0.12794473673E+02  0.38276290357E+03  0.38305748225E+03  0.00000000000E+00 0.  1.
<mgrwt>
<rscale>  1 0.12589937E+03</rscale>
<asrwt>0</asrwt>
<pdfrwt beam="1">  1       21 0.64812749E-01 0.12589937E+03</pdfrwt>
<pdfrwt beam="2">  1       21 0.15910015E-01 0.12589937E+03</pdfrwt>
<totfact> 0.79538344E+04</totfact>
</mgrwt>
</event>
<event>
 6    1  0.4241465E-002  0.1322762E+03  0.7546771E-02  0.1224117E+00
         21   -1    0    0  504  502  0.00000000000E+00  0.00000000000E+00  0.20883347184E+03  0.20883347184E+03  0.00000000000E+00 0. -1.
         21   -1    0    0  502  503 -0.00000000000E+00 -0.00000000000E+00 -0.60715057445E+02  0.60715057445E+02  0.00000000000E+00 0. -1.
         25    2    1    2    0    0 -0.36704676287E+02  0.22911395640E+02  0.19323901843E+02  0.13368024095E+03  0.12499931330E+03 0.  0.
          5    1    3    3  501    0 -0.38691375503E+02  0.72600869389E+02  0.78237489638E+01  0.82638549251E+02  0.10000000000E+00 0.  1.
         -5    1    3    3    0  501  0.19866992167E+01 -0.49689473750E+02  0.11500152879E+02  0.51041691699E+02  0.10000000000E+00 0.  1.
         21    1    1    2  504  503  0.36704676287E+02 -0.22911395640E+02  0.12879451255E+03  0.13586828833E+03  0.00000000000E+00 0. -1.
<mgrwt>
<rscale>  1 0.13227620E+03</rscale>
<asrwt>0</asrwt>
<pdfrwt beam="1">  1       21 0.32128226E-01 0.13227620E+03</pdfrwt>
<pdfrwt beam="2">  1       21 0.93407782E-02 0.13227620E+03</pdfrwt>
<totfact> 0.85529311E+05</totfact>
</mgrwt>
</event>
<event>
 6    1  0.4241465E-002  0.1341390E+03  0.7546771E-02  0.1221440E+00
         21   -1    0    0  503  502  0.00000000000E+00  0.00000000000E+00  0.15389885141E+03  0.15389885141E+03  0.00000000000E+00 0.  1.
         21   -1    0    0  504  503 -0.00000000000E+00 -0.00000000000E+00 -0.54784604530E+02  0.54784604530E+02  0.00000000000E+00 0.  1.
         25    2    1    2    0    0  0.12012312323E+02  0.47161864818E+02  0.63707224386E+02  0.14849878694E+03  0.12499896857E+03 0.  0.
          5    1    3    3  501    0 -0.17102998815E+02 -0.36372924031E+02  0.40462020194E+02  0.57032335120E+02  0.10000000000E+00 0.  1.
         -5    1    3    3    0  501  0.29115311138E+02  0.83534788849E+02  0.23245204192E+02  0.91466451821E+02  0.10000000000E+00 0.  1.
         21    1    1    2  504  502 -0.12012312323E+02 -0.47161864818E+02  0.35407022492E+02  0.60184668997E+02  0.00000000000E+00 0.  1.
<mgrwt>
<rscale>  1 0.13413903E+03</rscale>
<asrwt>0</asrwt>
<pdfrwt beam="1">  1       21 0.23676746E-01 0.13413903E+03</pdfrwt>
<pdfrwt beam="2">  1       21 0.84284008E-02 0.13413903E+03</pdfrwt>
<totfact> 0.18333253E+06</totfact>
</mgrwt>
</event>
<event>
 6    1  0.4241465E-002  0.1574776E+03  0.7546771E-02  0.1191574E+00
         21   -1    0    0  503  502  0.00000000000E+00  0.00000000000E+00  0.45061843009E+03  0.45061843009E+03  0.00000000000E+00 0. -1.
         21   -1    0    0  504  503 -0.00000000000E+00 -0.00000000000E+00 -0.11347282910E+03  0.11347282910E+03  0.00000000000E+00 0. -1.
         25    2    1    2    0    0  0.83827246623E+02 -0.46327278510E+02 -0.50039001311E+02  0.16523647324E+03  0.12500386564E+03 0.  0.
          5    1    3    3  501    0  0.16619616436E+02  0.39135567227E+02 -0.35803478319E+02  0.55585099913E+02  0.10000000000E+00 0. -1.
         -5    1    3    3    0  501  0.67207630187E+02 -0.85462845737E+02 -0.14235522993E+02  0.10965137332E+03  0.10000000000E+00 0. -1.
         21    1    1    2  504  502 -0.83827246623E+02  0.46327278510E+02  0.38718460231E+03  0.39885478595E+03  0.00000000000E+00 0. -1.
<mgrwt>
<rscale>  1 0.15747759E+03</rscale>
<asrwt>0</asrwt>
<pdfrwt beam="1">  1       21 0.69325911E-01 0.15747759E+03</pdfrwt>
<pdfrwt beam="2">  1       21 0.17457359E-01 0.15747759E+03</pdfrwt>
<totfact> 0.57192749E+04</totfact>
</mgrwt>
</event>
<event>
 6    1  0.4241465E-002  0.1315641E+03  0.7546771E-02  0.1225153E+00
         21   -1    0    0  504  502  0.00000000000E+00  0.00000000000E+00  0.11582777646E+04  0.11582777646E+04  0.00000000000E+00 0. -1.
         21   -1    0    0  502  503 -0.00000000000E+00 -0.00000000000E+00 -0.10969852897E+02  0.10969852897E+02  0.00000000000E+00 0. -1.
         25    2    1    2    0    0 -0.16662316898E+02 -0.37501408979E+02  0.40557372511E+03  0.42637912843E+03  0.12500050474E+03 0.  0.
          5    1    3    3  501    0 -0.39342791362E+01 -0.12694409323E+02  0.39698069113E+03  0.39720310386E+03  0.10000000000E+00 0.  1.
         -5    1    3    3    0  501 -0.12728037762E+02 -0.24806999656E+02  0.85930339750E+01  0.29176024577E+02  0.10000000000E+00 0.  1.
         21    1    1    2  504  503  0.16662316898E+02  0.37501408979E+02  0.74173418660E+03  0.74286848907E+03  0.00000000000E+00 0. -1.
<mgrwt>
<rscale>  1 0.13156411E+03</rscale>
<asrwt>0</asrwt>
<pdfrwt beam="1">  1       21 0.17819648E+00 0.13156411E+03</pdfrwt>
<pdfrwt beam="2">  1       21 0.16876706E-02 0.13156411E+03</pdfrwt>
<totfact> 0.31102670E+05</totfact>
</mgrwt>
</event>
<event>
 6    1  0.4241465E-002  0.1263033E+03  0.7546771E-02  0.1233046E+00
         21   -1    0    0  503  502  0.00000000000E+00  0.00000000000E+00  0.41489025581E+02  0.41489025581E+02  0.00000000000E+00 0.  1.
         21   -1    0    0  504  503 -0.00000000000E+00 -0.00000000000E+00 -0.12589059863E+03  0.12589059863E+03  0.00000000000E+00 0.  1.
         25    2    1    2    0    0 -0.16088361126E+02 -0.82112094658E+01 -0.76499394044E+02  0.14766405276E+03  0.12500502335E+03 0.  0.
          5    1    3    3  501    0 -0.64405801640E+02  0.75396716403E+01 -0.12665679332E+02  0.66071047867E+02  0.10000000000E+00 0.  1.
         -5    1    3    3    0  501  0.48317440514E+02 -0.15750881106E+02 -0.63833714712E+02  0.81593004893E+02  0.10000000000E+00 0.  1.
         21    1    1    2  504  502  0.16088361126E+02  0.82112094658E+01 -0.79021790022E+01  0.19715571450E+02  0.00000000000E+00 0.  1.
<mgrwt>
<rscale>  1 0.12630327E+03</rscale>
<asrwt>0</asrwt>
<pdfrwt beam="1">  1       21 0.63829272E-02 0.12630327E+03</pdfrwt>
<pdfrwt beam="2">  1       21 0.19367784E-01 0.12630327E+03</pdfrwt>
<totfact> 0.42839838E+06</totfact>
</mgrwt>
</event>
<event>
 6    1  0.4241465E-002  0.1274305E+03  0.7546771E-02  0.1231319E+00
         21   -1    0    0  503  502  0.00000000000E+00  0.00000000000E+00  0.94303616341E+02  0.94303616341E+02  0.00000000000E+00 0. -1.
         21   -1    0    0  504  503 -0.00000000000E+00 -0.00000000000E+00 -0.67007965481E+02  0.67007965481E+02  0.00000000000E+00 0. -1.
         25    2    1    2    0    0  0.74455307746E+01 -0.23602272633E+02  0.42607979648E+01  0.12750170679E+03  0.12500411046E+03 0.  0.
          5    1    3    3  501    0  0.13191802942E+01  0.50523294943E+02  0.14111920208E+02  0.52473801658E+02  0.10000000000E+00 0.  1.
         -5    1    3    3    0  501  0.61263504804E+01 -0.74125567576E+02 -0.98511222436E+01  0.75027905129E+02  0.10000000000E+00 0.  1.
         21    1    1    2  504  502 -0.74455307746E+01  0.23602272633E+02  0.23034852895E+02  0.33809875035E+02  0.00000000000E+00 0. -1.
<mgrwt>
<rscale>  1 0.12743049E+03</rscale>
<asrwt>0</asrwt>
<pdfrwt beam="1">  1       21 0.14508249E-01 0.12743049E+03</pdfrwt>
<pdfrwt beam="2">  1       21 0.10308918E-01 0.12743049E+03</pdfrwt>
<totfact> 0.31694485E+06</totfact>
</mgrwt>
</event>
<event>
 6    1  0.4241465E-002  0.1302119E+03  0.7546771E-02  0.1227142E+00
         21   -1    0    0  504  502  0.00000000000E+00  0.00000000000E+00  0.39360970628E+03  0.39360970628E+03  0.00000000000E+00 0. -1.
         21   -1    0    0  502  503 -0.00000000000E+00 -0.00000000000E+00 -0.30115131475E+03  0.30115131475E+03  0.00000000000E+00 0. -1.
         25    2    1    2    0    0 -0.34086612418E+02 -0.12901242848E+02 -0.28615996627E+03  0.31439251541E+03  0.12500715274E+03 0.  0.
          5    1    3    3  501    0 -0.63535356337E+02  0.30297304976E+02 -0.10961894316E+03  0.13027275576E+03  0.10000000000E+00 0. -1.
         -5    1    3    3    0  501  0.29448743919E+02 -0.43198547824E+02 -0.17654102311E+03  0.18411975965E+03  0.10000000000E+00 0. -1.
         21    1    1    2  504  503  0.34086612418E+02  0.12901242848E+02  0.37861835779E+03  0.38036850562E+03  0.00000000000E+00 0. -1.
<mgrwt>
<rscale>  1 0.13021186E+03</rscale>
<asrwt>0</asrwt>
<pdfrwt beam="1">  1       21 0.60555339E-01 0.13021186E+03</pdfrwt>
<pdfrwt beam="2">  1       21 0.46330972E-01 0.13021186E+03</pdfrwt>
<totfact> 0.11871435E+04</totfact>
</mgrwt>
</event>
<event>
 6    1  0.4241465E-002  0.1415329E+03  0.7546771E-02  0.1211281E+00
         21   -1    0    0  503  502  0.00000000000E+00  0.00000000000E+00  0.80845168031E+03  0.80845168031E+03  0.00000000000E+00 0.  1.
         21   -1    0    0  504  503 -0.00000000000E+00 -0.00000000000E+00 -0.26493605572E+02  0.26493605572E+02  0.00000000000E+00 0.  1.
         25    2    1    2    0    0  0.29341397241E+01  0.66329737553E+02  0.17829306646E+03  0.22764002041E+03  0.12499327215E+03 0.  0.
          5    1    3    3  501    0 -0.40192170249E+02  0.27500288999E+02  0.10125670452E+02  0.49741488181E+02  0.10000000000E+00 0. -1.
         -5    1    3    3    0  501  0.43126309973E+02  0.38829448554E+02  0.16816739601E+03  0.17789853223E+03  0.10000000000E+00 0. -1.
         21    1    1    2  504  502 -0.29341397241E+01 -0.66329737553E+02  0.60366500827E+03  0.60730526547E+03  0.00000000000E+00 0.  1.
<mgrwt>
<rscale>  1 0.14153290E+03</rscale>
<asrwt>0</asrwt>
<pdfrwt beam="1">  1       21 0.12437716E+00 0.14153290E+03</pdfrwt>
<pdfrwt beam="2">  1       21 0.40759399E-02 0.14153290E+03</pdfrwt>
<totfact> 0.18683648E+05</totfact>
</mgrwt>
</event>
<event>
 6    1  0.4241465E-002  0.1260530E+03  0.7546771E-02  0.1233433E+00
         21   -1    0    0  504  502  0.00000000000E+00  0.00000000000E+00  0.97267548062E+02  0.97267548062E+02  0.00000000000E+00 0.  1.
         21   -1    0    0  502  503 -0.00000000000E+00 -0.00000000000E+00 -0.58023179009E+02  0.58023179009E+02  0.00000000000E+00 0.  1.
         25    2    1    2    0    0 -0.88616624594E+01 -0.13715898944E+02  0.16261915202E+02  0.12709767597E+03  0.12499085729E+03 0.  0.
          5    1    3    3  501    0  0.45571535763E+02 -0.42811019244E+02 -0.25344806529E+01  0.62577806231E+02  0.10000000000E+00 0. -1.
         -5    1    3    3    0  501 -0.54433198223E+02  0.29095120300E+02  0.18796395855E+02  0.64519869739E+02  0.10000000000E+00 0. -1.
         21    1    1    2  504  503  0.88616624594E+01  0.13715898944E+02  0.22982453850E+02  0.28193051101E+02  0.00000000000E+00 0. -1.
<mgrwt>
<rscale>  1 0.12605304E+03</rscale>
<asrwt>0</asrwt>
<pdfrwt beam="1">  1       21 0.14964238E-01 0.12605304E+03</pdfrwt>
<pdfrwt beam="2">  1       21 0.89266429E-02 0.12605304E+03</pdfrwt>
<totfact> 0.38515028E+06</totfact>
</mgrwt>
</event>
<event>
 6    1  0.4241465E-002  0.1262844E+03  0.7546771E-02  0.1233076E+00
         21   -1    0    0  504  502  0.00000000000E+00  0.00000000000E+00  0.29179017058E+03  0.29179017058E+03  0.00000000000E+00 0. -1.
         21   -1    0    0  502  503 -0.00000000000E+00 -0.00000000000E+00 -0.19005163942E+02  0.19005163942E+02  0.00000000000E+00 0. -1.
         25    2    1    2    0    0  0.15984747521E+02 -0.81992388815E+01  0.20592073949E+03  0.24155972307E+03  0.12500003675E+03 0.  0.
          5    1    3    3  501    0 -0.11281243041E+02 -0.62898167489E+02  0.88162855461E+02  0.10888592655E+03  0.10000000000E+00 0. -1.
         -5    1    3    3    0  501  0.27265990563E+02  0.54698928607E+02  0.11775788403E+03  0.13267379652E+03  0.10000000000E+00 0. -1.
         21    1    1    2  504  503 -0.15984747521E+02  0.81992388815E+01  0.66864267150E+02  0.69235611452E+02  0.00000000000E+00 0. -1.
<mgrwt>
<rscale>  1 0.12628440E+03</rscale>
<asrwt>0</asrwt>
<pdfrwt beam="1">  1       21 0.44890792E-01 0.12628440E+03</pdfrwt>
<pdfrwt beam="2">  1       21 0.29238716E-02 0.12628440E+03</pdfrwt>
<totfact> 0.31146214E+06</totfact>
</mgrwt>
</event>
<event>
 6    1  0.4241465E-002  0.1275625E+03  0.7546771E-02  0.1231118E+00
         21   -1    0    0  503  502  0.00000000000E+00  0.00000000000E+00  0.11084934523E+02  0.11084934523E+02  0.00000000000E+00 0. -1.
         21   -1    0    0  504  503 -0.00000000000E+00 -0.00000000000E+00 -0.53388544994E+03  0.53388544994E+03  0.00000000000E+00 0. -1.
         25    2    1    2    0    0  0.23969613590E+02 -0.85316893243E+01 -0.45536823963E+03  0.47289789376E+03  0.12499940864E+03 0.  0.
          5    1    3    3  501    0  0.53170215796E+02  0.90419826081E+01 -0.42119756308E+03  0.42463658161E+03  0.10000000000E+00 0. -1.
         -5    1    3    3    0  501 -0.29200602206E+02 -0.17573671932E+02 -0.34170676548E+02  0.48261312146E+02  0.10000000000E+00 0. -1.
         21    1    1    2  504  502 -0.23969613590E+02  0.85316893243E+01 -0.67432275788E+02  0.72072490705E+02  0.00000000000E+00 0. -1.
<mgrwt>
<rscale>  1 0.12756247E+03</rscale>
<asrwt>0</asrwt>
<pdfrwt beam="1">  1       21 0.17053745E-02 0.12756247E+03</pdfrwt>
<pdfrwt beam="2">  1       21 0.82136224E-01 0.12756247E+03</pdfrwt>
<totfact> 0.20602740E+06</totfact>
</mgrwt>
</event>
<event>
 6    1  0.4241465E-002  0.1262685E+03  0.7546771E-02  0.1233100E+00
         21   -1    0    0  504  502  0.00000000000E+00  0.00000000000E+00  0.24771882616E+02  0.24771882616E+02  0.00000000000E+00 0. -1.
         21   -1    0    0  502  503 -0.00000000000E+00 -0.00000000000E+00 -0.33664958486E+03  0.33664958486E+03  0.00000000000E+00 0. -1.
         25    2    1    2    0    0 -0.96703682697E+01  0.14996736075E+02 -0.31832063649E+03  0.34244965900E+03  0.12500129285E+03 0.  0.
          5    1    3    3  501    0 -0.12559554154E+02 -0.26433426246E+02 -0.29160102126E+03  0.29306592095E+03  0.10000000000E+00 0. -1.
         -5    1    3    3    0  501  0.28891858846E+01  0.41430162321E+02 -0.26719615235E+02  0.49383738046E+02  0.10000000000E+00 0. -1.
         21    1    1    2  504  503  0.96703682697E+01 -0.14996736075E+02  0.64429342469E+01  0.18971808482E+02  0.00000000000E+00 0. -1.
<mgrwt>
<rscale>  1 0.12626853E+03</rscale>
<asrwt>0</asrwt>
<pdfrwt beam="1">  1       21 0.38110590E-02 0.12626853E+03</pdfrwt>
<pdfrwt beam="2">  1       21 0.51792243E-01 0.12626853E+03</pdfrwt>
<totfact> 0.15013493E+06</totfact>
</mgrwt>
</event>
<event>
 6    1  0.4241465E-002  0.1261569E+03  0.7546771E-02  0.1233272E+00
         21   -1    0    0  504  502  0.00000000000E+00  0.00000000000E+00  0.16446048454E+03  0.16446048454E+03  0.00000000000E+00 0. -1.
         21   -1    0    0  502  503 -0.00000000000E+00 -0.00000000000E+00 -0.36464200058E+02  0.36464200058E+02  0.00000000000E+00 0. -1.
         25    2    1    2    0    0 -0.17549645383E+01 -0.16975175399E+02  0.78540967566E+02  0.14860771936E+03  0.12499733672E+03 0.  0.
          5    1    3    3  501    0  0.41502792961E+02 -0.54727796296E+02  0.44997146685E+02  0.82111915826E+02  0.10000000000E+00 0. -1.
         -5    1    3    3    0  501 -0.43257757499E+02  0.37752620896E+02  0.33543820882E+02  0.66495803535E+02  0.10000000000E+00 0. -1.
         21    1    1    2  504  503  0.17549645383E+01  0.16975175399E+02  0.49455316912E+02  0.52316965234E+02  0.00000000000E+00 0.  1.
<mgrwt>
<rscale>  1 0.12615693E+03</rscale>
<asrwt>0</asrwt>
<pdfrwt beam="1">  1       21 0.25301613E-01 0.12615693E+03</pdfrwt>
<pdfrwt beam="2">  1       21 0.56098770E-02 0.12615693E+03</pdfrwt>
<totfact> 0.32376920E+06</totfact>
</mgrwt>
</event>
<event>
 6    1  0.4241465E-002  0.1314523E+03  0.7546771E-02  0.1225317E+00
         21   -1    0    0  504  502  0.00000000000E+00  0.00000000000E+00  0.30402990801E+03  0.30402990801E+03  0.00000000000E+00 0. -1.
         21   -1    0    0  502  503 -0.00000000000E+00 -0.00000000000E+00 -0.24634198017E+02  0.24634198017E+02  0.00000000000E+00 0. -1.
         25    2    1    2    0    0  0.17296711730E+02  0.36823000249E+02  0.22718803334E+03  0.26247686341E+03  0.12499836698E+03 0.  0.
          5    1    3    3  501    0  0.50956269640E+02 -0.24043180911E+02  0.65103908483E+02  0.86099621739E+02  0.10000000000E+00 0. -1.
         -5    1    3    3    0  501 -0.33659557911E+02  0.60866181160E+02  0.16208412486E+03  0.17637724167E+03  0.10000000000E+00 0. -1.
         21    1    1    2  504  503 -0.17296711730E+02 -0.36823000249E+02  0.52207676652E+02  0.66187242618E+02  0.00000000000E+00 0. -1.
<mgrwt>
<rscale>  1 0.13145228E+03</rscale>
<asrwt>0</asrwt>
<pdfrwt beam="1">  1       21 0.46773829E-01 0.13145228E+03</pdfrwt>
<pdfrwt beam="2">  1       21 0.37898768E-02 0.13145228E+03</pdfrwt>
<totfact> 0.18704196E+06</totfact>
</mgrwt>
</event>
<event>
 6    1  0.4241465E-002  0.1420859E+03  0.7546771E-02  0.1210549E+00
         21   -1    0    0  503  502  0.00000000000E+00  0.00000000000E+00  0.77789371059E+02  0.77789371059E+02  0.00000000000E+00 0.  1.
         21   -1    0    0  504  503 -0.00000000000E+00 -0.00000000000E+00 -0.16764686283E+03  0.16764686283E+03  0.00000000000E+00 0. -1.
         25    2    1    2    0    0  0.62050405015E+01  0.67274513651E+02 -0.10441432994E+03  0.17632571189E+03  0.12499616659E+03 0.  0.
          5    1    3    3  501    0  0.52437340403E+02  0.20589341056E+02 -0.41973785366E+01  0.56490916263E+02  0.10000000000E+00 0.  1.
         -5    1    3    3    0  501 -0.46232299901E+02  0.46685172595E+02 -0.10021695140E+03  0.11983479562E+03  0.10000000000E+00 0.  1.
         21    1    1    2  504  502 -0.62050405015E+01 -0.67274513651E+02  0.14556838162E+02  0.69110522005E+02  0.00000000000E+00 0.  1.
<mgrwt>
<rscale>  1 0.14208590E+03</rscale>
<asrwt>0</asrwt>
<pdfrwt beam="1">  1       21 0.11967596E-01 0.14208590E+03</pdfrwt>
<pdfrwt beam="2">  1       21 0.25791825E-01 0.14208590E+03</pdfrwt>
<totfact> 0.84396093E+05</totfact>
</mgrwt>
</event>
<event>
 6    1  0.4241465E-002  0.1359700E+03  0.7546771E-02  0.1218857E+00
         21   -1    0    0  503  502  0.00000000000E+00  0.00000000000E+00  0.86235191496E+02  0.86235191496E+02  0.00000000000E+00 0. -1.
         21   -1    0    0  504  503 -0.00000000000E+00 -0.00000000000E+00 -0.10529750517E+03  0.10529750517E+03  0.00000000000E+00 0. -1.
         25    2    1    2    0    0  0.53479594995E+02 -0.16675700202E+01 -0.43428534396E+01  0.13603936030E+03  0.12499999722E+03 0.  0.
          5    1    3    3  501    0  0.80732543420E+02  0.23421710185E+02  0.26176848099E+02  0.88042929593E+02  0.10000000000E+00 0. -1.
         -5    1    3    3    0  501 -0.27252948424E+02 -0.25089280205E+02 -0.30519701538E+02  0.47996430711E+02  0.10000000000E+00 0. -1.
         21    1    1    2  504  502 -0.53479594995E+02  0.16675700202E+01 -0.14719460231E+02  0.55493336358E+02  0.00000000000E+00 0. -1.
<mgrwt>
<rscale>  1 0.13597002E+03</rscale>
<asrwt>0</asrwt>
<pdfrwt beam="1">  1       21 0.13266953E-01 0.13597002E+03</pdfrwt>
<pdfrwt beam="2">  1       21 0.16199616E-01 0.13597002E+03</pdfrwt>
<totfact> 0.16651275E+06</totfact>
</mgrwt>
</event>
<event>
 6    1  0.4241465E-002  0.1370990E+03  0.7546771E-02  0.1217287E+00
         21   -1    0    0  504  502  0.00000000000E+00  0.00000000000E+00  0.21564494538E+02  0.21564494538E+02  0.00000000000E+00 0. -1.
         21   -1    0    0  502  503 -0.00000000000E+00 -0.00000000000E+00 -0.60326119241E+03  0.60326119241E+03  0.00000000000E+00 0. -1.
         25    2    1    2    0    0 -0.49841458256E+02 -0.26191734618E+02 -0.53310841046E+03  0.55045499651E+03  0.12500379175E+03 0.  0.
          5    1    3    3  501    0 -0.60257370249E+02 -0.41168597699E+02 -0.52573872216E+03  0.53077963232E+03  0.10000000000E+00 0. -1.
         -5    1    3    3    0  501  0.10415911994E+02  0.14976863082E+02 -0.73696883066E+01  0.19675364194E+02  0.10000000000E+00 0. -1.
         21    1    1    2  504  503  0.49841458256E+02  0.26191734618E+02 -0.48588287412E+02  0.74370690443E+02  0.00000000000E+00 0. -1.
<mgrwt>
<rscale>  1 0.13709896E+03</rscale>
<asrwt>0</asrwt>
<pdfrwt beam="1">  1       21 0.33176148E-02 0.13709896E+03</pdfrwt>
<pdfrwt beam="2">  1       21 0.92809406E-01 0.13709896E+03</pdfrwt>
<totfact> 0.52891943E+05</totfact>
</mgrwt>
</event>
<event>
 6    1  0.4241465E-002  0.1261890E+03  0.7546771E-02  0.1233223E+00
         21   -1    0    0  503  502  0.00000000000E+00  0.00000000000E+00  0.49959044697E+02  0.49959044697E+02  0.00000000000E+00 0. -1.
         21   -1    0    0  504  503 -0.00000000000E+00 -0.00000000000E+00 -0.11733823946E+03  0.11733823946E+03  0.00000000000E+00 0. -1.
         25    2    1    2    0    0 -0.16216857578E+02  0.53518620129E+01 -0.76871215689E+02  0.14775943990E+03  0.12502815436E+03 0.  0.
          5    1    3    3  501    0 -0.46600190844E+02  0.15894345395E+02 -0.97726369128E+02  0.10942879523E+03  0.10000000000E+00 0. -1.
         -5    1    3    3    0  501  0.30383333265E+02 -0.10542483382E+02  0.20855153440E+02  0.38330644675E+02  0.10000000000E+00 0. -1.
         21    1    1    2  504  502  0.16216857578E+02 -0.53518620129E+01  0.94920209277E+01  0.19537844252E+02  0.00000000000E+00 0. -1.
<mgrwt>
<rscale>  1 0.12618902E+03</rscale>
<asrwt>0</asrwt>
<pdfrwt beam="1">  1       21 0.76860069E-02 0.12618902E+03</pdfrwt>
<pdfrwt beam="2">  1       21 0.18052037E-01 0.12618902E+03</pdfrwt>
<totfact> 0.35479310E+06</totfact>
</mgrwt>
</event>
<event>
 6    1  0.4241465E-002  0.1264333E+03  0.7546771E-02  0.1232846E+00
         21   -1    0    0  503  502  0.00000000000E+00  0.00000000000E+00  0.57579934201E+03  0.57579934201E+03  0.00000000000E+00 0. -1.
         21   -1    0    0  504  503 -0.00000000000E+00 -0.00000000000E+00 -0.18121149106E+02  0.18121149106E+02  0.00000000000E+00 0. -1.
         25    2    1    2    0    0  0.10408381338E+02  0.16033715814E+02  0.20587698331E+03  0.24160031639E+03  0.12497986310E+03 0.  0.
          5    1    3    3  501    0  0.28952311949E+01  0.36708319203E+02  0.23600584038E+01  0.36898007237E+02  0.10000000000E+00 0. -1.
         -5    1    3    3    0  501  0.75131501429E+01 -0.20674603389E+02  0.20351692491E+03  0.20470230916E+03  0.10000000000E+00 0. -1.
         21    1    1    2  504  502 -0.10408381338E+02 -0.16033715814E+02  0.35180120959E+03  0.35232017472E+03  0.00000000000E+00 0. -1.
<mgrwt>
<rscale>  1 0.12643331E+03</rscale>
<asrwt>0</asrwt>
<pdfrwt beam="1">  1       21 0.88584500E-01 0.12643331E+03</pdfrwt>
<pdfrwt beam="2">  1       21 0.27878695E-02 0.12643331E+03</pdfrwt>
<totfact> 0.78382200E+05</totfact>
</mgrwt>
</event>
<event>
 6    1  0.4241465E-002  0.1293983E+03  0.7546771E-02  0.1228351E+00
         21   -1    0    0  503  502  0.00000000000E+00  0.00000000000E+00  0.27793534943E+03  0.27793534943E+03  0.00000000000E+00 0.  1.
         21   -1    0    0  504  503 -0.00000000000E+00 -0.00000000000E+00 -0.65614740941E+02  0.65614740941E+02  0.00000000000E+00 0.  1.
         25    2    1    2    0    0 -0.27426599423E+02 -0.19114861809E+02  0.79670665338E+00  0.12940070946E+03  0.12500525016E+03 0.  0.
          5    1    3    3  501    0 -0.52708635275E+02 -0.30800866803E+02 -0.44971102052E+02  0.75824162693E+02  0.10000000000E+00 0.  1.
         -5    1    3    3    0  501  0.25282035852E+02  0.11686004994E+02  0.45767808705E+02  0.53576546764E+02  0.10000000000E+00 0.  1.
         21    1    1    2  504  502  0.27426599423E+02  0.19114861809E+02  0.21152390184E+03  0.21414938091E+03  0.00000000000E+00 0.  1.
<mgrwt>
<rscale>  1 0.12939826E+03</rscale>
<asrwt>0</asrwt>
<pdfrwt beam="1">  1       21 0.42759284E-01 0.12939826E+03</pdfrwt>
<pdfrwt beam="2">  1       21 0.10094576E-01 0.12939826E+03</pdfrwt>
<totfact> 0.42408575E+05</totfact>
</mgrwt>
</event>
<event>
 6    1  0.4241465E-002  0.1893929E+03  0.7546771E-02  0.1159010E+00
         21   -1    0    0  504  502  0.00000000000E+00  0.00000000000E+00  0.92567828923E+02  0.92567828923E+02  0.00000000000E+00 0.  1.
         21   -1    0    0  502  503 -0.00000000000E+00 -0.00000000000E+00 -0.31535284696E+03  0.31535284696E+03  0.00000000000E+00 0.  1.
         25    2    1    2    0    0  0.10352706275E+03 -0.97595778243E+02 -0.77690049257E+02  0.20470813046E+03  0.12500754485E+03 0.  0.
          5    1    3    3  501    0  0.77191967880E+01 -0.32422046170E+02  0.31233587471E+02  0.45676274620E+02  0.10000000000E+00 0.  1.
         -5    1    3    3    0  501  0.95807865965E+02 -0.65173732073E+02 -0.10892363673E+03  0.15903185584E+03  0.10000000000E+00 0.  1.
         21    1    1    2  504  503 -0.10352706275E+03  0.97595778243E+02 -0.14509496878E+03  0.20321254543E+03  0.00000000000E+00 0.  1.
<mgrwt>
<rscale>  1 0.18939291E+03</rscale>
<asrwt>0</asrwt>
<pdfrwt beam="1">  1       21 0.14241204E-01 0.18939291E+03</pdfrwt>
<pdfrwt beam="2">  1       21 0.48515823E-01 0.18939291E+03</pdfrwt>
<totfact> 0.17506799E+05</totfact>
</mgrwt>
</event>
<event>
 6    1  0.4241465E-002  0.1319857E+03  0.7546771E-02  0.1224539E+00
         21   -1    0    0  503  502  0.00000000000E+00  0.00000000000E+00  0.31950408348E+02  0.31950408348E+02  0.00000000000E+00 0. -1.
         21   -1    0    0  504  503 -0.00000000000E+00 -0.00000000000E+00 -0.36464349961E+03  0.36464349961E+03  0.00000000000E+00 0. -1.
         25    2    1    2    0    0 -0.22423357450E+02 -0.35934687520E+02 -0.32850804719E+03  0.35403073937E+03  0.12500447440E+03 0.  0.
          5    1    3    3  501    0 -0.56497668319E+02  0.24317472117E+02 -0.17907968481E+03  0.18934853970E+03  0.10000000000E+00 0. -1.
         -5    1    3    3    0  501  0.34074310869E+02 -0.60252159638E+02 -0.14942836238E+03  0.16468219966E+03  0.10000000000E+00 0. -1.
         21    1    1    2  504  502  0.22423357450E+02  0.35934687520E+02 -0.41850440678E+01  0.42563168589E+02  0.00000000000E+00 0. -1.
<mgrwt>
<rscale>  1 0.13198571E+03</rscale>
<asrwt>0</asrwt>
<pdfrwt beam="1">  1       21 0.49154473E-02 0.13198571E+03</pdfrwt>
<pdfrwt beam="2">  1       21 0.56099001E-01 0.13198571E+03</pdfrwt>
<totfact> 0.83170104E+05</totfact>
</mgrwt>
</event>
<event>
 6    1  0.4241465E-002  0.1760333E+03  0.7546771E-02  0.1171698E+00
         21   -1    0    0  504  502  0.00000000000E+00  0.00000000000E+00  0.25176291016E+03  0.25176291016E+03  0.00000000000E+00 0. -1.
         21   -1    0    0  502  503 -0.00000000000E+00 -0.00000000000E+00 -0.16099629523E+03  0.16099629523E+03  0.00000000000E+00 0. -1.
         25    2    1    2    0    0  0.59599817676E+02 -0.10868310103E+03 -0.86751457650E+02  0.19624864950E+03  0.12499424911E+03 0.  0.
          5    1    3    3  501    0  0.51882506390E+02 -0.11956729487E+03 -0.24547846099E+02  0.13263008414E+03  0.10000000000E+00 0. -1.
         -5    1    3    3    0  501  0.77173112857E+01  0.10884193834E+02 -0.62203611550E+02  0.63618565363E+02  0.10000000000E+00 0. -1.
         21    1    1    2  504  503 -0.59599817676E+02  0.10868310103E+03  0.17751807258E+03  0.21651055589E+03  0.00000000000E+00 0. -1.
<mgrwt>
<rscale>  1 0.17603328E+03</rscale>
<asrwt>0</asrwt>
<pdfrwt beam="1">  1       21 0.38732756E-01 0.17603328E+03</pdfrwt>
<pdfrwt beam="2">  1       21 0.24768661E-01 0.17603328E+03</pdfrwt>
<totfact> 0.99721901E+04</totfact>
</mgrwt>
</event>
<event>
 6    1  0.4241465E-002  0.1267570E+03  0.7546771E-02  0.1232349E+00
         21   -1    0    0  503  502  0.00000000000E+00  0.00000000000E+00  0.54077730489E+02  0.54077730489E+02  0.00000000000E+00 0. -1.
         21   -1    0    0  504  503 -0.00000000000E+00 -0.00000000000E+00 -0.11431525614E+03  0.11431525614E+03  0.00000000000E+00 0. -1.
         25    2    1    2    0    0 -0.20879040384E+02 -0.26194406082E+01 -0.70432570181E+02  0.14501062727E+03  0.12499815712E+03 0.  0.
          5    1    3    3  501    0 -0.40506583743E+02  0.20695900524E+02 -0.95349727989E+02  0.10564413970E+03  0.10000000000E+00 0.  1.
         -5    1    3    3    0  501  0.19627543359E+02 -0.23315341133E+02  0.24917157808E+02  0.39366487571E+02  0.10000000000E+00 0.  1.
         21    1    1    2  504  502  0.20879040384E+02  0.26194406082E+01  0.10195044527E+02  0.23382359363E+02  0.00000000000E+00 0. -1.
<mgrwt>
<rscale>  1 0.12675699E+03</rscale>
<asrwt>0</asrwt>
<pdfrwt beam="1">  1       21 0.83196509E-02 0.12675699E+03</pdfrwt>
<pdfrwt beam="2">  1       21 0.17586962E-01 0.12675699E+03</pdfrwt>
<totfact> 0.32470751E+06</totfact>
</mgrwt>
</event>
<event>
 6    1  0.4241465E-002  0.1376027E+03  0.7546771E-02  0.1216592E+00
         21   -1    0    0  504  502  0.00000000000E+00  0.00000000000E+00  0.16073581898E+03  0.16073581898E+03  0.00000000000E+00 0. -1.
         21   -1    0    0  502  503 -0.00000000000E+00 -0.00000000000E+00 -0.15016435697E+03  0.15016435697E+03  0.00000000000E+00 0. -1.
         25    2    1    2    0    0 -0.57045936946E+02  0.70446987133E+01 -0.11076036859E+03  0.17664191803E+03  0.12502256297E+03 0.  0.
          5    1    3    3  501    0 -0.12904269282E+02  0.41306886943E+02  0.92563380038E+01  0.44254591489E+02  0.10000000000E+00 0.  1.
         -5    1    3    3    0  501 -0.44141667664E+02 -0.34262188230E+02 -0.12001670659E+03  0.13238732654E+03  0.10000000000E+00 0.  1.
         21    1    1    2  504  503  0.57045936946E+02 -0.70446987133E+01  0.12133183061E+03  0.13425825792E+03  0.00000000000E+00 0. -1.
<mgrwt>
<rscale>  1 0.13760272E+03</rscale>
<asrwt>0</asrwt>
<pdfrwt beam="1">  1       21 0.24728588E-01 0.13760272E+03</pdfrwt>
<pdfrwt beam="2">  1       21 0.23102209E-01 0.13760272E+03</pdfrwt>
<totfact> 0.27557692E+05</totfact>
</mgrwt>
</event>
<event>
 6    1  0.4241465E-002  0.1294629E+03  0.7546771E-02  0.1228255E+00
         21   -1    0    0  504  502  0.00000000000E+00  0.00000000000E+00  0.39216503707E+02  0.39216503707E+02  0.00000000000E+00 0.  1.
         21   -1    0    0  502  503 -0.00000000000E+00 -0.00000000000E+00 -0.17144965664E+03  0.17144965664E+03  0.00000000000E+00 0.  1.
         25    2    1    2    0    0 -0.93488921079E+01  0.32389735384E+02 -0.95980801556E+02  0.16116131490E+03  0.12499663360E+03 0.  0.
          5    1    3    3  501    0  0.20023546777E+02  0.15580796539E+01 -0.11339127900E+03  0.11515625120E+03  0.10000000000E+00 0.  1.
         -5    1    3    3    0  501 -0.29372438885E+02  0.30831655730E+02  0.17410477446E+02  0.46005063700E+02  0.10000000000E+00 0.  1.
         21    1    1    2  504  503  0.93488921079E+01 -0.32389735384E+02 -0.36252351374E+02  0.49504845440E+02  0.00000000000E+00 0.  1.
<mgrwt>
<rscale>  1 0.12946295E+03</rscale>
<asrwt>0</asrwt>
<pdfrwt beam="1">  1       21 0.60333082E-02 0.12946295E+03</pdfrwt>
<pdfrwt beam="2">  1       21 0.26376870E-01 0.12946295E+03</pdfrwt>
<totfact> 0.26479590E+06</totfact>
</mgrwt>
</event>
<event>
 6    1  0.4241465E-002  0.1298336E+03  0.7546771E-02  0.1227703E+00
         21   -1    0    0  503  502  0.00000000000E+00  0.00000000000E+00  0.54618707693E+03  0.54618707693E+03  0.00000000000E+00 0.  1.
         21   -1    0    0  504  503 -0.00000000000E+00 -0.00000000000E+00 -0.51555571855E+02  0.51555571855E+02  0.00000000000E+00 0.  1.
         25    2    1    2    0    0 -0.30510385794E+02 -0.17323079940E+02  0.31916003376E+02  0.13369889196E+03  0.12500315876E+03 0.  0.
          5    1    3    3  501    0 -0.64678684609E+02 -0.43436074872E+02 -0.34990386820E+01  0.77988961493E+02  0.10000000000E+00 0. -1.
         -5    1    3    3    0  501  0.34168298815E+02  0.26112994932E+02  0.35415042058E+02  0.55709930463E+02  0.10000000000E+00 0. -1.
         21    1    1    2  504  502  0.30510385794E+02  0.17323079940E+02  0.46271550170E+03  0.46404375683E+03  0.00000000000E+00 0.  1.
<mgrwt>
<rscale>  1 0.12983360E+03</rscale>
<asrwt>0</asrwt>
<pdfrwt beam="1">  1       21 0.84028777E-01 0.12983360E+03</pdfrwt>
<pdfrwt beam="2">  1       21 0.79316268E-02 0.12983360E+03</pdfrwt>
<totfact> 0.15311382E+05</totfact>
</mgrwt>
</event>
<event>
 6    1  0.4241465E-002  0.1571486E+03  0.7546771E-02  0.1191954E+00
         21   -1    0    0  504  502  0.00000000000E+00  0.00000000000E+00  0.75367744253E+03  0.75367744253E+03  0.00000000000E+00 0. -1.
         21   -1    0    0  502  503 -0.00000000000E+00 -0.00000000000E+00 -0.22428140587E+02  0.22428140587E+02  0.00000000000E+00 0. -1.
         25    2    1    2    0    0  0.91736770596E+02 -0.25499630101E+02  0.35931446565E+03  0.39217669821E+03  0.12501924325E+03 0.  0.
          5    1    3    3  501    0  0.10467998172E+03  0.22599044975E+02  0.25527612461E+03  0.27682941535E+03  0.10000000000E+00 0. -1.
         -5    1    3    3    0  501 -0.12943211120E+02 -0.48098675075E+02  0.10403834104E+03  0.11534728286E+03  0.10000000000E+00 0. -1.
         21    1    1    2  504  503 -0.91736770596E+02  0.25499630101E+02  0.37193483629E+03  0.38392888490E+03  0.00000000000E+00 0. -1.
<mgrwt>
<rscale>  1 0.15714858E+03</rscale>
<asrwt>0</asrwt>
<pdfrwt beam="1">  1       21 0.11595036E+00 0.15714858E+03</pdfrwt>
<pdfrwt beam="2">  1       21 0.34504837E-02 0.15714858E+03</pdfrwt>
<totfact> 0.29134770E+05</totfact>
</mgrwt>
</event>
<event>
 6    1  0.4241465E-002  0.1275323E+03  0.7546771E-02  0.1231164E+00
         21   -1    0    0  503  502  0.00000000000E+00  0.00000000000E+00  0.26054001690E+03  0.26054001690E+03  0.00000000000E+00 0. -1.
         21   -1    0    0  504  503 -0.00000000000E+00 -0.00000000000E+00 -0.22411650368E+02  0.22411650368E+02  0.00000000000E+00 0. -1.
         25    2    1    2    0    0 -0.13443980464E+01  0.25238113664E+02  0.19692538302E+03  0.23461477000E+03  0.12500285611E+03 0.  0.
          5    1    3    3  501    0  0.21107629667E+02  0.38495356992E+02  0.89069202705E+01  0.44796961603E+02  0.10000000000E+00 0.  1.
         -5    1    3    3    0  501 -0.22452027714E+02 -0.13257243329E+02  0.18801846275E+03  0.18981780840E+03  0.10000000000E+00 0.  1.
         21    1    1    2  504  502  0.13443980464E+01 -0.25238113664E+02  0.41202983510E+02  0.48336897269E+02  0.00000000000E+00 0. -1.
<mgrwt>
<rscale>  1 0.12753229E+03</rscale>
<asrwt>0</asrwt>
<pdfrwt beam="1">  1       21 0.40083077E-01 0.12753229E+03</pdfrwt>
<pdfrwt beam="2">  1       21 0.34479464E-02 0.12753229E+03</pdfrwt>
<totfact> 0.29852923E+06</totfact>
</mgrwt>
</event>
<event>
 6    1  0.4241465E-002  0.1273884E+03  0.7546771E-02  0.1231383E+00
         21   -1    0    0  504  502  0.00000000000E+00  0.00000000000E+00  0.24697256550E+03  0.24697256550E+03  0.00000000000E+00 0. -1.
         21   -1    0    0  502  503 -0.00000000000E+00 -0.00000000000E+00 -0.62385260436E+02  0.62385260436E+02  0.00000000000E+00 0. -1.
         25    2    1    2    0    0 -0.23831777407E+02 -0.58918086703E+01  0.43566225383E+01  0.12746289487E+03  0.12500056954E+03 0.  0.
          5    1    3    3  501    0  0.51271098481E+02  0.14350056347E+01 -0.44859654695E+01  0.51487072813E+02  0.10000000000E+00 0.  1.
         -5    1    3    3    0  501 -0.75102875888E+02 -0.73268143049E+01  0.88425880078E+01  0.75975822057E+02  0.10000000000E+00 0.  1.
         21    1    1    2  504  503  0.23831777407E+02  0.58918086703E+01  0.18023068252E+03  0.18189493106E+03  0.00000000000E+00 0. -1.
<mgrwt>
<rscale>  1 0.12738842E+03</rscale>
<asrwt>0</asrwt>
<pdfrwt beam="1">  1       21 0.37995779E-01 0.12738842E+03</pdfrwt>
<pdfrwt beam="2">  1       21 0.95977325E-02 0.12738842E+03</pdfrwt>
<totfact> 0.58675446E+05</totfact>
</mgrwt>
</event>
<event>
 6    1  0.4241465E-002  0.1272652E+03  0.7546771E-02  0.1231571E+00
         21   -1    0    0  503  502  0.00000000000E+00  0.00000000000E+00  0.57690721028E+02  0.57690721028E+02  0.00000000000E+00 0.  1.
         21   -1    0    0  504  503 -0.00000000000E+00 -0.00000000000E+00 -0.10543510188E+03  0.10543510188E+03  0.00000000000E+00 0.  1.
         25    2    1    2    0    0 -0.23703482436E+02 -0.30302567856E+01 -0.24134986920E+02  0.12953354675E+03  0.12500161841E+03 0.  0.
          5    1    3    3  501    0 -0.72837564532E+02 -0.10242638469E+01 -0.32300753032E+02  0.79685058635E+02  0.10000000000E+00 0. -1.
         -5    1    3    3    0  501  0.49134082096E+02 -0.20059929387E+01  0.81657661117E+01  0.49848488114E+02  0.10000000000E+00 0. -1.
         21    1    1    2  504  502  0.23703482436E+02  0.30302567856E+01 -0.23609393934E+02  0.33592276161E+02  0.00000000000E+00 0.  1.
<mgrwt>
<rscale>  1 0.12726524E+03</rscale>
<asrwt>0</asrwt>
<pdfrwt beam="1">  1       21 0.88754956E-02 0.12726524E+03</pdfrwt>
<pdfrwt beam="2">  1       21 0.16220785E-01 0.12726524E+03</pdfrwt>
<totfact> 0.33639731E+06</totfact>
</mgrwt>
</event>
<event>
 6    1  0.4241465E-002  0.1369434E+03  0.7546771E-02  0.1217502E+00
         21   -1    0    0  504  502  0.00000000000E+00  0.00000000000E+00  0.40052809788E+03  0.40052809788E+03  0.00000000000E+00 0.  1.
         21   -1    0    0  502  503 -0.00000000000E+00 -0.00000000000E+00 -0.66246562310E+02  0.66246562310E+02  0.00000000000E+00 0. -1.
         25    2    1    2    0    0  0.27197709945E+02  0.48884838594E+02  0.95675978844E+01  0.13727718797E+03  0.12499617809E+03 0.  0.
          5    1    3    3  501    0  0.51031921152E+02 -0.25676177834E+02 -0.60823241052E+01  0.57450219766E+02  0.10000000000E+00 0. -1.
         -5    1    3    3    0  501 -0.23834211207E+02  0.74561016429E+02  0.15649921990E+02  0.79826968206E+02  0.10000000000E+00 0. -1.
         21    1    1    2  504  503 -0.27197709945E+02 -0.48884838594E+02  0.32471393768E+03  0.32949747222E+03  0.00000000000E+00 0.  1.
<mgrwt>
<rscale>  1 0.13694337E+03</rscale>
<asrwt>0</asrwt>
<pdfrwt beam="1">  1       21 0.61619706E-01 0.13694337E+03</pdfrwt>
<pdfrwt beam="2">  1       21 0.10191779E-01 0.13694337E+03</pdfrwt>
<totfact> 0.19512947E+05</totfact>
</mgrwt>
</event>
<event>
 6    1  0.4241465E-002  0.1320805E+03  0.7546771E-02  0.1224401E+00
         21   -1    0    0  504  502  0.00000000000E+00  0.00000000000E+00  0.39667907332E+02  0.39667907332E+02  0.00000000000E+00 0. -1.
         21   -1    0    0  502  503 -0.00000000000E+00 -0.00000000000E+00 -0.20937989146E+04  0.20937989146E+04  0.00000000000E+00 0. -1.
         25    2    1    2    0    0  0.41820212899E+02  0.83547354053E+01 -0.20796024647E+04  0.20837926138E+04  0.12500605727E+03 0.  0.
          5    1    3    3  501    0  0.32690734938E+02 -0.16533804307E+02 -0.16547897439E+03  0.16948555042E+03  0.10000000000E+00 0. -1.
         -5    1    3    3    0  501  0.91294779606E+01  0.24888539713E+02 -0.19141234903E+04  0.19143070633E+04  0.10000000000E+00 0. -1.
         21    1    1    2  504  503 -0.41820212899E+02 -0.83547354053E+01  0.25471457423E+02  0.49674208135E+02  0.00000000000E+00 0. -1.
<mgrwt>
<rscale>  1 0.13208045E+03</rscale>
<asrwt>0</asrwt>
<pdfrwt beam="1">  1       21 0.61027518E-02 0.13208045E+03</pdfrwt>
<pdfrwt beam="2">  1       21 0.32212308E+00 0.13208045E+03</pdfrwt>
<totfact> 0.53058983E+03</totfact>
</mgrwt>
</event>
<event>
 6    1  0.4241465E-002  0.1274846E+03  0.7546771E-02  0.1231237E+00
         21   -1    0    0  503  502  0.00000000000E+00  0.00000000000E+00  0.12739573517E+03  0.12739573517E+03  0.00000000000E+00 0. -1.
         21   -1    0    0  504  503 -0.00000000000E+00 -0.00000000000E+00 -0.66195667689E+02  0.66195667689E+02  0.00000000000E+00 0. -1.
         25    2    1    2    0    0 -0.66073400053E+01  0.24154886305E+02  0.20009496986E-01  0.12748455776E+03  0.12500078637E+03 0.  0.
          5    1    3    3  501    0  0.21588574256E+02 -0.98412648086E+01 -0.53243674243E+02  0.58290787251E+02  0.10000000000E+00 0. -1.
         -5    1    3    3    0  501 -0.28195914262E+02  0.33996151113E+02  0.53263683740E+02  0.69193770508E+02  0.10000000000E+00 0. -1.
         21    1    1    2  504  502  0.66073400053E+01 -0.24154886305E+02  0.61180057987E+02  0.66106845105E+02  0.00000000000E+00 0. -1.
<mgrwt>
<rscale>  1 0.12748456E+03</rscale>
<asrwt>0</asrwt>
<pdfrwt beam="1">  1       21 0.19599344E-01 0.12748456E+03</pdfrwt>
<pdfrwt beam="2">  1       21 0.10183949E-01 0.12748456E+03</pdfrwt>
<totfact> 0.18729120E+06</totfact>
</mgrwt>
</event>
<event>
 6    1  0.4241465E-002  0.2313934E+03  0.7546771E-02  0.1125663E+00
         21   -1    0    0  504  502  0.00000000000E+00  0.00000000000E+00  0.12258110337E+04  0.12258110337E+04  0.00000000000E+00 0. -1.
         21   -1    0    0  502  503 -0.00000000000E+00 -0.00000000000E+00 -0.37036146477E+02  0.37036146477E+02  0.00000000000E+00 0. -1.
         25    2    1    2    0    0 -0.19451547590E+03 -0.90332170054E+01  0.65217547981E+03  0.69200850471E+03  0.12500017901E+03 0.  0.
          5    1    3    3  501    0 -0.20359845191E+03 -0.17391727848E+01  0.64862375727E+03  0.67982949542E+03  0.10000000000E+00 0. -1.
         -5    1    3    3    0  501  0.90829760102E+01 -0.72940442206E+01  0.35517225342E+01  0.12179009289E+02  0.10000000000E+00 0. -1.
         21    1    1    2  504  503  0.19451547590E+03  0.90332170054E+01  0.53659940743E+03  0.57083867549E+03  0.00000000000E+00 0. -1.
<mgrwt>
<rscale>  1 0.23139342E+03</rscale>
<asrwt>0</asrwt>
<pdfrwt beam="1">  1       21 0.18858628E+00 0.23139342E+03</pdfrwt>
<pdfrwt beam="2">  1       21 0.56978696E-02 0.23139342E+03</pdfrwt>
<totfact> 0.33478478E+04</totfact>
</mgrwt>
</event>
<event>
 6    1  0.4241465E-002  0.1363604E+03  0.7546771E-02  0.1218312E+00
         21   -1    0    0  503  502  0.00000000000E+00  0.00000000000E+00  0.25665247735E+03  0.25665247735E+03  0.00000000000E+00 0. -1.
         21   -1    0    0  504  503 -0.00000000000E+00 -0.00000000000E+00 -0.44836297584E+02  0.44836297584E+02  0.00000000000E+00 0. -1.
         25    2    1    2    0    0 -0.50749879021E+02 -0.19878414426E+02  0.20549140642E+03  0.24661888940E+03  0.12499382751E+03 0.  0.
          5    1    3    3  501    0 -0.45632532011E+02 -0.71111717371E+02  0.11864137841E+03  0.14565366798E+03  0.10000000000E+00 0.  1.
         -5    1    3    3    0  501 -0.51173470097E+01  0.51233302945E+02  0.86850028008E+02  0.10096522142E+03  0.10000000000E+00 0.  1.
         21    1    1    2  504  502  0.50749879021E+02  0.19878414426E+02  0.63247733472E+01  0.54869885535E+02  0.00000000000E+00 0. -1.
<mgrwt>
<rscale>  1 0.13636040E+03</rscale>
<asrwt>0</asrwt>
<pdfrwt beam="1">  1       21 0.39484995E-01 0.13636040E+03</pdfrwt>
<pdfrwt beam="2">  1       21 0.68978921E-02 0.13636040E+03</pdfrwt>
<totfact> 0.96154069E+05</totfact>
</mgrwt>
</event>
<event>
 6    1  0.4241465E-002  0.1264505E+03  0.7546771E-02  0.1232820E+00
         21   -1    0    0  504  502  0.00000000000E+00  0.00000000000E+00  0.12074806589E+03  0.12074806589E+03  0.00000000000E+00 0. -1.
         21   -1    0    0  502  503 -0.00000000000E+00 -0.00000000000E+00 -0.11882668768E+03  0.11882668768E+03  0.00000000000E+00 0. -1.
         25    2    1    2    0    0  0.18575495135E+02 -0.43183549100E+01 -0.83839240189E+02  0.15171929912E+03  0.12500412122E+03 0.  0.
          5    1    3    3  501    0 -0.30363443385E+02  0.10245154128E+02 -0.94302215956E+02  0.99598292212E+02  0.10000000000E+00 0.  1.
         -5    1    3    3    0  501  0.48938938521E+02 -0.14563509039E+02  0.10462975767E+02  0.52121006906E+02  0.10000000000E+00 0.  1.
         21    1    1    2  504  503 -0.18575495135E+02  0.43183549100E+01  0.85760618398E+02  0.87855454450E+02  0.00000000000E+00 0. -1.
<mgrwt>
<rscale>  1 0.12645049E+03</rscale>
<asrwt>0</asrwt>
<pdfrwt beam="1">  1       21 0.18576626E-01 0.12645049E+03</pdfrwt>
<pdfrwt beam="2">  1       21 0.18281029E-01 0.12645049E+03</pdfrwt>
<totfact> 0.72551224E+05</totfact>
</mgrwt>
</event>
<event>
 6    1  0.4241465E-002  0.1262914E+03  0.7546771E-02  0.1233065E+00
         21   -1    0    0  504  502  0.00000000000E+00  0.00000000000E+00  0.21207563859E+02  0.21207563859E+02  0.00000000000E+00 0.  1.
         21   -1    0    0  502  503 -0.00000000000E+00 -0.00000000000E+00 -0.25200883232E+03  0.25200883232E+03  0.00000000000E+00 0.  1.
         25    2    1    2    0    0  0.13543429737E+02  0.11920452644E+02 -0.21441325232E+03  0.24884246024E+03  0.12499602220E+03 0.  0.
          5    1    3    3  501    0 -0.71327629834E+01  0.59692197543E+02 -0.56234501843E+02  0.82318673172E+02  0.10000000000E+00 0. -1.
         -5    1    3    3    0  501  0.20676192720E+02 -0.47771744899E+02 -0.15817875048E+03  0.16652378707E+03  0.10000000000E+00 0. -1.
         21    1    1    2  504  503 -0.13543429737E+02 -0.11920452644E+02 -0.16388016142E+02  0.24373935943E+02  0.00000000000E+00 0.  1.
<mgrwt>
<rscale>  1 0.12629144E+03</rscale>
<asrwt>0</asrwt>
<pdfrwt beam="1">  1       21 0.32627021E-02 0.12629144E+03</pdfrwt>
<pdfrwt beam="2">  1       21 0.38770590E-01 0.12629144E+03</pdfrwt>
<totfact> 0.34927558E+06</totfact>
</mgrwt>
</event>
<event>
 6    1  0.4241465E-002  0.1371744E+03  0.7546771E-02  0.1217182E+00
         21   -1    0    0  504  502  0.00000000000E+00  0.00000000000E+00  0.78379158498E+01  0.78379158498E+01  0.00000000000E+00 0. -1.
         21   -1    0    0  502  503 -0.00000000000E+00 -0.00000000000E+00 -0.35181498045E+04  0.35181498045E+04  0.00000000000E+00 0.  1.
         25    2    1    2    0    0  0.47080114397E+02 -0.31244976225E+02 -0.33930520538E+04  0.33958237677E+04  0.12499614205E+03 0.  0.
          5    1    3    3  501    0 -0.14713185749E+01 -0.50717787930E+02 -0.28025297548E+04  0.28029890288E+04  0.10000000000E+00 0. -1.
         -5    1    3    3    0  501  0.48551432972E+02  0.19472811705E+02 -0.59052229896E+03  0.59283473886E+03  0.10000000000E+00 0. -1.
         21    1    1    2  504  503 -0.47080114397E+02  0.31244976225E+02 -0.11725983490E+03  0.13016395274E+03  0.00000000000E+00 0. -1.
<mgrwt>
<rscale>  1 0.13717442E+03</rscale>
<asrwt>0</asrwt>
<pdfrwt beam="1">  1       21 0.12058310E-02 0.13717442E+03</pdfrwt>
<pdfrwt beam="2">  1       21 0.54125480E+00 0.13717442E+03</pdfrwt>
<totfact> 0.29203923E+03</totfact>
</mgrwt>
</event>
<event>
 6    1  0.4241465E-002  0.1374993E+03  0.7546771E-02  0.1216734E+00
         21   -1    0    0  504  502  0.00000000000E+00  0.00000000000E+00  0.13025175970E+03  0.13025175970E+03  0.00000000000E+00 0. -1.
         21   -1    0    0  502  503 -0.00000000000E+00 -0.00000000000E+00 -0.85825359095E+02  0.85825359095E+02  0.00000000000E+00 0. -1.
         25    2    1    2    0    0  0.32354782548E+02  0.47269849380E+02 -0.89372881952E+01  0.13778948314E+03  0.12499918372E+03 0.  0.
          5    1    3    3  501    0  0.36010602935E+02  0.39770911027E+02  0.52927538107E+02  0.75364601622E+02  0.10000000000E+00 0.  1.
         -5    1    3    3    0  501 -0.36558203870E+01  0.74989383534E+01 -0.61864826302E+02  0.62424881518E+02  0.10000000000E+00 0.  1.
         21    1    1    2  504  503 -0.32354782548E+02 -0.47269849380E+02  0.53363688805E+02  0.78287635659E+02  0.00000000000E+00 0. -1.
<mgrwt>
<rscale>  1 0.13749933E+03</rscale>
<asrwt>0</asrwt>
<pdfrwt beam="1">  1       21 0.20038732E-01 0.13749933E+03</pdfrwt>
<pdfrwt beam="2">  1       21 0.13203901E-01 0.13749933E+03</pdfrwt>
<totfact> 0.11371733E+06</totfact>
</mgrwt>
</event>
<event>
 6    1  0.4241465E-002  0.1268076E+03  0.7546771E-02  0.1232271E+00
         21   -1    0    0  504  502  0.00000000000E+00  0.00000000000E+00  0.70510515073E+02  0.70510515073E+02  0.00000000000E+00 0. -1.
         21   -1    0    0  502  503 -0.00000000000E+00 -0.00000000000E+00 -0.58707831420E+03  0.58707831420E+03  0.00000000000E+00 0.  1.
         25    2    1    2    0    0  0.14586461537E+02  0.15547197619E+02 -0.57842459117E+03  0.59216144253E+03  0.12500274451E+03 0.  0.
          5    1    3    3  501    0  0.16569795357E+02  0.55414416748E+02 -0.13402403300E+03  0.14597180249E+03  0.10000000000E+00 0. -1.
         -5    1    3    3    0  501 -0.19833338201E+01 -0.39867219130E+02 -0.44440055817E+03  0.44618964004E+03  0.10000000000E+00 0. -1.
         21    1    1    2  504  503 -0.14586461537E+02 -0.15547197619E+02  0.61856792043E+02  0.65427386742E+02  0.00000000000E+00 0. -1.
<mgrwt>
<rscale>  1 0.12680760E+03</rscale>
<asrwt>0</asrwt>
<pdfrwt beam="1">  1       21 0.10847771E-01 0.12680760E+03</pdfrwt>
<pdfrwt beam="2">  1       21 0.90319744E-01 0.12680760E+03</pdfrwt>
<totfact> 0.75454931E+04</totfact>
</mgrwt>
</event>
<event>
 6    1  0.4241465E-002  0.1270730E+03  0.7546771E-02  0.1231865E+00
         21   -1    0    0  504  502  0.00000000000E+00  0.00000000000E+00  0.45549661072E+03  0.45549661072E+03  0.00000000000E+00 0. -1.
         21   -1    0    0  502  503 -0.00000000000E+00 -0.00000000000E+00 -0.39628478461E+03  0.39628478461E+03  0.00000000000E+00 0. -1.
         25    2    1    2    0    0 -0.22837937061E+02  0.15032195541E+01 -0.38579630188E+03  0.40618509258E+03  0.12499484731E+03 0.  0.
          5    1    3    3  501    0  0.46466436195E+02 -0.79975175637E+00 -0.79051628072E+02  0.91700268246E+02  0.10000000000E+00 0.  1.
         -5    1    3    3    0  501 -0.69304373257E+02  0.23029713105E+01 -0.30674467381E+03  0.31448482434E+03  0.10000000000E+00 0.  1.
         21    1    1    2  504  503  0.22837937061E+02 -0.15032195541E+01  0.44500812799E+03  0.44559630274E+03  0.00000000000E+00 0. -1.
<mgrwt>
<rscale>  1 0.12707298E+03</rscale>
<asrwt>0</asrwt>
<pdfrwt beam="1">  1       21 0.70076402E-01 0.12707298E+03</pdfrwt>
<pdfrwt beam="2">  1       21 0.60966890E-01 0.12707298E+03</pdfrwt>
<totfact> 0.49082020E+03</totfact>
</mgrwt>
</event>
<event>
 6    1  0.4241465E-002  0.1324035E+03  0.7546771E-02  0.1223932E+00
         21   -1    0    0  504  502  0.00000000000E+00  0.00000000000E+00  0.25709124875E+03  0.25709124875E+03  0.00000000000E+00 0. -1.
         21   -1    0    0  502  503 -0.00000000000E+00 -0.00000000000E+00 -0.30143161039E+02  0.30143161039E+02  0.00000000000E+00 0. -1.
         25    2    1    2    0    0 -0.20945356281E+02 -0.38303110546E+02  0.16987805022E+03  0.21538160604E+03  0.12499939219E+03 0.  0.
          5    1    3    3  501    0 -0.87242533071E+01  0.45578248658E+02  0.74578875548E+02  0.87837964597E+02  0.10000000000E+00 0.  1.
         -5    1    3    3    0  501 -0.12221102974E+02 -0.83881359203E+02  0.95299174669E+02  0.12754364144E+03  0.10000000000E+00 0.  1.
         21    1    1    2  504  503  0.20945356281E+02  0.38303110546E+02  0.57070037496E+02  0.71852803752E+02  0.00000000000E+00 0. -1.
<mgrwt>
<rscale>  1 0.13240349E+03</rscale>
<asrwt>0</asrwt>
<pdfrwt beam="1">  1       21 0.39552498E-01 0.13240349E+03</pdfrwt>
<pdfrwt beam="2">  1       21 0.46374096E-02 0.13240349E+03</pdfrwt>
<totfact> 0.18756991E+06</totfact>
</mgrwt>
</event>
<event>
 6    1  0.4241465E-002  0.1259645E+03  0.7546771E-02  0.1233570E+00
         21   -1    0    0  504  502  0.00000000000E+00  0.00000000000E+00  0.16152900076E+02  0.16152900076E+02  0.00000000000E+00 0. -1.
         21   -1    0    0  502  503 -0.00000000000E+00 -0.00000000000E+00 -0.34735361076E+03  0.34735361076E+03  0.00000000000E+00 0. -1.
         25    2    1    2    0    0  0.15081889664E+02  0.33113408877E+01 -0.32143733015E+03  0.34523763091E+03  0.12501454399E+03 0.  0.
          5    1    3    3  501    0  0.15916818644E+02 -0.30737034813E+02 -0.16395935433E+02  0.38300745731E+02  0.10000000000E+00 0. -1.
         -5    1    3    3    0  501 -0.83492897953E+00  0.34048375701E+02 -0.30504139471E+03  0.30693688518E+03  0.10000000000E+00 0. -1.
         21    1    1    2  504  503 -0.15081889664E+02 -0.33113408877E+01 -0.97633805409E+01  0.18268879930E+02  0.00000000000E+00 0. -1.
<mgrwt>
<rscale>  1 0.12596454E+03</rscale>
<asrwt>0</asrwt>
<pdfrwt beam="1">  1       21 0.24850618E-02 0.12596454E+03</pdfrwt>
<pdfrwt beam="2">  1       21 0.53439012E-01 0.12596454E+03</pdfrwt>
<totfact> 0.28377562E+06</totfact>
</mgrwt>
</event>
<event>
 6    1  0.4241465E-002  0.1279146E+03  0.7546771E-02  0.1230583E+00
         21   -1    0    0  504  502  0.00000000000E+00  0.00000000000E+00  0.26218796408E+03  0.26218796408E+03  0.00000000000E+00 0. -1.
         21   -1    0    0  502  503 -0.00000000000E+00 -0.00000000000E+00 -0.83524064615E+02  0.83524064615E+02  0.00000000000E+00 0. -1.
         25    2    1    2    0    0 -0.33749592783E+01 -0.27024352971E+02 -0.33161371496E+02  0.13214318401E+03  0.12498175273E+03 0.  0.
          5    1    3    3  501    0 -0.63266176741E+02 -0.82210272842E+01 -0.26260156796E+02  0.68991305568E+02  0.10000000000E+00 0. -1.
         -5    1    3    3    0  501  0.59891217463E+02 -0.18803325687E+02 -0.69012147004E+01  0.63151878439E+02  0.10000000000E+00 0. -1.
         21    1    1    2  504  503  0.33749592783E+01  0.27024352971E+02  0.21182527096E+03  0.21356884469E+03  0.00000000000E+00 0. -1.
<mgrwt>
<rscale>  1 0.12791460E+03</rscale>
<asrwt>0</asrwt>
<pdfrwt beam="1">  1       21 0.40336610E-01 0.12791460E+03</pdfrwt>
<pdfrwt beam="2">  1       21 0.12849856E-01 0.12791460E+03</pdfrwt>
<totfact> 0.31149961E+05</totfact>
</mgrwt>
</event>
<event>
 6    1  0.4241465E-002  0.1269143E+03  0.7546771E-02  0.1232108E+00
         21   -1    0    0  503  502  0.00000000000E+00  0.00000000000E+00  0.11069916421E+04  0.11069916421E+04  0.00000000000E+00 0. -1.
         21   -1    0    0  504  503 -0.00000000000E+00 -0.00000000000E+00 -0.10080097068E+03  0.10080097068E+03  0.00000000000E+00 0.  1.
         25    2    1    2    0    0 -0.14918050919E+02 -0.16173985082E+02 -0.60694391648E+02  0.14068067684E+03  0.12499239025E+03 0.  0.
          5    1    3    3  501    0  0.48803312388E+02  0.20938481805E+02 -0.23149332118E+02  0.57931726177E+02  0.10000000000E+00 0. -1.
         -5    1    3    3    0  501 -0.63721363307E+02 -0.37112466887E+02 -0.37545059530E+02  0.82748950659E+02  0.10000000000E+00 0. -1.
         21    1    1    2  504  502  0.14918050919E+02  0.16173985082E+02  0.10668850631E+04  0.10671119360E+04  0.00000000000E+00 0. -1.
<mgrwt>
<rscale>  1 0.12691432E+03</rscale>
<asrwt>0</asrwt>
<pdfrwt beam="1">  1       21 0.17030640E+00 0.12691432E+03</pdfrwt>
<pdfrwt beam="2">  1       21 0.15507842E-01 0.12691432E+03</pdfrwt>
<totfact> 0.83318512E+03</totfact>
</mgrwt>
</event>
<event>
 6    1  0.4241465E-002  0.1432407E+03  0.7546771E-02  0.1209034E+00
         21   -1    0    0  503  502  0.00000000000E+00  0.00000000000E+00  0.41816469250E+02  0.41816469250E+02  0.00000000000E+00 0.  1.
         21   -1    0    0  504  503 -0.00000000000E+00 -0.00000000000E+00 -0.27397337077E+03  0.27397337077E+03  0.00000000000E+00 0.  1.
         25    2    1    2    0    0 -0.68108899570E+02 -0.16003052491E+02 -0.16898730148E+03  0.22152787389E+03  0.12499188357E+03 0.  0.
          5    1    3    3  501    0 -0.21839495834E+02 -0.44010504572E+02 -0.15914158747E+03  0.16655312352E+03  0.10000000000E+00 0.  1.
         -5    1    3    3    0  501 -0.46269403736E+02  0.28007452080E+02 -0.98457140136E+01  0.54974750373E+02  0.10000000000E+00 0.  1.
         21    1    1    2  504  502  0.68108899570E+02  0.16003052491E+02 -0.63169600031E+02  0.94261966125E+02  0.00000000000E+00 0.  1.
<mgrwt>
<rscale>  1 0.14324067E+03</rscale>
<asrwt>0</asrwt>
<pdfrwt beam="1">  1       21 0.64333030E-02 0.14324067E+03</pdfrwt>
<pdfrwt beam="2">  1       21 0.42149749E-01 0.14324067E+03</pdfrwt>
<totfact> 0.95016670E+05</totfact>
</mgrwt>
</event>
<event>
 6    1  0.4241465E-002  0.1285795E+03  0.7546771E-02  0.1229579E+00
         21   -1    0    0  504  502  0.00000000000E+00  0.00000000000E+00  0.89118089644E+01  0.89118089644E+01  0.00000000000E+00 0. -1.
         21   -1    0    0  502  503 -0.00000000000E+00 -0.00000000000E+00 -0.72624592928E+03  0.72624592928E+03  0.00000000000E+00 0. -1.
         25    2    1    2    0    0  0.12787719114E+02 -0.27275322367E+02 -0.52727578110E+03  0.54272686422E+03  0.12500092338E+03 0.  0.
          5    1    3    3  501    0 -0.48568501194E+01  0.41047750412E+02 -0.81312277748E+02  0.91215148520E+02  0.10000000000E+00 0.  1.
         -5    1    3    3    0  501  0.17644569233E+02 -0.68323072779E+02 -0.44596350335E+03  0.45151171570E+03  0.10000000000E+00 0.  1.
         21    1    1    2  504  503 -0.12787719114E+02  0.27275322367E+02 -0.19005833922E+03  0.19243087402E+03  0.00000000000E+00 0. -1.
<mgrwt>
<rscale>  1 0.12857955E+03</rscale>
<asrwt>0</asrwt>
<pdfrwt beam="1">  1       21 0.13710476E-02 0.12857955E+03</pdfrwt>
<pdfrwt beam="2">  1       21 0.11173014E+00 0.12857955E+03</pdfrwt>
<totfact> 0.14303120E+06</totfact>
</mgrwt>
</event>
<event>
 6    1  0.4241465E-002  0.1265840E+03  0.7546771E-02  0.1232614E+00
         21   -1    0    0  504  502  0.00000000000E+00  0.00000000000E+00  0.39723916757E+02  0.39723916757E+02  0.00000000000E+00 0. -1.
         21   -1    0    0  502  503 -0.00000000000E+00 -0.00000000000E+00 -0.25090087974E+03  0.25090087974E+03  0.00000000000E+00 0. -1.
         25    2    1    2    0    0  0.19940935708E+02  0.98047861365E+00 -0.23041675257E+03  0.26289806286E+03  0.12499963734E+03 0.  0.
          5    1    3    3  501    0  0.50160683058E+01 -0.11815811278E+01  0.15594890709E+02  0.16424606280E+02  0.10000000000E+00 0.  1.
         -5    1    3    3    0  501  0.14924867402E+02  0.21620597414E+01 -0.24601164328E+03  0.24647345658E+03  0.10000000000E+00 0.  1.
         21    1    1    2  504  503 -0.19940935708E+02 -0.98047861365E+00  0.19239789584E+02  0.27726733642E+02  0.00000000000E+00 0. -1.
<mgrwt>
<rscale>  1 0.12658401E+03</rscale>
<asrwt>0</asrwt>
<pdfrwt beam="1">  1       21 0.61113717E-02 0.12658401E+03</pdfrwt>
<pdfrwt beam="2">  1       21 0.38600136E-01 0.12658401E+03</pdfrwt>
<totfact> 0.12356508E+06</totfact>
</mgrwt>
</event>
<event>
 6    1  0.4241465E-002  0.1434009E+03  0.7546771E-02  0.1208825E+00
         21   -1    0    0  504  502  0.00000000000E+00  0.00000000000E+00  0.58587163363E+03  0.58587163363E+03  0.00000000000E+00 0. -1.
         21   -1    0    0  502  503 -0.00000000000E+00 -0.00000000000E+00 -0.59222553476E+02  0.59222553476E+02  0.00000000000E+00 0. -1.
         25    2    1    2    0    0  0.69522427823E+02 -0.10263601375E+02  0.33892653334E+02  0.14735167771E+03  0.12500038197E+03 0.  0.
          5    1    3    3  501    0  0.16512899958E+02  0.44267471386E+02 -0.22833504505E+02  0.52475363895E+02  0.10000000000E+00 0.  1.
         -5    1    3    3    0  501  0.53009527865E+02 -0.54531072761E+02  0.56726157839E+02  0.94876313820E+02  0.10000000000E+00 0.  1.
         21    1    1    2  504  503 -0.69522427823E+02  0.10263601375E+02  0.49275642682E+03  0.49774250939E+03  0.00000000000E+00 0. -1.
<mgrwt>
<rscale>  1 0.14340085E+03</rscale>
<asrwt>0</asrwt>
<pdfrwt beam="1">  1       21 0.90134093E-01 0.14340085E+03</pdfrwt>
<pdfrwt beam="2">  1       21 0.91111625E-02 0.14340085E+03</pdfrwt>
<totfact> 0.10212228E+05</totfact>
</mgrwt>
</event>
<event>
 6    1  0.4241465E-002  0.1379306E+03  0.7546771E-02  0.1216141E+00
         21   -1    0    0  503  502  0.00000000000E+00  0.00000000000E+00  0.52164861703E+03  0.52164861703E+03  0.00000000000E+00 0. -1.
         21   -1    0    0  504  503 -0.00000000000E+00 -0.00000000000E+00 -0.51647885911E+02  0.51647885911E+02  0.00000000000E+00 0.  1.
         25    2    1    2    0    0  0.12710665730E+02 -0.56906937463E+02  0.46139093911E+02  0.14544296719E+03  0.12499952066E+03 0.  0.
          5    1    3    3  501    0  0.13609421322E+02  0.39248555714E+02  0.17800672091E+02  0.45194462064E+02  0.10000000000E+00 0.  1.
         -5    1    3    3    0  501 -0.89875559171E+00 -0.96155493177E+02  0.28338421820E+02  0.10024850513E+03  0.10000000000E+00 0.  1.
         21    1    1    2  504  502 -0.12710665730E+02  0.56906937463E+02  0.42386163720E+03  0.42785353574E+03  0.00000000000E+00 0. -1.
<mgrwt>
<rscale>  1 0.13793056E+03</rscale>
<asrwt>0</asrwt>
<pdfrwt beam="1">  1       21 0.80253630E-01 0.13793056E+03</pdfrwt>
<pdfrwt beam="2">  1       21 0.79458289E-02 0.13793056E+03</pdfrwt>
<totfact> 0.16880136E+05</totfact>
</mgrwt>
</event>
<event>
 6    1  0.4241465E-002  0.1286499E+03  0.7546771E-02  0.1229473E+00
         21   -1    0    0  503  502  0.00000000000E+00  0.00000000000E+00  0.36582466751E+02  0.36582466751E+02  0.00000000000E+00 0. -1.
         21   -1    0    0  504  503 -0.00000000000E+00 -0.00000000000E+00 -0.18666370907E+03  0.18666370907E+03  0.00000000000E+00 0. -1.
         25    2    1    2    0    0  0.25634737496E+02 -0.16389420792E+02 -0.93619350454E+02  0.15910805835E+03  0.12500015428E+03 0.  0.
          5    1    3    3  501    0  0.12662206309E+02 -0.71180469585E+02 -0.54736381975E+02  0.90681156977E+02  0.10000000000E+00 0. -1.
         -5    1    3    3    0  501  0.12972531187E+02  0.54791048793E+02 -0.38882968479E+02  0.68426901369E+02  0.10000000000E+00 0. -1.
         21    1    1    2  504  502 -0.25634737496E+02  0.16389420792E+02 -0.56461891861E+02  0.64138117473E+02  0.00000000000E+00 0. -1.
<mgrwt>
<rscale>  1 0.12864988E+03</rscale>
<asrwt>0</asrwt>
<pdfrwt beam="1">  1       21 0.56280717E-02 0.12864988E+03</pdfrwt>
<pdfrwt beam="2">  1       21 0.28717494E-01 0.12864988E+03</pdfrwt>
<totfact> 0.25316910E+06</totfact>
</mgrwt>
</event>
<event>
 6    1  0.4241465E-002  0.1365316E+03  0.7546771E-02  0.1218074E+00
         21   -1    0    0  503  502  0.00000000000E+00  0.00000000000E+00  0.10328976895E+04  0.10328976895E+04  0.00000000000E+00 0. -1.
         21   -1    0    0  504  503 -0.00000000000E+00 -0.00000000000E+00 -0.10655806325E+02  0.10655806325E+02  0.00000000000E+00 0.  1.
         25    2    1    2    0    0 -0.49776585410E+02  0.23074151173E+02  0.49563285943E+03  0.51409415952E+03  0.12502299229E+03 0.  0.
          5    1    3    3  501    0  0.17377270904E+01  0.40260339888E+02  0.45839131630E+02  0.61034012255E+02  0.10000000000E+00 0. -1.
         -5    1    3    3    0  501 -0.51514312501E+02 -0.17186188715E+02  0.44979372780E+03  0.45306014726E+03  0.10000000000E+00 0. -1.
         21    1    1    2  504  502  0.49776585410E+02 -0.23074151173E+02  0.52660902379E+03  0.52945933635E+03  0.00000000000E+00 0. -1.
<mgrwt>
<rscale>  1 0.13653158E+03</rscale>
<asrwt>0</asrwt>
<pdfrwt beam="1">  1       21 0.15890726E+00 0.13653158E+03</pdfrwt>
<pdfrwt beam="2">  1       21 0.16393556E-02 0.13653158E+03</pdfrwt>
<totfact> 0.44328400E+05</totfact>
</mgrwt>
</event>
<event>
 6    1  0.4241465E-002  0.1286656E+03  0.7546771E-02  0.1229449E+00
         21   -1    0    0  504  502  0.00000000000E+00  0.00000000000E+00  0.85904861417E+03  0.85904861417E+03  0.00000000000E+00 0. -1.
         21   -1    0    0  502  503 -0.00000000000E+00 -0.00000000000E+00 -0.18002074402E+02  0.18002074402E+02  0.00000000000E+00 0. -1.
         25    2    1    2    0    0  0.20855610765E+02 -0.22504736262E+02  0.21719489137E+03  0.25244497385E+03  0.12495368874E+03 0.  0.
          5    1    3    3  501    0 -0.43763386064E+01  0.80224682725E+01  0.21234768814E+03  0.21254426126E+03  0.10000000000E+00 0. -1.
         -5    1    3    3    0  501  0.25231949371E+02 -0.30527204535E+02  0.48472032275E+01  0.39900712586E+02  0.10000000000E+00 0. -1.
         21    1    1    2  504  503 -0.20855610765E+02  0.22504736262E+02  0.62385164840E+03  0.62460571472E+03  0.00000000000E+00 0. -1.
<mgrwt>
<rscale>  1 0.12866563E+03</rscale>
<asrwt>0</asrwt>
<pdfrwt beam="1">  1       21 0.13216129E+00 0.12866563E+03</pdfrwt>
<pdfrwt beam="2">  1       21 0.27695506E-02 0.12866563E+03</pdfrwt>
<totfact> 0.30529222E+05</totfact>
</mgrwt>
</event>
<event>
 6    1  0.4241465E-002  0.1290155E+03  0.7546771E-02  0.1228924E+00
         21   -1    0    0  504  502  0.00000000000E+00  0.00000000000E+00  0.18081266201E+02  0.18081266201E+02  0.00000000000E+00 0. -1.
         21   -1    0    0  502  503 -0.00000000000E+00 -0.00000000000E+00 -0.35847497554E+03  0.35847497554E+03  0.00000000000E+00 0. -1.
         25    2    1    2    0    0 -0.10575476303E+01  0.31916345520E+02 -0.27714614512E+03  0.30570410064E+03  0.12500095951E+03 0.  0.
          5    1    3    3  501    0  0.27532994044E+02 -0.29759472937E+01 -0.25305196429E+03  0.25456281868E+03  0.10000000000E+00 0.  1.
         -5    1    3    3    0  501 -0.28590541675E+02  0.34892292813E+02 -0.24094180827E+02  0.51141281962E+02  0.10000000000E+00 0.  1.
         21    1    1    2  504  503  0.10575476303E+01 -0.31916345520E+02 -0.63247564221E+02  0.70852141099E+02  0.00000000000E+00 0. -1.
<mgrwt>
<rscale>  1 0.12901555E+03</rscale>
<asrwt>0</asrwt>
<pdfrwt beam="1">  1       21 0.27817332E-02 0.12901555E+03</pdfrwt>
<pdfrwt beam="2">  1       21 0.55149997E-01 0.12901555E+03</pdfrwt>
<totfact> 0.22122726E+06</totfact>
</mgrwt>
</event>
<event>
 6    1  0.4241465E-002  0.1312768E+03  0.7546771E-02  0.1225573E+00
         21   -1    0    0  503  502  0.00000000000E+00  0.00000000000E+00  0.54034785985E+03  0.54034785985E+03  0.00000000000E+00 0.  1.
         21   -1    0    0  504  503 -0.00000000000E+00 -0.00000000000E+00 -0.18454924977E+02  0.18454924977E+02  0.00000000000E+00 0.  1.
         25    2    1    2    0    0 -0.42856222988E+00  0.40101300233E+02  0.23552006294E+03  0.26963549808E+03  0.12500121532E+03 0.  0.
          5    1    3    3  501    0 -0.42593564138E+01  0.80560167182E+02  0.20001240316E+03  0.21566885281E+03  0.10000000000E+00 0. -1.
         -5    1    3    3    0  501  0.38307941839E+01 -0.40458866949E+02  0.35507659781E+02  0.53966645273E+02  0.10000000000E+00 0. -1.
         21    1    1    2  504  502  0.42856222988E+00 -0.40101300233E+02  0.28637287193E+03  0.28916728675E+03  0.00000000000E+00 0.  1.
<mgrwt>
<rscale>  1 0.13127681E+03</rscale>
<asrwt>0</asrwt>
<pdfrwt beam="1">  1       21 0.83130428E-01 0.13127681E+03</pdfrwt>
<pdfrwt beam="2">  1       21 0.28392196E-02 0.13127681E+03</pdfrwt>
<totfact> 0.87841102E+05</totfact>
</mgrwt>
</event>
<event>
 6    1  0.4241465E-002  0.1324599E+03  0.7546771E-02  0.1223851E+00
         21   -1    0    0  503  502  0.00000000000E+00  0.00000000000E+00  0.43224281916E+03  0.43224281916E+03  0.00000000000E+00 0.  1.
         21   -1    0    0  504  503 -0.00000000000E+00 -0.00000000000E+00 -0.23032038164E+02  0.23032038164E+02  0.00000000000E+00 0.  1.
         25    2    1    2    0    0 -0.33653980829E+02 -0.28057112974E+02  0.18929833203E+03  0.23103998665E+03  0.12500329959E+03 0.  0.
          5    1    3    3  501    0 -0.20503582407E+01  0.30444412305E+02  0.11710224511E+00  0.30513766114E+02  0.10000000000E+00 0.  1.
         -5    1    3    3    0  501 -0.31603622588E+02 -0.58501525280E+02  0.18918122978E+03  0.20052622054E+03  0.10000000000E+00 0.  1.
         21    1    1    2  504  502  0.33653980829E+02  0.28057112974E+02  0.21991244897E+03  0.22423487067E+03  0.00000000000E+00 0.  1.
<mgrwt>
<rscale>  1 0.13245987E+03</rscale>
<asrwt>0</asrwt>
<pdfrwt beam="1">  1       21 0.66498889E-01 0.13245987E+03</pdfrwt>
<pdfrwt beam="2">  1       21 0.35433908E-02 0.13245987E+03</pdfrwt>
<totfact> 0.99837613E+05</totfact>
</mgrwt>
</event>
<event>
 6    1  0.4241465E-002  0.1275060E+03  0.7546771E-02  0.1231204E+00
         21   -1    0    0  503  502  0.00000000000E+00  0.00000000000E+00  0.57295856277E+03  0.57295856277E+03  0.00000000000E+00 0.  1.
         21   -1    0    0  504  503 -0.00000000000E+00 -0.00000000000E+00 -0.28445003878E+03  0.28445003878E+03  0.00000000000E+00 0.  1.
         25    2    1    2    0    0 -0.24717409412E+02 -0.51209672262E+01 -0.26986177856E+03  0.29846802384E+03  0.12498242713E+03 0.  0.
          5    1    3    3  501    0 -0.24751596862E+02  0.33957564919E+01  0.32759640959E+01  0.25197512776E+02  0.10000000000E+00 0. -1.
         -5    1    3    3    0  501  0.34187449492E-01 -0.85167237181E+01 -0.27313774266E+03  0.27327051106E+03  0.10000000000E+00 0. -1.
         21    1    1    2  504  502  0.24717409412E+02  0.51209672262E+01  0.55837030256E+03  0.55894057771E+03  0.00000000000E+00 0.  1.
<mgrwt>
<rscale>  1 0.12750601E+03</rscale>
<asrwt>0</asrwt>
<pdfrwt beam="1">  1       21 0.88147471E-01 0.12750601E+03</pdfrwt>
<pdfrwt beam="2">  1       21 0.43761545E-01 0.12750601E+03</pdfrwt>
<totfact> 0.58542256E+03</totfact>
</mgrwt>
</event>
<event>
 6    1  0.4241465E-002  0.1274696E+03  0.7546771E-02  0.1231259E+00
         21   -1    0    0  504  502  0.00000000000E+00  0.00000000000E+00  0.16692057521E+03  0.16692057521E+03  0.00000000000E+00 0. -1.
         21   -1    0    0  502  503 -0.00000000000E+00 -0.00000000000E+00 -0.40853567365E+02  0.40853567365E+02  0.00000000000E+00 0. -1.
         25    2    1    2    0    0  0.19844289435E+02  0.15207293032E+02  0.67820674967E+02  0.14438886922E+03  0.12499377591E+03 0.  0.
          5    1    3    3  501    0  0.73007324283E+02  0.11740722581E+02  0.34955090371E+02  0.81791089420E+02  0.10000000000E+00 0.  1.
         -5    1    3    3    0  501 -0.53163034848E+02  0.34665704515E+01  0.32865584596E+02  0.62597779800E+02  0.10000000000E+00 0.  1.
         21    1    1    2  504  503 -0.19844289435E+02 -0.15207293032E+02  0.58246332879E+02  0.63385273356E+02  0.00000000000E+00 0. -1.
<mgrwt>
<rscale>  1 0.12746961E+03</rscale>
<asrwt>0</asrwt>
<pdfrwt beam="1">  1       21 0.25680088E-01 0.12746961E+03</pdfrwt>
<pdfrwt beam="2">  1       21 0.62851643E-02 0.12746961E+03</pdfrwt>
<totfact> 0.25976494E+06</totfact>
</mgrwt>
</event>
<event>
 6    1  0.4241465E-002  0.1282904E+03  0.7546771E-02  0.1230015E+00
         21   -1    0    0  503  502  0.00000000000E+00  0.00000000000E+00  0.35565853645E+03  0.35565853645E+03  0.00000000000E+00 0.  1.
         21   -1    0    0  504  503 -0.00000000000E+00 -0.00000000000E+00 -0.26383376413E+02  0.26383376413E+02  0.00000000000E+00 0.  1.
         25    2    1    2    0    0 -0.30845660477E+01  0.28643595707E+02  0.13726769996E+03  0.18788518533E+03  0.12501380440E+03 0.  0.
          5    1    3    3  501    0 -0.55781811182E+02  0.22235916404E+02  0.27692624008E+02  0.66128192638E+02  0.10000000000E+00 0. -1.
         -5    1    3    3    0  501  0.52697245134E+02  0.64076793028E+01  0.10957507596E+03  0.12175699269E+03  0.10000000000E+00 0. -1.
         21    1    1    2  504  502  0.30845660477E+01 -0.28643595707E+02  0.19200746007E+03  0.19415672753E+03  0.00000000000E+00 0.  1.
<mgrwt>
<rscale>  1 0.12829038E+03</rscale>
<asrwt>0</asrwt>
<pdfrwt beam="1">  1       21 0.54716695E-01 0.12829038E+03</pdfrwt>
<pdfrwt beam="2">  1       21 0.40589812E-02 0.12829038E+03</pdfrwt>
<totfact> 0.12064308E+06</totfact>
</mgrwt>
</event>
<event>
 6    1  0.4241465E-002  0.1276519E+03  0.7546771E-02  0.1230982E+00
         21   -1    0    0  504  502  0.00000000000E+00  0.00000000000E+00  0.79247825593E+03  0.79247825593E+03  0.00000000000E+00 0.  1.
         21   -1    0    0  502  503 -0.00000000000E+00 -0.00000000000E+00 -0.22173639931E+03  0.22173639931E+03  0.00000000000E+00 0. -1.
         25    2    1    2    0    0  0.25773318609E+02 -0.20219229167E+01 -0.20313060288E+03  0.23991049297E+03  0.12500660258E+03 0.  0.
          5    1    3    3  501    0 -0.43234508094E+02 -0.29295486528E+02 -0.67917664077E+02  0.85675360021E+02  0.10000000000E+00 0.  1.
         -5    1    3    3    0  501  0.69007826703E+02  0.27273563611E+02 -0.13521293880E+03  0.15423513295E+03  0.10000000000E+00 0.  1.
         21    1    1    2  504  503 -0.25773318609E+02  0.20219229167E+01  0.77387245950E+03  0.77430416227E+03  0.00000000000E+00 0.  1.
<mgrwt>
<rscale>  1 0.12765188E+03</rscale>
<asrwt>0</asrwt>
<pdfrwt beam="1">  1       21 0.12191973E+00 0.12765188E+03</pdfrwt>
<pdfrwt beam="2">  1       21 0.34113293E-01 0.12765188E+03</pdfrwt>
<totfact> 0.44703637E+03</totfact>
</mgrwt>
</event>
<event>
 6    1  0.4241465E-002  0.1272920E+03  0.7546771E-02  0.1231530E+00
         21   -1    0    0  504  502  0.00000000000E+00  0.00000000000E+00  0.12140964918E+03  0.12140964918E+03  0.00000000000E+00 0. -1.
         21   -1    0    0  502  503 -0.00000000000E+00 -0.00000000000E+00 -0.49165767705E+02  0.49165767705E+02  0.00000000000E+00 0. -1.
         25    2    1    2    0    0  0.23759670158E+02 -0.24936675456E+01  0.46667345914E+02  0.13557685298E+03  0.12503000275E+03 0.  0.
          5    1    3    3  501    0 -0.21497336224E+02  0.14655542985E+02 -0.33205989202E+02  0.42184927685E+02  0.10000000000E+00 0.  1.
         -5    1    3    3    0  501  0.45257006382E+02 -0.17149210531E+02  0.79873335116E+02  0.93391925299E+02  0.10000000000E+00 0.  1.
         21    1    1    2  504  503 -0.23759670158E+02  0.24936675456E+01  0.25576535561E+02  0.34998563901E+02  0.00000000000E+00 0. -1.
<mgrwt>
<rscale>  1 0.12729196E+03</rscale>
<asrwt>0</asrwt>
<pdfrwt beam="1">  1       21 0.18678407E-01 0.12729196E+03</pdfrwt>
<pdfrwt beam="2">  1       21 0.75639643E-02 0.12729196E+03</pdfrwt>
<totfact> 0.34271479E+06</totfact>
</mgrwt>
</event>
<event>
 6    1  0.4241465E-002  0.1264652E+03  0.7546771E-02  0.1232797E+00
         21   -1    0    0  503  502  0.00000000000E+00  0.00000000000E+00  0.12694119242E+03  0.12694119242E+03  0.00000000000E+00 0. -1.
         21   -1    0    0  504  503 -0.00000000000E+00 -0.00000000000E+00 -0.67255556223E+02  0.67255556223E+02  0.00000000000E+00 0. -1.
         25    2    1    2    0    0  0.18513891204E+02 -0.51393611329E+01 -0.51539725970E+01  0.12657018530E+03  0.12499708466E+03 0.  0.
          5    1    3    3  501    0  0.43867147109E+02  0.47172997405E+02  0.12904525443E+02  0.65697450913E+02  0.10000000000E+00 0. -1.
         -5    1    3    3    0  501 -0.25353255904E+02 -0.52312358538E+02 -0.18058498040E+02  0.60872734391E+02  0.10000000000E+00 0. -1.
         21    1    1    2  504  502 -0.18513891204E+02  0.51393611329E+01  0.64839608794E+02  0.67626563338E+02  0.00000000000E+00 0. -1.
<mgrwt>
<rscale>  1 0.12646521E+03</rscale>
<asrwt>0</asrwt>
<pdfrwt beam="1">  1       21 0.19529414E-01 0.12646521E+03</pdfrwt>
<pdfrwt beam="2">  1       21 0.10347009E-01 0.12646521E+03</pdfrwt>
<totfact> 0.18331731E+06</totfact>
</mgrwt>
</event>
<event>
 6    1  0.4241465E-002  0.1305650E+03  0.7546771E-02  0.1226620E+00
         21   -1    0    0  503  502  0.00000000000E+00  0.00000000000E+00  0.81621871409E+01  0.81621871409E+01  0.00000000000E+00 0.  1.
         21   -1    0    0  504  503 -0.00000000000E+00 -0.00000000000E+00 -0.89714818104E+03  0.89714818104E+03  0.00000000000E+00 0.  1.
         25    2    1    2    0    0  0.17519912869E+02 -0.33375082423E+02 -0.75116034621E+03  0.76242316569E+03  0.12500549746E+03 0.  0.
          5    1    3    3  501    0  0.58091668851E+02  0.10886898510E+02 -0.52901463241E+03  0.53230598142E+03  0.10000000000E+00 0.  1.
         -5    1    3    3    0  501 -0.40571755982E+02 -0.44261980933E+02 -0.22214571380E+03  0.23011718428E+03  0.10000000000E+00 0.  1.
         21    1    1    2  504  502 -0.17519912869E+02  0.33375082423E+02 -0.13782564769E+03  0.14288720249E+03  0.00000000000E+00 0.  1.
<mgrwt>
<rscale>  1 0.13056499E+03</rscale>
<asrwt>0</asrwt>
<pdfrwt beam="1">  1       21 0.12557219E-02 0.13056499E+03</pdfrwt>
<pdfrwt beam="2">  1       21 0.13802271E+00 0.13056499E+03</pdfrwt>
<totfact> 0.97792440E+05</totfact>
</mgrwt>
</event>
<event>
 6    1  0.4241465E-002  0.1382152E+03  0.7546771E-02  0.1215751E+00
         21   -1    0    0  504  502  0.00000000000E+00  0.00000000000E+00  0.16268871196E+03  0.16268871196E+03  0.00000000000E+00 0. -1.
         21   -1    0    0  502  503 -0.00000000000E+00 -0.00000000000E+00 -0.66310697132E+02  0.66310697132E+02  0.00000000000E+00 0. -1.
         25    2    1    2    0    0 -0.12515806975E+02  0.57658646411E+02  0.32386849847E+02  0.14195899247E+03  0.12498912981E+03 0.  0.
          5    1    3    3  501    0  0.61373005425E+01  0.14748035295E+02  0.76201312207E+02  0.77857697019E+02  0.10000000000E+00 0.  1.
         -5    1    3    3    0  501 -0.18653107517E+02  0.42910611116E+02 -0.43814462361E+02  0.64101295450E+02  0.10000000000E+00 0.  1.
         21    1    1    2  504  503  0.12515806975E+02 -0.57658646411E+02  0.63991164979E+02  0.87040416621E+02  0.00000000000E+00 0. -1.
<mgrwt>
<rscale>  1 0.13821522E+03</rscale>
<asrwt>0</asrwt>
<pdfrwt beam="1">  1       21 0.25029032E-01 0.13821522E+03</pdfrwt>
<pdfrwt beam="2">  1       21 0.10201646E-01 0.13821522E+03</pdfrwt>
<totfact> 0.11840543E+06</totfact>
</mgrwt>
</event>
<event>
 6    1  0.4241465E-002  0.1266479E+03  0.7546771E-02  0.1232516E+00
         21   -1    0    0  504  502  0.00000000000E+00  0.00000000000E+00  0.56547426690E+01  0.56547426690E+01  0.00000000000E+00 0. -1.
         21   -1    0    0  502  503 -0.00000000000E+00 -0.00000000000E+00 -0.10182522988E+04  0.10182522988E+04  0.00000000000E+00 0. -1.
         25    2    1    2    0    0  0.70943053714E+01  0.19091803653E+02 -0.94046376613E+03  0.94895299024E+03  0.12499942460E+03 0.  0.
          5    1    3    3  501    0  0.17132059634E+02 -0.45575350719E+01 -0.15256505975E+02  0.23389090786E+02  0.10000000000E+00 0. -1.
         -5    1    3    3    0  501 -0.10037754262E+02  0.23649338725E+02 -0.92520726015E+03  0.92556389946E+03  0.10000000000E+00 0. -1.
         21    1    1    2  504  503 -0.70943053714E+01 -0.19091803653E+02 -0.72133789997E+02  0.74954051223E+02  0.00000000000E+00 0.  1.
<mgrwt>
<rscale>  1 0.12664787E+03</rscale>
<asrwt>0</asrwt>
<pdfrwt beam="1">  1       21 0.86996153E-03 0.12664787E+03</pdfrwt>
<pdfrwt beam="2">  1       21 0.15665400E+00 0.12664787E+03</pdfrwt>
<totfact> 0.12597515E+06</totfact>
</mgrwt>
</event>
<event>
 6    1  0.4241465E-002  0.1272190E+03  0.7546771E-02  0.1231642E+00
         21   -1    0    0  503  502  0.00000000000E+00  0.00000000000E+00  0.74062040528E+02  0.74062040528E+02  0.00000000000E+00 0. -1.
         21   -1    0    0  504  503 -0.00000000000E+00 -0.00000000000E+00 -0.22627685036E+03  0.22627685036E+03  0.00000000000E+00 0. -1.
         25    2    1    2    0    0 -0.73576144553E+01 -0.22504505112E+02 -0.20569180741E+03  0.24185490581E+03  0.12499635430E+03 0.  0.
          5    1    3    3  501    0  0.53689306168E+02  0.14676433760E+02 -0.85773909103E+02  0.10225024590E+03  0.10000000000E+00 0.  1.
         -5    1    3    3    0  501 -0.61046920623E+02 -0.37180938871E+02 -0.11991789831E+03  0.13960465990E+03  0.10000000000E+00 0.  1.
         21    1    1    2  504  502  0.73576144553E+01  0.22504505112E+02  0.53476997577E+02  0.58483985079E+02  0.00000000000E+00 0. -1.
<mgrwt>
<rscale>  1 0.12721901E+03</rscale>
<asrwt>0</asrwt>
<pdfrwt beam="1">  1       21 0.11394160E-01 0.12721901E+03</pdfrwt>
<pdfrwt beam="2">  1       21 0.34811823E-01 0.12721901E+03</pdfrwt>
<totfact> 0.51611838E+05</totfact>
</mgrwt>
</event>
<event>
 6    1  0.4241465E-002  0.1266179E+03  0.7546771E-02  0.1232562E+00
         21   -1    0    0  504  502  0.00000000000E+00  0.00000000000E+00  0.78554360668E+02  0.78554360668E+02  0.00000000000E+00 0.  1.
         21   -1    0    0  502  503 -0.00000000000E+00 -0.00000000000E+00 -0.14608906011E+03  0.14608906011E+03  0.00000000000E+00 0. -1.
         25    2    1    2    0    0  0.18804723297E+02 -0.73376696389E+01 -0.11626356570E+03  0.17189911852E+03  0.12499852489E+03 0.  0.
          5    1    3    3  501    0  0.63135733399E+02  0.25977506951E+02 -0.45708912426E+02  0.82160004713E+02  0.10000000000E+00 0. -1.
         -5    1    3    3    0  501 -0.44331010102E+02 -0.33315176590E+02 -0.70554653274E+02  0.89739113805E+02  0.10000000000E+00 0. -1.
         21    1    1    2  504  503 -0.18804723297E+02  0.73376696389E+01  0.48728866258E+02  0.52744302259E+02  0.00000000000E+00 0.  1.
<mgrwt>
<rscale>  1 0.12661789E+03</rscale>
<asrwt>0</asrwt>
<pdfrwt beam="1">  1       21 0.12085286E-01 0.12661789E+03</pdfrwt>
<pdfrwt beam="2">  1       21 0.22475240E-01 0.12661789E+03</pdfrwt>
<totfact> 0.10743205E+06</totfact>
</mgrwt>
</event>
<event>
 6    1  0.4241465E-002  0.1297269E+03  0.7546771E-02  0.1227862E+00
         21   -1    0    0  503  502  0.00000000000E+00  0.00000000000E+00  0.13060335651E+03  0.13060335651E+03  0.00000000000E+00 0. -1.
         21   -1    0    0  504  503 -0.00000000000E+00 -0.00000000000E+00 -0.11561925980E+03  0.11561925980E+03  0.00000000000E+00 0. -1.
         25    2    1    2    0    0 -0.32632927348E+02 -0.12164173350E+02 -0.74921435413E+02  0.14980747349E+03  0.12496472529E+03 0.  0.
          5    1    3    3  501    0 -0.52917797102E+01 -0.40853941262E+02 -0.96325969626E+02  0.10476521309E+03  0.10000000000E+00 0. -1.
         -5    1    3    3    0  501 -0.27341147638E+02  0.28689767912E+02  0.21404534212E+02  0.45042260399E+02  0.10000000000E+00 0. -1.
         21    1    1    2  504  502  0.32632927348E+02  0.12164173350E+02  0.89905532123E+02  0.96415142830E+02  0.00000000000E+00 0. -1.
<mgrwt>
<rscale>  1 0.12972686E+03</rscale>
<asrwt>0</asrwt>
<pdfrwt beam="1">  1       21 0.20092824E-01 0.12972686E+03</pdfrwt>
<pdfrwt beam="2">  1       21 0.17787578E-01 0.12972686E+03</pdfrwt>
<totfact> 0.66011051E+05</totfact>
</mgrwt>
</event>
<event>
 6    1  0.4241465E-002  0.1330682E+03  0.7546771E-02  0.1222973E+00
         21   -1    0    0  503  502  0.00000000000E+00  0.00000000000E+00  0.58319726122E+01  0.58319726122E+01  0.00000000000E+00 0.  1.
         21   -1    0    0  504  503 -0.00000000000E+00 -0.00000000000E+00 -0.13705128371E+04  0.13705128371E+04  0.00000000000E+00 0.  1.
         25    2    1    2    0    0 -0.11873329900E+02 -0.44075633858E+02 -0.10348061543E+04  0.10433268494E+04  0.12499400089E+03 0.  0.
          5    1    3    3  501    0  0.21810759150E+02  0.18385045508E+02 -0.65695393771E+02  0.71621322773E+02  0.10000000000E+00 0.  1.
         -5    1    3    3    0  501 -0.33684089050E+02 -0.62460679366E+02 -0.96911076050E+03  0.97170552661E+03  0.10000000000E+00 0.  1.
         21    1    1    2  504  502  0.11873329900E+02  0.44075633858E+02 -0.32987471020E+03  0.33301796032E+03  0.00000000000E+00 0.  1.
<mgrwt>
<rscale>  1 0.13306817E+03</rscale>
<asrwt>0</asrwt>
<pdfrwt beam="1">  1       21 0.89722603E-03 0.13306817E+03</pdfrwt>
<pdfrwt beam="2">  1       21 0.21084825E+00 0.13306817E+03</pdfrwt>
<totfact> 0.52370524E+05</totfact>
</mgrwt>
</event>
<event>
 6    1  0.4241465E-002  0.1395257E+03  0.7546771E-02  0.1213969E+00
         21   -1    0    0  504  502  0.00000000000E+00  0.00000000000E+00  0.51704605338E+02  0.51704605338E+02  0.00000000000E+00 0.  1.
         21   -1    0    0  502  503 -0.00000000000E+00 -0.00000000000E+00 -0.20143947332E+03  0.20143947332E+03  0.00000000000E+00 0.  1.
         25    2    1    2    0    0 -0.56382410827E+02  0.25753504924E+02 -0.12157460176E+03  0.18506162967E+03  0.12500081486E+03 0.  0.
          5    1    3    3  501    0  0.24833229291E+02 -0.17138254675E+02 -0.77542752335E+02  0.83206354866E+02  0.10000000000E+00 0. -1.
         -5    1    3    3    0  501 -0.81215640118E+02  0.42891759598E+02 -0.44031849424E+02  0.10185527480E+03  0.10000000000E+00 0. -1.
         21    1    1    2  504  503  0.56382410827E+02 -0.25753504924E+02 -0.28160266219E+02  0.68082448986E+02  0.00000000000E+00 0.  1.
<mgrwt>
<rscale>  1 0.13952571E+03</rscale>
<asrwt>0</asrwt>
<pdfrwt beam="1">  1       21 0.79545547E-02 0.13952571E+03</pdfrwt>
<pdfrwt beam="2">  1       21 0.30990688E-01 0.13952571E+03</pdfrwt>
<totfact> 0.12124572E+06</totfact>
</mgrwt>
</event>
<event>
 6    1  0.4241465E-002  0.1266518E+03  0.7546771E-02  0.1232510E+00
         21   -1    0    0  503  502  0.00000000000E+00  0.00000000000E+00  0.38285683560E+02  0.38285683560E+02  0.00000000000E+00 0.  1.
         21   -1    0    0  504  503 -0.00000000000E+00 -0.00000000000E+00 -0.14246401189E+03  0.14246401189E+03  0.00000000000E+00 0.  1.
         25    2    1    2    0    0 -0.48686461367E+01  0.19828186486E+02 -0.95220747422E+02  0.15845397949E+03  0.12499524864E+03 0.  0.
          5    1    3    3  501    0  0.36490058556E+02 -0.10660009435E+02  0.11744192869E+02  0.39788141961E+02  0.10000000000E+00 0. -1.
         -5    1    3    3    0  501 -0.41358704693E+02  0.30488195920E+02 -0.10696494029E+03  0.11866583753E+03  0.10000000000E+00 0. -1.
         21    1    1    2  504  502  0.48686461367E+01 -0.19828186486E+02 -0.89575809054E+01  0.22295715961E+02  0.00000000000E+00 0.  1.
<mgrwt>
<rscale>  1 0.12665178E+03</rscale>
<asrwt>0</asrwt>
<pdfrwt beam="1">  1       21 0.58901052E-02 0.12665178E+03</pdfrwt>
<pdfrwt beam="2">  1       21 0.21917540E-01 0.12665178E+03</pdfrwt>
<totfact> 0.39046371E+06</totfact>
</mgrwt>
</event>
<event>
 6    1  0.4241465E-002  0.1265085E+03  0.7546771E-02  0.1232730E+00
         21   -1    0    0  504  502  0.00000000000E+00  0.00000000000E+00  0.10981231810E+02  0.10981231810E+02  0.00000000000E+00 0. -1.
         21   -1    0    0  502  503 -0.00000000000E+00 -0.00000000000E+00 -0.69300927030E+03  0.69300927030E+03  0.00000000000E+00 0. -1.
         25    2    1    2    0    0 -0.19476171345E+02  0.51454540804E+00 -0.66827104370E+03  0.68014011610E+03  0.12499921469E+03 0.  0.
          5    1    3    3  501    0 -0.60334434043E+02  0.29218505202E+02 -0.50425733126E+03  0.50869384811E+03  0.10000000000E+00 0.  1.
         -5    1    3    3    0  501  0.40858262698E+02 -0.28703959794E+02 -0.16401371244E+03  0.17144626799E+03  0.10000000000E+00 0.  1.
         21    1    1    2  504  503  0.19476171345E+02 -0.51454540804E+00 -0.13756994794E+02  0.23850386014E+02  0.00000000000E+00 0. -1.
<mgrwt>
<rscale>  1 0.12650846E+03</rscale>
<asrwt>0</asrwt>
<pdfrwt beam="1">  1       21 0.16894198E-02 0.12650846E+03</pdfrwt>
<pdfrwt beam="2">  1       21 0.10661684E+00 0.12650846E+03</pdfrwt>
<totfact> 0.11457038E+06</totfact>
</mgrwt>
</event>
<event>
 6    1  0.4241465E-002  0.1449505E+03  0.7546771E-02  0.1206819E+00
         21   -1    0    0  503  502  0.00000000000E+00  0.00000000000E+00  0.16420194570E+03  0.16420194570E+03  0.00000000000E+00 0.  1.
         21   -1    0    0  504  503 -0.00000000000E+00 -0.00000000000E+00 -0.12775424879E+03  0.12775424879E+03  0.00000000000E+00 0.  1.
         25    2    1    2    0    0 -0.39375571612E+02  0.61929265740E+02 -0.71341817355E+02  0.16155585330E+03  0.12499987695E+03 0.  0.
          5    1    3    3  501    0 -0.41594957490E+02  0.98914328806E+02 -0.59281331529E+02  0.12259066522E+03  0.10000000000E+00 0.  1.
         -5    1    3    3    0  501  0.22193858777E+01 -0.36985063065E+02 -0.12060485826E+02  0.38965188078E+02  0.10000000000E+00 0.  1.
         21    1    1    2  504  502  0.39375571612E+02 -0.61929265740E+02  0.10778951427E+03  0.13040034118E+03  0.00000000000E+00 0.  1.
<mgrwt>
<rscale>  1 0.14495047E+03</rscale>
<asrwt>0</asrwt>
<pdfrwt beam="1">  1       21 0.25261838E-01 0.14495047E+03</pdfrwt>
<pdfrwt beam="2">  1       21 0.19654500E-01 0.14495047E+03</pdfrwt>
<totfact> 0.35729122E+05</totfact>
</mgrwt>
</event>
<event>
 6    1  0.4241465E-002  0.1277159E+03  0.7546771E-02  0.1230885E+00
         21   -1    0    0  504  502  0.00000000000E+00  0.00000000000E+00  0.10363172594E+04  0.10363172594E+04  0.00000000000E+00 0.  1.
         21   -1    0    0  502  503 -0.00000000000E+00 -0.00000000000E+00 -0.72219442610E+01  0.72219442610E+01  0.00000000000E+00 0.  1.
         25    2    1    2    0    0 -0.24831361072E+02  0.82501776286E+01  0.58999885629E+03  0.60366380983E+03  0.12500673163E+03 0.  0.
          5    1    3    3  501    0  0.48995198511E+02 -0.12430486140E+02  0.20878848589E+03  0.21482013011E+03  0.10000000000E+00 0.  1.
         -5    1    3    3    0  501 -0.73826559583E+02  0.20680663768E+02  0.38121037040E+03  0.38884367972E+03  0.10000000000E+00 0.  1.
         21    1    1    2  504  503  0.24831361072E+02 -0.82501776286E+01  0.43909645890E+03  0.43987539388E+03  0.00000000000E+00 0.  1.
<mgrwt>
<rscale>  1 0.12771588E+03</rscale>
<asrwt>0</asrwt>
<pdfrwt beam="1">  1       21 0.15943331E+00 0.12771588E+03</pdfrwt>
<pdfrwt beam="2">  1       21 0.11110692E-02 0.12771588E+03</pdfrwt>
<totfact> 0.81804946E+05</totfact>
</mgrwt>
</event>
<event>
 6    1  0.4241465E-002  0.1270948E+03  0.7546771E-02  0.1231831E+00
         21   -1    0    0  503  502  0.00000000000E+00  0.00000000000E+00  0.30248135789E+02  0.30248135789E+02  0.00000000000E+00 0. -1.
         21   -1    0    0  504  503 -0.00000000000E+00 -0.00000000000E+00 -0.46451745176E+03  0.46451745176E+03  0.00000000000E+00 0. -1.
         25    2    1    2    0    0  0.20997582752E+02 -0.94254221285E+01 -0.44952909974E+03  0.46715040940E+03  0.12499342552E+03 0.  0.
          5    1    3    3  501    0  0.41452357390E+02  0.39330754608E+02 -0.11441217906E+03  0.12788808744E+03  0.10000000000E+00 0.  1.
         -5    1    3    3    0  501 -0.20454774639E+02 -0.48756176736E+02 -0.33511692068E+03  0.33926232196E+03  0.10000000000E+00 0.  1.
         21    1    1    2  504  502 -0.20997582752E+02  0.94254221285E+01  0.15259783769E+02  0.27615178152E+02  0.00000000000E+00 0. -1.
<mgrwt>
<rscale>  1 0.12709482E+03</rscale>
<asrwt>0</asrwt>
<pdfrwt beam="1">  1       21 0.46535591E-02 0.12709482E+03</pdfrwt>
<pdfrwt beam="2">  1       21 0.71464227E-01 0.12709482E+03</pdfrwt>
<totfact> 0.54266325E+05</totfact>
</mgrwt>
</event>
<event>
 6    1  0.4241465E-002  0.1269548E+03  0.7546771E-02  0.1232045E+00
         21   -1    0    0  504  502  0.00000000000E+00  0.00000000000E+00  0.92712977618E+01  0.92712977618E+01  0.00000000000E+00 0. -1.
         21   -1    0    0  502  503 -0.00000000000E+00 -0.00000000000E+00 -0.87579041900E+03  0.87579041900E+03  0.00000000000E+00 0. -1.
         25    2    1    2    0    0  0.20865738534E+02 -0.75957627605E+01 -0.84378599794E+03  0.85328327200E+03  0.12499782919E+03 0.  0.
          5    1    3    3  501    0  0.53414123181E+02 -0.47936436162E+02 -0.39023609516E+03  0.39678103588E+03  0.10000000000E+00 0.  1.
         -5    1    3    3    0  501 -0.32548384647E+02  0.40340673401E+02 -0.45354990278E+03  0.45650223612E+03  0.10000000000E+00 0.  1.
         21    1    1    2  504  503 -0.20865738534E+02  0.75957627605E+01 -0.22733123298E+02  0.31778444760E+02  0.00000000000E+00 0. -1.
<mgrwt>
<rscale>  1 0.12695484E+03</rscale>
<asrwt>0</asrwt>
<pdfrwt beam="1">  1       21 0.14263526E-02 0.12695484E+03</pdfrwt>
<pdfrwt beam="2">  1       21 0.13473707E+00 0.12695484E+03</pdfrwt>
<totfact> 0.84883440E+05</totfact>
</mgrwt>
</event>
<event>
 6    1  0.4241465E-002  0.1385689E+03  0.7546771E-02  0.1215268E+00
         21   -1    0    0  503  502  0.00000000000E+00  0.00000000000E+00  0.56450119468E+02  0.56450119468E+02  0.00000000000E+00 0.  1.
         21   -1    0    0  504  503 -0.00000000000E+00 -0.00000000000E+00 -0.17522570796E+03  0.17522570796E+03  0.00000000000E+00 0.  1.
         25    2    1    2    0    0  0.19483433373E+02 -0.56541835212E+02 -0.90663618184E+02  0.16559355916E+03  0.12499900747E+03 0.  0.
          5    1    3    3  501    0 -0.44487669152E+02 -0.53537977242E+02 -0.68933030173E+02  0.97965505983E+02  0.10000000000E+00 0. -1.
         -5    1    3    3    0  501  0.63971102525E+02 -0.30038579697E+01 -0.21730588011E+02  0.67628053176E+02  0.10000000000E+00 0. -1.
         21    1    1    2  504  502 -0.19483433373E+02  0.56541835212E+02 -0.28111970310E+02  0.66082268271E+02  0.00000000000E+00 0.  1.
<mgrwt>
<rscale>  1 0.13856888E+03</rscale>
<asrwt>0</asrwt>
<pdfrwt beam="1">  1       21 0.86846337E-02 0.13856888E+03</pdfrwt>
<pdfrwt beam="2">  1       21 0.26957801E-01 0.13856888E+03</pdfrwt>
<totfact> 0.13618884E+06</totfact>
</mgrwt>
</event>
<event>
 6    1  0.4241465E-002  0.1260556E+03  0.7546771E-02  0.1233429E+00
         21   -1    0    0  503  502  0.00000000000E+00  0.00000000000E+00  0.63156103419E+02  0.63156103419E+02  0.00000000000E+00 0. -1.
         21   -1    0    0  504  503 -0.00000000000E+00 -0.00000000000E+00 -0.24379019959E+03  0.24379019959E+03  0.00000000000E+00 0. -1.
         25    2    1    2    0    0 -0.16100525850E+02  0.23702636672E+01 -0.22598445563E+03  0.25876435426E+03  0.12500068706E+03 0.  0.
          5    1    3    3  501    0 -0.60908470147E+02  0.16066492464E+02 -0.62651013192E+02  0.88843307962E+02  0.10000000000E+00 0.  1.
         -5    1    3    3    0  501  0.44807944297E+02 -0.13696228797E+02 -0.16333344244E+03  0.16992104630E+03  0.10000000000E+00 0.  1.
         21    1    1    2  504  502  0.16100525850E+02 -0.23702636672E+01  0.45350359458E+02  0.48181948751E+02  0.00000000000E+00 0. -1.
<mgrwt>
<rscale>  1 0.12605561E+03</rscale>
<asrwt>0</asrwt>
<pdfrwt beam="1">  1       21 0.97163236E-02 0.12605561E+03</pdfrwt>
<pdfrwt beam="2">  1       21 0.37506185E-01 0.12605561E+03</pdfrwt>
<totfact> 0.58930202E+05</totfact>
</mgrwt>
</event>
<event>
 6    1  0.4241465E-002  0.1284223E+03  0.7546771E-02  0.1229816E+00
         21   -1    0    0  503  502  0.00000000000E+00  0.00000000000E+00  0.29474526008E+02  0.29474526008E+02  0.00000000000E+00 0. -1.
         21   -1    0    0  504  503 -0.00000000000E+00 -0.00000000000E+00 -0.21151188372E+03  0.21151188372E+03  0.00000000000E+00 0. -1.
         25    2    1    2    0    0 -0.20090899102E+01 -0.29406573443E+02 -0.14668257115E+03  0.19495659399E+03  0.12499405529E+03 0.  0.
          5    1    3    3  501    0  0.52173095251E+02  0.19138200452E+02 -0.67379237476E+02  0.87339992143E+02  0.10000000000E+00 0. -1.
         -5    1    3    3    0  501 -0.54182185162E+02 -0.48544773895E+02 -0.79303333673E+02  0.10761660185E+03  0.10000000000E+00 0. -1.
         21    1    1    2  504  502  0.20090899102E+01  0.29406573443E+02 -0.35354786562E+02  0.46029815737E+02  0.00000000000E+00 0.  1.
<mgrwt>
<rscale>  1 0.12842234E+03</rscale>
<asrwt>0</asrwt>
<pdfrwt beam="1">  1       21 0.45345424E-02 0.12842234E+03</pdfrwt>
<pdfrwt beam="2">  1       21 0.32540290E-01 0.12842234E+03</pdfrwt>
<totfact> 0.28584573E+06</totfact>
</mgrwt>
</event>
<event>
 6    1  0.4241465E-002  0.1269830E+03  0.7546771E-02  0.1232002E+00
         21   -1    0    0  503  502  0.00000000000E+00  0.00000000000E+00  0.10951147206E+03  0.10951147206E+03  0.00000000000E+00 0.  1.
         21   -1    0    0  504  503 -0.00000000000E+00 -0.00000000000E+00 -0.55629409320E+02  0.55629409320E+02  0.00000000000E+00 0.  1.
         25    2    1    2    0    0 -0.88359206540E+01  0.20524263677E+02  0.26360745174E+02  0.12969032689E+03  0.12500149243E+03 0.  0.
          5    1    3    3  501    0  0.36365079783E+02  0.24057128894E+02 -0.33223561768E+02  0.54817693629E+02  0.10000000000E+00 0.  1.
         -5    1    3    3    0  501 -0.45201000437E+02 -0.35328652168E+01  0.59584306943E+02  0.74872633258E+02  0.10000000000E+00 0.  1.
         21    1    1    2  504  502  0.88359206540E+01 -0.20524263677E+02  0.27521317562E+02  0.35450554490E+02  0.00000000000E+00 0.  1.
<mgrwt>
<rscale>  1 0.12698304E+03</rscale>
<asrwt>0</asrwt>
<pdfrwt beam="1">  1       21 0.16847919E-01 0.12698304E+03</pdfrwt>
<pdfrwt beam="2">  1       21 0.85583707E-02 0.12698304E+03</pdfrwt>
<totfact> 0.33439774E+06</totfact>
</mgrwt>
</event>
<event>
 6    1  0.4241465E-002  0.1286289E+03  0.7546771E-02  0.1229505E+00
         21   -1    0    0  504  502  0.00000000000E+00  0.00000000000E+00  0.32022205853E+02  0.32022205853E+02  0.00000000000E+00 0.  1.
         21   -1    0    0  502  503 -0.00000000000E+00 -0.00000000000E+00 -0.19775240015E+03  0.19775240015E+03  0.00000000000E+00 0.  1.
         25    2    1    2    0    0 -0.29034497898E+02 -0.88711199683E+01 -0.12986006208E+03  0.18278135944E+03  0.12499476308E+03 0.  0.
          5    1    3    3  501    0 -0.28943598199E+02  0.15932345645E+02  0.14661953423E+02  0.36146291548E+02  0.10000000000E+00 0.  1.
         -5    1    3    3    0  501 -0.90899698856E-01 -0.24803465613E+02 -0.14452201551E+03  0.14663506789E+03  0.10000000000E+00 0.  1.
         21    1    1    2  504  503  0.29034497898E+02  0.88711199683E+01 -0.35870132215E+02  0.46993246566E+02  0.00000000000E+00 0.  1.
<mgrwt>
<rscale>  1 0.12862888E+03</rscale>
<asrwt>0</asrwt>
<pdfrwt beam="1">  1       21 0.49264932E-02 0.12862888E+03</pdfrwt>
<pdfrwt beam="2">  1       21 0.30423446E-01 0.12862888E+03</pdfrwt>
<totfact> 0.28347386E+06</totfact>
</mgrwt>
</event>
<event>
 6    1  0.4241465E-002  0.1265123E+03  0.7546771E-02  0.1232725E+00
         21   -1    0    0  503  502  0.00000000000E+00  0.00000000000E+00  0.84617752883E+03  0.84617752883E+03  0.00000000000E+00 0. -1.
         21   -1    0    0  504  503 -0.00000000000E+00 -0.00000000000E+00 -0.13692537106E+02  0.13692537106E+02  0.00000000000E+00 0.  1.
         25    2    1    2    0    0  0.15604267813E+02 -0.11461981202E+02  0.28238608433E+03  0.30943053419E+03  0.12502193680E+03 0.  0.
          5    1    3    3  501    0  0.32205515357E+02  0.46772387465E+02  0.19509756172E+03  0.20319429135E+03  0.10000000000E+00 0. -1.
         -5    1    3    3    0  501 -0.16601247544E+02 -0.58234368666E+02  0.87288522607E+02  0.10623624284E+03  0.10000000000E+00 0. -1.
         21    1    1    2  504  502 -0.15604267813E+02  0.11461981202E+02  0.55009890739E+03  0.55043953174E+03  0.00000000000E+00 0. -1.
<mgrwt>
<rscale>  1 0.12651227E+03</rscale>
<asrwt>0</asrwt>
<pdfrwt beam="1">  1       21 0.13018112E+00 0.12651227E+03</pdfrwt>
<pdfrwt beam="2">  1       21 0.21065448E-02 0.12651227E+03</pdfrwt>
<totfact> 0.49476181E+05</totfact>
</mgrwt>
</event>
<event>
 6    1  0.4241465E-002  0.1264524E+03  0.7546771E-02  0.1232817E+00
         21   -1    0    0  503  502  0.00000000000E+00  0.00000000000E+00  0.57630461198E+02  0.57630461198E+02  0.00000000000E+00 0. -1.
         21   -1    0    0  504  503 -0.00000000000E+00 -0.00000000000E+00 -0.13556335206E+03  0.13556335206E+03  0.00000000000E+00 0. -1.
         25    2    1    2    0    0 -0.11960666939E+02  0.14911394626E+02 -0.10199715134E+03  0.16246116163E+03  0.12499921165E+03 0.  0.
          5    1    3    3  501    0  0.35925299466E+02  0.35454652712E+02 -0.29699964254E+01  0.50561748580E+02  0.10000000000E+00 0. -1.
         -5    1    3    3    0  501 -0.47885966405E+02 -0.20543258086E+02 -0.99027154913E+02  0.11189941305E+03  0.10000000000E+00 0. -1.
         21    1    1    2  504  502  0.11960666939E+02 -0.14911394626E+02  0.24064260479E+02  0.30732651622E+02  0.00000000000E+00 0. -1.
<mgrwt>
<rscale>  1 0.12645240E+03</rscale>
<asrwt>0</asrwt>
<pdfrwt beam="1">  1       21 0.88662247E-02 0.12645240E+03</pdfrwt>
<pdfrwt beam="2">  1       21 0.20855900E-01 0.12645240E+03</pdfrwt>
<totfact> 0.21250349E+06</totfact>
</mgrwt>
</event>
<event>
 6    1  0.4241465E-002  0.1278890E+03  0.7546771E-02  0.1230622E+00
         21   -1    0    0  504  502  0.00000000000E+00  0.00000000000E+00  0.21165358496E+02  0.21165358496E+02  0.00000000000E+00 0. -1.
         21   -1    0    0  502  503 -0.00000000000E+00 -0.00000000000E+00 -0.31055688107E+03  0.31055688107E+03  0.00000000000E+00 0. -1.
         25    2    1    2    0    0 -0.38875497793E+01 -0.26719298465E+02 -0.26911051599E+03  0.29795312377E+03  0.12500624062E+03 0.  0.
          5    1    3    3  501    0  0.38135255155E+02 -0.42290466598E+02 -0.23453856117E+03  0.24135270441E+03  0.10000000000E+00 0. -1.
         -5    1    3    3    0  501 -0.42022804934E+02  0.15571168134E+02 -0.34571954826E+02  0.56600419363E+02  0.10000000000E+00 0. -1.
         21    1    1    2  504  503  0.38875497793E+01  0.26719298465E+02 -0.20281006586E+02  0.33769115799E+02  0.00000000000E+00 0. -1.
<mgrwt>
<rscale>  1 0.12788899E+03</rscale>
<asrwt>0</asrwt>
<pdfrwt beam="1">  1       21 0.32562090E-02 0.12788899E+03</pdfrwt>
<pdfrwt beam="2">  1       21 0.47777982E-01 0.12788899E+03</pdfrwt>
<totfact> 0.22994325E+06</totfact>
</mgrwt>
</event>
<event>
 6    1  0.4241465E-002  0.1262468E+03  0.7546771E-02  0.1233134E+00
         21   -1    0    0  504  502  0.00000000000E+00  0.00000000000E+00  0.10215641949E+03  0.10215641949E+03  0.00000000000E+00 0. -1.
         21   -1    0    0  502  503 -0.00000000000E+00 -0.00000000000E+00 -0.50759447370E+02  0.50759447370E+02  0.00000000000E+00 0. -1.
         25    2    1    2    0    0 -0.14497246923E+02  0.10280423533E+02  0.44943420528E+02  0.13400804825E+03  0.12498955425E+03 0.  0.
          5    1    3    3  501    0  0.46244798638E+02 -0.20330029509E+02  0.42382472059E+02  0.65940696377E+02  0.10000000000E+00 0.  1.
         -5    1    3    3    0  501 -0.60742045560E+02  0.30610453041E+02  0.25609484692E+01  0.68067351875E+02  0.10000000000E+00 0.  1.
         21    1    1    2  504  503  0.14497246923E+02 -0.10280423533E+02  0.64535515914E+01  0.18907818607E+02  0.00000000000E+00 0. -1.
<mgrwt>
<rscale>  1 0.12624677E+03</rscale>
<asrwt>0</asrwt>
<pdfrwt beam="1">  1       21 0.15716372E-01 0.12624677E+03</pdfrwt>
<pdfrwt beam="2">  1       21 0.78091458E-02 0.12624677E+03</pdfrwt>
<totfact> 0.44418994E+06</totfact>
</mgrwt>
</event>
<event>
 6    1  0.4241465E-002  0.1303288E+03  0.7546771E-02  0.1226969E+00
         21   -1    0    0  504  502  0.00000000000E+00  0.00000000000E+00  0.37280214845E+03  0.37280214845E+03  0.00000000000E+00 0.  1.
         21   -1    0    0  502  503 -0.00000000000E+00 -0.00000000000E+00 -0.10801685505E+03  0.10801685505E+03  0.00000000000E+00 0.  1.
         25    2    1    2    0    0 -0.36776780451E+02 -0.84081822099E+00 -0.67315744457E+02  0.14668678731E+03  0.12502945878E+03 0.  0.
          5    1    3    3  501    0 -0.43107756953E+02 -0.55729457187E+02 -0.56668099269E+02  0.90417556828E+02  0.10000000000E+00 0. -1.
         -5    1    3    3    0  501  0.63309765019E+01  0.54888638966E+02 -0.10647645188E+02  0.56269230482E+02  0.10000000000E+00 0. -1.
         21    1    1    2  504  503  0.36776780451E+02  0.84081822099E+00  0.33210103785E+03  0.33413221619E+03  0.00000000000E+00 0.  1.
<mgrwt>
<rscale>  1 0.13032883E+03</rscale>
<asrwt>0</asrwt>
<pdfrwt beam="1">  1       21 0.57354176E-01 0.13032883E+03</pdfrwt>
<pdfrwt beam="2">  1       21 0.16617978E-01 0.13032883E+03</pdfrwt>
<totfact> 0.95163815E+04</totfact>
</mgrwt>
</event>
<event>
 6    1  0.4241465E-002  0.1287569E+03  0.7546771E-02  0.1229312E+00
         21   -1    0    0  503  502  0.00000000000E+00  0.00000000000E+00  0.85075577860E+01  0.85075577860E+01  0.00000000000E+00 0. -1.
         21   -1    0    0  504  503 -0.00000000000E+00 -0.00000000000E+00 -0.13525311770E+04  0.13525311770E+04  0.00000000000E+00 0. -1.
         25    2    1    2    0    0  0.20636353772E+02  0.22973288355E+02 -0.13047049444E+04  0.13110428423E+04  0.12499884546E+03 0.  0.
          5    1    3    3  501    0  0.65670984126E+02 -0.14272741843E+02 -0.83858081458E+03  0.84126938724E+03  0.10000000000E+00 0. -1.
         -5    1    3    3    0  501 -0.45034630354E+02  0.37246030198E+02 -0.46612412978E+03  0.46977345504E+03  0.10000000000E+00 0. -1.
         21    1    1    2  504  502 -0.20636353772E+02 -0.22973288355E+02 -0.39318674807E+02  0.49995892466E+02  0.00000000000E+00 0. -1.
<mgrwt>
<rscale>  1 0.12875691E+03</rscale>
<asrwt>0</asrwt>
<pdfrwt beam="1">  1       21 0.13088546E-02 0.12875691E+03</pdfrwt>
<pdfrwt beam="2">  1       21 0.20808178E+00 0.12875691E+03</pdfrwt>
<totfact> 0.30049543E+05</totfact>
</mgrwt>
</event>
<event>
 6    1  0.4241465E-002  0.1273383E+03  0.7546771E-02  0.1231459E+00
         21   -1    0    0  503  502  0.00000000000E+00  0.00000000000E+00  0.32352868808E+02  0.32352868808E+02  0.00000000000E+00 0. -1.
         21   -1    0    0  504  503 -0.00000000000E+00 -0.00000000000E+00 -0.18279999807E+03  0.18279999807E+03  0.00000000000E+00 0. -1.
         25    2    1    2    0    0  0.74993537178E+01 -0.23086574839E+02 -0.13835049912E+03  0.18803168134E+03  0.12500328931E+03 0.  0.
          5    1    3    3  501    0  0.39890827392E+02  0.26043103061E+02 -0.12730289092E+02  0.49311171021E+02  0.10000000000E+00 0.  1.
         -5    1    3    3    0  501 -0.32391473674E+02 -0.49129677900E+02 -0.12562021003E+03  0.13872051032E+03  0.10000000000E+00 0.  1.
         21    1    1    2  504  502 -0.74993537178E+01  0.23086574839E+02 -0.12096630144E+02  0.27121185535E+02  0.00000000000E+00 0. -1.
<mgrwt>
<rscale>  1 0.12733834E+03</rscale>
<asrwt>0</asrwt>
<pdfrwt beam="1">  1       21 0.49773644E-02 0.12733834E+03</pdfrwt>
<pdfrwt beam="2">  1       21 0.28123077E-01 0.12733834E+03</pdfrwt>
<totfact> 0.32398311E+06</totfact>
</mgrwt>
</event>
<event>
 6    1  0.4241465E-002  0.1349570E+03  0.7546771E-02  0.1220280E+00
         21   -1    0    0  503  502  0.00000000000E+00  0.00000000000E+00  0.40556552423E+02  0.40556552423E+02  0.00000000000E+00 0.  1.
         21   -1    0    0  504  503 -0.00000000000E+00 -0.00000000000E+00 -0.29654220041E+03  0.29654220041E+03  0.00000000000E+00 0.  1.
         25    2    1    2    0    0  0.32612271364E+01  0.50772175159E+02 -0.25225250105E+03  0.28608516877E+03  0.12499980052E+03 0.  0.
          5    1    3    3  501    0 -0.46132186558E+02  0.60175959293E+02 -0.19846368531E+03  0.21245509902E+03  0.10000000000E+00 0. -1.
         -5    1    3    3    0  501  0.49393413694E+02 -0.94037841337E+01 -0.53788815740E+02  0.73630069748E+02  0.10000000000E+00 0. -1.
         21    1    1    2  504  502 -0.32612271364E+01 -0.50772175159E+02 -0.37331469358E+01  0.51013584062E+02  0.00000000000E+00 0.  1.
<mgrwt>
<rscale>  1 0.13495703E+03</rscale>
<asrwt>0</asrwt>
<pdfrwt beam="1">  1       21 0.62394694E-02 0.13495703E+03</pdfrwt>
<pdfrwt beam="2">  1       21 0.45621879E-01 0.13495703E+03</pdfrwt>
<totfact> 0.85245734E+05</totfact>
</mgrwt>
</event>
<event>
 6    1  0.4241465E-002  0.1280468E+03  0.7546771E-02  0.1230383E+00
         21   -1    0    0  504  502  0.00000000000E+00  0.00000000000E+00  0.71053066674E+02  0.71053066674E+02  0.00000000000E+00 0. -1.
         21   -1    0    0  502  503 -0.00000000000E+00 -0.00000000000E+00 -0.87780802937E+02  0.87780802937E+02  0.00000000000E+00 0. -1.
         25    2    1    2    0    0 -0.73097064002E+01 -0.26781150361E+02 -0.23674726869E+02  0.13021704762E+03  0.12500129990E+03 0.  0.
          5    1    3    3  501    0 -0.31272790848E+02 -0.29853495949E+01 -0.67757152085E+02  0.74685617212E+02  0.10000000000E+00 0.  1.
         -5    1    3    3    0  501  0.23963084448E+02 -0.23795800766E+02  0.44082425217E+02  0.55531430409E+02  0.10000000000E+00 0.  1.
         21    1    1    2  504  503  0.73097064002E+01  0.26781150361E+02  0.69469906063E+01  0.28616821990E+02  0.00000000000E+00 0. -1.
<mgrwt>
<rscale>  1 0.12804681E+03</rscale>
<asrwt>0</asrwt>
<pdfrwt beam="1">  1       21 0.10931241E-01 0.12804681E+03</pdfrwt>
<pdfrwt beam="2">  1       21 0.13504739E-01 0.12804681E+03</pdfrwt>
<totfact> 0.32521310E+06</totfact>
</mgrwt>
</event>
<event>
 6    1  0.4241465E-002  0.1321520E+03  0.7546771E-02  0.1224297E+00
         21   -1    0    0  503  502  0.00000000000E+00  0.00000000000E+00  0.50388020350E+03  0.50388020350E+03  0.00000000000E+00 0. -1.
         21   -1    0    0  504  503 -0.00000000000E+00 -0.00000000000E+00 -0.15546344069E+02  0.15546344069E+02  0.00000000000E+00 0. -1.
         25    2    1    2    0    0  0.40040699662E+02 -0.15421215149E+02  0.33267085898E+03  0.35795815681E+03  0.12499228017E+03 0.  0.
          5    1    3    3  501    0  0.87227537080E+01  0.20678880122E+02  0.29817257435E+03  0.29901604742E+03  0.10000000000E+00 0.  1.
         -5    1    3    3    0  501  0.31317945954E+02 -0.36100095271E+02  0.34498284629E+02  0.58942109393E+02  0.10000000000E+00 0.  1.
         21    1    1    2  504  502 -0.40040699662E+02  0.15421215149E+02  0.15566300045E+03  0.16146839076E+03  0.00000000000E+00 0. -1.
<mgrwt>
<rscale>  1 0.13215196E+03</rscale>
<asrwt>0</asrwt>
<pdfrwt beam="1">  1       21 0.77520019E-01 0.13215196E+03</pdfrwt>
<pdfrwt beam="2">  1       21 0.23917456E-02 0.13215196E+03</pdfrwt>
<totfact> 0.13585781E+06</totfact>
</mgrwt>
</event>
<event>
 6    1  0.4241465E-002  0.1260537E+03  0.7546771E-02  0.1233432E+00
         21   -1    0    0  504  502  0.00000000000E+00  0.00000000000E+00  0.27934503565E+03  0.27934503565E+03  0.00000000000E+00 0. -1.
         21   -1    0    0  502  503 -0.00000000000E+00 -0.00000000000E+00 -0.64892244117E+02  0.64892244117E+02  0.00000000000E+00 0.  1.
         25    2    1    2    0    0 -0.66958425333E+01 -0.14798789934E+02 -0.30873766451E+01  0.12609154118E+03  0.12500282546E+03 0.  0.
          5    1    3    3  501    0  0.37420110276E+02  0.14410518031E+01 -0.48132114761E+02  0.60984028686E+02  0.10000000000E+00 0. -1.
         -5    1    3    3    0  501 -0.44115952809E+02 -0.16239841737E+02  0.45044738116E+02  0.65107512499E+02  0.10000000000E+00 0. -1.
         21    1    1    2  504  503  0.66958425333E+01  0.14798789934E+02  0.21754016818E+03  0.21814573858E+03  0.00000000000E+00 0. -1.
<mgrwt>
<rscale>  1 0.12605374E+03</rscale>
<asrwt>0</asrwt>
<pdfrwt beam="1">  1       21 0.42976159E-01 0.12605374E+03</pdfrwt>
<pdfrwt beam="2">  1       21 0.99834223E-02 0.12605374E+03</pdfrwt>
<totfact> 0.42814157E+05</totfact>
</mgrwt>
</event>
<event>
 6    1  0.4241465E-002  0.1276852E+03  0.7546771E-02  0.1230931E+00
         21   -1    0    0  503  502  0.00000000000E+00  0.00000000000E+00  0.30421758581E+03  0.30421758581E+03  0.00000000000E+00 0.  1.
         21   -1    0    0  504  503 -0.00000000000E+00 -0.00000000000E+00 -0.19798003633E+02  0.19798003633E+02  0.00000000000E+00 0.  1.
         25    2    1    2    0    0 -0.10325208471E+02  0.23909130471E+02  0.25134646607E+03  0.28191942027E+03  0.12500102828E+03 0.  0.
          5    1    3    3  501    0  0.40834862714E+02  0.14798836860E+00  0.20466725421E+03  0.20870122869E+03  0.10000000000E+00 0. -1.
         -5    1    3    3    0  501 -0.51160071185E+02  0.23761142103E+02  0.46679211862E+02  0.73218191577E+02  0.10000000000E+00 0. -1.
         21    1    1    2  504  502  0.10325208471E+02 -0.23909130471E+02  0.33073116104E+02  0.42096169169E+02  0.00000000000E+00 0. -1.
<mgrwt>
<rscale>  1 0.12768521E+03</rscale>
<asrwt>0</asrwt>
<pdfrwt beam="1">  1       21 0.46802702E-01 0.12768521E+03</pdfrwt>
<pdfrwt beam="2">  1       21 0.30458469E-02 0.12768521E+03</pdfrwt>
<totfact> 0.26766030E+06</totfact>
</mgrwt>
</event>
<event>
 6    1  0.4241465E-002  0.1378340E+03  0.7546771E-02  0.1216274E+00
         21   -1    0    0  503  502  0.00000000000E+00  0.00000000000E+00  0.57768857978E+02  0.57768857978E+02  0.00000000000E+00 0.  1.
         21   -1    0    0  504  503 -0.00000000000E+00 -0.00000000000E+00 -0.23903811689E+03  0.23903811689E+03  0.00000000000E+00 0.  1.
         25    2    1    2    0    0 -0.36592637864E+02  0.45021161248E+02 -0.19344431409E+03  0.23752664024E+03  0.12502910087E+03 0.  0.
          5    1    3    3  501    0 -0.71213047031E+02  0.27311833508E+02 -0.18145578070E+03  0.19683354558E+03  0.10000000000E+00 0.  1.
         -5    1    3    3    0  501  0.34620409167E+02  0.17709327741E+02 -0.11988533390E+02  0.40693094657E+02  0.10000000000E+00 0.  1.
         21    1    1    2  504  502  0.36592637864E+02 -0.45021161248E+02  0.12175055172E+02  0.59280334635E+02  0.00000000000E+00 0.  1.
<mgrwt>
<rscale>  1 0.13783397E+03</rscale>
<asrwt>0</asrwt>
<pdfrwt beam="1">  1       21 0.88875164E-02 0.13783397E+03</pdfrwt>
<pdfrwt beam="2">  1       21 0.36775096E-01 0.13783397E+03</pdfrwt>
<totfact> 0.71541632E+05</totfact>
</mgrwt>
</event>
<event>
 6    1  0.4241465E-002  0.1286437E+03  0.7546771E-02  0.1229482E+00
         21   -1    0    0  503  502  0.00000000000E+00  0.00000000000E+00  0.35349486532E+02  0.35349486532E+02  0.00000000000E+00 0. -1.
         21   -1    0    0  504  503 -0.00000000000E+00 -0.00000000000E+00 -0.22318385155E+03  0.22318385155E+03  0.00000000000E+00 0. -1.
         25    2    1    2    0    0  0.27966711972E+02 -0.11951793231E+02 -0.92450664990E+02  0.15841824146E+03  0.12499692569E+03 0.  0.
          5    1    3    3  501    0  0.16122126014E+01  0.57716300720E+01 -0.11769514444E+03  0.11784764727E+03  0.10000000000E+00 0.  1.
         -5    1    3    3    0  501  0.26354499371E+02 -0.17723423303E+02  0.25244479446E+02  0.40570594193E+02  0.10000000000E+00 0.  1.
         21    1    1    2  504  502 -0.27966711972E+02  0.11951793231E+02 -0.95383700033E+02  0.10011509662E+03  0.00000000000E+00 0. -1.
<mgrwt>
<rscale>  1 0.12864375E+03</rscale>
<asrwt>0</asrwt>
<pdfrwt beam="1">  1       21 0.54383825E-02 0.12864375E+03</pdfrwt>
<pdfrwt beam="2">  1       21 0.34335977E-01 0.12864375E+03</pdfrwt>
<totfact> 0.18969882E+06</totfact>
</mgrwt>
</event>
<event>
 6    1  0.4241465E-002  0.1259516E+03  0.7546771E-02  0.1233590E+00
         21   -1    0    0  503  502  0.00000000000E+00  0.00000000000E+00  0.59187242135E+03  0.59187242135E+03  0.00000000000E+00 0.  1.
         21   -1    0    0  504  503 -0.00000000000E+00 -0.00000000000E+00 -0.11705903076E+02  0.11705903076E+02  0.00000000000E+00 0.  1.
         25    2    1    2    0    0  0.15445701559E+02 -0.74152588257E+00  0.33452236645E+03  0.35744793443E+03  0.12499877044E+03 0.  0.
          5    1    3    3  501    0  0.66285456112E+02  0.20748748660E+02  0.21144522100E+03  0.22256092143E+03  0.10000000000E+00 0. -1.
         -5    1    3    3    0  501 -0.50839754554E+02 -0.21490274542E+02  0.12307714545E+03  0.13488701300E+03  0.10000000000E+00 0. -1.
         21    1    1    2  504  502 -0.15445701559E+02  0.74152588257E+00  0.24564415182E+03  0.24613039000E+03  0.00000000000E+00 0. -1.
<mgrwt>
<rscale>  1 0.12595163E+03</rscale>
<asrwt>0</asrwt>
<pdfrwt beam="1">  1       21 0.91057272E-01 0.12595163E+03</pdfrwt>
<pdfrwt beam="2">  1       21 0.18009086E-02 0.12595163E+03</pdfrwt>
<totfact> 0.14939310E+06</totfact>
</mgrwt>
</event>
<event>
 6    1  0.4241465E-002  0.1261920E+03  0.7546771E-02  0.1233218E+00
         21   -1    0    0  503  502  0.00000000000E+00  0.00000000000E+00  0.32094559128E+02  0.32094559128E+02  0.00000000000E+00 0. -1.
         21   -1    0    0  504  503 -0.00000000000E+00 -0.00000000000E+00 -0.26164647448E+03  0.26164647448E+03  0.00000000000E+00 0. -1.
         25    2    1    2    0    0 -0.16543551196E+02  0.26772653497E+01 -0.24195901997E+03  0.27288934109E+03  0.12507425115E+03 0.  0.
          5    1    3    3  501    0 -0.18537126074E+02  0.14586710308E+02 -0.25443522876E+03  0.25552630548E+03  0.10000000000E+00 0.  1.
         -5    1    3    3    0  501  0.19935748780E+01 -0.11909444958E+02  0.12476208786E+02  0.17363035613E+02  0.10000000000E+00 0.  1.
         21    1    1    2  504  502  0.16543551196E+02 -0.26772653497E+01  0.12407104615E+02  0.20851692518E+02  0.00000000000E+00 0. -1.
<mgrwt>
<rscale>  1 0.12619202E+03</rscale>
<asrwt>0</asrwt>
<pdfrwt beam="1">  1       21 0.49376246E-02 0.12619202E+03</pdfrwt>
<pdfrwt beam="2">  1       21 0.40253302E-01 0.12619202E+03</pdfrwt>
<totfact> 0.16285190E+06</totfact>
</mgrwt>
</event>
<event>
 6    1  0.4241465E-002  0.1263340E+03  0.7546771E-02  0.1232999E+00
         21   -1    0    0  504  502  0.00000000000E+00  0.00000000000E+00  0.39305534603E+02  0.39305534603E+02  0.00000000000E+00 0.  1.
         21   -1    0    0  502  503 -0.00000000000E+00 -0.00000000000E+00 -0.25533627598E+03  0.25533627598E+03  0.00000000000E+00 0.  1.
         25    2    1    2    0    0 -0.16554617761E+02 -0.78474350785E+01 -0.23591032028E+03  0.26760784558E+03  0.12499856878E+03 0.  0.
          5    1    3    3  501    0 -0.52455175567E+02  0.35452577893E+02 -0.81037898136E+02  0.10283764708E+03  0.10000000000E+00 0.  1.
         -5    1    3    3    0  501  0.35900557805E+02 -0.43300012972E+02 -0.15487242214E+03  0.16477019850E+03  0.10000000000E+00 0.  1.
         21    1    1    2  504  503  0.16554617761E+02  0.78474350785E+01  0.19879578899E+02  0.27033965002E+02  0.00000000000E+00 0.  1.
<mgrwt>
<rscale>  1 0.12633400E+03</rscale>
<asrwt>0</asrwt>
<pdfrwt beam="1">  1       21 0.60470050E-02 0.12633400E+03</pdfrwt>
<pdfrwt beam="2">  1       21 0.39282506E-01 0.12633400E+03</pdfrwt>
<totfact> 0.12148927E+06</totfact>
</mgrwt>
</event>
<event>
 6    1  0.4241465E-002  0.1639734E+03  0.7546771E-02  0.1184283E+00
         21   -1    0    0  504  502  0.00000000000E+00  0.00000000000E+00  0.87340302102E+02  0.87340302102E+02  0.00000000000E+00 0.  1.
         21   -1    0    0  502  503 -0.00000000000E+00 -0.00000000000E+00 -0.44244405411E+03  0.44244405411E+03  0.00000000000E+00 0. -1.
         25    2    1    2    0    0 -0.91236849695E+02 -0.54205371294E+02 -0.38589128311E+03  0.41928432413E+03  0.12499950823E+03 0.  0.
          5    1    3    3  501    0 -0.17286475398E+02 -0.82759978112E+02 -0.19002733307E+03  0.20798661862E+03  0.10000000000E+00 0.  1.
         -5    1    3    3    0  501 -0.73950374297E+02  0.28554606818E+02 -0.19586395004E+03  0.21129770551E+03  0.10000000000E+00 0.  1.
         21    1    1    2  504  503  0.91236849695E+02  0.54205371294E+02  0.30787531104E+02  0.11050003209E+03  0.00000000000E+00 0.  1.
<mgrwt>
<rscale>  1 0.16397336E+03</rscale>
<asrwt>0</asrwt>
<pdfrwt beam="1">  1       21 0.13436969E-01 0.16397336E+03</pdfrwt>
<pdfrwt beam="2">  1       21 0.68068317E-01 0.16397336E+03</pdfrwt>
<totfact> 0.95478100E+04</totfact>
</mgrwt>
</event>
<event>
 6    1  0.4241465E-002  0.1261958E+03  0.7546771E-02  0.1233212E+00
         21   -1    0    0  504  502  0.00000000000E+00  0.00000000000E+00  0.62883760339E+02  0.62883760339E+02  0.00000000000E+00 0.  1.
         21   -1    0    0  502  503 -0.00000000000E+00 -0.00000000000E+00 -0.32553887652E+03  0.32553887652E+03  0.00000000000E+00 0.  1.
         25    2    1    2    0    0  0.87474376842E+00 -0.17301145683E+02 -0.31177016121E+03  0.33634209858E+03  0.12500111614E+03 0.  0.
          5    1    3    3  501    0 -0.58468575933E+02 -0.20676168278E+02 -0.11330275918E+03  0.12916502446E+03  0.10000000000E+00 0.  1.
         -5    1    3    3    0  501  0.59343319701E+02  0.33750225945E+01 -0.19846740203E+03  0.20717707412E+03  0.10000000000E+00 0.  1.
         21    1    1    2  504  503 -0.87474376842E+00  0.17301145683E+02  0.49115045034E+02  0.52080538278E+02  0.00000000000E+00 0.  1.
<mgrwt>
<rscale>  1 0.12619578E+03</rscale>
<asrwt>0</asrwt>
<pdfrwt beam="1">  1       21 0.96744245E-02 0.12619578E+03</pdfrwt>
<pdfrwt beam="2">  1       21 0.50082905E-01 0.12619578E+03</pdfrwt>
<totfact> 0.33102897E+05</totfact>
</mgrwt>
</event>
<event>
 6    1  0.4241465E-002  0.1633262E+03  0.7546771E-02  0.1184992E+00
         21   -1    0    0  503  502  0.00000000000E+00  0.00000000000E+00  0.29353133853E+03  0.29353133853E+03  0.00000000000E+00 0.  1.
         21   -1    0    0  504  503 -0.00000000000E+00 -0.00000000000E+00 -0.61906321231E+02  0.61906321231E+02  0.00000000000E+00 0.  1.
         25    2    1    2    0    0  0.75020574204E+02  0.73614433770E+02  0.15687092913E+03  0.22645957980E+03  0.12501312516E+03 0.  0.
          5    1    3    3  501    0  0.36587293626E+02  0.10658318594E+03  0.10868026853E+03  0.15655675121E+03  0.10000000000E+00 0. -1.
         -5    1    3    3    0  501  0.38433280578E+02 -0.32968752174E+02  0.48190660602E+02  0.69902828592E+02  0.10000000000E+00 0. -1.
         21    1    1    2  504  502 -0.75020574204E+02 -0.73614433770E+02  0.74754088166E+02  0.12897807996E+03  0.00000000000E+00 0.  1.
<mgrwt>
<rscale>  1 0.16332622E+03</rscale>
<asrwt>0</asrwt>
<pdfrwt beam="1">  1       21 0.45158667E-01 0.16332622E+03</pdfrwt>
<pdfrwt beam="2">  1       21 0.95240496E-02 0.16332622E+03</pdfrwt>
<totfact> 0.41844643E+05</totfact>
</mgrwt>
</event>
<event>
 6    1  0.4241465E-002  0.1334978E+03  0.7546771E-02  0.1222356E+00
         21   -1    0    0  503  502  0.00000000000E+00  0.00000000000E+00  0.44798375102E+02  0.44798375102E+02  0.00000000000E+00 0.  1.
         21   -1    0    0  504  503 -0.00000000000E+00 -0.00000000000E+00 -0.65715796073E+03  0.65715796073E+03  0.00000000000E+00 0. -1.
         25    2    1    2    0    0  0.46723988158E+02  0.34402704790E+01 -0.63573345763E+03  0.64959886814E+03  0.12500677507E+03 0.  0.
          5    1    3    3  501    0  0.72160827383E+01 -0.38342793173E+02 -0.50826119095E+03  0.50975650056E+03  0.10000000000E+00 0.  1.
         -5    1    3    3    0  501  0.39507905420E+02  0.41783063652E+02 -0.12747226668E+03  0.13984236759E+03  0.10000000000E+00 0.  1.
         21    1    1    2  504  502 -0.46723988158E+02 -0.34402704790E+01  0.23373872002E+02  0.52357467688E+02  0.00000000000E+00 0.  1.
<mgrwt>
<rscale>  1 0.13349779E+03</rscale>
<asrwt>0</asrwt>
<pdfrwt beam="1">  1       21 0.68920581E-02 0.13349779E+03</pdfrwt>
<pdfrwt beam="2">  1       21 0.10110122E+00 0.13349779E+03</pdfrwt>
<totfact> 0.12717051E+05</totfact>
</mgrwt>
</event>
<event>
 6    1  0.4241465E-002  0.1318139E+03  0.7546771E-02  0.1224789E+00
         21   -1    0    0  504  502  0.00000000000E+00  0.00000000000E+00  0.51475963827E+02  0.51475963827E+02  0.00000000000E+00 0.  1.
         21   -1    0    0  502  503 -0.00000000000E+00 -0.00000000000E+00 -0.14759632923E+03  0.14759632923E+03  0.00000000000E+00 0.  1.
         25    2    1    2    0    0 -0.40798401495E+02  0.90121726015E+01 -0.80586165014E+02  0.15449606395E+03  0.12501669874E+03 0.  0.
          5    1    3    3  501    0 -0.60894027214E+02 -0.81813288548E+01 -0.10293026054E+03  0.11987353848E+03  0.10000000000E+00 0. -1.
         -5    1    3    3    0  501  0.20095625718E+02  0.17193501456E+02  0.22344095525E+02  0.34622525474E+02  0.10000000000E+00 0. -1.
         21    1    1    2  504  503  0.40798401495E+02 -0.90121726015E+01 -0.15534200387E+02  0.44576229105E+02  0.00000000000E+00 0.  1.
<mgrwt>
<rscale>  1 0.13181390E+03</rscale>
<asrwt>0</asrwt>
<pdfrwt beam="1">  1       21 0.79193791E-02 0.13181390E+03</pdfrwt>
<pdfrwt beam="2">  1       21 0.22707127E-01 0.13181390E+03</pdfrwt>
<totfact> 0.22073699E+06</totfact>
</mgrwt>
</event>
<event>
 6    1  0.4241465E-002  0.1333200E+03  0.7546771E-02  0.1222611E+00
         21   -1    0    0  504  502  0.00000000000E+00  0.00000000000E+00  0.65247208545E+02  0.65247208545E+02  0.00000000000E+00 0. -1.
         21   -1    0    0  502  503 -0.00000000000E+00 -0.00000000000E+00 -0.17070914294E+03  0.17070914294E+03  0.00000000000E+00 0. -1.
         25    2    1    2    0    0 -0.15129853574E+02  0.43813905694E+02 -0.12764075103E+03  0.18457084080E+03  0.12500265256E+03 0.  0.
          5    1    3    3  501    0 -0.18041834878E+02  0.60603416538E+02 -0.80155804058E+01  0.63738068931E+02  0.10000000000E+00 0. -1.
         -5    1    3    3    0  501  0.29119813039E+01 -0.16789510844E+02 -0.11962517063E+03  0.12083277187E+03  0.10000000000E+00 0. -1.
         21    1    1    2  504  503  0.15129853574E+02 -0.43813905694E+02  0.22178816636E+02  0.51385510689E+02  0.00000000000E+00 0. -1.
<mgrwt>
<rscale>  1 0.13332004E+03</rscale>
<asrwt>0</asrwt>
<pdfrwt beam="1">  1       21 0.10038032E-01 0.13332004E+03</pdfrwt>
<pdfrwt beam="2">  1       21 0.26262945E-01 0.13332004E+03</pdfrwt>
<totfact> 0.11114610E+06</totfact>
</mgrwt>
</event>
<event>
 6    1  0.4241465E-002  0.1275621E+03  0.7546771E-02  0.1231119E+00
         21   -1    0    0  503  502  0.00000000000E+00  0.00000000000E+00  0.16467659807E+03  0.16467659807E+03  0.00000000000E+00 0.  1.
         21   -1    0    0  504  503 -0.00000000000E+00 -0.00000000000E+00 -0.53118603484E+02  0.53118603484E+02  0.00000000000E+00 0.  1.
         25    2    1    2    0    0  0.22978711891E+02 -0.10906289668E+02  0.28198804605E+02  0.13064175694E+03  0.12500051088E+03 0.  0.
          5    1    3    3  501    0  0.56858719339E+02  0.11097904673E+02 -0.25622867553E+02  0.63345234980E+02  0.10000000000E+00 0. -1.
         -5    1    3    3    0  501 -0.33880007449E+02 -0.22004194342E+02  0.53821672158E+02  0.67296521955E+02  0.10000000000E+00 0. -1.
         21    1    1    2  504  502 -0.22978711891E+02  0.10906289668E+02  0.83359189985E+02  0.87153444622E+02  0.00000000000E+00 0.  1.
<mgrwt>
<rscale>  1 0.12756213E+03</rscale>
<asrwt>0</asrwt>
<pdfrwt beam="1">  1       21 0.25334861E-01 0.12756213E+03</pdfrwt>
<pdfrwt beam="2">  1       21 0.81720929E-02 0.12756213E+03</pdfrwt>
<totfact> 0.17000161E+06</totfact>
</mgrwt>
</event>
<event>
 6    1  0.4241465E-002  0.1401943E+03  0.7546771E-02  0.1213068E+00
         21   -1    0    0  503  502  0.00000000000E+00  0.00000000000E+00  0.56905973595E+02  0.56905973595E+02  0.00000000000E+00 0. -1.
         21   -1    0    0  504  503 -0.00000000000E+00 -0.00000000000E+00 -0.19285711084E+03  0.19285711084E+03  0.00000000000E+00 0. -1.
         25    2    1    2    0    0 -0.23935969391E+02  0.58791491859E+02 -0.11943684478E+03  0.18417274977E+03  0.12500028688E+03 0.  0.
          5    1    3    3  501    0  0.30678040691E+02  0.73318280729E+02 -0.47129370707E+02  0.92400757859E+02  0.10000000000E+00 0. -1.
         -5    1    3    3    0  501 -0.54614010081E+02 -0.14526788870E+02 -0.72307474074E+02  0.91771991909E+02  0.10000000000E+00 0. -1.
         21    1    1    2  504  502  0.23935969391E+02 -0.58791491859E+02 -0.16514292461E+02  0.65590334662E+02  0.00000000000E+00 0. -1.
<mgrwt>
<rscale>  1 0.14019430E+03</rscale>
<asrwt>0</asrwt>
<pdfrwt beam="1">  1       21 0.87547650E-02 0.14019430E+03</pdfrwt>
<pdfrwt beam="2">  1       21 0.29670325E-01 0.14019430E+03</pdfrwt>
<totfact> 0.11173310E+06</totfact>
</mgrwt>
</event>
<event>
 6    1  0.4241465E-002  0.1362396E+03  0.7546771E-02  0.1218480E+00
         21   -1    0    0  503  502  0.00000000000E+00  0.00000000000E+00  0.20198975052E+03  0.20198975052E+03  0.00000000000E+00 0.  1.
         21   -1    0    0  504  503 -0.00000000000E+00 -0.00000000000E+00 -0.53394189945E+02  0.53394189945E+02  0.00000000000E+00 0.  1.
         25    2    1    2    0    0 -0.10175601732E+02  0.53229023074E+02  0.54374539647E+02  0.14668954064E+03  0.12499743599E+03 0.  0.
          5    1    3    3  501    0  0.63928635262E+00  0.80878795927E+01  0.88629351149E+02  0.88999968362E+02  0.10000000000E+00 0. -1.
         -5    1    3    3    0  501 -0.10814888084E+02  0.45141143481E+02 -0.34254811501E+02  0.57689572282E+02  0.10000000000E+00 0. -1.
         21    1    1    2  504  502  0.10175601732E+02 -0.53229023074E+02  0.94221020925E+02  0.10869439982E+03  0.00000000000E+00 0.  1.
<mgrwt>
<rscale>  1 0.13623961E+03</rscale>
<asrwt>0</asrwt>
<pdfrwt beam="1">  1       21 0.31075346E-01 0.13623961E+03</pdfrwt>
<pdfrwt beam="2">  1       21 0.82144909E-02 0.13623961E+03</pdfrwt>
<totfact> 0.11406339E+06</totfact>
</mgrwt>
</event>
<event>
 6    1  0.4241465E-002  0.1389699E+03  0.7546771E-02  0.1214722E+00
         21   -1    0    0  503  502  0.00000000000E+00  0.00000000000E+00  0.22801127131E+03  0.22801127131E+03  0.00000000000E+00 0.  1.
         21   -1    0    0  504  503 -0.00000000000E+00 -0.00000000000E+00 -0.52425968657E+02  0.52425968657E+02  0.00000000000E+00 0.  1.
         25    2    1    2    0    0  0.50822156914E+02  0.33222248839E+02  0.63128983867E+02  0.15263648455E+03  0.12500407337E+03 0.  0.
          5    1    3    3  501    0  0.52898155907E+02  0.77926968604E+02  0.44314136280E+02  0.10408928863E+03  0.10000000000E+00 0. -1.
         -5    1    3    3    0  501 -0.20759989937E+01 -0.44704719765E+02  0.18814847587E+02  0.48547195911E+02  0.10000000000E+00 0. -1.
         21    1    1    2  504  502 -0.50822156914E+02 -0.33222248839E+02  0.11245631879E+03  0.12780075542E+03  0.00000000000E+00 0.  1.
<mgrwt>
<rscale>  1 0.13896988E+03</rscale>
<asrwt>0</asrwt>
<pdfrwt beam="1">  1       21 0.35078657E-01 0.13896988E+03</pdfrwt>
<pdfrwt beam="2">  1       21 0.80655337E-02 0.13896988E+03</pdfrwt>
<totfact> 0.92917240E+05</totfact>
</mgrwt>
</event>
<event>
 6    1  0.4241465E-002  0.1327358E+03  0.7546771E-02  0.1223452E+00
         21   -1    0    0  504  502  0.00000000000E+00  0.00000000000E+00  0.10775745048E+03  0.10775745048E+03  0.00000000000E+00 0. -1.
         21   -1    0    0  502  503 -0.00000000000E+00 -0.00000000000E+00 -0.24400929109E+03  0.24400929109E+03  0.00000000000E+00 0. -1.
         25    2    1    2    0    0  0.41858269528E+02 -0.15629957749E+02 -0.21994456647E+03  0.25689375982E+03  0.12498952440E+03 0.  0.
          5    1    3    3  501    0 -0.83625672761E+01  0.32396753240E+02 -0.16485745117E+03  0.16821852264E+03  0.10000000000E+00 0.  1.
         -5    1    3    3    0  501  0.50220836804E+02 -0.48026710988E+02 -0.55087115298E+02  0.88675237183E+02  0.10000000000E+00 0.  1.
         21    1    1    2  504  503 -0.41858269528E+02  0.15629957749E+02  0.83692725855E+02  0.94872981760E+02  0.00000000000E+00 0. -1.
<mgrwt>
<rscale>  1 0.13273580E+03</rscale>
<asrwt>0</asrwt>
<pdfrwt beam="1">  1       21 0.16578069E-01 0.13273580E+03</pdfrwt>
<pdfrwt beam="2">  1       21 0.37539891E-01 0.13273580E+03</pdfrwt>
<totfact> 0.22704722E+05</totfact>
</mgrwt>
</event>
<event>
 6    1  0.4241465E-002  0.1259103E+03  0.7546771E-02  0.1233653E+00
         21   -1    0    0  503  502  0.00000000000E+00  0.00000000000E+00  0.21615662518E+03  0.21615662518E+03  0.00000000000E+00 0. -1.
         21   -1    0    0  504  503 -0.00000000000E+00 -0.00000000000E+00 -0.55947924441E+02  0.55947924441E+02  0.00000000000E+00 0. -1.
         25    2    1    2    0    0 -0.59381156722E+01  0.13889100414E+02  0.15788232384E+02  0.12689628537E+03  0.12500092252E+03 0.  0.
          5    1    3    3  501    0 -0.96159088642E+01  0.69505385256E+02  0.93584419848E+01  0.70788803629E+02  0.10000000000E+00 0.  1.
         -5    1    3    3    0  501  0.36777931919E+01 -0.55616284842E+02  0.64297903992E+01  0.56107481738E+02  0.10000000000E+00 0.  1.
         21    1    1    2  504  502  0.59381156722E+01 -0.13889100414E+02  0.14442046835E+03  0.14520826425E+03  0.00000000000E+00 0. -1.
<mgrwt>
<rscale>  1 0.12591028E+03</rscale>
<asrwt>0</asrwt>
<pdfrwt beam="1">  1       21 0.33254865E-01 0.12591028E+03</pdfrwt>
<pdfrwt beam="2">  1       21 0.86073731E-02 0.12591028E+03</pdfrwt>
<totfact> 0.92149571E+05</totfact>
</mgrwt>
</event>
<event>
 6    1  0.4241465E-002  0.1260263E+03  0.7546771E-02  0.1233474E+00
         21   -1    0    0  503  502  0.00000000000E+00  0.00000000000E+00  0.54939863507E+02  0.54939863507E+02  0.00000000000E+00 0.  1.
         21   -1    0    0  504  503 -0.00000000000E+00 -0.00000000000E+00 -0.12191194043E+03  0.12191194043E+03  0.00000000000E+00 0.  1.
         25    2    1    2    0    0 -0.68384041366E+01 -0.14522975102E+02 -0.85534242014E+02  0.15231133634E+03  0.12499982418E+03 0.  0.
          5    1    3    3  501    0  0.25837854387E+02 -0.18300375783E+01 -0.10774323485E+03  0.11081316895E+03  0.10000000000E+00 0.  1.
         -5    1    3    3    0  501 -0.32676258523E+02 -0.12692937524E+02  0.22208992838E+02  0.41498167392E+02  0.10000000000E+00 0.  1.
         21    1    1    2  504  502  0.68384041366E+01  0.14522975102E+02  0.18562165089E+02  0.24540467594E+02  0.00000000000E+00 0.  1.
<mgrwt>
<rscale>  1 0.12602633E+03</rscale>
<asrwt>0</asrwt>
<pdfrwt beam="1">  1       21 0.84522868E-02 0.12602633E+03</pdfrwt>
<pdfrwt beam="2">  1       21 0.18755683E-01 0.12602633E+03</pdfrwt>
<totfact> 0.28077958E+06</totfact>
</mgrwt>
</event>
<event>
 6    1  0.4241465E-002  0.1286566E+03  0.7546771E-02  0.1229463E+00
         21   -1    0    0  504  502  0.00000000000E+00  0.00000000000E+00  0.19563430065E+04  0.19563430065E+04  0.00000000000E+00 0.  1.
         21   -1    0    0  502  503 -0.00000000000E+00 -0.00000000000E+00 -0.34448461022E+01  0.34448461022E+01  0.00000000000E+00 0.  1.
         25    2    1    2    0    0 -0.30378460586E+02  0.22886318540E+01  0.13488308751E+04  0.13549528554E+04  0.12499768783E+03 0.  0.
          5    1    3    3  501    0 -0.28946770279E+02 -0.28941389632E+02  0.12620295676E+04  0.12626932165E+04  0.10000000000E+00 0. -1.
         -5    1    3    3    0  501 -0.14316903079E+01  0.31230021486E+02  0.86801307569E+02  0.92259638926E+02  0.10000000000E+00 0. -1.
         21    1    1    2  504  503  0.30378460586E+02 -0.22886318540E+01  0.60406728530E+03  0.60483499723E+03  0.00000000000E+00 0.  1.
<mgrwt>
<rscale>  1 0.12865656E+03</rscale>
<asrwt>0</asrwt>
<pdfrwt beam="1">  1       21 0.30097496E+00 0.12865656E+03</pdfrwt>
<pdfrwt beam="2">  1       21 0.52997789E-03 0.12865656E+03</pdfrwt>
<totfact> 0.36077630E+05</totfact>
</mgrwt>
</event>
<event>
 6    1  0.4241465E-002  0.1265768E+03  0.7546771E-02  0.1232625E+00
         21   -1    0    0  504  502  0.00000000000E+00  0.00000000000E+00  0.32064426675E+02  0.32064426675E+02  0.00000000000E+00 0.  1.
         21   -1    0    0  502  503 -0.00000000000E+00 -0.00000000000E+00 -0.35137979150E+03  0.35137979150E+03  0.00000000000E+00 0.  1.
         25    2    1    2    0    0  0.19237444352E+02  0.51639251849E+01 -0.33498467928E+03  0.35810111648E+03  0.12499971553E+03 0.  0.
          5    1    3    3  501    0 -0.93932733243E+01  0.58121538028E+02 -0.10513025411E+03  0.12049368073E+03  0.10000000000E+00 0.  1.
         -5    1    3    3    0  501  0.28630717676E+02 -0.52957612843E+02 -0.22985442517E+03  0.23760743575E+03  0.10000000000E+00 0.  1.
         21    1    1    2  504  503 -0.19237444352E+02 -0.51639251849E+01  0.15669314451E+02  0.25343101702E+02  0.00000000000E+00 0.  1.
<mgrwt>
<rscale>  1 0.12657675E+03</rscale>
<asrwt>0</asrwt>
<pdfrwt beam="1">  1       21 0.49329882E-02 0.12657675E+03</pdfrwt>
<pdfrwt beam="2">  1       21 0.54058435E-01 0.12657675E+03</pdfrwt>
<totfact> 0.89333308E+05</totfact>
</mgrwt>
</event>
<event>
 6    1  0.4241465E-002  0.1259309E+03  0.7546771E-02  0.1233622E+00
         21   -1    0    0  503  502  0.00000000000E+00  0.00000000000E+00  0.37791267176E+02  0.37791267176E+02  0.00000000000E+00 0. -1.
         21   -1    0    0  504  503 -0.00000000000E+00 -0.00000000000E+00 -0.25252035523E+03  0.25252035523E+03  0.00000000000E+00 0. -1.
         25    2    1    2    0    0 -0.14333782503E+02  0.52692274751E+01 -0.23399348709E+03  0.26572831202E+03  0.12500144690E+03 0.  0.
          5    1    3    3  501    0 -0.20835797266E+02  0.36621235074E+02 -0.22957054506E+03  0.23340499238E+03  0.10000000000E+00 0.  1.
         -5    1    3    3    0  501  0.65020147633E+01 -0.31352007599E+02 -0.44229420292E+01  0.32323319642E+02  0.10000000000E+00 0.  1.
         21    1    1    2  504  502  0.14333782503E+02 -0.52692274751E+01  0.19264399041E+02  0.24583310384E+02  0.00000000000E+00 0. -1.
<mgrwt>
<rscale>  1 0.12593087E+03</rscale>
<asrwt>0</asrwt>
<pdfrwt beam="1">  1       21 0.58140411E-02 0.12593087E+03</pdfrwt>
<pdfrwt beam="2">  1       21 0.38849285E-01 0.12593087E+03</pdfrwt>
<totfact> 0.13273883E+06</totfact>
</mgrwt>
</event>
<event>
 6    1  0.4241465E-002  0.1262605E+03  0.7546771E-02  0.1233112E+00
         21   -1    0    0  503  502  0.00000000000E+00  0.00000000000E+00  0.30457358061E+02  0.30457358061E+02  0.00000000000E+00 0. -1.
         21   -1    0    0  504  503 -0.00000000000E+00 -0.00000000000E+00 -0.18321894552E+03  0.18321894552E+03  0.00000000000E+00 0. -1.
         25    2    1    2    0    0 -0.15703283228E+02 -0.83854290438E+01 -0.14931807780E+03  0.19554439019E+03  0.12499924661E+03 0.  0.
          5    1    3    3  501    0 -0.68842839869E+02  0.47438150921E+01 -0.63628089892E+02  0.93863646883E+02  0.10000000000E+00 0.  1.
         -5    1    3    3    0  501  0.53139556641E+02 -0.13129244136E+02 -0.85689987907E+02  0.10168074331E+03  0.10000000000E+00 0.  1.
         21    1    1    2  504  502  0.15703283228E+02  0.83854290438E+01 -0.34435096562E+01  0.18131913389E+02  0.00000000000E+00 0. -1.
<mgrwt>
<rscale>  1 0.12626053E+03</rscale>
<asrwt>0</asrwt>
<pdfrwt beam="1">  1       21 0.46857474E-02 0.12626053E+03</pdfrwt>
<pdfrwt beam="2">  1       21 0.28187530E-01 0.12626053E+03</pdfrwt>
<totfact> 0.35679072E+06</totfact>
</mgrwt>
</event>
<event>
 6    1  0.4241465E-002  0.1268803E+03  0.7546771E-02  0.1232160E+00
         21   -1    0    0  503  502  0.00000000000E+00  0.00000000000E+00  0.56807459207E+01  0.56807459207E+01  0.00000000000E+00 0.  1.
         21   -1    0    0  504  503 -0.00000000000E+00 -0.00000000000E+00 -0.13878600042E+04  0.13878600042E+04  0.00000000000E+00 0.  1.
         25    2    1    2    0    0 -0.12243953926E+02  0.17956940204E+02 -0.13408993131E+04  0.13468888478E+04  0.12500493818E+03 0.  0.
          5    1    3    3  501    0 -0.47095949118E+02  0.50208924171E+01 -0.12068814843E+04  0.12078104839E+04  0.10000000000E+00 0. -1.
         -5    1    3    3    0  501  0.34851995192E+02  0.12936047787E+02 -0.13401782871E+03  0.13907836393E+03  0.10000000000E+00 0. -1.
         21    1    1    2  504  502  0.12243953926E+02 -0.17956940204E+02 -0.41279945258E+02  0.46651902316E+02  0.00000000000E+00 0.  1.
<mgrwt>
<rscale>  1 0.12688026E+03</rscale>
<asrwt>0</asrwt>
<pdfrwt beam="1">  1       21 0.87395981E-03 0.12688026E+03</pdfrwt>
<pdfrwt beam="2">  1       21 0.21351719E+00 0.12688026E+03</pdfrwt>
<totfact> 0.52715146E+05</totfact>
</mgrwt>
</event>
<event>
 6    1  0.4241465E-002  0.1337619E+03  0.7546771E-02  0.1221978E+00
         21   -1    0    0  504  502  0.00000000000E+00  0.00000000000E+00  0.43658351670E+02  0.43658351670E+02  0.00000000000E+00 0. -1.
         21   -1    0    0  502  503 -0.00000000000E+00 -0.00000000000E+00 -0.34136036166E+03  0.34136036166E+03  0.00000000000E+00 0.  1.
         25    2    1    2    0    0 -0.35327567333E+02 -0.31921927920E+02 -0.30845210984E+03  0.33620671539E+03  0.12500081965E+03 0.  0.
          5    1    3    3  501    0 -0.10054403674E+02 -0.12152375714E+02  0.83069880555E+01  0.17826590232E+02  0.10000000000E+00 0.  1.
         -5    1    3    3    0  501 -0.25273163659E+02 -0.19769552206E+02 -0.31675909790E+03  0.31838012516E+03  0.10000000000E+00 0.  1.
         21    1    1    2  504  503  0.35327567333E+02  0.31921927920E+02  0.10750099853E+02  0.48811997937E+02  0.00000000000E+00 0. -1.
<mgrwt>
<rscale>  1 0.13376192E+03</rscale>
<asrwt>0</asrwt>
<pdfrwt beam="1">  1       21 0.67166697E-02 0.13376192E+03</pdfrwt>
<pdfrwt beam="2">  1       21 0.52516977E-01 0.13376192E+03</pdfrwt>
<totfact> 0.56268314E+05</totfact>
</mgrwt>
</event>
<event>
 6    1  0.4241465E-002  0.1376537E+03  0.7546771E-02  0.1216521E+00
         21   -1    0    0  504  502  0.00000000000E+00  0.00000000000E+00  0.15884525093E+03  0.15884525093E+03  0.00000000000E+00 0. -1.
         21   -1    0    0  502  503 -0.00000000000E+00 -0.00000000000E+00 -0.94800463544E+02  0.94800463544E+02  0.00000000000E+00 0. -1.
         25    2    1    2    0    0  0.58626390054E+01 -0.57346254690E+02 -0.32281573022E+02  0.14138828188E+03  0.12500233131E+03 0.  0.
          5    1    3    3  501    0 -0.38739167074E+02  0.91669726785E+01 -0.45242207707E+02  0.60262955552E+02  0.10000000000E+00 0. -1.
         -5    1    3    3    0  501  0.44601806079E+02 -0.66513227368E+02  0.12960634685E+02  0.81125326328E+02  0.10000000000E+00 0. -1.
         21    1    1    2  504  503 -0.58626390054E+01  0.57346254690E+02  0.96326360404E+02  0.11225743259E+03  0.00000000000E+00 0. -1.
<mgrwt>
<rscale>  1 0.13765372E+03</rscale>
<asrwt>0</asrwt>
<pdfrwt beam="1">  1       21 0.24437731E-01 0.13765372E+03</pdfrwt>
<pdfrwt beam="2">  1       21 0.14584687E-01 0.13765372E+03</pdfrwt>
<totfact> 0.65631600E+05</totfact>
</mgrwt>
</event>
<event>
 6    1  0.4241465E-002  0.1273786E+03  0.7546771E-02  0.1231398E+00
         21   -1    0    0  503  502  0.00000000000E+00  0.00000000000E+00  0.17126897080E+02  0.17126897080E+02  0.00000000000E+00 0.  1.
         21   -1    0    0  504  503 -0.00000000000E+00 -0.00000000000E+00 -0.46406449122E+03  0.46406449122E+03  0.00000000000E+00 0.  1.
         25    2    1    2    0    0  0.16245128348E+02  0.18515086130E+02 -0.43602630676E+03  0.45425129176E+03  0.12497433044E+03 0.  0.
          5    1    3    3  501    0  0.20098818665E+02 -0.50389800007E+02 -0.13668159625E+03  0.14705428661E+03  0.10000000000E+00 0.  1.
         -5    1    3    3    0  501 -0.38536903175E+01  0.68904886137E+02 -0.29934471051E+03  0.30719700515E+03  0.10000000000E+00 0.  1.
         21    1    1    2  504  502 -0.16245128348E+02 -0.18515086130E+02 -0.10911287380E+02  0.26940096543E+02  0.00000000000E+00 0.  1.
<mgrwt>
<rscale>  1 0.12737855E+03</rscale>
<asrwt>0</asrwt>
<pdfrwt beam="1">  1       21 0.26349073E-02 0.12737855E+03</pdfrwt>
<pdfrwt beam="2">  1       21 0.71394536E-01 0.12737855E+03</pdfrwt>
<totfact> 0.13908281E+06</totfact>
</mgrwt>
</event>
<event>
 6    1  0.4241465E-002  0.1331570E+03  0.7546771E-02  0.1222845E+00
         21   -1    0    0  504  502  0.00000000000E+00  0.00000000000E+00  0.42707746575E+03  0.42707746575E+03  0.00000000000E+00 0.  1.
         21   -1    0    0  502  503 -0.00000000000E+00 -0.00000000000E+00 -0.42777527161E+03  0.42777527161E+03  0.00000000000E+00 0. -1.
         25    2    1    2    0    0 -0.84876382463E+01 -0.45107012532E+02 -0.41611839822E+03  0.43690423440E+03  0.12499642441E+03 0.  0.
          5    1    3    3  501    0 -0.14903013586E+02  0.41907533935E+02 -0.17215540262E+03  0.17780841900E+03  0.10000000000E+00 0.  1.
         -5    1    3    3    0  501  0.64153753396E+01 -0.87014546467E+02 -0.24396299559E+03  0.25909581540E+03  0.10000000000E+00 0.  1.
         21    1    1    2  504  503  0.84876382463E+01  0.45107012532E+02  0.41542059235E+03  0.41794850297E+03  0.00000000000E+00 0.  1.
<mgrwt>
<rscale>  1 0.13315701E+03</rscale>
<asrwt>0</asrwt>
<pdfrwt beam="1">  1       21 0.65704226E-01 0.13315701E+03</pdfrwt>
<pdfrwt beam="2">  1       21 0.65811580E-01 0.13315701E+03</pdfrwt>
<totfact> 0.47603956E+03</totfact>
</mgrwt>
</event>
<event>
 6    1  0.4241465E-002  0.1260449E+03  0.7546771E-02  0.1233445E+00
         21   -1    0    0  503  502  0.00000000000E+00  0.00000000000E+00  0.15212937296E+03  0.15212937296E+03  0.00000000000E+00 0. -1.
         21   -1    0    0  504  503 -0.00000000000E+00 -0.00000000000E+00 -0.37035095853E+02  0.37035095853E+02  0.00000000000E+00 0. -1.
         25    2    1    2    0    0 -0.79141915054E+01 -0.14127064242E+02  0.76829922738E+02  0.14761486970E+03  0.12500041743E+03 0.  0.
          5    1    3    3  501    0 -0.50502693597E+02 -0.34191369581E+02  0.42925828908E+01  0.61139251567E+02  0.10000000000E+00 0. -1.
         -5    1    3    3    0  501  0.42588502091E+02  0.20064305339E+02  0.72537339848E+02  0.86475618132E+02  0.10000000000E+00 0. -1.
         21    1    1    2  504  502  0.79141915054E+01  0.14127064242E+02  0.38264354367E+02  0.41549599113E+02  0.00000000000E+00 0. -1.
<mgrwt>
<rscale>  1 0.12604488E+03</rscale>
<asrwt>0</asrwt>
<pdfrwt beam="1">  1       21 0.23404519E-01 0.12604488E+03</pdfrwt>
<pdfrwt beam="2">  1       21 0.56977071E-02 0.12604488E+03</pdfrwt>
<totfact> 0.36523514E+06</totfact>
</mgrwt>
</event>
<event>
 6    1  0.4241465E-002  0.1297730E+03  0.7546771E-02  0.1227793E+00
         21   -1    0    0  503  502  0.00000000000E+00  0.00000000000E+00  0.12710623867E+04  0.12710623867E+04  0.00000000000E+00 0. -1.
         21   -1    0    0  504  503 -0.00000000000E+00 -0.00000000000E+00 -0.54865894351E+03  0.54865894351E+03  0.00000000000E+00 0.  1.
         25    2    1    2    0    0 -0.24630898272E+02  0.24698678503E+02 -0.54074108709E+03  0.55609527387E+03  0.12499729790E+03 0.  0.
          5    1    3    3  501    0  0.38042611367E+02 -0.15751446391E+02 -0.86854651762E+02  0.96120179337E+02  0.10000000000E+00 0.  1.
         -5    1    3    3    0  501 -0.62673509639E+02  0.40450124895E+02 -0.45388643533E+03  0.45997509453E+03  0.10000000000E+00 0.  1.
         21    1    1    2  504  502  0.24630898272E+02 -0.24698678503E+02  0.12631445303E+04  0.12636260564E+04  0.00000000000E+00 0. -1.
<mgrwt>
<rscale>  1 0.12977300E+03</rscale>
<asrwt>0</asrwt>
<pdfrwt beam="1">  1       21 0.19554806E+00 0.12977300E+03</pdfrwt>
<pdfrwt beam="2">  1       21 0.84409068E-01 0.12977300E+03</pdfrwt>
<totfact> 0.19314556E+02</totfact>
</mgrwt>
</event>
<event>
 6    1  0.4241465E-002  0.1264021E+03  0.7546771E-02  0.1232894E+00
         21   -1    0    0  503  502  0.00000000000E+00  0.00000000000E+00  0.32627857722E+03  0.32627857722E+03  0.00000000000E+00 0.  1.
         21   -1    0    0  504  503 -0.00000000000E+00 -0.00000000000E+00 -0.17656604430E+02  0.17656604430E+02  0.00000000000E+00 0.  1.
         25    2    1    2    0    0  0.10925009426E+02 -0.15421062973E+02  0.22375934720E+03  0.25699364821E+03  0.12498129760E+03 0.  0.
          5    1    3    3  501    0  0.20419408562E+02  0.36524774054E+02  0.18945904403E+03  0.19402512912E+03  0.10000000000E+00 0.  1.
         -5    1    3    3    0  501 -0.94943991361E+01 -0.51945837027E+02  0.34300303174E+02  0.62968519097E+02  0.10000000000E+00 0.  1.
         21    1    1    2  504  502 -0.10925009426E+02  0.15421062973E+02  0.84862625589E+02  0.86941533435E+02  0.00000000000E+00 0.  1.
<mgrwt>
<rscale>  1 0.12640210E+03</rscale>
<asrwt>0</asrwt>
<pdfrwt beam="1">  1       21 0.50196700E-01 0.12640210E+03</pdfrwt>
<pdfrwt beam="2">  1       21 0.27164009E-02 0.12640210E+03</pdfrwt>
<totfact> 0.27950115E+06</totfact>
</mgrwt>
</event>
<event>
 6    1  0.4241465E-002  0.1304722E+03  0.7546771E-02  0.1226757E+00
         21   -1    0    0  503  502  0.00000000000E+00  0.00000000000E+00  0.11333535414E+03  0.11333535414E+03  0.00000000000E+00 0. -1.
         21   -1    0    0  504  503 -0.00000000000E+00 -0.00000000000E+00 -0.64173487489E+02  0.64173487489E+02  0.00000000000E+00 0. -1.
         25    2    1    2    0    0 -0.36803950430E+02  0.65752744707E+01  0.24587016828E+02  0.13276861090E+03  0.12500087057E+03 0.  0.
          5    1    3    3  501    0  0.17642739330E+02  0.35704193084E+02  0.51757443857E+02  0.65306191510E+02  0.10000000000E+00 0.  1.
         -5    1    3    3    0  501 -0.54446689760E+02 -0.29128918614E+02 -0.27170427029E+02  0.67462419393E+02  0.10000000000E+00 0.  1.
         21    1    1    2  504  502  0.36803950430E+02 -0.65752744707E+01  0.24574849822E+02  0.44740230726E+02  0.00000000000E+00 0. -1.
<mgrwt>
<rscale>  1 0.13047215E+03</rscale>
<asrwt>0</asrwt>
<pdfrwt beam="1">  1       21 0.17436208E-01 0.13047215E+03</pdfrwt>
<pdfrwt beam="2">  1       21 0.98728442E-02 0.13047215E+03</pdfrwt>
<totfact> 0.24524804E+06</totfact>
</mgrwt>
</event>
<event>
 6    1  0.4241465E-002  0.1311362E+03  0.7546771E-02  0.1225779E+00
         21   -1    0    0  504  502  0.00000000000E+00  0.00000000000E+00  0.53696821292E+03  0.53696821292E+03  0.00000000000E+00 0.  1.
         21   -1    0    0  502  503 -0.00000000000E+00 -0.00000000000E+00 -0.18939458085E+02  0.18939458085E+02  0.00000000000E+00 0.  1.
         25    2    1    2    0    0  0.39626352101E+02  0.15067994100E+01  0.22672976485E+03  0.26192192340E+03  0.12499675782E+03 0.  0.
          5    1    3    3  501    0  0.70230890180E+02  0.40604375476E+02  0.14992110549E+03  0.17046243315E+03  0.10000000000E+00 0.  1.
         -5    1    3    3    0  501 -0.30604538078E+02 -0.39097576066E+02  0.76808659352E+02  0.91459490249E+02  0.10000000000E+00 0.  1.
         21    1    1    2  504  503 -0.39626352101E+02 -0.15067994100E+01  0.29129898999E+03  0.29398574760E+03  0.00000000000E+00 0.  1.
<mgrwt>
<rscale>  1 0.13113622E+03</rscale>
<asrwt>0</asrwt>
<pdfrwt beam="1">  1       21 0.82610483E-01 0.13113622E+03</pdfrwt>
<pdfrwt beam="2">  1       21 0.29137632E-02 0.13113622E+03</pdfrwt>
<totfact> 0.85388905E+05</totfact>
</mgrwt>
</event>
<event>
 6    1  0.4241465E-002  0.1291009E+03  0.7546771E-02  0.1228796E+00
         21   -1    0    0  503  502  0.00000000000E+00  0.00000000000E+00  0.28931830290E+02  0.28931830290E+02  0.00000000000E+00 0. -1.
         21   -1    0    0  504  503 -0.00000000000E+00 -0.00000000000E+00 -0.24667761061E+03  0.24667761061E+03  0.00000000000E+00 0.  1.
         25    2    1    2    0    0  0.13223736853E+02 -0.29450900006E+02 -0.20189969714E+03  0.23964666738E+03  0.12499925900E+03 0.  0.
          5    1    3    3  501    0  0.48417685313E+01 -0.65149355867E+02 -0.47034405404E+02  0.80499233438E+02  0.10000000000E+00 0.  1.
         -5    1    3    3    0  501  0.83819683216E+01  0.35698455862E+02 -0.15486529174E+03  0.15914743394E+03  0.10000000000E+00 0.  1.
         21    1    1    2  504  502 -0.13223736853E+02  0.29450900006E+02 -0.15846083178E+02  0.35962773525E+02  0.00000000000E+00 0. -1.
<mgrwt>
<rscale>  1 0.12910088E+03</rscale>
<asrwt>0</asrwt>
<pdfrwt beam="1">  1       21 0.44510509E-02 0.12910088E+03</pdfrwt>
<pdfrwt beam="2">  1       21 0.37950401E-01 0.12910088E+03</pdfrwt>
<totfact> 0.21797700E+06</totfact>
</mgrwt>
</event>
<event>
 6    1  0.4241465E-002  0.1335881E+03  0.7546771E-02  0.1222227E+00
         21   -1    0    0  504  502  0.00000000000E+00  0.00000000000E+00  0.45782158232E+03  0.45782158232E+03  0.00000000000E+00 0. -1.
         21   -1    0    0  502  503 -0.00000000000E+00 -0.00000000000E+00 -0.10772685066E+03  0.10772685066E+03  0.00000000000E+00 0.  1.
         25    2    1    2    0    0 -0.43920846301E+02  0.17059909854E+02 -0.64458402905E+02  0.14832621085E+03  0.12500279140E+03 0.  0.
          5    1    3    3  501    0 -0.65630984471E+02 -0.23237580240E+02 -0.73961806583E+02  0.10157642488E+03  0.10000000000E+00 0. -1.
         -5    1    3    3    0  501  0.21710138170E+02  0.40297490094E+02  0.95034036776E+01  0.46749785975E+02  0.10000000000E+00 0. -1.
         21    1    1    2  504  503  0.43920846301E+02 -0.17059909854E+02  0.41455313457E+03  0.41722222213E+03  0.00000000000E+00 0. -1.
<mgrwt>
<rscale>  1 0.13358809E+03</rscale>
<asrwt>0</asrwt>
<pdfrwt beam="1">  1       21 0.70434089E-01 0.13358809E+03</pdfrwt>
<pdfrwt beam="2">  1       21 0.16573362E-01 0.13358809E+03</pdfrwt>
<totfact> 0.61441989E+04</totfact>
</mgrwt>
</event>
<event>
 6    1  0.4241465E-002  0.1275429E+03  0.7546771E-02  0.1231148E+00
         21   -1    0    0  504  502  0.00000000000E+00  0.00000000000E+00  0.11944831667E+02  0.11944831667E+02  0.00000000000E+00 0.  1.
         21   -1    0    0  502  503 -0.00000000000E+00 -0.00000000000E+00 -0.55635069601E+03  0.55635069601E+03  0.00000000000E+00 0.  1.
         25    2    1    2    0    0 -0.51476401487E+01 -0.24813748431E+02 -0.50911749121E+03  0.52485027951E+03  0.12499990292E+03 0.  0.
          5    1    3    3  501    0 -0.38507803086E+01 -0.38023741418E+01 -0.50285892489E+03  0.50288805404E+03  0.10000000000E+00 0.  1.
         -5    1    3    3    0  501 -0.12968598401E+01 -0.21011374290E+02 -0.62585663244E+01  0.21962225466E+02  0.10000000000E+00 0.  1.
         21    1    1    2  504  503  0.51476401487E+01  0.24813748431E+02 -0.35288373133E+02  0.43445248172E+02  0.00000000000E+00 0.  1.
<mgrwt>
<rscale>  1 0.12754292E+03</rscale>
<asrwt>0</asrwt>
<pdfrwt beam="1">  1       21 0.18376665E-02 0.12754292E+03</pdfrwt>
<pdfrwt beam="2">  1       21 0.85592412E-01 0.12754292E+03</pdfrwt>
<totfact> 0.16652412E+06</totfact>
</mgrwt>
</event>
<event>
 6    1  0.4241465E-002  0.1314218E+03  0.7546771E-02  0.1225361E+00
         21   -1    0    0  503  502  0.00000000000E+00  0.00000000000E+00  0.62049832701E+02  0.62049832701E+02  0.00000000000E+00 0. -1.
         21   -1    0    0  504  503 -0.00000000000E+00 -0.00000000000E+00 -0.27160455004E+03  0.27160455004E+03  0.00000000000E+00 0.  1.
         25    2    1    2    0    0  0.39517883900E+02 -0.92001071027E+01 -0.24613565309E+03  0.27902407999E+03  0.12500148950E+03 0.  0.
          5    1    3    3  501    0  0.77442385207E+02 -0.30801634636E+02 -0.12473564486E+03  0.15001684845E+03  0.10000000000E+00 0.  1.
         -5    1    3    3    0  501 -0.37924501307E+02  0.21601527533E+02 -0.12140000823E+03  0.12900723154E+03  0.10000000000E+00 0.  1.
         21    1    1    2  504  502 -0.39517883900E+02  0.92001071027E+01  0.36580935744E+02  0.54630302750E+02  0.00000000000E+00 0. -1.
<mgrwt>
<rscale>  1 0.13142175E+03</rscale>
<asrwt>0</asrwt>
<pdfrwt beam="1">  1       21 0.95461280E-02 0.13142175E+03</pdfrwt>
<pdfrwt beam="2">  1       21 0.41785316E-01 0.13142175E+03</pdfrwt>
<totfact> 0.48971042E+05</totfact>
</mgrwt>
</event>
<event>
 6    1  0.4241465E-002  0.1277361E+03  0.7546771E-02  0.1230854E+00
         21   -1    0    0  504  502  0.00000000000E+00  0.00000000000E+00  0.28930753321E+03  0.28930753321E+03  0.00000000000E+00 0. -1.
         21   -1    0    0  502  503 -0.00000000000E+00 -0.00000000000E+00 -0.39108581558E+03  0.39108581558E+03  0.00000000000E+00 0. -1.
         25    2    1    2    0    0  0.24551432285E+02  0.94662745651E+01 -0.38001824074E+03  0.40091194045E+03  0.12499655002E+03 0.  0.
          5    1    3    3  501    0  0.39061439828E+02 -0.17755901479E+02 -0.37434796719E+02  0.56942445716E+02  0.10000000000E+00 0.  1.
         -5    1    3    3    0  501 -0.14510007543E+02  0.27222176044E+02 -0.34258344402E+03  0.34396949473E+03  0.10000000000E+00 0.  1.
         21    1    1    2  504  503 -0.24551432285E+02 -0.94662745651E+01  0.27823995837E+03  0.27948140835E+03  0.00000000000E+00 0. -1.
<mgrwt>
<rscale>  1 0.12773614E+03</rscale>
<asrwt>0</asrwt>
<pdfrwt beam="1">  1       21 0.44508851E-01 0.12773614E+03</pdfrwt>
<pdfrwt beam="2">  1       21 0.60167049E-01 0.12773614E+03</pdfrwt>
<totfact> 0.13086088E+04</totfact>
</mgrwt>
</event>
<event>
 6    1  0.4241465E-002  0.1592610E+03  0.7546771E-02  0.1189534E+00
         21   -1    0    0  504  502  0.00000000000E+00  0.00000000000E+00  0.20911753708E+03  0.20911753708E+03  0.00000000000E+00 0. -1.
         21   -1    0    0  502  503 -0.00000000000E+00 -0.00000000000E+00 -0.28412334933E+03  0.28412334933E+03  0.00000000000E+00 0. -1.
         25    2    1    2    0    0 -0.91446917708E+02  0.37107889087E+02 -0.24761538010E+03  0.29441031254E+03  0.12499808589E+03 0.  0.
          5    1    3    3  501    0 -0.10423887574E+03  0.50845665497E+02 -0.12559161599E+03  0.17095113022E+03  0.10000000000E+00 0.  1.
         -5    1    3    3    0  501  0.12791958035E+02 -0.13737776410E+02 -0.12202376411E+03  0.12345918232E+03  0.10000000000E+00 0.  1.
         21    1    1    2  504  503  0.91446917708E+02 -0.37107889087E+02  0.17260956785E+03  0.19883057387E+03  0.00000000000E+00 0. -1.
<mgrwt>
<rscale>  1 0.15926097E+03</rscale>
<asrwt>0</asrwt>
<pdfrwt beam="1">  1       21 0.32171929E-01 0.15926097E+03</pdfrwt>
<pdfrwt beam="2">  1       21 0.43711284E-01 0.15926097E+03</pdfrwt>
<totfact> 0.47531833E+04</totfact>
</mgrwt>
</event>
<event>
 6    1  0.4241465E-002  0.1279766E+03  0.7546771E-02  0.1230489E+00
         21   -1    0    0  503  502  0.00000000000E+00  0.00000000000E+00  0.76642387175E+03  0.76642387175E+03  0.00000000000E+00 0.  1.
         21   -1    0    0  504  503 -0.00000000000E+00 -0.00000000000E+00 -0.84069596663E+01  0.84069596663E+01  0.00000000000E+00 0.  1.
         25    2    1    2    0    0 -0.18027320745E+02  0.20680796966E+02  0.53305492246E+03  0.54820211207E+03  0.12500130265E+03 0.  0.
          5    1    3    3  501    0 -0.33275334985E+02 -0.15937007421E+02  0.48266546946E+03  0.48407354972E+03  0.10000000000E+00 0. -1.
         -5    1    3    3    0  501  0.15248014240E+02  0.36617804387E+02  0.50389453002E+02  0.64128562359E+02  0.10000000000E+00 0. -1.
         21    1    1    2  504  502  0.18027320745E+02 -0.20680796966E+02  0.22496198962E+03  0.22662871934E+03  0.00000000000E+00 0.  1.
<mgrwt>
<rscale>  1 0.12797658E+03</rscale>
<asrwt>0</asrwt>
<pdfrwt beam="1">  1       21 0.11791131E+00 0.12797658E+03</pdfrwt>
<pdfrwt beam="2">  1       21 0.12933790E-02 0.12797658E+03</pdfrwt>
<totfact> 0.13786847E+06</totfact>
</mgrwt>
</event>
<event>
 6    1  0.4241465E-002  0.1264891E+03  0.7546771E-02  0.1232760E+00
         21   -1    0    0  504  502  0.00000000000E+00  0.00000000000E+00  0.47853158527E+02  0.47853158527E+02  0.00000000000E+00 0.  1.
         21   -1    0    0  502  503 -0.00000000000E+00 -0.00000000000E+00 -0.68260499266E+03  0.68260499266E+03  0.00000000000E+00 0.  1.
         25    2    1    2    0    0  0.16339750324E+02  0.10359342981E+02 -0.67449670795E+03  0.68625454928E+03  0.12500077576E+03 0.  0.
          5    1    3    3  501    0  0.30370980280E+02  0.27366121846E+02 -0.65656122736E+03  0.65783277232E+03  0.10000000000E+00 0.  1.
         -5    1    3    3    0  501 -0.14031229956E+02 -0.17006778865E+02 -0.17935480594E+02  0.28421776960E+02  0.10000000000E+00 0.  1.
         21    1    1    2  504  503 -0.16339750324E+02 -0.10359342981E+02  0.39744873814E+02  0.44203601913E+02  0.00000000000E+00 0.  1.
<mgrwt>
<rscale>  1 0.12648912E+03</rscale>
<asrwt>0</asrwt>
<pdfrwt beam="1">  1       21 0.73620250E-02 0.12648912E+03</pdfrwt>
<pdfrwt beam="2">  1       21 0.10501614E+00 0.12648912E+03</pdfrwt>
<totfact> 0.10414663E+05</totfact>
</mgrwt>
</event>
<event>
 6    1  0.4241465E-002  0.1289730E+03  0.7546771E-02  0.1228988E+00
         21   -1    0    0  504  502  0.00000000000E+00  0.00000000000E+00  0.45286980480E+03  0.45286980480E+03  0.00000000000E+00 0.  1.
         21   -1    0    0  502  503 -0.00000000000E+00 -0.00000000000E+00 -0.22860559547E+02  0.22860559547E+02  0.00000000000E+00 0.  1.
         25    2    1    2    0    0 -0.31614683580E+02  0.34437900014E+01  0.16799495212E+03  0.21179317918E+03  0.12499079527E+03 0.  0.
          5    1    3    3  501    0 -0.45881044936E+02 -0.47140831984E+02  0.50017995493E+02  0.82638599926E+02  0.10000000000E+00 0.  1.
         -5    1    3    3    0  501  0.14266361356E+02  0.50584621985E+02  0.11797695663E+03  0.12915457926E+03  0.10000000000E+00 0.  1.
         21    1    1    2  504  503  0.31614683580E+02 -0.34437900014E+01  0.26201429313E+03  0.26393718516E+03  0.00000000000E+00 0.  1.
<mgrwt>
<rscale>  1 0.12897305E+03</rscale>
<asrwt>0</asrwt>
<pdfrwt beam="1">  1       21 0.69672271E-01 0.12897305E+03</pdfrwt>
<pdfrwt beam="2">  1       21 0.35170095E-02 0.12897305E+03</pdfrwt>
<totfact> 0.91344211E+05</totfact>
</mgrwt>
</event>
<event>
 6    1  0.4241465E-002  0.1259333E+03  0.7546771E-02  0.1233618E+00
         21   -1    0    0  504  502  0.00000000000E+00  0.00000000000E+00  0.12865168932E+03  0.12865168932E+03  0.00000000000E+00 0.  1.
         21   -1    0    0  502  503 -0.00000000000E+00 -0.00000000000E+00 -0.48848390205E+02  0.48848390205E+02  0.00000000000E+00 0.  1.
         25    2    1    2    0    0  0.53046145868E+01  0.14379853344E+02  0.35828548327E+02  0.13093079968E+03  0.12499708121E+03 0.  0.
          5    1    3    3  501    0  0.47383904886E+02  0.28302787180E+02 -0.20831965378E+02  0.58993753788E+02  0.10000000000E+00 0.  1.
         -5    1    3    3    0  501 -0.42079290299E+02 -0.13922933836E+02  0.56660513705E+02  0.71937045895E+02  0.10000000000E+00 0.  1.
         21    1    1    2  504  503 -0.53046145868E+01 -0.14379853344E+02  0.43974750787E+02  0.46569279841E+02  0.00000000000E+00 0.  1.
<mgrwt>
<rscale>  1 0.12593327E+03</rscale>
<asrwt>0</asrwt>
<pdfrwt beam="1">  1       21 0.19792567E-01 0.12593327E+03</pdfrwt>
<pdfrwt beam="2">  1       21 0.75151370E-02 0.12593327E+03</pdfrwt>
<totfact> 0.31134258E+06</totfact>
</mgrwt>
</event>
<event>
 6    1  0.4241465E-002  0.1271872E+03  0.7546771E-02  0.1231690E+00
         21   -1    0    0  504  502  0.00000000000E+00  0.00000000000E+00  0.37674330548E+01  0.37674330548E+01  0.00000000000E+00 0.  1.
         21   -1    0    0  502  503 -0.00000000000E+00 -0.00000000000E+00 -0.18241817715E+04  0.18241817715E+04  0.00000000000E+00 0.  1.
         25    2    1    2    0    0  0.18143041823E+02 -0.14922880617E+02 -0.17251129630E+04  0.17297951700E+04  0.12499893118E+03 0.  0.
          5    1    3    3  501    0  0.23743230693E+02 -0.44989409170E+02 -0.16064195812E+04  0.16072248345E+04  0.10000000000E+00 0. -1.
         -5    1    3    3    0  501 -0.56001888704E+01  0.30066528553E+02 -0.11869338182E+03  0.12257033549E+03  0.10000000000E+00 0. -1.
         21    1    1    2  504  503 -0.18143041823E+02  0.14922880617E+02 -0.95301375382E+02  0.98154034467E+02  0.00000000000E+00 0.  1.
<mgrwt>
<rscale>  1 0.12718724E+03</rscale>
<asrwt>0</asrwt>
<pdfrwt beam="1">  1       21 0.57960578E-03 0.12718724E+03</pdfrwt>
<pdfrwt beam="2">  1       21 0.28064301E+00 0.12718724E+03</pdfrwt>
<totfact> 0.40901844E+05</totfact>
</mgrwt>
</event>
<event>
 6    1  0.4241465E-002  0.1703610E+03  0.7546771E-02  0.1177472E+00
         21   -1    0    0  504  502  0.00000000000E+00  0.00000000000E+00  0.57133556795E+03  0.57133556795E+03  0.00000000000E+00 0.  1.
         21   -1    0    0  502  503 -0.00000000000E+00 -0.00000000000E+00 -0.11458316841E+03  0.11458316841E+03  0.00000000000E+00 0. -1.
         25    2    1    2    0    0 -0.11278424982E+03  0.26045071356E+02 -0.40717743497E+02  0.17515932533E+03  0.12499688742E+03 0.  0.
          5    1    3    3  501    0 -0.10824899866E+03  0.33703992664E+02  0.18849252505E+02  0.11493088859E+03  0.10000000000E+00 0.  1.
         -5    1    3    3    0  501 -0.45352511563E+01 -0.76589213084E+01 -0.59566996002E+02  0.60228436734E+02  0.10000000000E+00 0.  1.
         21    1    1    2  504  503  0.11278424982E+03 -0.26045071356E+02  0.49747014304E+03  0.51075941104E+03  0.00000000000E+00 0.  1.
<mgrwt>
<rscale>  1 0.17036095E+03</rscale>
<asrwt>0</asrwt>
<pdfrwt beam="1">  1       21 0.87897778E-01 0.17036095E+03</pdfrwt>
<pdfrwt beam="2">  1       21 0.17628180E-01 0.17036095E+03</pdfrwt>
<totfact> 0.32779144E+04</totfact>
</mgrwt>
</event>
<event>
 6    1  0.4241465E-002  0.1942836E+03  0.7546771E-02  0.1154654E+00
         21   -1    0    0  504  502  0.00000000000E+00  0.00000000000E+00  0.10753306864E+03  0.10753306864E+03  0.00000000000E+00 0.  1.
         21   -1    0    0  502  503 -0.00000000000E+00 -0.00000000000E+00 -0.30123753539E+03  0.30123753539E+03  0.00000000000E+00 0.  1.
         25    2    1    2    0    0 -0.14781273617E+03  0.16561987500E+02 -0.16999352850E+03  0.25815482466E+03  0.12499283724E+03 0.  0.
          5    1    3    3  501    0 -0.30816705426E+02  0.33339216388E+02 -0.12273738234E+03  0.13086499802E+03  0.10000000000E+00 0. -1.
         -5    1    3    3    0  501 -0.11699603074E+03 -0.16777228888E+02 -0.47256146165E+02  0.12728982665E+03  0.10000000000E+00 0. -1.
         21    1    1    2  504  503  0.14781273617E+03 -0.16561987500E+02 -0.23710938249E+02  0.15061577937E+03  0.00000000000E+00 0.  1.
<mgrwt>
<rscale>  1 0.19428359E+03</rscale>
<asrwt>0</asrwt>
<pdfrwt beam="1">  1       21 0.16543549E-01 0.19428359E+03</pdfrwt>
<pdfrwt beam="2">  1       21 0.46344236E-01 0.19428359E+03</pdfrwt>
<totfact> 0.14620264E+05</totfact>
</mgrwt>
</event>
<event>
 6    1  0.4241465E-002  0.1264415E+03  0.7546771E-02  0.1232834E+00
         21   -1    0    0  503  502  0.00000000000E+00  0.00000000000E+00  0.12977141599E+04  0.12977141599E+04  0.00000000000E+00 0. -1.
         21   -1    0    0  504  503 -0.00000000000E+00 -0.00000000000E+00 -0.63437695270E+01  0.63437695270E+01  0.00000000000E+00 0. -1.
         25    2    1    2    0    0  0.14862727874E+02 -0.11801106816E+02  0.63782320958E+03  0.65023525903E+03  0.12500911409E+03 0.  0.
          5    1    3    3  501    0 -0.41051673596E+02  0.10526210352E+02  0.47058549320E+03  0.47248995483E+03  0.10000000000E+00 0. -1.
         -5    1    3    3    0  501  0.55914401470E+02 -0.22327317167E+02  0.16723771638E+03  0.17774530420E+03  0.10000000000E+00 0. -1.
         21    1    1    2  504  502 -0.14862727874E+02  0.11801106816E+02  0.65354718078E+03  0.65382267038E+03  0.00000000000E+00 0. -1.
<mgrwt>
<rscale>  1 0.12644147E+03</rscale>
<asrwt>0</asrwt>
<pdfrwt beam="1">  1       21 0.19964812E+00 0.12644147E+03</pdfrwt>
<pdfrwt beam="2">  1       21 0.97596558E-03 0.12644147E+03</pdfrwt>
<totfact> 0.53993572E+05</totfact>
</mgrwt>
</event>
<event>
 6    1  0.4241465E-002  0.1486715E+03  0.7546771E-02  0.1202115E+00
         21   -1    0    0  503  502  0.00000000000E+00  0.00000000000E+00  0.45718389986E+03  0.45718389986E+03  0.00000000000E+00 0.  1.
         21   -1    0    0  504  503 -0.00000000000E+00 -0.00000000000E+00 -0.34011781143E+02  0.34011781143E+02  0.00000000000E+00 0.  1.
         25    2    1    2    0    0  0.23382280799E+02 -0.77013399798E+02  0.17151492439E+03  0.22698149089E+03  0.12500173244E+03 0.  0.
          5    1    3    3  501    0 -0.12469055278E+02 -0.57034361341E+02  0.17624913569E+03  0.18566680787E+03  0.10000000000E+00 0.  1.
         -5    1    3    3    0  501  0.35851336077E+02 -0.19979038457E+02 -0.47342112976E+01  0.41314683017E+02  0.10000000000E+00 0.  1.
         21    1    1    2  504  502 -0.23382280799E+02  0.77013399798E+02  0.25165719432E+03  0.26421419011E+03  0.00000000000E+00 0.  1.
<mgrwt>
<rscale>  1 0.14867154E+03</rscale>
<asrwt>0</asrwt>
<pdfrwt beam="1">  1       21 0.70335980E-01 0.14867154E+03</pdfrwt>
<pdfrwt beam="2">  1       21 0.52325820E-02 0.14867154E+03</pdfrwt>
<totfact> 0.46022889E+05</totfact>
</mgrwt>
</event>
<event>
 6    1  0.4241465E-002  0.1280878E+03  0.7546771E-02  0.1230321E+00
         21   -1    0    0  503  502  0.00000000000E+00  0.00000000000E+00  0.89550926951E+02  0.89550926951E+02  0.00000000000E+00 0.  1.
         21   -1    0    0  504  503 -0.00000000000E+00 -0.00000000000E+00 -0.69146587025E+02  0.69146587025E+02  0.00000000000E+00 0.  1.
         25    2    1    2    0    0 -0.17589432046E+02  0.21721883362E+02  0.86609110754E+01  0.12838025062E+03  0.12500099612E+03 0.  0.
          5    1    3    3  501    0  0.31742657991E+02 -0.67068301546E+01 -0.41377211568E+02  0.52580048918E+02  0.10000000000E+00 0.  1.
         -5    1    3    3    0  501 -0.49332090037E+02  0.28428713517E+02  0.50038122643E+02  0.75800201697E+02  0.10000000000E+00 0.  1.
         21    1    1    2  504  502  0.17589432046E+02 -0.21721883362E+02  0.11743428851E+02  0.30317263361E+02  0.00000000000E+00 0.  1.
<mgrwt>
<rscale>  1 0.12808777E+03</rscale>
<asrwt>0</asrwt>
<pdfrwt beam="1">  1       21 0.13777066E-01 0.12808777E+03</pdfrwt>
<pdfrwt beam="2">  1       21 0.10637936E-01 0.12808777E+03</pdfrwt>
<totfact> 0.32917514E+06</totfact>
</mgrwt>
</event>
<event>
 6    1  0.4241465E-002  0.1260233E+03  0.7546771E-02  0.1233479E+00
         21   -1    0    0  504  502  0.00000000000E+00  0.00000000000E+00  0.22862090312E+03  0.22862090312E+03  0.00000000000E+00 0.  1.
         21   -1    0    0  502  503 -0.00000000000E+00 -0.00000000000E+00 -0.22544584105E+02  0.22544584105E+02  0.00000000000E+00 0.  1.
         25    2    1    2    0    0  0.71670047396E+01  0.14317903088E+02  0.19295831492E+03  0.23046644529E+03  0.12500201118E+03 0.  0.
          5    1    3    3  501    0 -0.54246927506E+02  0.22230117773E+02  0.12765437362E+03  0.14047261792E+03  0.10000000000E+00 0.  1.
         -5    1    3    3    0  501  0.61413932246E+02 -0.79122146853E+01  0.65303941301E+02  0.89993827370E+02  0.10000000000E+00 0.  1.
         21    1    1    2  504  503 -0.71670047396E+01 -0.14317903088E+02  0.13118004095E+02  0.20699041940E+02  0.00000000000E+00 0. -1.
<mgrwt>
<rscale>  1 0.12602330E+03</rscale>
<asrwt>0</asrwt>
<pdfrwt beam="1">  1       21 0.35172445E-01 0.12602330E+03</pdfrwt>
<pdfrwt beam="2">  1       21 0.34683977E-02 0.12602330E+03</pdfrwt>
<totfact> 0.38281610E+06</totfact>
</mgrwt>
</event>
<event>
 6    1  0.4241465E-002  0.1261437E+03  0.7546771E-02  0.1233293E+00
         21   -1    0    0  504  502  0.00000000000E+00  0.00000000000E+00  0.11043934070E+04  0.11043934070E+04  0.00000000000E+00 0. -1.
         21   -1    0    0  502  503 -0.00000000000E+00 -0.00000000000E+00 -0.46386095010E+01  0.46386095010E+01  0.00000000000E+00 0. -1.
         25    2    1    2    0    0 -0.12167259479E+01 -0.16919627605E+02  0.97775207539E+03  0.98585564530E+03  0.12499791286E+03 0.  0.
          5    1    3    3  501    0 -0.10092368382E+02  0.14969843003E+02  0.17869178772E+02  0.25402158355E+02  0.10000000000E+00 0.  1.
         -5    1    3    3    0  501  0.88756424345E+01 -0.31889470608E+02  0.95988289662E+03  0.96045348694E+03  0.10000000000E+00 0.  1.
         21    1    1    2  504  503  0.12167259479E+01  0.16919627605E+02  0.12200272210E+03  0.12317637119E+03  0.00000000000E+00 0. -1.
<mgrwt>
<rscale>  1 0.12614370E+03</rscale>
<asrwt>0</asrwt>
<pdfrwt beam="1">  1       21 0.16990647E+00 0.12614370E+03</pdfrwt>
<pdfrwt beam="2">  1       21 0.71363311E-03 0.12614370E+03</pdfrwt>
<totfact> 0.13831335E+06</totfact>
</mgrwt>
</event>
<event>
 6    1  0.4241465E-002  0.1899741E+03  0.7546771E-02  0.1158485E+00
         21   -1    0    0  503  502  0.00000000000E+00  0.00000000000E+00  0.18963486481E+04  0.18963486481E+04  0.00000000000E+00 0. -1.
         21   -1    0    0  504  503 -0.00000000000E+00 -0.00000000000E+00 -0.32915632206E+02  0.32915632206E+02  0.00000000000E+00 0.  1.
         25    2    1    2    0    0 -0.12276035158E+03  0.73440288454E+02  0.27405194007E+03  0.33345859537E+03  0.12500635616E+03 0.  0.
          5    1    3    3  501    0 -0.24402058680E+02  0.12911871503E+01  0.17395682329E+03  0.17566477735E+03  0.10000000000E+00 0. -1.
         -5    1    3    3    0  501 -0.98358292905E+02  0.72149101304E+02  0.10009511678E+03  0.15779381802E+03  0.10000000000E+00 0. -1.
         21    1    1    2  504  502  0.12276035158E+03 -0.73440288454E+02  0.15893810758E+04  0.15958056849E+04  0.00000000000E+00 0. -1.
<mgrwt>
<rscale>  1 0.18997413E+03</rscale>
<asrwt>0</asrwt>
<pdfrwt beam="1">  1       21 0.29174586E+00 0.18997413E+03</pdfrwt>
<pdfrwt beam="2">  1       21 0.50639449E-02 0.18997413E+03</pdfrwt>
<totfact> 0.10053587E+04</totfact>
</mgrwt>
</event>
<event>
 6    1  0.4241465E-002  0.1356854E+03  0.7546771E-02  0.1219255E+00
         21   -1    0    0  504  502  0.00000000000E+00  0.00000000000E+00  0.21212133919E+03  0.21212133919E+03  0.00000000000E+00 0.  1.
         21   -1    0    0  502  503 -0.00000000000E+00 -0.00000000000E+00 -0.13542762068E+03  0.13542762068E+03  0.00000000000E+00 0.  1.
         25    2    1    2    0    0  0.51617228325E+02 -0.10978741138E+02 -0.96494978149E+02  0.16649870257E+03  0.12500266450E+03 0.  0.
          5    1    3    3  501    0 -0.20959935309E+02  0.40779715689E+02 -0.40889830117E+02  0.61435269242E+02  0.10000000000E+00 0.  1.
         -5    1    3    3    0  501  0.72577163634E+02 -0.51758456827E+02 -0.55605148032E+02  0.10506343332E+03  0.10000000000E+00 0.  1.
         21    1    1    2  504  503 -0.51617228325E+02  0.10978741138E+02  0.17318869666E+03  0.18105025730E+03  0.00000000000E+00 0.  1.
<mgrwt>
<rscale>  1 0.13568543E+03</rscale>
<asrwt>0</asrwt>
<pdfrwt beam="1">  1       21 0.32634052E-01 0.13568543E+03</pdfrwt>
<pdfrwt beam="2">  1       21 0.20835019E-01 0.13568543E+03</pdfrwt>
<totfact> 0.19630651E+05</totfact>
</mgrwt>
</event>
<event>
 6    1  0.4241465E-002  0.1324489E+03  0.7546771E-02  0.1223867E+00
         21   -1    0    0  503  502  0.00000000000E+00  0.00000000000E+00  0.58492500271E+01  0.58492500271E+01  0.00000000000E+00 0. -1.
         21   -1    0    0  504  503 -0.00000000000E+00 -0.00000000000E+00 -0.20681692267E+04  0.20681692267E+04  0.00000000000E+00 0. -1.
         25    2    1    2    0    0  0.35453685929E+02  0.25716335698E+02 -0.19320141963E+04  0.19365488794E+04  0.12499765663E+03 0.  0.
          5    1    3    3  501    0 -0.15891752679E+02 -0.41721302981E+02 -0.87685333680E+03  0.87798917943E+03  0.10000000000E+00 0.  1.
         -5    1    3    3    0  501  0.51345438608E+02  0.67437638679E+02 -0.10551608594E+04  0.10585597000E+04  0.10000000000E+00 0.  1.
         21    1    1    2  504  502 -0.35453685929E+02 -0.25716335698E+02 -0.13030578041E+03  0.13746959728E+03  0.00000000000E+00 0. -1.
<mgrwt>
<rscale>  1 0.13244889E+03</rscale>
<asrwt>0</asrwt>
<pdfrwt beam="1">  1       21 0.89988400E-03 0.13244889E+03</pdfrwt>
<pdfrwt beam="2">  1       21 0.31818010E+00 0.13244889E+03</pdfrwt>
<totfact> 0.12593164E+05</totfact>
</mgrwt>
</event>
<event>
 6    1  0.4241465E-002  0.1260442E+03  0.7546771E-02  0.1233446E+00
         21   -1    0    0  503  502  0.00000000000E+00  0.00000000000E+00  0.44200110257E+02  0.44200110257E+02  0.00000000000E+00 0.  1.
         21   -1    0    0  504  503 -0.00000000000E+00 -0.00000000000E+00 -0.18423138742E+03  0.18423138742E+03  0.00000000000E+00 0.  1.
         25    2    1    2    0    0 -0.11930095774E+02 -0.10881146520E+02 -0.15940130054E+03  0.20321395734E+03  0.12500564512E+03 0.  0.
          5    1    3    3  501    0  0.49005052140E+02 -0.28802751237E+02 -0.10580093424E+03  0.12010387712E+03  0.10000000000E+00 0.  1.
         -5    1    3    3    0  501 -0.60935147914E+02  0.17921604716E+02 -0.53600366301E+02  0.83110080222E+02  0.10000000000E+00 0.  1.
         21    1    1    2  504  502  0.11930095774E+02  0.10881146520E+02  0.19370023377E+02  0.25217540332E+02  0.00000000000E+00 0.  1.
<mgrwt>
<rscale>  1 0.12604419E+03</rscale>
<asrwt>0</asrwt>
<pdfrwt beam="1">  1       21 0.68000168E-02 0.12604419E+03</pdfrwt>
<pdfrwt beam="2">  1       21 0.28343291E-01 0.12604419E+03</pdfrwt>
<totfact> 0.18817753E+06</totfact>
</mgrwt>
</event>
<event>
 6    1  0.4241465E-002  0.1273186E+03  0.7546771E-02  0.1231490E+00
         21   -1    0    0  503  502  0.00000000000E+00  0.00000000000E+00  0.19172202949E+03  0.19172202949E+03  0.00000000000E+00 0.  1.
         21   -1    0    0  504  503 -0.00000000000E+00 -0.00000000000E+00 -0.30867617971E+02  0.30867617971E+02  0.00000000000E+00 0.  1.
         25    2    1    2    0    0  0.13277430354E+02  0.20223362975E+02  0.11914472923E+03  0.17437168231E+03  0.12499897008E+03 0.  0.
          5    1    3    3  501    0  0.59761000236E+02  0.89773906059E+01  0.11025112253E+03  0.12572704845E+03  0.10000000000E+00 0. -1.
         -5    1    3    3    0  501 -0.46483569881E+02  0.11245972369E+02  0.88936066965E+01  0.48644633861E+02  0.10000000000E+00 0. -1.
         21    1    1    2  504  502 -0.13277430354E+02 -0.20223362975E+02  0.41709682288E+02  0.48217965152E+02  0.00000000000E+00 0.  1.
<mgrwt>
<rscale>  1 0.12731857E+03</rscale>
<asrwt>0</asrwt>
<pdfrwt beam="1">  1       21 0.29495696E-01 0.12731857E+03</pdfrwt>
<pdfrwt beam="2">  1       21 0.47488644E-02 0.12731857E+03</pdfrwt>
<totfact> 0.31990209E+06</totfact>
</mgrwt>
</event>
<event>
 6    1  0.4241465E-002  0.1263651E+03  0.7546771E-02  0.1232951E+00
         21   -1    0    0  504  502  0.00000000000E+00  0.00000000000E+00  0.22633314623E+03  0.22633314623E+03  0.00000000000E+00 0. -1.
         21   -1    0    0  502  503 -0.00000000000E+00 -0.00000000000E+00 -0.23775442499E+03  0.23775442499E+03  0.00000000000E+00 0. -1.
         25    2    1    2    0    0  0.22410049182E+01  0.18484676555E+02 -0.22052087794E+03  0.25416056546E+03  0.12498571940E+03 0.  0.
          5    1    3    3  501    0  0.34076745341E+02  0.32364669870E+01 -0.21585743817E+03  0.21855466800E+03  0.10000000000E+00 0.  1.
         -5    1    3    3    0  501 -0.31835740423E+02  0.15248209568E+02 -0.46634397732E+01  0.35605897458E+02  0.10000000000E+00 0.  1.
         21    1    1    2  504  503 -0.22410049182E+01 -0.18484676555E+02  0.20909959918E+03  0.20992700576E+03  0.00000000000E+00 0. -1.
<mgrwt>
<rscale>  1 0.12636509E+03</rscale>
<asrwt>0</asrwt>
<pdfrwt beam="1">  1       21 0.34820484E-01 0.12636509E+03</pdfrwt>
<pdfrwt beam="2">  1       21 0.36577604E-01 0.12636509E+03</pdfrwt>
<totfact> 0.59133575E+04</totfact>
</mgrwt>
</event>
<event>
 6    1  0.4241465E-002  0.1286377E+03  0.7546771E-02  0.1229491E+00
         21   -1    0    0  503  502  0.00000000000E+00  0.00000000000E+00  0.52619399431E+02  0.52619399431E+02  0.00000000000E+00 0.  1.
         21   -1    0    0  504  503 -0.00000000000E+00 -0.00000000000E+00 -0.16555532632E+03  0.16555532632E+03  0.00000000000E+00 0.  1.
         25    2    1    2    0    0  0.28932596742E+02 -0.92688534290E+01 -0.13036721370E+03  0.18314821354E+03  0.12499860366E+03 0.  0.
          5    1    3    3  501    0  0.29405311265E+02  0.55881047470E+02 -0.70826003362E+02  0.94887810329E+02  0.10000000000E+00 0. -1.
         -5    1    3    3    0  501 -0.47271452227E+00 -0.65149900899E+02 -0.59541210336E+02  0.88260403208E+02  0.10000000000E+00 0. -1.
         21    1    1    2  504  502 -0.28932596742E+02  0.92688534290E+01  0.17431286808E+02  0.35026512215E+02  0.00000000000E+00 0.  1.
<mgrwt>
<rscale>  1 0.12863770E+03</rscale>
<asrwt>0</asrwt>
<pdfrwt beam="1">  1       21 0.80952924E-02 0.12863770E+03</pdfrwt>
<pdfrwt beam="2">  1       21 0.25470050E-01 0.12863770E+03</pdfrwt>
<totfact> 0.17109665E+06</totfact>
</mgrwt>
</event>
<event>
 6    1  0.4241465E-002  0.1314227E+03  0.7546771E-02  0.1225360E+00
         21   -1    0    0  503  502  0.00000000000E+00  0.00000000000E+00  0.48451328266E+02  0.48451328266E+02  0.00000000000E+00 0.  1.
         21   -1    0    0  504  503 -0.00000000000E+00 -0.00000000000E+00 -0.15446551785E+03  0.15446551785E+03  0.00000000000E+00 0.  1.
         25    2    1    2    0    0  0.40528445406E+02  0.24476783908E+01 -0.71418587425E+02  0.14957453922E+03  0.12499352838E+03 0.  0.
          5    1    3    3  501    0  0.25928461740E+02 -0.22465692339E+02 -0.10193979173E+03  0.10755800109E+03  0.10000000000E+00 0. -1.
         -5    1    3    3    0  501  0.14599983666E+02  0.24913370729E+02  0.30521204305E+02  0.42016538130E+02  0.10000000000E+00 0. -1.
         21    1    1    2  504  502 -0.40528445406E+02 -0.24476783908E+01 -0.34595602162E+02  0.53342306901E+02  0.00000000000E+00 0.  1.
<mgrwt>
<rscale>  1 0.13142271E+03</rscale>
<asrwt>0</asrwt>
<pdfrwt beam="1">  1       21 0.74540505E-02 0.13142271E+03</pdfrwt>
<pdfrwt beam="2">  1       21 0.23763926E-01 0.13142271E+03</pdfrwt>
<totfact> 0.22491225E+06</totfact>
</mgrwt>
</event>
<event>
 6    1  0.4241465E-002  0.1411468E+03  0.7546771E-02  0.1211794E+00
         21   -1    0    0  503  502  0.00000000000E+00  0.00000000000E+00  0.15066850106E+04  0.15066850106E+04  0.00000000000E+00 0. -1.
         21   -1    0    0  504  503 -0.00000000000E+00 -0.00000000000E+00 -0.31472147557E+02  0.31472147557E+02  0.00000000000E+00 0.  1.
         25    2    1    2    0    0  0.22786786724E+02 -0.61470928959E+02  0.13170539261E+03  0.19305112670E+03  0.12499805727E+03 0.  0.
          5    1    3    3  501    0  0.27508046853E+02 -0.98898274715E+02  0.87039582124E+02  0.13458625576E+03  0.10000000000E+00 0. -1.
         -5    1    3    3    0  501 -0.47212601296E+01  0.37427345756E+02  0.44665810487E+02  0.58464870940E+02  0.10000000000E+00 0. -1.
         21    1    1    2  504  502 -0.22786786724E+02  0.61470928959E+02  0.13435074705E+04  0.13451060315E+04  0.00000000000E+00 0. -1.
<mgrwt>
<rscale>  1 0.14114683E+03</rscale>
<asrwt>0</asrwt>
<pdfrwt beam="1">  1       21 0.23179764E+00 0.14114683E+03</pdfrwt>
<pdfrwt beam="2">  1       21 0.48418700E-02 0.14114683E+03</pdfrwt>
<totfact> 0.25354844E+04</totfact>
</mgrwt>
</event>
<event>
 6    1  0.4241465E-002  0.1359100E+03  0.7546771E-02  0.1218941E+00
         21   -1    0    0  503  502  0.00000000000E+00  0.00000000000E+00  0.45581012247E+02  0.45581012247E+02  0.00000000000E+00 0. -1.
         21   -1    0    0  504  503 -0.00000000000E+00 -0.00000000000E+00 -0.19721994144E+03  0.19721994144E+03  0.00000000000E+00 0. -1.
         25    2    1    2    0    0  0.49748337786E+02  0.19264040724E+02 -0.11557135526E+03  0.17840475607E+03  0.12500207381E+03 0.  0.
          5    1    3    3  501    0 -0.36922792969E+02 -0.46945527497E+01 -0.65878467531E+02  0.75665804366E+02  0.10000000000E+00 0.  1.
         -5    1    3    3    0  501  0.86671130755E+02  0.23958593474E+02 -0.49692887726E+02  0.10273895171E+03  0.10000000000E+00 0.  1.
         21    1    1    2  504  502 -0.49748337786E+02 -0.19264040724E+02 -0.36067573937E+02  0.64396197614E+02  0.00000000000E+00 0. -1.
<mgrwt>
<rscale>  1 0.13590997E+03</rscale>
<asrwt>0</asrwt>
<pdfrwt beam="1">  1       21 0.70124632E-02 0.13590997E+03</pdfrwt>
<pdfrwt beam="2">  1       21 0.30341530E-01 0.13590997E+03</pdfrwt>
<totfact> 0.15685076E+06</totfact>
</mgrwt>
</event>
<event>
 6    1  0.4241465E-002  0.1497629E+03  0.7546771E-02  0.1200765E+00
         21   -1    0    0  503  502  0.00000000000E+00  0.00000000000E+00  0.12720071743E+03  0.12720071743E+03  0.00000000000E+00 0.  1.
         21   -1    0    0  504  503 -0.00000000000E+00 -0.00000000000E+00 -0.10696373877E+03  0.10696373877E+03  0.00000000000E+00 0.  1.
         25    2    1    2    0    0 -0.78520296588E+02  0.25283731200E+02  0.24756248805E+01  0.14978335804E+03  0.12499688631E+03 0.  0.
          5    1    3    3  501    0 -0.49702529871E+02 -0.35061717250E+02 -0.37900045808E+02  0.71666512154E+02  0.10000000000E+00 0.  1.
         -5    1    3    3    0  501 -0.28817766717E+02  0.60345448450E+02  0.40375670689E+02  0.78116845883E+02  0.10000000000E+00 0.  1.
         21    1    1    2  504  502  0.78520296588E+02 -0.25283731200E+02  0.17761353772E+02  0.84381098164E+02  0.00000000000E+00 0.  1.
<mgrwt>
<rscale>  1 0.14976290E+03</rscale>
<asrwt>0</asrwt>
<pdfrwt beam="1">  1       21 0.19569341E-01 0.14976290E+03</pdfrwt>
<pdfrwt beam="2">  1       21 0.16455960E-01 0.14976290E+03</pdfrwt>
<totfact> 0.79878290E+05</totfact>
</mgrwt>
</event>
<event>
 6    1  0.4241465E-002  0.1259280E+03  0.7546771E-02  0.1233626E+00
         21   -1    0    0  503  502  0.00000000000E+00  0.00000000000E+00  0.41233597617E+02  0.41233597617E+02  0.00000000000E+00 0. -1.
         21   -1    0    0  504  503 -0.00000000000E+00 -0.00000000000E+00 -0.15545429117E+03  0.15545429117E+03  0.00000000000E+00 0. -1.
         25    2    1    2    0    0 -0.10193517750E+02 -0.11665362834E+02 -0.12529735900E+03  0.17764370301E+03  0.12497147095E+03 0.  0.
          5    1    3    3  501    0  0.25555508254E+02 -0.49142122505E+02 -0.17565367377E+02  0.58108384399E+02  0.10000000000E+00 0.  1.
         -5    1    3    3    0  501 -0.35749026004E+02  0.37476759671E+02 -0.10773199163E+03  0.11953531861E+03  0.10000000000E+00 0.  1.
         21    1    1    2  504  502  0.10193517750E+02  0.11665362834E+02  0.11076665455E+02  0.19044185773E+02  0.00000000000E+00 0. -1.
<mgrwt>
<rscale>  1 0.12592798E+03</rscale>
<asrwt>0</asrwt>
<pdfrwt beam="1">  1       21 0.63436304E-02 0.12592798E+03</pdfrwt>
<pdfrwt beam="2">  1       21 0.23916045E-01 0.12592798E+03</pdfrwt>
<totfact> 0.29233394E+06</totfact>
</mgrwt>
</event>
<event>
 6    1  0.4241465E-002  0.1357812E+03  0.7546771E-02  0.1219121E+00
         21   -1    0    0  503  502  0.00000000000E+00  0.00000000000E+00  0.16980243578E+03  0.16980243578E+03  0.00000000000E+00 0.  1.
         21   -1    0    0  504  503 -0.00000000000E+00 -0.00000000000E+00 -0.31203701551E+03  0.31203701551E+03  0.00000000000E+00 0. -1.
         25    2    1    2    0    0  0.52915323920E+02 -0.31840077418E+01 -0.29250991648E+03  0.32248812169E+03  0.12500547181E+03 0.  0.
          5    1    3    3  501    0  0.15562537785E+02  0.70186910488E+01  0.84489099624E+01  0.19048587504E+02  0.10000000000E+00 0.  1.
         -5    1    3    3    0  501  0.37352786135E+02 -0.10202698791E+02 -0.30095882644E+03  0.30343953419E+03  0.10000000000E+00 0.  1.
         21    1    1    2  504  502 -0.52915323920E+02  0.31840077418E+01  0.15027533675E+03  0.15935132960E+03  0.00000000000E+00 0.  1.
<mgrwt>
<rscale>  1 0.13578121E+03</rscale>
<asrwt>0</asrwt>
<pdfrwt beam="1">  1       21 0.26123452E-01 0.13578121E+03</pdfrwt>
<pdfrwt beam="2">  1       21 0.48005695E-01 0.13578121E+03</pdfrwt>
<totfact> 0.59302329E+04</totfact>
</mgrwt>
</event>
<event>
 6    1  0.4241465E-002  0.1264072E+03  0.7546771E-02  0.1232886E+00
         21   -1    0    0  504  502  0.00000000000E+00  0.00000000000E+00  0.79815900011E+02  0.79815900011E+02  0.00000000000E+00 0.  1.
         21   -1    0    0  502  503 -0.00000000000E+00 -0.00000000000E+00 -0.44341178549E+03  0.44341178549E+03  0.00000000000E+00 0.  1.
         25    2    1    2    0    0 -0.14223964284E+02 -0.12303967931E+02 -0.43312803839E+03  0.45119693461E+03  0.12500026953E+03 0.  0.
          5    1    3    3  501    0 -0.52363507867E+02 -0.13050586969E+02 -0.38959588059E+03  0.39331566833E+03  0.10000000000E+00 0.  1.
         -5    1    3    3    0  501  0.38139543583E+02  0.74661903838E+00 -0.43532157792E+02  0.57881266285E+02  0.10000000000E+00 0.  1.
         21    1    1    2  504  503  0.14223964284E+02  0.12303967931E+02  0.69532152903E+02  0.72030750892E+02  0.00000000000E+00 0.  1.
<mgrwt>
<rscale>  1 0.12640718E+03</rscale>
<asrwt>0</asrwt>
<pdfrwt beam="1">  1       21 0.12279369E-01 0.12640718E+03</pdfrwt>
<pdfrwt beam="2">  1       21 0.68217198E-01 0.12640718E+03</pdfrwt>
<totfact> 0.11324669E+05</totfact>
</mgrwt>
</event>
<event>
 6    1  0.4241465E-002  0.1264549E+03  0.7546771E-02  0.1232813E+00
         21   -1    0    0  503  502  0.00000000000E+00  0.00000000000E+00  0.14806949747E+03  0.14806949747E+03  0.00000000000E+00 0. -1.
         21   -1    0    0  504  503 -0.00000000000E+00 -0.00000000000E+00 -0.90659381593E+02  0.90659381593E+02  0.00000000000E+00 0. -1.
         25    2    1    2    0    0  0.32786369400E+01  0.18854187955E+02 -0.45244830334E+02  0.13430537670E+03  0.12499843869E+03 0.  0.
          5    1    3    3  501    0 -0.28568495054E+02 -0.27384553826E+02  0.23126330348E+02  0.45835683187E+02  0.10000000000E+00 0. -1.
         -5    1    3    3    0  501  0.31847131994E+02  0.46238741780E+02 -0.68371160682E+02  0.88469693515E+02  0.10000000000E+00 0. -1.
         21    1    1    2  504  502 -0.32786369400E+01 -0.18854187955E+02  0.10265494621E+03  0.10442350236E+03  0.00000000000E+00 0. -1.
<mgrwt>
<rscale>  1 0.12645489E+03</rscale>
<asrwt>0</asrwt>
<pdfrwt beam="1">  1       21 0.22779923E-01 0.12645489E+03</pdfrwt>
<pdfrwt beam="2">  1       21 0.13947597E-01 0.12645489E+03</pdfrwt>
<totfact> 0.81154889E+05</totfact>
</mgrwt>
</event>
<event>
 6    1  0.4241465E-002  0.1537300E+03  0.7546771E-02  0.1195963E+00
         21   -1    0    0  503  502  0.00000000000E+00  0.00000000000E+00  0.26798082931E+03  0.26798082931E+03  0.00000000000E+00 0.  1.
         21   -1    0    0  504  503 -0.00000000000E+00 -0.00000000000E+00 -0.20175288451E+03  0.20175288451E+03  0.00000000000E+00 0.  1.
         25    2    1    2    0    0  0.43126475727E+02 -0.78412479603E+02 -0.16275822873E+03  0.22388197489E+03  0.12499795116E+03 0.  0.
          5    1    3    3  501    0  0.90947437534E+01 -0.50691478784E+02 -0.17155262911E+03  0.17911631678E+03  0.10000000000E+00 0. -1.
         -5    1    3    3    0  501  0.34031731973E+02 -0.27721000820E+02  0.87944003722E+01  0.44765658104E+02  0.10000000000E+00 0. -1.
         21    1    1    2  504  502 -0.43126475727E+02  0.78412479603E+02  0.22898617354E+03  0.24585173893E+03  0.00000000000E+00 0.  1.
<mgrwt>
<rscale>  1 0.15372995E+03</rscale>
<asrwt>0</asrwt>
<pdfrwt beam="1">  1       21 0.41227820E-01 0.15372995E+03</pdfrwt>
<pdfrwt beam="2">  1       21 0.31038905E-01 0.15372995E+03</pdfrwt>
<totfact> 0.57532992E+04</totfact>
</mgrwt>
</event>
<event>
 6    1  0.4241465E-002  0.1259805E+03  0.7546771E-02  0.1233545E+00
         21   -1    0    0  503  502  0.00000000000E+00  0.00000000000E+00  0.41509617448E+03  0.41509617448E+03  0.00000000000E+00 0.  1.
         21   -1    0    0  504  503 -0.00000000000E+00 -0.00000000000E+00 -0.21899449743E+02  0.21899449743E+02  0.00000000000E+00 0.  1.
         25    2    1    2    0    0 -0.68365270971E+01 -0.14114924209E+02  0.16177015720E+03  0.20503824591E+03  0.12500051736E+03 0.  0.
          5    1    3    3  501    0  0.35768899918E+02  0.32463840592E+02  0.24971455637E+02  0.54377373456E+02  0.10000000000E+00 0. -1.
         -5    1    3    3    0  501 -0.42605427015E+02 -0.46578764801E+02  0.13679870156E+03  0.15066087246E+03  0.10000000000E+00 0. -1.
         21    1    1    2  504  502  0.68365270971E+01  0.14114924209E+02  0.23142656754E+03  0.23195737831E+03  0.00000000000E+00 0.  1.
<mgrwt>
<rscale>  1 0.12598055E+03</rscale>
<asrwt>0</asrwt>
<pdfrwt beam="1">  1       21 0.63860944E-01 0.12598055E+03</pdfrwt>
<pdfrwt beam="2">  1       21 0.33691464E-02 0.12598055E+03</pdfrwt>
<totfact> 0.11834432E+06</totfact>
</mgrwt>
</event>
<event>
 6    1  0.4241465E-002  0.1298085E+03  0.7546771E-02  0.1227740E+00
         21   -1    0    0  504  502  0.00000000000E+00  0.00000000000E+00  0.58104297072E+02  0.58104297072E+02  0.00000000000E+00 0. -1.
         21   -1    0    0  502  503 -0.00000000000E+00 -0.00000000000E+00 -0.15896845718E+03  0.15896845718E+03  0.00000000000E+00 0. -1.
         25    2    1    2    0    0 -0.27321742283E+02  0.21916567990E+02 -0.12032965209E+03  0.17700133137E+03  0.12499373017E+03 0.  0.
          5    1    3    3  501    0 -0.52523456923E+02  0.60097643002E+02 -0.97098298389E+02  0.12569220251E+03  0.10000000000E+00 0. -1.
         -5    1    3    3    0  501  0.25201714640E+02 -0.38181075012E+02 -0.23231353697E+02  0.51309128860E+02  0.10000000000E+00 0. -1.
         21    1    1    2  504  503  0.27321742283E+02 -0.21916567990E+02  0.19465491978E+02  0.40071422882E+02  0.00000000000E+00 0. -1.
<mgrwt>
<rscale>  1 0.12980850E+03</rscale>
<asrwt>0</asrwt>
<pdfrwt beam="1">  1       21 0.89391229E-02 0.12980850E+03</pdfrwt>
<pdfrwt beam="2">  1       21 0.24456685E-01 0.12980850E+03</pdfrwt>
<totfact> 0.15563996E+06</totfact>
</mgrwt>
</event>
<event>
 6    1  0.4241465E-002  0.1345407E+03  0.7546771E-02  0.1220870E+00
         21   -1    0    0  504  502  0.00000000000E+00  0.00000000000E+00  0.58035520133E+03  0.58035520133E+03  0.00000000000E+00 0. -1.
         21   -1    0    0  502  503 -0.00000000000E+00 -0.00000000000E+00 -0.12204204089E+03  0.12204204089E+03  0.00000000000E+00 0. -1.
         25    2    1    2    0    0 -0.16887148893E+02  0.46809579827E+02 -0.83472208573E+02  0.15833134673E+03  0.12499957277E+03 0.  0.
          5    1    3    3  501    0 -0.58795771466E+02 -0.46376114896E+01 -0.68341364428E+02  0.90271824367E+02  0.10000000000E+00 0.  1.
         -5    1    3    3    0  501  0.41908622573E+02  0.51447191317E+02 -0.15130844145E+02  0.68059522367E+02  0.10000000000E+00 0.  1.
         21    1    1    2  504  503  0.16887148893E+02 -0.46809579827E+02  0.54178536901E+03  0.54406589549E+03  0.00000000000E+00 0. -1.
<mgrwt>
<rscale>  1 0.13454072E+03</rscale>
<asrwt>0</asrwt>
<pdfrwt beam="1">  1       21 0.89285414E-01 0.13454072E+03</pdfrwt>
<pdfrwt beam="2">  1       21 0.18775699E-01 0.13454072E+03</pdfrwt>
<totfact> 0.28776034E+04</totfact>
</mgrwt>
</event>
<event>
 6    1  0.4241465E-002  0.1440615E+03  0.7546771E-02  0.1207966E+00
         21   -1    0    0  504  502  0.00000000000E+00  0.00000000000E+00  0.28717447601E+03  0.28717447601E+03  0.00000000000E+00 0. -1.
         21   -1    0    0  502  503 -0.00000000000E+00 -0.00000000000E+00 -0.12329767013E+03  0.12329767013E+03  0.00000000000E+00 0. -1.
         25    2    1    2    0    0  0.39191175304E+02  0.59939802660E+02 -0.74065761597E+02  0.16198594213E+03  0.12499992097E+03 0.  0.
          5    1    3    3  501    0 -0.35269653252E+02  0.57334631727E+02 -0.21001225442E+02  0.70514324118E+02  0.10000000000E+00 0. -1.
         -5    1    3    3    0  501  0.74460828556E+02  0.26051709335E+01 -0.53064536155E+02  0.91471618014E+02  0.10000000000E+00 0. -1.
         21    1    1    2  504  503 -0.39191175304E+02 -0.59939802660E+02  0.23794256748E+03  0.24848620401E+03  0.00000000000E+00 0. -1.
<mgrwt>
<rscale>  1 0.14406147E+03</rscale>
<asrwt>0</asrwt>
<pdfrwt beam="1">  1       21 0.44180688E-01 0.14406147E+03</pdfrwt>
<pdfrwt beam="2">  1       21 0.18968872E-01 0.14406147E+03</pdfrwt>
<totfact> 0.12749359E+05</totfact>
</mgrwt>
</event>
<event>
 6    1  0.4241465E-002  0.1911471E+03  0.7546771E-02  0.1157431E+00
         21   -1    0    0  503  502  0.00000000000E+00  0.00000000000E+00  0.10304445584E+03  0.10304445584E+03  0.00000000000E+00 0.  1.
         21   -1    0    0  504  503 -0.00000000000E+00 -0.00000000000E+00 -0.28531684532E+03  0.28531684532E+03  0.00000000000E+00 0.  1.
         25    2    1    2    0    0 -0.10775675186E+03 -0.96438004735E+02 -0.64099671961E+02  0.20160853012E+03  0.12500170056E+03 0.  0.
          5    1    3    3  501    0 -0.19535832798E+01  0.20413708579E+02  0.14839545413E+02  0.25313199988E+02  0.10000000000E+00 0.  1.
         -5    1    3    3    0  501 -0.10580316858E+03 -0.11685171331E+03 -0.78939217373E+02  0.17629533013E+03  0.10000000000E+00 0.  1.
         21    1    1    2  504  502  0.10775675186E+03  0.96438004735E+02 -0.11817271752E+03  0.18675277105E+03  0.00000000000E+00 0.  1.
<mgrwt>
<rscale>  1 0.19114715E+03</rscale>
<asrwt>0</asrwt>
<pdfrwt beam="1">  1       21 0.15852993E-01 0.19114715E+03</pdfrwt>
<pdfrwt beam="2">  1       21 0.43894899E-01 0.19114715E+03</pdfrwt>
<totfact> 0.17691782E+05</totfact>
</mgrwt>
</event>
<event>
 6    1  0.4241465E-002  0.1322501E+03  0.7546771E-02  0.1224155E+00
         21   -1    0    0  503  502  0.00000000000E+00  0.00000000000E+00  0.21547628686E+03  0.21547628686E+03  0.00000000000E+00 0. -1.
         21   -1    0    0  504  503 -0.00000000000E+00 -0.00000000000E+00 -0.46941609734E+02  0.46941609734E+02  0.00000000000E+00 0. -1.
         25    2    1    2    0    0  0.38351465183E+02  0.19841000560E+02  0.59257776412E+02  0.14491921058E+03  0.12500237336E+03 0.  0.
          5    1    3    3  501    0  0.75019809412E+02 -0.19044614948E+02  0.24586161037E+02  0.81210581067E+02  0.10000000000E+00 0.  1.
         -5    1    3    3    0  501 -0.36668344229E+02  0.38885615508E+02  0.34671615375E+02  0.63708629515E+02  0.10000000000E+00 0.  1.
         21    1    1    2  504  502 -0.38351465183E+02 -0.19841000560E+02  0.10927690072E+03  0.11749868602E+03  0.00000000000E+00 0. -1.
<mgrwt>
<rscale>  1 0.13225012E+03</rscale>
<asrwt>0</asrwt>
<pdfrwt beam="1">  1       21 0.33150198E-01 0.13225012E+03</pdfrwt>
<pdfrwt beam="2">  1       21 0.72217862E-02 0.13225012E+03</pdfrwt>
<totfact> 0.12551949E+06</totfact>
</mgrwt>
</event>
<event>
 6    1  0.4241465E-002  0.1577378E+03  0.7546771E-02  0.1191275E+00
         21   -1    0    0  503  502  0.00000000000E+00  0.00000000000E+00  0.63099654927E+03  0.63099654927E+03  0.00000000000E+00 0. -1.
         21   -1    0    0  504  503 -0.00000000000E+00 -0.00000000000E+00 -0.28517504711E+03  0.28517504711E+03  0.00000000000E+00 0. -1.
         25    2    1    2    0    0 -0.47428935093E+02 -0.83702475887E+02 -0.25926803176E+03  0.30348166468E+03  0.12500240058E+03 0.  0.
          5    1    3    3  501    0  0.36247107248E+02 -0.34261793837E+02 -0.14571404276E+03  0.15401401092E+03  0.10000000000E+00 0. -1.
         -5    1    3    3    0  501 -0.83676042341E+02 -0.49440682050E+02 -0.11355398899E+03  0.14946765376E+03  0.10000000000E+00 0. -1.
         21    1    1    2  504  502  0.47428935093E+02  0.83702475887E+02  0.60508953392E+03  0.61268993170E+03  0.00000000000E+00 0. -1.
<mgrwt>
<rscale>  1 0.15773778E+03</rscale>
<asrwt>0</asrwt>
<pdfrwt beam="1">  1       21 0.97076392E-01 0.15773778E+03</pdfrwt>
<pdfrwt beam="2">  1       21 0.43873084E-01 0.15773778E+03</pdfrwt>
<totfact> 0.45295998E+03</totfact>
</mgrwt>
</event>
<event>
 6    1  0.4241465E-002  0.1268365E+03  0.7546771E-02  0.1232227E+00
         21   -1    0    0  503  502  0.00000000000E+00  0.00000000000E+00  0.12757346267E+03  0.12757346267E+03  0.00000000000E+00 0.  1.
         21   -1    0    0  504  503 -0.00000000000E+00 -0.00000000000E+00 -0.19186815398E+03  0.19186815398E+03  0.00000000000E+00 0.  1.
         25    2    1    2    0    0  0.82537489642E+01  0.19896263351E+02 -0.16969755289E+03  0.21186025723E+03  0.12499409373E+03 0.  0.
          5    1    3    3  501    0 -0.58107006268E+01  0.68030804855E+02 -0.58631194532E+02  0.89997675654E+02  0.10000000000E+00 0. -1.
         -5    1    3    3    0  501  0.14064449591E+02 -0.48134541504E+02 -0.11106635836E+03  0.12186258157E+03  0.10000000000E+00 0. -1.
         21    1    1    2  504  502 -0.82537489642E+01 -0.19896263351E+02  0.10540286158E+03  0.10758135943E+03  0.00000000000E+00 0.  1.
<mgrwt>
<rscale>  1 0.12683654E+03</rscale>
<asrwt>0</asrwt>
<pdfrwt beam="1">  1       21 0.19626687E-01 0.12683654E+03</pdfrwt>
<pdfrwt beam="2">  1       21 0.29518178E-01 0.12683654E+03</pdfrwt>
<totfact> 0.26687211E+05</totfact>
</mgrwt>
</event>
<event>
 6    1  0.4241465E-002  0.1274975E+03  0.7546771E-02  0.1231217E+00
         21   -1    0    0  504  502  0.00000000000E+00  0.00000000000E+00  0.39934438447E+02  0.39934438447E+02  0.00000000000E+00 0. -1.
         21   -1    0    0  502  503 -0.00000000000E+00 -0.00000000000E+00 -0.25183236733E+03  0.25183236733E+03  0.00000000000E+00 0. -1.
         25    2    1    2    0    0  0.21843681483E+02 -0.12419494378E+02 -0.22849045423E+03  0.26165531032E+03  0.12499689388E+03 0.  0.
          5    1    3    3  501    0  0.35329995227E+02 -0.58801627816E+02 -0.79370370160E+02  0.10490712872E+03  0.10000000000E+00 0.  1.
         -5    1    3    3    0  501 -0.13486313744E+02  0.46382133438E+02 -0.14912008407E+03  0.15674818160E+03  0.10000000000E+00 0.  1.
         21    1    1    2  504  503 -0.21843681483E+02  0.12419494378E+02  0.16592525350E+02  0.30111495460E+02  0.00000000000E+00 0.  1.
<mgrwt>
<rscale>  1 0.12749750E+03</rscale>
<asrwt>0</asrwt>
<pdfrwt beam="1">  1       21 0.61437599E-02 0.12749750E+03</pdfrwt>
<pdfrwt beam="2">  1       21 0.38743440E-01 0.12749750E+03</pdfrwt>
<totfact> 0.12157477E+06</totfact>
</mgrwt>
</event>
<event>
 6    1  0.4241465E-002  0.1299515E+03  0.7546771E-02  0.1227528E+00
         21   -1    0    0  504  502  0.00000000000E+00  0.00000000000E+00  0.22846796400E+02  0.22846796400E+02  0.00000000000E+00 0.  1.
         21   -1    0    0  502  503 -0.00000000000E+00 -0.00000000000E+00 -0.69021556124E+03  0.69021556124E+03  0.00000000000E+00 0.  1.
         25    2    1    2    0    0 -0.31869168514E+02 -0.15686430444E+02 -0.66487363279E+03  0.67745430117E+03  0.12500269832E+03 0.  0.
          5    1    3    3  501    0 -0.47424935663E+02 -0.13491708962E+02 -0.65875027214E+03  0.66059297739E+03  0.10000000000E+00 0.  1.
         -5    1    3    3    0  501  0.15555767149E+02 -0.21947214817E+01 -0.61233606572E+01  0.16861323783E+02  0.10000000000E+00 0.  1.
         21    1    1    2  504  503  0.31869168514E+02  0.15686430444E+02 -0.24951320500E+01  0.35608056473E+02  0.00000000000E+00 0.  1.
<mgrwt>
<rscale>  1 0.12995146E+03</rscale>
<asrwt>0</asrwt>
<pdfrwt beam="1">  1       21 0.35148918E-02 0.12995146E+03</pdfrwt>
<pdfrwt beam="2">  1       21 0.10618701E+00 0.12995146E+03</pdfrwt>
<totfact> 0.35126924E+05</totfact>
</mgrwt>
</event>
<event>
 6    1  0.4241465E-002  0.1648067E+03  0.7546771E-02  0.1183374E+00
         21   -1    0    0  504  502  0.00000000000E+00  0.00000000000E+00  0.15336498331E+02  0.15336498331E+02  0.00000000000E+00 0.  1.
         21   -1    0    0  502  503 -0.00000000000E+00 -0.00000000000E+00 -0.14922415520E+04  0.14922415520E+04  0.00000000000E+00 0.  1.
         25    2    1    2    0    0 -0.91697761524E+02  0.55911780471E+02 -0.11876069635E+04  0.11989877206E+04  0.12500659018E+03 0.  0.
          5    1    3    3  501    0 -0.11112187376E+03  0.15584522891E+02 -0.65860920854E+03  0.66809957922E+03  0.10000000000E+00 0. -1.
         -5    1    3    3    0  501  0.19424112238E+02  0.40327257580E+02 -0.52899775501E+03  0.53088814136E+03  0.10000000000E+00 0. -1.
         21    1    1    2  504  503  0.91697761524E+02 -0.55911780471E+02 -0.28929809014E+03  0.30859032976E+03  0.00000000000E+00 0.  1.
<mgrwt>
<rscale>  1 0.16480672E+03</rscale>
<asrwt>0</asrwt>
<pdfrwt beam="1">  1       21 0.23594610E-02 0.16480672E+03</pdfrwt>
<pdfrwt beam="2">  1       21 0.22957565E+00 0.16480672E+03</pdfrwt>
<totfact> 0.84268096E+04</totfact>
</mgrwt>
</event>
<event>
 6    1  0.4241465E-002  0.1383357E+03  0.7546771E-02  0.1215586E+00
         21   -1    0    0  503  502  0.00000000000E+00  0.00000000000E+00  0.73639348483E+02  0.73639348483E+02  0.00000000000E+00 0. -1.
         21   -1    0    0  504  503 -0.00000000000E+00 -0.00000000000E+00 -0.25298120628E+03  0.25298120628E+03  0.00000000000E+00 0. -1.
         25    2    1    2    0    0  0.28450885558E+02 -0.51989860790E+02 -0.21631607178E+03  0.25676720112E+03  0.12499741655E+03 0.  0.
          5    1    3    3  501    0  0.19205103156E+02 -0.84551060335E+02 -0.20236277242E+03  0.22015544384E+03  0.10000000000E+00 0.  1.
         -5    1    3    3    0  501  0.92457824023E+01  0.32561199545E+02 -0.13953299366E+02  0.36611757282E+02  0.10000000000E+00 0.  1.
         21    1    1    2  504  502 -0.28450885558E+02  0.51989860790E+02  0.36974213993E+02  0.69853353637E+02  0.00000000000E+00 0. -1.
<mgrwt>
<rscale>  1 0.13833565E+03</rscale>
<asrwt>0</asrwt>
<pdfrwt beam="1">  1       21 0.11329130E-01 0.13833565E+03</pdfrwt>
<pdfrwt beam="2">  1       21 0.38920186E-01 0.13833565E+03</pdfrwt>
<totfact> 0.41766555E+05</totfact>
</mgrwt>
</event>
<event>
 6    1  0.4241465E-002  0.1259337E+03  0.7546771E-02  0.1233617E+00
         21   -1    0    0  504  502  0.00000000000E+00  0.00000000000E+00  0.11424003353E+02  0.11424003353E+02  0.00000000000E+00 0. -1.
         21   -1    0    0  502  503 -0.00000000000E+00 -0.00000000000E+00 -0.64340581974E+03  0.64340581974E+03  0.00000000000E+00 0. -1.
         25    2    1    2    0    0 -0.88500108037E+01 -0.12492920907E+02 -0.62575606681E+03  0.63830239977E+03  0.12499961053E+03 0.  0.
          5    1    3    3  501    0 -0.53453063535E+02 -0.23525998153E+02 -0.51631354367E+03  0.51960599301E+03  0.10000000000E+00 0. -1.
         -5    1    3    3    0  501  0.44603052732E+02  0.11033077246E+02 -0.10944252314E+03  0.11869640676E+03  0.10000000000E+00 0. -1.
         21    1    1    2  504  503  0.88500108037E+01  0.12492920907E+02 -0.62257495745E+01  0.16527423326E+02  0.00000000000E+00 0. -1.
<mgrwt>
<rscale>  1 0.12593371E+03</rscale>
<asrwt>0</asrwt>
<pdfrwt beam="1">  1       21 0.17575391E-02 0.12593371E+03</pdfrwt>
<pdfrwt beam="2">  1       21 0.98985504E-01 0.12593371E+03</pdfrwt>
<totfact> 0.12810415E+06</totfact>
</mgrwt>
</event>
<event>
 6    1  0.4241465E-002  0.1271927E+03  0.7546771E-02  0.1231682E+00
         21   -1    0    0  503  502  0.00000000000E+00  0.00000000000E+00  0.74790449705E+03  0.74790449705E+03  0.00000000000E+00 0.  1.
         21   -1    0    0  504  503 -0.00000000000E+00 -0.00000000000E+00 -0.84488401064E+02  0.84488401064E+02  0.00000000000E+00 0. -1.
         25    2    1    2    0    0 -0.19146555917E+02 -0.13664566492E+02 -0.36308100539E+02  0.13227343532E+03  0.12499869018E+03 0.  0.
          5    1    3    3  501    0  0.15979464414E+02  0.95427021647E+01  0.40562698788E+02  0.44629015008E+02  0.10000000000E+00 0. -1.
         -5    1    3    3    0  501 -0.35126020331E+02 -0.23207268657E+02 -0.76870799327E+02  0.87644420313E+02  0.10000000000E+00 0. -1.
         21    1    1    2  504  502  0.19146555917E+02  0.13664566492E+02  0.69972419652E+03  0.70011946279E+03  0.00000000000E+00 0.  1.
<mgrwt>
<rscale>  1 0.12719270E+03</rscale>
<asrwt>0</asrwt>
<pdfrwt beam="1">  1       21 0.11506223E+00 0.12719270E+03</pdfrwt>
<pdfrwt beam="2">  1       21 0.12998216E-01 0.12719270E+03</pdfrwt>
<totfact> 0.31014367E+04</totfact>
</mgrwt>
</event>
<event>
 6    1  0.4241465E-002  0.1476096E+03  0.7546771E-02  0.1203441E+00
         21   -1    0    0  504  502  0.00000000000E+00  0.00000000000E+00  0.72581221223E+03  0.72581221223E+03  0.00000000000E+00 0.  1.
         21   -1    0    0  502  503 -0.00000000000E+00 -0.00000000000E+00 -0.28497382877E+02  0.28497382877E+02  0.00000000000E+00 0.  1.
         25    2    1    2    0    0 -0.36780518119E+02 -0.69356498718E+02  0.18822021289E+03  0.23919751124E+03  0.12500188166E+03 0.  0.
          5    1    3    3  501    0  0.98967005545E+01 -0.27538389301E+02 -0.10298042880E+02  0.31022044650E+02  0.10000000000E+00 0.  1.
         -5    1    3    3    0  501 -0.46677218673E+02 -0.41818109417E+02  0.19851825577E+03  0.20817546659E+03  0.10000000000E+00 0.  1.
         21    1    1    2  504  503  0.36780518119E+02  0.69356498718E+02  0.50909461646E+03  0.51511208386E+03  0.00000000000E+00 0.  1.
<mgrwt>
<rscale>  1 0.14760962E+03</rscale>
<asrwt>0</asrwt>
<pdfrwt beam="1">  1       21 0.11166340E+00 0.14760962E+03</pdfrwt>
<pdfrwt beam="2">  1       21 0.43842133E-02 0.14760962E+03</pdfrwt>
<totfact> 0.21469463E+05</totfact>
</mgrwt>
</event>
<event>
 6    1  0.4241465E-002  0.1406281E+03  0.7546771E-02  0.1212486E+00
         21   -1    0    0  504  502  0.00000000000E+00  0.00000000000E+00  0.10581089146E+04  0.10581089146E+04  0.00000000000E+00 0. -1.
         21   -1    0    0  502  503 -0.00000000000E+00 -0.00000000000E+00 -0.46077473811E+02  0.46077473811E+02  0.00000000000E+00 0.  1.
         25    2    1    2    0    0 -0.52315780533E+02  0.37669640558E+02  0.64931065574E+02  0.15489451367E+03  0.12498129611E+03 0.  0.
          5    1    3    3  501    0 -0.27664726829E+02  0.49793182238E+02  0.97110490951E+02  0.11258399336E+03  0.10000000000E+00 0. -1.
         -5    1    3    3    0  501 -0.24651053704E+02 -0.12123541679E+02 -0.32179425377E+02  0.42310520313E+02  0.10000000000E+00 0. -1.
         21    1    1    2  504  503  0.52315780533E+02 -0.37669640558E+02  0.94710037522E+03  0.94929187475E+03  0.00000000000E+00 0. -1.
<mgrwt>
<rscale>  1 0.14062812E+03</rscale>
<asrwt>0</asrwt>
<pdfrwt beam="1">  1       21 0.16278597E+00 0.14062812E+03</pdfrwt>
<pdfrwt beam="2">  1       21 0.70888429E-02 0.14062812E+03</pdfrwt>
<totfact> 0.36796382E+04</totfact>
</mgrwt>
</event>
<event>
 6    1  0.4241465E-002  0.1723035E+03  0.7546771E-02  0.1175467E+00
         21   -1    0    0  503  502  0.00000000000E+00  0.00000000000E+00  0.57962134080E+02  0.57962134080E+02  0.00000000000E+00 0.  1.
         21   -1    0    0  504  503 -0.00000000000E+00 -0.00000000000E+00 -0.64031617188E+03  0.64031617188E+03  0.00000000000E+00 0.  1.
         25    2    1    2    0    0  0.11233095258E+03 -0.38026999266E+02 -0.54853113508E+03  0.57495643309E+03  0.12499679282E+03 0.  0.
          5    1    3    3  501    0  0.13114413433E+02  0.42061140540E+02 -0.11874877259E+03  0.12665862929E+03  0.10000000000E+00 0. -1.
         -5    1    3    3    0  501  0.99216539144E+02 -0.80088139806E+02 -0.42978236250E+03  0.44829780380E+03  0.10000000000E+00 0. -1.
         21    1    1    2  504  502 -0.11233095258E+03  0.38026999266E+02 -0.33822902719E+02  0.12332187287E+03  0.00000000000E+00 0.  1.
<mgrwt>
<rscale>  1 0.17230349E+03</rscale>
<asrwt>0</asrwt>
<pdfrwt beam="1">  1       21 0.89172514E-02 0.17230349E+03</pdfrwt>
<pdfrwt beam="2">  1       21 0.98510180E-01 0.17230349E+03</pdfrwt>
<totfact> 0.85202065E+04</totfact>
</mgrwt>
</event>
<event>
 6    1  0.4241465E-002  0.2036906E+03  0.7546771E-02  0.1146662E+00
         21   -1    0    0  503  502  0.00000000000E+00  0.00000000000E+00  0.20678146002E+04  0.20678146002E+04  0.00000000000E+00 0. -1.
         21   -1    0    0  504  503 -0.00000000000E+00 -0.00000000000E+00 -0.19293749071E+02  0.19293749071E+02  0.00000000000E+00 0. -1.
         25    2    1    2    0    0 -0.11879568267E+03 -0.10840672524E+03  0.15490358083E+04  0.15623705668E+04  0.12500168177E+03 0.  0.
          5    1    3    3  501    0  0.21218761558E+02  0.54229003096E+01  0.23183990482E+03  0.23287205749E+03  0.10000000000E+00 0.  1.
         -5    1    3    3    0  501 -0.14001444423E+03 -0.11382962555E+03  0.13171959034E+04  0.13294985093E+04  0.10000000000E+00 0.  1.
         21    1    1    2  504  502  0.11879568267E+03  0.10840672524E+03  0.49948504290E+03  0.52473778249E+03  0.00000000000E+00 0. -1.
<mgrwt>
<rscale>  1 0.20369058E+03</rscale>
<asrwt>0</asrwt>
<pdfrwt beam="1">  1       21 0.31812515E+00 0.20369058E+03</pdfrwt>
<pdfrwt beam="2">  1       21 0.29682707E-02 0.20369058E+03</pdfrwt>
<totfact> 0.17084445E+04</totfact>
</mgrwt>
</event>
<event>
 6    1  0.4241465E-002  0.1286858E+03  0.7546771E-02  0.1229419E+00
         21   -1    0    0  503  502  0.00000000000E+00  0.00000000000E+00  0.11531293737E+04  0.11531293737E+04  0.00000000000E+00 0.  1.
         21   -1    0    0  504  503 -0.00000000000E+00 -0.00000000000E+00 -0.11996318121E+02  0.11996318121E+02  0.00000000000E+00 0.  1.
         25    2    1    2    0    0 -0.12496094347E+02  0.27912062527E+02  0.34202719811E+03  0.36543487216E+03  0.12499922374E+03 0.  0.
          5    1    3    3  501    0  0.12564489989E+01 -0.47431402698E+02  0.86281444304E+02  0.98467325836E+02  0.10000000000E+00 0.  1.
         -5    1    3    3    0  501 -0.13752543346E+02  0.75343465226E+02  0.25574575381E+03  0.26696754632E+03  0.10000000000E+00 0.  1.
         21    1    1    2  504  502  0.12496094347E+02 -0.27912062527E+02  0.79910585744E+03  0.79969081963E+03  0.00000000000E+00 0.  1.
<mgrwt>
<rscale>  1 0.12868582E+03</rscale>
<asrwt>0</asrwt>
<pdfrwt beam="1">  1       21 0.17740443E+00 0.12868582E+03</pdfrwt>
<pdfrwt beam="2">  1       21 0.18455883E-02 0.12868582E+03</pdfrwt>
<totfact> 0.27307008E+05</totfact>
</mgrwt>
</event>
<event>
 6    1  0.4241465E-002  0.1259093E+03  0.7546771E-02  0.1233655E+00
         21   -1    0    0  504  502  0.00000000000E+00  0.00000000000E+00  0.22149510769E+03  0.22149510769E+03  0.00000000000E+00 0.  1.
         21   -1    0    0  502  503 -0.00000000000E+00 -0.00000000000E+00 -0.33646349950E+02  0.33646349950E+02  0.00000000000E+00 0.  1.
         25    2    1    2    0    0  0.13877636050E+02  0.59264609835E+01  0.86698529460E+02  0.15287181208E+03  0.12500177677E+03 0.  0.
          5    1    3    3  501    0  0.41222007098E+02 -0.22275291048E+01 -0.17498933203E+02  0.44837912734E+02  0.10000000000E+00 0.  1.
         -5    1    3    3    0  501 -0.27344371048E+02  0.81539900883E+01  0.10419746266E+03  0.10803389935E+03  0.10000000000E+00 0.  1.
         21    1    1    2  504  503 -0.13877636050E+02 -0.59264609835E+01  0.10115022828E+03  0.10226964556E+03  0.00000000000E+00 0.  1.
<mgrwt>
<rscale>  1 0.12590932E+03</rscale>
<asrwt>0</asrwt>
<pdfrwt beam="1">  1       21 0.34076170E-01 0.12590932E+03</pdfrwt>
<pdfrwt beam="2">  1       21 0.51763617E-02 0.12590932E+03</pdfrwt>
<totfact> 0.20911781E+06</totfact>
</mgrwt>
</event>
<event>
 6    1  0.4241465E-002  0.1275133E+03  0.7546771E-02  0.1231193E+00
         21   -1    0    0  504  502  0.00000000000E+00  0.00000000000E+00  0.57492975943E+02  0.57492975943E+02  0.00000000000E+00 0. -1.
         21   -1    0    0  502  503 -0.00000000000E+00 -0.00000000000E+00 -0.10139884897E+03  0.10139884897E+03  0.00000000000E+00 0. -1.
         25    2    1    2    0    0  0.22985235249E+02  0.10310612876E+02 -0.36714364489E+02  0.13269358886E+03  0.12500005675E+03 0.  0.
          5    1    3    3  501    0 -0.45423708098E+02 -0.21006845835E+02 -0.26825788009E+01  0.50117931505E+02  0.10000000000E+00 0. -1.
         -5    1    3    3    0  501  0.68408943347E+02  0.31317458711E+02 -0.34031785688E+02  0.82575657352E+02  0.10000000000E+00 0. -1.
         21    1    1    2  504  503 -0.22985235249E+02 -0.10310612876E+02 -0.71915085364E+01  0.26198236055E+02  0.00000000000E+00 0. -1.
<mgrwt>
<rscale>  1 0.12751331E+03</rscale>
<asrwt>0</asrwt>
<pdfrwt beam="1">  1       21 0.88450732E-02 0.12751331E+03</pdfrwt>
<pdfrwt beam="2">  1       21 0.15599823E-01 0.12751331E+03</pdfrwt>
<totfact> 0.36322130E+06</totfact>
</mgrwt>
</event>
<event>
 6    1  0.4241465E-002  0.1260187E+03  0.7546771E-02  0.1233486E+00
         21   -1    0    0  503  502  0.00000000000E+00  0.00000000000E+00  0.80293718812E+02  0.80293718812E+02  0.00000000000E+00 0. -1.
         21   -1    0    0  504  503 -0.00000000000E+00 -0.00000000000E+00 -0.62851556007E+02  0.62851556007E+02  0.00000000000E+00 0. -1.
         25    2    1    2    0    0  0.13505315449E+02 -0.86732718485E+01  0.14948584420E+02  0.12690221097E+03  0.12499236690E+03 0.  0.
          5    1    3    3  501    0  0.67711820315E+02 -0.19924463617E+02  0.62141427529E+01  0.70855489773E+02  0.10000000000E+00 0. -1.
         -5    1    3    3    0  501 -0.54206504866E+02  0.11251191768E+02  0.87344416671E+01  0.56046721200E+02  0.10000000000E+00 0. -1.
         21    1    1    2  504  502 -0.13505315449E+02  0.86732718485E+01  0.24935783851E+01  0.16243063846E+02  0.00000000000E+00 0. -1.
<mgrwt>
<rscale>  1 0.12601869E+03</rscale>
<asrwt>0</asrwt>
<pdfrwt beam="1">  1       21 0.12352880E-01 0.12601869E+03</pdfrwt>
<pdfrwt beam="2">  1       21 0.96694702E-02 0.12601869E+03</pdfrwt>
<totfact> 0.47219000E+06</totfact>
</mgrwt>
</event>
<event>
 6    1  0.4241465E-002  0.1347612E+03  0.7546771E-02  0.1220557E+00
         21   -1    0    0  504  502  0.00000000000E+00  0.00000000000E+00  0.80004107846E+02  0.80004107846E+02  0.00000000000E+00 0. -1.
         21   -1    0    0  502  503 -0.00000000000E+00 -0.00000000000E+00 -0.16255363475E+03  0.16255363475E+03  0.00000000000E+00 0. -1.
         25    2    1    2    0    0  0.49106530428E+02  0.11217828750E+02 -0.11947875713E+03  0.18009928393E+03  0.12499315043E+03 0.  0.
          5    1    3    3  501    0  0.88033118048E+02  0.31234944489E+01 -0.53486791894E+02  0.10305548505E+03  0.10000000000E+00 0. -1.
         -5    1    3    3    0  501 -0.38926587620E+02  0.80943343011E+01 -0.65991965236E+02  0.77043798889E+02  0.10000000000E+00 0. -1.
         21    1    1    2  504  503 -0.49106530428E+02 -0.11217828750E+02  0.36929230231E+02  0.62458458658E+02  0.00000000000E+00 0. -1.
<mgrwt>
<rscale>  1 0.13476119E+03</rscale>
<asrwt>0</asrwt>
<pdfrwt beam="1">  1       21 0.12308324E-01 0.13476119E+03</pdfrwt>
<pdfrwt beam="2">  1       21 0.25008251E-01 0.13476119E+03</pdfrwt>
<totfact> 0.85123915E+05</totfact>
</mgrwt>
</event>
<event>
 6    1  0.4241465E-002  0.1325921E+03  0.7546771E-02  0.1223659E+00
         21   -1    0    0  504  502  0.00000000000E+00  0.00000000000E+00  0.40469601672E+03  0.40469601672E+03  0.00000000000E+00 0.  1.
         21   -1    0    0  502  503 -0.00000000000E+00 -0.00000000000E+00 -0.64237140717E+02  0.64237140717E+02  0.00000000000E+00 0.  1.
         25    2    1    2    0    0  0.31457044652E+01  0.44118448969E+02  0.72378584930E+01  0.13278946866E+03  0.12499729355E+03 0.  0.
          5    1    3    3  501    0 -0.44153229475E+02 -0.38539028525E+01  0.38325716183E+02  0.58593777496E+02  0.10000000000E+00 0. -1.
         -5    1    3    3    0  501  0.47298933940E+02  0.47972351822E+02 -0.31087857690E+02  0.74195691162E+02  0.10000000000E+00 0. -1.
         21    1    1    2  504  503 -0.31457044652E+01 -0.44118448969E+02  0.33322101751E+03  0.33614368878E+03  0.00000000000E+00 0.  1.
<mgrwt>
<rscale>  1 0.13259207E+03</rscale>
<asrwt>0</asrwt>
<pdfrwt beam="1">  1       21 0.62260924E-01 0.13259207E+03</pdfrwt>
<pdfrwt beam="2">  1       21 0.98826372E-02 0.13259207E+03</pdfrwt>
<totfact> 0.20168653E+05</totfact>
</mgrwt>
</event>
<event>
 6    1  0.4241465E-002  0.1374005E+03  0.7546771E-02  0.1216870E+00
         21   -1    0    0  503  502  0.00000000000E+00  0.00000000000E+00  0.10352301648E+03  0.10352301648E+03  0.00000000000E+00 0. -1.
         21   -1    0    0  504  503 -0.00000000000E+00 -0.00000000000E+00 -0.94991472550E+02  0.94991472550E+02  0.00000000000E+00 0. -1.
         25    2    1    2    0    0 -0.52196009920E+01 -0.56815781966E+02 -0.11892060476E+02  0.13791415131E+03  0.12499445873E+03 0.  0.
          5    1    3    3  501    0 -0.34662586757E+02 -0.24091924633E+02  0.47783884605E+02  0.63759119984E+02  0.10000000000E+00 0.  1.
         -5    1    3    3    0  501  0.29442985765E+02 -0.32723857332E+02 -0.59675945080E+02  0.74155031324E+02  0.10000000000E+00 0.  1.
         21    1    1    2  504  502  0.52196009920E+01  0.56815781966E+02  0.20423604404E+02  0.60600337720E+02  0.00000000000E+00 0. -1.
<mgrwt>
<rscale>  1 0.13740048E+03</rscale>
<asrwt>0</asrwt>
<pdfrwt beam="1">  1       21 0.15926618E-01 0.13740048E+03</pdfrwt>
<pdfrwt beam="2">  1       21 0.14614073E-01 0.13740048E+03</pdfrwt>
<totfact> 0.14438991E+06</totfact>
</mgrwt>
</event>
<event>
 6    1  0.4241465E-002  0.1259747E+03  0.7546771E-02  0.1233554E+00
         21   -1    0    0  503  502  0.00000000000E+00  0.00000000000E+00  0.89487216328E+02  0.89487216328E+02  0.00000000000E+00 0. -1.
         21   -1    0    0  504  503 -0.00000000000E+00 -0.00000000000E+00 -0.58555086959E+02  0.58555086959E+02  0.00000000000E+00 0. -1.
         25    2    1    2    0    0  0.15061148459E+02 -0.40892387968E+01  0.16990055355E+02  0.12711525154E+03  0.12500426044E+03 0.  0.
          5    1    3    3  501    0 -0.22851121611E+01 -0.23081572239E+02  0.66987419583E+02  0.70889386350E+02  0.10000000000E+00 0.  1.
         -5    1    3    3    0  501  0.17346260620E+02  0.18992333442E+02 -0.49997364228E+02  0.56225865195E+02  0.10000000000E+00 0.  1.
         21    1    1    2  504  502 -0.15061148459E+02  0.40892387968E+01  0.13942074014E+02  0.20927051743E+02  0.00000000000E+00 0. -1.
<mgrwt>
<rscale>  1 0.12597470E+03</rscale>
<asrwt>0</asrwt>
<pdfrwt beam="1">  1       21 0.13767264E-01 0.12597470E+03</pdfrwt>
<pdfrwt beam="2">  1       21 0.90084749E-02 0.12597470E+03</pdfrwt>
<totfact> 0.44029415E+06</totfact>
</mgrwt>
</event>
<event>
 6    1  0.4241465E-002  0.1624338E+03  0.7546771E-02  0.1185976E+00
         21   -1    0    0  503  502  0.00000000000E+00  0.00000000000E+00  0.56327749485E+02  0.56327749485E+02  0.00000000000E+00 0. -1.
         21   -1    0    0  504  503 -0.00000000000E+00 -0.00000000000E+00 -0.34215868036E+03  0.34215868036E+03  0.00000000000E+00 0.  1.
         25    2    1    2    0    0 -0.66117079646E+01 -0.10349034404E+03 -0.22740215495E+03  0.27945749282E+03  0.12502313477E+03 0.  0.
          5    1    3    3  501    0  0.28534319686E+02  0.17911298967E+02 -0.30281188455E+02  0.45298812401E+02  0.10000000000E+00 0. -1.
         -5    1    3    3    0  501 -0.35146027651E+02 -0.12140164301E+03 -0.19712096649E+03  0.23415868042E+03  0.10000000000E+00 0. -1.
         21    1    1    2  504  502  0.66117079646E+01  0.10349034404E+03 -0.58428775927E+02  0.11902893702E+03  0.00000000000E+00 0. -1.
<mgrwt>
<rscale>  1 0.16243383E+03</rscale>
<asrwt>0</asrwt>
<pdfrwt beam="1">  1       21 0.86658078E-02 0.16243383E+03</pdfrwt>
<pdfrwt beam="2">  1       21 0.52639796E-01 0.16243383E+03</pdfrwt>
<totfact> 0.35951565E+05</totfact>
</mgrwt>
</event>
<event>
 6    1  0.4241465E-002  0.1284852E+03  0.7546771E-02  0.1229721E+00
         21   -1    0    0  504  502  0.00000000000E+00  0.00000000000E+00  0.64937060090E+01  0.64937060090E+01  0.00000000000E+00 0. -1.
         21   -1    0    0  502  503 -0.00000000000E+00 -0.00000000000E+00 -0.13093351267E+04  0.13093351267E+04  0.00000000000E+00 0. -1.
         25    2    1    2    0    0 -0.19876684879E+02  0.22127269938E+02 -0.12360985532E+04  0.12427582570E+04  0.12499501341E+03 0.  0.
          5    1    3    3  501    0 -0.30344722517E+02  0.29408212835E+02 -0.13227035888E+03  0.13885641146E+03  0.10000000000E+00 0. -1.
         -5    1    3    3    0  501  0.10468037638E+02 -0.72809428963E+01 -0.11038281943E+04  0.11039018455E+04  0.10000000000E+00 0. -1.
         21    1    1    2  504  503  0.19876684879E+02 -0.22127269938E+02 -0.66742867441E+02  0.73070575685E+02  0.00000000000E+00 0. -1.
<mgrwt>
<rscale>  1 0.12848522E+03</rscale>
<asrwt>0</asrwt>
<pdfrwt beam="1">  1       21 0.99903229E-03 0.12848522E+03</pdfrwt>
<pdfrwt beam="2">  1       21 0.20143605E+00 0.12848522E+03</pdfrwt>
<totfact> 0.50672908E+05</totfact>
</mgrwt>
</event>
<event>
 6    1  0.4241465E-002  0.1298499E+03  0.7546771E-02  0.1227679E+00
         21   -1    0    0  504  502  0.00000000000E+00  0.00000000000E+00  0.26423821885E+03  0.26423821885E+03  0.00000000000E+00 0. -1.
         21   -1    0    0  502  503 -0.00000000000E+00 -0.00000000000E+00 -0.78519507279E+02  0.78519507279E+02  0.00000000000E+00 0. -1.
         25    2    1    2    0    0 -0.95545223907E+01 -0.33807958161E+02 -0.22336604398E+02  0.13175705922E+03  0.12500692711E+03 0.  0.
          5    1    3    3  501    0 -0.49574983017E+01 -0.29272139587E+02  0.50529047348E+02  0.58605712787E+02  0.10000000000E+00 0. -1.
         -5    1    3    3    0  501 -0.45970240890E+01 -0.45358185740E+01 -0.72865651746E+02  0.73151346433E+02  0.10000000000E+00 0. -1.
         21    1    1    2  504  503  0.95545223907E+01  0.33807958161E+02  0.20805531597E+03  0.21100066691E+03  0.00000000000E+00 0. -1.
<mgrwt>
<rscale>  1 0.12984991E+03</rscale>
<asrwt>0</asrwt>
<pdfrwt beam="1">  1       21 0.40652033E-01 0.12984991E+03</pdfrwt>
<pdfrwt beam="2">  1       21 0.12079924E-01 0.12984991E+03</pdfrwt>
<totfact> 0.34214850E+05</totfact>
</mgrwt>
</event>
<event>
 6    1  0.4241465E-002  0.1294559E+03  0.7546771E-02  0.1228265E+00
         21   -1    0    0  504  502  0.00000000000E+00  0.00000000000E+00  0.55910358204E+03  0.55910358204E+03  0.00000000000E+00 0. -1.
         21   -1    0    0  502  503 -0.00000000000E+00 -0.00000000000E+00 -0.91582872533E+03  0.91582872533E+03  0.00000000000E+00 0. -1.
         25    2    1    2    0    0  0.29741187009E+02  0.15826548712E+02 -0.91073969159E+03  0.91989434689E+03  0.12499522295E+03 0.  0.
          5    1    3    3  501    0 -0.46658417837E+02  0.12000768145E+01 -0.47296965420E+03  0.47526703224E+03  0.10000000000E+00 0.  1.
         -5    1    3    3    0  501  0.76399604845E+02  0.14626471898E+02 -0.43777003739E+03  0.44462731466E+03  0.10000000000E+00 0.  1.
         21    1    1    2  504  503 -0.29741187009E+02 -0.15826548712E+02  0.55401454830E+03  0.55503796048E+03  0.00000000000E+00 0. -1.
<mgrwt>
<rscale>  1 0.12945588E+03</rscale>
<asrwt>0</asrwt>
<pdfrwt beam="1">  1       21 0.86015937E-01 0.12945588E+03</pdfrwt>
<pdfrwt beam="2">  1       21 0.14089673E+00 0.12945588E+03</pdfrwt>
<totfact> 0.44723381E+02</totfact>
</mgrwt>
</event>
<event>
 6    1  0.4241465E-002  0.1270037E+03  0.7546771E-02  0.1231971E+00
         21   -1    0    0  504  502  0.00000000000E+00  0.00000000000E+00  0.12697024311E+03  0.12697024311E+03  0.00000000000E+00 0.  1.
         21   -1    0    0  502  503 -0.00000000000E+00 -0.00000000000E+00 -0.50882782015E+02  0.50882782015E+02  0.00000000000E+00 0.  1.
         25    2    1    2    0    0  0.20661701729E+02 -0.88162036780E+01  0.36178555032E+02  0.13205616771E+03  0.12500124888E+03 0.  0.
          5    1    3    3  501    0  0.36608828414E+02 -0.61586864984E+02  0.24375522590E+02  0.75679087983E+02  0.10000000000E+00 0. -1.
         -5    1    3    3    0  501 -0.15947126685E+02  0.52770661306E+02  0.11803032442E+02  0.56377079731E+02  0.10000000000E+00 0. -1.
         21    1    1    2  504  503 -0.20661701729E+02  0.88162036780E+01  0.39908906066E+02  0.45796857415E+02  0.00000000000E+00 0.  1.
<mgrwt>
<rscale>  1 0.12700371E+03</rscale>
<asrwt>0</asrwt>
<pdfrwt beam="1">  1       21 0.19533884E-01 0.12700371E+03</pdfrwt>
<pdfrwt beam="2">  1       21 0.78281203E-02 0.12700371E+03</pdfrwt>
<totfact> 0.29748529E+06</totfact>
</mgrwt>
</event>
<event>
 6    1  0.4241465E-002  0.1287924E+03  0.7546771E-02  0.1229259E+00
         21   -1    0    0  503  502  0.00000000000E+00  0.00000000000E+00  0.56857866073E+02  0.56857866073E+02  0.00000000000E+00 0. -1.
         21   -1    0    0  504  503 -0.00000000000E+00 -0.00000000000E+00 -0.16622062138E+03  0.16622062138E+03  0.00000000000E+00 0. -1.
         25    2    1    2    0    0  0.15031482992E+02 -0.27125082690E+02 -0.13220017492E+03  0.18456532962E+03  0.12500303619E+03 0.  0.
          5    1    3    3  501    0 -0.27202586164E+02 -0.36635249435E+02 -0.18257386582E+00  0.45630752003E+02  0.10000000000E+00 0.  1.
         -5    1    3    3    0  501  0.42234069156E+02  0.95101667449E+01 -0.13201760105E+03  0.13893457762E+03  0.10000000000E+00 0.  1.
         21    1    1    2  504  502 -0.15031482992E+02  0.27125082690E+02  0.22837419612E+02  0.38513157835E+02  0.00000000000E+00 0. -1.
<mgrwt>
<rscale>  1 0.12879237E+03</rscale>
<asrwt>0</asrwt>
<pdfrwt beam="1">  1       21 0.87473643E-02 0.12879237E+03</pdfrwt>
<pdfrwt beam="2">  1       21 0.25572402E-01 0.12879237E+03</pdfrwt>
<totfact> 0.14851628E+06</totfact>
</mgrwt>
</event>
<event>
 6    1  0.4241465E-002  0.1267373E+03  0.7546771E-02  0.1232379E+00
         21   -1    0    0  504  502  0.00000000000E+00  0.00000000000E+00  0.81604086347E+02  0.81604086347E+02  0.00000000000E+00 0.  1.
         21   -1    0    0  502  503 -0.00000000000E+00 -0.00000000000E+00 -0.30534817187E+03  0.30534817187E+03  0.00000000000E+00 0.  1.
         25    2    1    2    0    0  0.13938798155E+02 -0.15555381533E+02 -0.29053338747E+03  0.31697318390E+03  0.12500436026E+03 0.  0.
          5    1    3    3  501    0  0.19222562607E+02  0.30411174600E+01 -0.29619086838E+03  0.29682957370E+03  0.10000000000E+00 0.  1.
         -5    1    3    3    0  501 -0.52837644517E+01 -0.18596498993E+02  0.56574809108E+01  0.20143610199E+02  0.10000000000E+00 0.  1.
         21    1    1    2  504  503 -0.13938798155E+02  0.15555381533E+02  0.66789301947E+02  0.69979074323E+02  0.00000000000E+00 0.  1.
<mgrwt>
<rscale>  1 0.12673733E+03</rscale>
<asrwt>0</asrwt>
<pdfrwt beam="1">  1       21 0.12554475E-01 0.12673733E+03</pdfrwt>
<pdfrwt beam="2">  1       21 0.46976643E-01 0.12673733E+03</pdfrwt>
<totfact> 0.23861405E+05</totfact>
</mgrwt>
</event>
<event>
 6    1  0.4241465E-002  0.1279989E+03  0.7546771E-02  0.1230456E+00
         21   -1    0    0  503  502  0.00000000000E+00  0.00000000000E+00  0.26180647833E+02  0.26180647833E+02  0.00000000000E+00 0. -1.
         21   -1    0    0  504  503 -0.00000000000E+00 -0.00000000000E+00 -0.12121379033E+04  0.12121379033E+04  0.00000000000E+00 0. -1.
         25    2    1    2    0    0  0.98634955571E+01 -0.25773240132E+02 -0.12003770030E+04  0.12071821164E+04  0.12498865674E+03 0.  0.
          5    1    3    3  501    0 -0.15686709041E+02 -0.68197532985E+02 -0.47627014922E+03  0.48138367378E+03  0.10000000000E+00 0. -1.
         -5    1    3    3    0  501  0.25550204599E+02  0.42424292853E+02 -0.72410685380E+03  0.72579844262E+03  0.10000000000E+00 0. -1.
         21    1    1    2  504  502 -0.98634955571E+01  0.25773240132E+02  0.14419747523E+02  0.31136434769E+02  0.00000000000E+00 0. -1.
<mgrwt>
<rscale>  1 0.12799888E+03</rscale>
<asrwt>0</asrwt>
<pdfrwt beam="1">  1       21 0.40277931E-02 0.12799888E+03</pdfrwt>
<pdfrwt beam="2">  1       21 0.18648270E+00 0.12799888E+03</pdfrwt>
<totfact> 0.66451335E+04</totfact>
</mgrwt>
</event>
<event>
 6    1  0.4241465E-002  0.1287908E+03  0.7546771E-02  0.1229261E+00
         21   -1    0    0  503  502  0.00000000000E+00  0.00000000000E+00  0.83525438239E+01  0.83525438239E+01  0.00000000000E+00 0. -1.
         21   -1    0    0  504  503 -0.00000000000E+00 -0.00000000000E+00 -0.13939494823E+04  0.13939494823E+04  0.00000000000E+00 0. -1.
         25    2    1    2    0    0  0.18087188270E+02 -0.25229611855E+02 -0.13452190137E+04  0.13513701451E+04  0.12499357817E+03 0.  0.
          5    1    3    3  501    0 -0.66831373814E+00  0.46387015022E+02 -0.77162486259E+03  0.77301820183E+03  0.10000000000E+00 0.  1.
         -5    1    3    3    0  501  0.18755502008E+02 -0.71616626876E+02 -0.57359415113E+03  0.57835194329E+03  0.10000000000E+00 0.  1.
         21    1    1    2  504  502 -0.18087188270E+02  0.25229611855E+02 -0.40377924757E+02  0.50931880994E+02  0.00000000000E+00 0. -1.
<mgrwt>
<rscale>  1 0.12879082E+03</rscale>
<asrwt>0</asrwt>
<pdfrwt beam="1">  1       21 0.12850060E-02 0.12879082E+03</pdfrwt>
<pdfrwt beam="2">  1       21 0.21445390E+00 0.12879082E+03</pdfrwt>
<totfact> 0.28285122E+05</totfact>
</mgrwt>
</event>
<event>
 6    1  0.4241465E-002  0.1263070E+03  0.7546771E-02  0.1233041E+00
         21   -1    0    0  503  502  0.00000000000E+00  0.00000000000E+00  0.70794574290E+02  0.70794574290E+02  0.00000000000E+00 0.  1.
         21   -1    0    0  504  503 -0.00000000000E+00 -0.00000000000E+00 -0.73931204784E+02  0.73931204784E+02  0.00000000000E+00 0.  1.
         25    2    1    2    0    0  0.23694904025E+01  0.17958772056E+02  0.19717587653E+00  0.12630714059E+03  0.12500129163E+03 0.  0.
          5    1    3    3  501    0  0.32452927102E+02 -0.19550672472E+02  0.46209359346E+02  0.59755637079E+02  0.10000000000E+00 0. -1.
         -5    1    3    3    0  501 -0.30083436700E+02  0.37509444528E+02 -0.46012183470E+02  0.66551503515E+02  0.10000000000E+00 0. -1.
         21    1    1    2  504  502 -0.23694904025E+01 -0.17958772056E+02 -0.33338063712E+01  0.18418638480E+02  0.00000000000E+00 0. -1.
<mgrwt>
<rscale>  1 0.12630699E+03</rscale>
<asrwt>0</asrwt>
<pdfrwt beam="1">  1       21 0.10891473E-01 0.12630699E+03</pdfrwt>
<pdfrwt beam="2">  1       21 0.11374032E-01 0.12630699E+03</pdfrwt>
<totfact> 0.44367891E+06</totfact>
</mgrwt>
</event>
<event>
 6    1  0.4241465E-002  0.1269235E+03  0.7546771E-02  0.1232093E+00
         21   -1    0    0  504  502  0.00000000000E+00  0.00000000000E+00  0.10614331776E+02  0.10614331776E+02  0.00000000000E+00 0.  1.
         21   -1    0    0  502  503 -0.00000000000E+00 -0.00000000000E+00 -0.66214827930E+03  0.66214827930E+03  0.00000000000E+00 0.  1.
         25    2    1    2    0    0 -0.19792168305E+02  0.95556527687E+01 -0.62744630064E+03  0.64015501751E+03  0.12500618315E+03 0.  0.
          5    1    3    3  501    0  0.35055257692E+02 -0.39552864730E+02 -0.23595250580E+03  0.24179928699E+03  0.10000000000E+00 0. -1.
         -5    1    3    3    0  501 -0.54847425997E+02  0.49108517499E+02 -0.39149379484E+03  0.39835573051E+03  0.10000000000E+00 0. -1.
         21    1    1    2  504  503  0.19792168305E+02 -0.95556527687E+01 -0.24087646888E+02  0.32607593574E+02  0.00000000000E+00 0.  1.
<mgrwt>
<rscale>  1 0.12692354E+03</rscale>
<asrwt>0</asrwt>
<pdfrwt beam="1">  1       21 0.16329735E-02 0.12692354E+03</pdfrwt>
<pdfrwt beam="2">  1       21 0.10186900E+00 0.12692354E+03</pdfrwt>
<totfact> 0.13474514E+06</totfact>
</mgrwt>
</event>
<event>
 6    1  0.4241465E-002  0.1344012E+03  0.7546771E-02  0.1221067E+00
         21   -1    0    0  503  502  0.00000000000E+00  0.00000000000E+00  0.33209322518E+02  0.33209322518E+02  0.00000000000E+00 0. -1.
         21   -1    0    0  504  503 -0.00000000000E+00 -0.00000000000E+00 -0.59070272798E+03  0.59070272798E+03  0.00000000000E+00 0.  1.
         25    2    1    2    0    0  0.28273322639E+02 -0.40482172804E+02 -0.55858028533E+03  0.57452208799E+03  0.12500202937E+03 0.  0.
          5    1    3    3  501    0  0.69637356016E+02  0.48797104085E+01 -0.23414614257E+03  0.24433092111E+03  0.10000000000E+00 0. -1.
         -5    1    3    3    0  501 -0.41364033376E+02 -0.45361883213E+02 -0.32443414276E+03  0.33019116689E+03  0.10000000000E+00 0. -1.
         21    1    1    2  504  502 -0.28273322639E+02  0.40482172804E+02  0.10868798694E+01  0.49389962501E+02  0.00000000000E+00 0. -1.
<mgrwt>
<rscale>  1 0.13440124E+03</rscale>
<asrwt>0</asrwt>
<pdfrwt beam="1">  1       21 0.51091267E-02 0.13440124E+03</pdfrwt>
<pdfrwt beam="2">  1       21 0.90877340E-01 0.13440124E+03</pdfrwt>
<totfact> 0.27055308E+05</totfact>
</mgrwt>
</event>
<event>
 6    1  0.4241465E-002  0.1264342E+03  0.7546771E-02  0.1232845E+00
         21   -1    0    0  503  502  0.00000000000E+00  0.00000000000E+00  0.68012463387E+02  0.68012463387E+02  0.00000000000E+00 0. -1.
         21   -1    0    0  504  503 -0.00000000000E+00 -0.00000000000E+00 -0.77823211530E+02  0.77823211530E+02  0.00000000000E+00 0. -1.
         25    2    1    2    0    0 -0.19027839823E+02  0.51633821304E+00 -0.74275069245E+01  0.12665221506E+03  0.12499316152E+03 0.  0.
          5    1    3    3  501    0 -0.38611830642E+02  0.26046267393E+02 -0.53196500889E+02  0.70704732639E+02  0.10000000000E+00 0. -1.
         -5    1    3    3    0  501  0.19583990819E+02 -0.25529929180E+02  0.45768993965E+02  0.55947482418E+02  0.10000000000E+00 0. -1.
         21    1    1    2  504  502  0.19027839823E+02 -0.51633821304E+00 -0.23832412186E+01  0.19183459860E+02  0.00000000000E+00 0. -1.
<mgrwt>
<rscale>  1 0.12643423E+03</rscale>
<asrwt>0</asrwt>
<pdfrwt beam="1">  1       21 0.10463456E-01 0.12643423E+03</pdfrwt>
<pdfrwt beam="2">  1       21 0.11972802E-01 0.12643423E+03</pdfrwt>
<totfact> 0.43480625E+06</totfact>
</mgrwt>
</event>
<event>
 6    1  0.4241465E-002  0.1261032E+03  0.7546771E-02  0.1233355E+00
         21   -1    0    0  504  502  0.00000000000E+00  0.00000000000E+00  0.11815364471E+03  0.11815364471E+03  0.00000000000E+00 0. -1.
         21   -1    0    0  502  503 -0.00000000000E+00 -0.00000000000E+00 -0.18436364604E+03  0.18436364604E+03  0.00000000000E+00 0. -1.
         25    2    1    2    0    0  0.12475812270E+02 -0.11008434560E+02 -0.16199892788E+03  0.20529409406E+03  0.12500072359E+03 0.  0.
          5    1    3    3  501    0  0.46915875709E+02 -0.49399867497E-01 -0.86033613825E+01  0.47698319268E+02  0.10000000000E+00 0.  1.
         -5    1    3    3    0  501 -0.34440063439E+02 -0.10959034693E+02 -0.15339556650E+03  0.15759577479E+03  0.10000000000E+00 0.  1.
         21    1    1    2  504  503 -0.12475812270E+02  0.11008434560E+02  0.95788926557E+02  0.97223196688E+02  0.00000000000E+00 0. -1.
<mgrwt>
<rscale>  1 0.12610318E+03</rscale>
<asrwt>0</asrwt>
<pdfrwt beam="1">  1       21 0.18177484E-01 0.12610318E+03</pdfrwt>
<pdfrwt beam="2">  1       21 0.28363638E-01 0.12610318E+03</pdfrwt>
<totfact> 0.33178459E+05</totfact>
</mgrwt>
</event>
<event>
 6    1  0.4241465E-002  0.2093952E+03  0.7546771E-02  0.1142046E+00
         21   -1    0    0  504  502  0.00000000000E+00  0.00000000000E+00  0.25318097607E+03  0.25318097607E+03  0.00000000000E+00 0. -1.
         21   -1    0    0  502  503 -0.00000000000E+00 -0.00000000000E+00 -0.32754666513E+03  0.32754666513E+03  0.00000000000E+00 0.  1.
         25    2    1    2    0    0 -0.14340361664E+03 -0.87502668377E+02 -0.25771191065E+03  0.33205687248E+03  0.12500009372E+03 0.  0.
          5    1    3    3  501    0  0.16607574045E+02 -0.98246546607E-01 -0.29570721384E+00  0.16610798018E+02  0.10000000000E+00 0.  1.
         -5    1    3    3    0  501 -0.16001119069E+03 -0.87404421831E+02 -0.25741620344E+03  0.31544607446E+03  0.10000000000E+00 0.  1.
         21    1    1    2  504  503  0.14340361664E+03  0.87502668377E+02  0.18334622159E+03  0.24867076871E+03  0.00000000000E+00 0. -1.
<mgrwt>
<rscale>  1 0.20939517E+03</rscale>
<asrwt>0</asrwt>
<pdfrwt beam="1">  1       21 0.38950919E-01 0.20939517E+03</pdfrwt>
<pdfrwt beam="2">  1       21 0.50391795E-01 0.20939517E+03</pdfrwt>
<totfact> 0.23596346E+04</totfact>
</mgrwt>
</event>
<event>
 6    1  0.4241465E-002  0.1267001E+03  0.7546771E-02  0.1232436E+00
         21   -1    0    0  504  502  0.00000000000E+00  0.00000000000E+00  0.63544400347E+02  0.63544400347E+02  0.00000000000E+00 0. -1.
         21   -1    0    0  502  503 -0.00000000000E+00 -0.00000000000E+00 -0.50168474686E+03  0.50168474686E+03  0.00000000000E+00 0. -1.
         25    2    1    2    0    0  0.13396948303E+02  0.15718607903E+02 -0.49173358250E+03  0.50779407253E+03  0.12500540420E+03 0.  0.
          5    1    3    3  501    0 -0.29668147551E+01  0.69953230429E+02 -0.27767009381E+03  0.28636156766E+03  0.10000000000E+00 0. -1.
         -5    1    3    3    0  501  0.16363763058E+02 -0.54234622526E+02 -0.21406348869E+03  0.22143250487E+03  0.10000000000E+00 0. -1.
         21    1    1    2  504  503 -0.13396948303E+02 -0.15718607903E+02  0.53593235993E+02  0.57435074671E+02  0.00000000000E+00 0. -1.
<mgrwt>
<rscale>  1 0.12670006E+03</rscale>
<asrwt>0</asrwt>
<pdfrwt beam="1">  1       21 0.97760614E-02 0.12670006E+03</pdfrwt>
<pdfrwt beam="2">  1       21 0.77182270E-01 0.12670006E+03</pdfrwt>
<totfact> 0.12899569E+05</totfact>
</mgrwt>
</event>
<event>
 6    1  0.4241465E-002  0.1286867E+03  0.7546771E-02  0.1229418E+00
         21   -1    0    0  504  502  0.00000000000E+00  0.00000000000E+00  0.15198223187E+03  0.15198223187E+03  0.00000000000E+00 0. -1.
         21   -1    0    0  502  503 -0.00000000000E+00 -0.00000000000E+00 -0.18273676949E+03  0.18273676949E+03  0.00000000000E+00 0. -1.
         25    2    1    2    0    0 -0.30042957175E+02  0.57515581782E+01 -0.15804206957E+03  0.20380767456E+03  0.12499845103E+03 0.  0.
          5    1    3    3  501    0 -0.49910264646E+02 -0.49242525450E+02 -0.90176304389E+02  0.11422625225E+03  0.10000000000E+00 0.  1.
         -5    1    3    3    0  501  0.19867307471E+02  0.54994083629E+02 -0.67865765177E+02  0.89581422312E+02  0.10000000000E+00 0.  1.
         21    1    1    2  504  503  0.30042957175E+02 -0.57515581782E+01  0.12728753194E+03  0.13091132680E+03  0.00000000000E+00 0. -1.
<mgrwt>
<rscale>  1 0.12868672E+03</rscale>
<asrwt>0</asrwt>
<pdfrwt beam="1">  1       21 0.23381882E-01 0.12868672E+03</pdfrwt>
<pdfrwt beam="2">  1       21 0.28113349E-01 0.12868672E+03</pdfrwt>
<totfact> 0.21149904E+05</totfact>
</mgrwt>
</event>
<event>
 6    1  0.4241465E-002  0.1264463E+03  0.7546771E-02  0.1232826E+00
         21   -1    0    0  503  502  0.00000000000E+00  0.00000000000E+00  0.63397379087E+02  0.63397379087E+02  0.00000000000E+00 0.  1.
         21   -1    0    0  504  503 -0.00000000000E+00 -0.00000000000E+00 -0.12360298760E+03  0.12360298760E+03  0.00000000000E+00 0.  1.
         25    2    1    2    0    0  0.26063912403E+01 -0.18908347715E+02 -0.87446089508E+02  0.15373833589E+03  0.12499735382E+03 0.  0.
          5    1    3    3  501    0 -0.45892974068E+01 -0.50564248013E+02  0.93655022364E+01  0.51628746450E+02  0.10000000000E+00 0.  1.
         -5    1    3    3    0  501  0.71956886471E+01  0.31655900298E+02 -0.96811591745E+02  0.10210958944E+03  0.10000000000E+00 0.  1.
         21    1    1    2  504  502 -0.26063912403E+01  0.18908347715E+02  0.27240480991E+02  0.33262030804E+02  0.00000000000E+00 0.  1.
<mgrwt>
<rscale>  1 0.12644626E+03</rscale>
<asrwt>0</asrwt>
<pdfrwt beam="1">  1       21 0.97534430E-02 0.12644626E+03</pdfrwt>
<pdfrwt beam="2">  1       21 0.19015844E-01 0.12644626E+03</pdfrwt>
<totfact> 0.21349673E+06</totfact>
</mgrwt>
</event>
<event>
 6    1  0.4241465E-002  0.1266948E+03  0.7546771E-02  0.1232444E+00
         21   -1    0    0  504  502  0.00000000000E+00  0.00000000000E+00  0.24975758672E+03  0.24975758672E+03  0.00000000000E+00 0. -1.
         21   -1    0    0  502  503 -0.00000000000E+00 -0.00000000000E+00 -0.23363235141E+02  0.23363235141E+02  0.00000000000E+00 0. -1.
         25    2    1    2    0    0 -0.10916177450E+02 -0.17525377660E+02  0.16299148286E+03  0.20644079821E+03  0.12500111155E+03 0.  0.
          5    1    3    3  501    0 -0.31450576154E+02 -0.35671513106E+02  0.70097573801E+01  0.48070180843E+02  0.10000000000E+00 0. -1.
         -5    1    3    3    0  501  0.20534398704E+02  0.18146135446E+02  0.15598172548E+03  0.15837061737E+03  0.10000000000E+00 0. -1.
         21    1    1    2  504  503  0.10916177450E+02  0.17525377660E+02  0.63402868714E+02  0.66680023646E+02  0.00000000000E+00 0. -1.
<mgrwt>
<rscale>  1 0.12669483E+03</rscale>
<asrwt>0</asrwt>
<pdfrwt beam="1">  1       21 0.38424242E-01 0.12669483E+03</pdfrwt>
<pdfrwt beam="2">  1       21 0.35943441E-02 0.12669483E+03</pdfrwt>
<totfact> 0.30314438E+06</totfact>
</mgrwt>
</event>
<event>
 6    1  0.4241465E-002  0.1272738E+03  0.7546771E-02  0.1231558E+00
         21   -1    0    0  503  502  0.00000000000E+00  0.00000000000E+00  0.20941192306E+02  0.20941192306E+02  0.00000000000E+00 0.  1.
         21   -1    0    0  504  503 -0.00000000000E+00 -0.00000000000E+00 -0.36089681979E+03  0.36089681979E+03  0.00000000000E+00 0.  1.
         25    2    1    2    0    0 -0.12183314097E+02  0.20561684422E+02 -0.33367842060E+03  0.35712729914E+03  0.12500961325E+03 0.  0.
          5    1    3    3  501    0 -0.72269192122E+01 -0.44638609555E+02 -0.23108353835E+03  0.23546644245E+03  0.10000000000E+00 0. -1.
         -5    1    3    3    0  501 -0.49563948850E+01  0.65200293978E+02 -0.10259488225E+03  0.12166085669E+03  0.10000000000E+00 0. -1.
         21    1    1    2  504  502  0.12183314097E+02 -0.20561684422E+02 -0.62772068802E+01  0.24710712958E+02  0.00000000000E+00 0.  1.
<mgrwt>
<rscale>  1 0.12727380E+03</rscale>
<asrwt>0</asrwt>
<pdfrwt beam="1">  1       21 0.32217218E-02 0.12727380E+03</pdfrwt>
<pdfrwt beam="2">  1       21 0.55522589E-01 0.12727380E+03</pdfrwt>
<totfact> 0.17140287E+06</totfact>
</mgrwt>
</event>
<event>
 6    1  0.4241465E-002  0.1263617E+03  0.7546771E-02  0.1232956E+00
         21   -1    0    0  504  502  0.00000000000E+00  0.00000000000E+00  0.15812904528E+03  0.15812904528E+03  0.00000000000E+00 0.  1.
         21   -1    0    0  502  503 -0.00000000000E+00 -0.00000000000E+00 -0.65355513887E+03  0.65355513887E+03  0.00000000000E+00 0. -1.
         25    2    1    2    0    0  0.88728756233E+01  0.16222425581E+02 -0.64687976034E+03  0.65910598066E+03  0.12500149756E+03 0.  0.
          5    1    3    3  501    0  0.13600227609E+02  0.57048810114E+02 -0.15854123960E+03  0.16904102337E+03  0.10000000000E+00 0. -1.
         -5    1    3    3    0  501 -0.47273519858E+01 -0.40826384533E+02 -0.48833852073E+03  0.49006495729E+03  0.10000000000E+00 0. -1.
         21    1    1    2  504  503 -0.88728756233E+01 -0.16222425581E+02  0.15145366674E+03  0.15257820349E+03  0.00000000000E+00 0.  1.
<mgrwt>
<rscale>  1 0.12636166E+03</rscale>
<asrwt>0</asrwt>
<pdfrwt beam="1">  1       21 0.24327545E-01 0.12636166E+03</pdfrwt>
<pdfrwt beam="2">  1       21 0.10054695E+00 0.12636166E+03</pdfrwt>
<totfact> 0.13584651E+04</totfact>
</mgrwt>
</event>
<event>
 6    1  0.4241465E-002  0.1277148E+03  0.7546771E-02  0.1230887E+00
         21   -1    0    0  503  502  0.00000000000E+00  0.00000000000E+00  0.10307268701E+03  0.10307268701E+03  0.00000000000E+00 0.  1.
         21   -1    0    0  504  503 -0.00000000000E+00 -0.00000000000E+00 -0.59965327986E+02  0.59965327986E+02  0.00000000000E+00 0.  1.
         25    2    1    2    0    0  0.26196290712E+02  0.12930854059E+01  0.22497606159E+02  0.12968116218E+03  0.12499257507E+03 0.  0.
          5    1    3    3  501    0 -0.45979601153E+02  0.24217143350E+02  0.80739455820E+01  0.52590801016E+02  0.10000000000E+00 0. -1.
         -5    1    3    3    0  501  0.72175891865E+02 -0.22924057944E+02  0.14423660577E+02  0.77090361159E+02  0.10000000000E+00 0. -1.
         21    1    1    2  504  502 -0.26196290712E+02 -0.12930854059E+01  0.20609752863E+02  0.33356852819E+02  0.00000000000E+00 0.  1.
<mgrwt>
<rscale>  1 0.12771477E+03</rscale>
<asrwt>0</asrwt>
<pdfrwt beam="1">  1       21 0.15857336E-01 0.12771477E+03</pdfrwt>
<pdfrwt beam="2">  1       21 0.92254351E-02 0.12771477E+03</pdfrwt>
<totfact> 0.32777121E+06</totfact>
</mgrwt>
</event>
<event>
 6    1  0.4241465E-002  0.1262871E+03  0.7546771E-02  0.1233071E+00
         21   -1    0    0  503  502  0.00000000000E+00  0.00000000000E+00  0.31775684214E+02  0.31775684214E+02  0.00000000000E+00 0.  1.
         21   -1    0    0  504  503 -0.00000000000E+00 -0.00000000000E+00 -0.61826764405E+03  0.61826764405E+03  0.00000000000E+00 0.  1.
         25    2    1    2    0    0  0.17519068313E+01  0.18003499472E+02 -0.60855084178E+03  0.62151633327E+03  0.12498492039E+03 0.  0.
          5    1    3    3  501    0 -0.27342091735E+02  0.62011171320E+02 -0.24668202234E+03  0.25582221463E+03  0.10000000000E+00 0. -1.
         -5    1    3    3    0  501  0.29093998567E+02 -0.44007671848E+02 -0.36186881943E+03  0.36569411865E+03  0.10000000000E+00 0. -1.
         21    1    1    2  504  502 -0.17519068313E+01 -0.18003499472E+02  0.22058881941E+02  0.28526994992E+02  0.00000000000E+00 0.  1.
<mgrwt>
<rscale>  1 0.12628708E+03</rscale>
<asrwt>0</asrwt>
<pdfrwt beam="1">  1       21 0.48885673E-02 0.12628708E+03</pdfrwt>
<pdfrwt beam="2">  1       21 0.95118090E-01 0.12628708E+03</pdfrwt>
<totfact> 0.26286472E+05</totfact>
</mgrwt>
</event>
<event>
 6    1  0.4241465E-002  0.1279913E+03  0.7546771E-02  0.1230467E+00
         21   -1    0    0  503  502  0.00000000000E+00  0.00000000000E+00  0.85230199216E+02  0.85230199216E+02  0.00000000000E+00 0.  1.
         21   -1    0    0  504  503 -0.00000000000E+00 -0.00000000000E+00 -0.20693678777E+03  0.20693678777E+03  0.00000000000E+00 0. -1.
         25    2    1    2    0    0  0.11959780392E+02  0.24791545079E+02 -0.18395697673E+03  0.22410254780E+03  0.12499650230E+03 0.  0.
          5    1    3    3  501    0  0.52696994866E+02  0.55581246342E+02 -0.11822355495E+03  0.14086542215E+03  0.10000000000E+00 0.  1.
         -5    1    3    3    0  501 -0.40737214475E+02 -0.30789701264E+02 -0.65733421779E+02  0.83237125646E+02  0.10000000000E+00 0.  1.
         21    1    1    2  504  502 -0.11959780392E+02 -0.24791545079E+02  0.62250388174E+02  0.68064439190E+02  0.00000000000E+00 0.  1.
<mgrwt>
<rscale>  1 0.12799134E+03</rscale>
<asrwt>0</asrwt>
<pdfrwt beam="1">  1       21 0.13112338E-01 0.12799134E+03</pdfrwt>
<pdfrwt beam="2">  1       21 0.31836429E-01 0.12799134E+03</pdfrwt>
<totfact> 0.47894697E+05</totfact>
</mgrwt>
</event>
<event>
 6    1  0.4241465E-002  0.1353459E+03  0.7546771E-02  0.1219732E+00
         21   -1    0    0  504  502  0.00000000000E+00  0.00000000000E+00  0.42018635171E+03  0.42018635171E+03  0.00000000000E+00 0.  1.
         21   -1    0    0  502  503 -0.00000000000E+00 -0.00000000000E+00 -0.37923379504E+02  0.37923379504E+02  0.00000000000E+00 0.  1.
         25    2    1    2    0    0  0.49967158967E+02  0.14028788274E+02  0.92976355873E+02  0.16420452496E+03  0.12499999756E+03 0.  0.
          5    1    3    3  501    0  0.32145878525E+02 -0.12341989947E+02 -0.24650364724E+02  0.42347759126E+02  0.10000000000E+00 0.  1.
         -5    1    3    3    0  501  0.17821280443E+02  0.26370778221E+02  0.11762672060E+03  0.12185676583E+03  0.10000000000E+00 0.  1.
         21    1    1    2  504  503 -0.49967158967E+02 -0.14028788274E+02  0.28928661633E+03  0.29390520626E+03  0.00000000000E+00 0.  1.
<mgrwt>
<rscale>  1 0.13534594E+03</rscale>
<asrwt>0</asrwt>
<pdfrwt beam="1">  1       21 0.64644051E-01 0.13534594E+03</pdfrwt>
<pdfrwt beam="2">  1       21 0.58343664E-02 0.13534594E+03</pdfrwt>
<totfact> 0.46060046E+05</totfact>
</mgrwt>
</event>
<event>
 6    1  0.4241465E-002  0.1293089E+03  0.7546771E-02  0.1228485E+00
         21   -1    0    0  504  502  0.00000000000E+00  0.00000000000E+00  0.68859223061E+02  0.68859223061E+02  0.00000000000E+00 0. -1.
         21   -1    0    0  502  503 -0.00000000000E+00 -0.00000000000E+00 -0.10514969715E+03  0.10514969715E+03  0.00000000000E+00 0. -1.
         25    2    1    2    0    0 -0.15250938596E+02  0.29307508438E+02 -0.49456463165E+02  0.13844398739E+03  0.12501709769E+03 0.  0.
          5    1    3    3  501    0  0.12876739092E+01  0.57945140741E+02  0.20165166082E+02  0.61367266215E+02  0.10000000000E+00 0. -1.
         -5    1    3    3    0  501 -0.16538612505E+02 -0.28637632303E+02 -0.69621629246E+02  0.77076721171E+02  0.10000000000E+00 0. -1.
         21    1    1    2  504  503  0.15250938596E+02 -0.29307508438E+02  0.13165989072E+02  0.35564932829E+02  0.00000000000E+00 0. -1.
<mgrwt>
<rscale>  1 0.12930892E+03</rscale>
<asrwt>0</asrwt>
<pdfrwt beam="1">  1       21 0.10593727E-01 0.12930892E+03</pdfrwt>
<pdfrwt beam="2">  1       21 0.16176876E-01 0.12930892E+03</pdfrwt>
<totfact> 0.24836517E+06</totfact>
</mgrwt>
</event>
<event>
 6    1  0.4241465E-002  0.1299505E+03  0.7546771E-02  0.1227529E+00
         21   -1    0    0  504  502  0.00000000000E+00  0.00000000000E+00  0.29167781893E+02  0.29167781893E+02  0.00000000000E+00 0. -1.
         21   -1    0    0  502  503 -0.00000000000E+00 -0.00000000000E+00 -0.64603826077E+03  0.64603826077E+03  0.00000000000E+00 0. -1.
         25    2    1    2    0    0  0.65533112077E-01 -0.35522699097E+02 -0.62533002091E+03  0.63868987779E+03  0.12500103402E+03 0.  0.
          5    1    3    3  501    0  0.98814940604E+01 -0.77332588250E+02 -0.27833785350E+03  0.28905007148E+03  0.10000000000E+00 0.  1.
         -5    1    3    3    0  501 -0.98159609483E+01  0.41809889153E+02 -0.34699216740E+03  0.34963980631E+03  0.10000000000E+00 0.  1.
         21    1    1    2  504  503 -0.65533112077E-01  0.35522699097E+02  0.84595420251E+01  0.36516164872E+02  0.00000000000E+00 0. -1.
<mgrwt>
<rscale>  1 0.12995047E+03</rscale>
<asrwt>0</asrwt>
<pdfrwt beam="1">  1       21 0.44873514E-02 0.12995047E+03</pdfrwt>
<pdfrwt beam="2">  1       21 0.99390495E-01 0.12995047E+03</pdfrwt>
<totfact> 0.27367877E+05</totfact>
</mgrwt>
</event>
<event>
 6    1  0.4241465E-002  0.1286825E+03  0.7546771E-02  0.1229424E+00
         21   -1    0    0  503  502  0.00000000000E+00  0.00000000000E+00  0.22860444049E+02  0.22860444049E+02  0.00000000000E+00 0.  1.
         21   -1    0    0  504  503 -0.00000000000E+00 -0.00000000000E+00 -0.54331364874E+03  0.54331364874E+03  0.00000000000E+00 0.  1.
         25    2    1    2    0    0  0.11229926998E+02  0.28412601054E+02 -0.51993048657E+03  0.53561823585E+03  0.12500318618E+03 0.  0.
          5    1    3    3  501    0  0.54636392521E+02 -0.24593426076E+02 -0.22582498047E+03  0.23363840394E+03  0.10000000000E+00 0.  1.
         -5    1    3    3    0  501 -0.43406465523E+02  0.53006027130E+02 -0.29410550610E+03  0.30197983191E+03  0.10000000000E+00 0.  1.
         21    1    1    2  504  502 -0.11229926998E+02 -0.28412601054E+02 -0.52271812468E+00  0.30555856939E+02  0.00000000000E+00 0.  1.
<mgrwt>
<rscale>  1 0.12868249E+03</rscale>
<asrwt>0</asrwt>
<pdfrwt beam="1">  1       21 0.35169914E-02 0.12868249E+03</pdfrwt>
<pdfrwt beam="2">  1       21 0.83586716E-01 0.12868249E+03</pdfrwt>
<totfact> 0.61030085E+05</totfact>
</mgrwt>
</event>
<event>
 6    1  0.4241465E-002  0.1281787E+03  0.7546771E-02  0.1230184E+00
         21   -1    0    0  503  502  0.00000000000E+00  0.00000000000E+00  0.36603289975E+03  0.36603289975E+03  0.00000000000E+00 0. -1.
         21   -1    0    0  504  503 -0.00000000000E+00 -0.00000000000E+00 -0.34181843641E+02  0.34181843641E+02  0.00000000000E+00 0. -1.
         25    2    1    2    0    0  0.24612299788E+02  0.14384519733E+02  0.89833995314E+02  0.15652449446E+03  0.12496835977E+03 0.  0.
          5    1    3    3  501    0  0.26050936914E+02  0.68639546284E+02  0.44856670316E+02  0.86035861710E+02  0.10000000000E+00 0. -1.
         -5    1    3    3    0  501 -0.14386371259E+01 -0.54255026552E+02  0.44977324997E+02  0.70488632749E+02  0.10000000000E+00 0. -1.
         21    1    1    2  504  502 -0.24612299788E+02 -0.14384519733E+02  0.24201706080E+03  0.24369024894E+03  0.00000000000E+00 0. -1.
<mgrwt>
<rscale>  1 0.12817867E+03</rscale>
<asrwt>0</asrwt>
<pdfrwt beam="1">  1       21 0.56312751E-01 0.12817867E+03</pdfrwt>
<pdfrwt beam="2">  1       21 0.52587454E-02 0.12817867E+03</pdfrwt>
<totfact> 0.73655332E+05</totfact>
</mgrwt>
</event>
<event>
 6    1  0.4241465E-002  0.1491745E+03  0.7546771E-02  0.1201491E+00
         21   -1    0    0  504  502  0.00000000000E+00  0.00000000000E+00  0.15033838066E+03  0.15033838066E+03  0.00000000000E+00 0. -1.
         21   -1    0    0  502  503 -0.00000000000E+00 -0.00000000000E+00 -0.88451559754E+02  0.88451559754E+02  0.00000000000E+00 0. -1.
         25    2    1    2    0    0  0.54093208192E+02 -0.60845759016E+02  0.37849337654E+02  0.15390129474E+03  0.12499901840E+03 0.  0.
          5    1    3    3  501    0  0.94823068634E+02 -0.36122500999E+02  0.27746524927E+02  0.10519567039E+03  0.10000000000E+00 0.  1.
         -5    1    3    3    0  501 -0.40729860442E+02 -0.24723258017E+02  0.10102812727E+02  0.48705624352E+02  0.10000000000E+00 0.  1.
         21    1    1    2  504  503 -0.54093208192E+02  0.60845759016E+02  0.24037483253E+02  0.84888645671E+02  0.00000000000E+00 0. -1.
<mgrwt>
<rscale>  1 0.14917452E+03</rscale>
<asrwt>0</asrwt>
<pdfrwt beam="1">  1       21 0.23128982E-01 0.14917452E+03</pdfrwt>
<pdfrwt beam="2">  1       21 0.13607932E-01 0.14917452E+03</pdfrwt>
<totfact> 0.82460111E+05</totfact>
</mgrwt>
</event>
<event>
 6    1  0.4241465E-002  0.1261074E+03  0.7546771E-02  0.1233349E+00
         21   -1    0    0  504  502  0.00000000000E+00  0.00000000000E+00  0.21789882074E+03  0.21789882074E+03  0.00000000000E+00 0.  1.
         21   -1    0    0  502  503 -0.00000000000E+00 -0.00000000000E+00 -0.14276852084E+03  0.14276852084E+03  0.00000000000E+00 0.  1.
         25    2    1    2    0    0 -0.45212436933E+01  0.16036459713E+02 -0.11448411676E+03  0.17032229517E+03  0.12500184622E+03 0.  0.
          5    1    3    3  501    0 -0.15775709596E+02 -0.53115572978E+02 -0.59112148532E+02  0.81020943034E+02  0.10000000000E+00 0.  1.
         -5    1    3    3    0  501  0.11254465903E+02  0.69152032691E+02 -0.55371968227E+02  0.89301352136E+02  0.10000000000E+00 0.  1.
         21    1    1    2  504  503  0.45212436933E+01 -0.16036459713E+02  0.18961441666E+03  0.19034504640E+03  0.00000000000E+00 0.  1.
<mgrwt>
<rscale>  1 0.12610738E+03</rscale>
<asrwt>0</asrwt>
<pdfrwt beam="1">  1       21 0.33522896E-01 0.12610738E+03</pdfrwt>
<pdfrwt beam="2">  1       21 0.21964388E-01 0.12610738E+03</pdfrwt>
<totfact> 0.16929262E+05</totfact>
</mgrwt>
</event>
<event>
 6    1  0.4241465E-002  0.1330419E+03  0.7546771E-02  0.1223011E+00
         21   -1    0    0  503  502  0.00000000000E+00  0.00000000000E+00  0.10580242835E+03  0.10580242835E+03  0.00000000000E+00 0. -1.
         21   -1    0    0  504  503 -0.00000000000E+00 -0.00000000000E+00 -0.79016843288E+02  0.79016843288E+02  0.00000000000E+00 0. -1.
         25    2    1    2    0    0  0.26425269219E+01 -0.45469097473E+02  0.21969773776E+01  0.13306000772E+03  0.12500286865E+03 0.  0.
          5    1    3    3  501    0 -0.57845399506E+02 -0.11323139649E+02  0.18373970377E+02  0.61740720136E+02  0.10000000000E+00 0. -1.
         -5    1    3    3    0  501  0.60487926428E+02 -0.34145957824E+02 -0.16176993000E+02  0.71319287586E+02  0.10000000000E+00 0. -1.
         21    1    1    2  504  502 -0.26425269219E+01  0.45469097473E+02  0.24588607688E+02  0.51759263920E+02  0.00000000000E+00 0. -1.
<mgrwt>
<rscale>  1 0.13304187E+03</rscale>
<asrwt>0</asrwt>
<pdfrwt beam="1">  1       21 0.16277297E-01 0.13304187E+03</pdfrwt>
<pdfrwt beam="2">  1       21 0.12156437E-01 0.13304187E+03</pdfrwt>
<totfact> 0.19279594E+06</totfact>
</mgrwt>
</event>
<event>
 6    1  0.4241465E-002  0.1267469E+03  0.7546771E-02  0.1232364E+00
         21   -1    0    0  503  502  0.00000000000E+00  0.00000000000E+00  0.33045305223E+03  0.33045305223E+03  0.00000000000E+00 0. -1.
         21   -1    0    0  504  503 -0.00000000000E+00 -0.00000000000E+00 -0.19902152291E+02  0.19902152291E+02  0.00000000000E+00 0. -1.
         25    2    1    2    0    0 -0.49642681922E+01 -0.20318428666E+02  0.19259571669E+03  0.23055993017E+03  0.12500915490E+03 0.  0.
          5    1    3    3  501    0 -0.30679764465E+02  0.40325104661E+02  0.40681902729E+02  0.64979913998E+02  0.10000000000E+00 0.  1.
         -5    1    3    3    0  501  0.25715496273E+02 -0.60643533326E+02  0.15191381396E+03  0.16558001617E+03  0.10000000000E+00 0.  1.
         21    1    1    2  504  502  0.49642681922E+01  0.20318428666E+02  0.11795518325E+03  0.11979527435E+03  0.00000000000E+00 0. -1.
<mgrwt>
<rscale>  1 0.12674688E+03</rscale>
<asrwt>0</asrwt>
<pdfrwt beam="1">  1       21 0.50838927E-01 0.12674688E+03</pdfrwt>
<pdfrwt beam="2">  1       21 0.30618698E-02 0.12674688E+03</pdfrwt>
<totfact> 0.22383741E+06</totfact>
</mgrwt>
</event>
<event>
 6    1  0.4241465E-002  0.1262090E+03  0.7546771E-02  0.1233192E+00
         21   -1    0    0  503  502  0.00000000000E+00  0.00000000000E+00  0.14925219280E+03  0.14925219280E+03  0.00000000000E+00 0.  1.
         21   -1    0    0  504  503 -0.00000000000E+00 -0.00000000000E+00 -0.88870397400E+02  0.88870397400E+02  0.00000000000E+00 0. -1.
         25    2    1    2    0    0  0.76153419763E+01  0.15662353068E+02 -0.42962588879E+02  0.13332104203E+03  0.12500165386E+03 0.  0.
          5    1    3    3  501    0  0.11237546507E+02 -0.11978718844E+02  0.41364064567E+02  0.44505819778E+02  0.10000000000E+00 0.  1.
         -5    1    3    3    0  501 -0.36222045307E+01  0.27641071912E+02 -0.84326653446E+02  0.88815222251E+02  0.10000000000E+00 0.  1.
         21    1    1    2  504  502 -0.76153419763E+01 -0.15662353068E+02  0.10334438428E+03  0.10480154817E+03  0.00000000000E+00 0.  1.
<mgrwt>
<rscale>  1 0.12620902E+03</rscale>
<asrwt>0</asrwt>
<pdfrwt beam="1">  1       21 0.22961876E-01 0.12620902E+03</pdfrwt>
<pdfrwt beam="2">  1       21 0.13672369E-01 0.12620902E+03</pdfrwt>
<totfact> 0.82858579E+05</totfact>
</mgrwt>
</event>
<event>
 6    1  0.4241465E-002  0.1285130E+03  0.7546771E-02  0.1229679E+00
         21   -1    0    0  504  502  0.00000000000E+00  0.00000000000E+00  0.67350156127E+02  0.67350156127E+02  0.00000000000E+00 0. -1.
         21   -1    0    0  502  503 -0.00000000000E+00 -0.00000000000E+00 -0.10939136753E+03  0.10939136753E+03  0.00000000000E+00 0. -1.
         25    2    1    2    0    0  0.18078406617E+02 -0.23743623262E+02 -0.60087672053E+02  0.14186655881E+03  0.12500001498E+03 0.  0.
          5    1    3    3  501    0  0.65716068254E+02 -0.41168941278E+02 -0.40553821952E+02  0.87510604087E+02  0.10000000000E+00 0.  1.
         -5    1    3    3    0  501 -0.47637661638E+02  0.17425318017E+02 -0.19533850102E+02  0.54355954725E+02  0.10000000000E+00 0.  1.
         21    1    1    2  504  503 -0.18078406617E+02  0.23743623262E+02  0.18046460646E+02  0.34874964850E+02  0.00000000000E+00 0. -1.
<mgrwt>
<rscale>  1 0.12851300E+03</rscale>
<asrwt>0</asrwt>
<pdfrwt beam="1">  1       21 0.10361563E-01 0.12851300E+03</pdfrwt>
<pdfrwt beam="2">  1       21 0.16829441E-01 0.12851300E+03</pdfrwt>
<totfact> 0.24026119E+06</totfact>
</mgrwt>
</event>
<event>
 6    1  0.4241465E-002  0.1483466E+03  0.7546771E-02  0.1202519E+00
         21   -1    0    0  504  502  0.00000000000E+00  0.00000000000E+00  0.55101464372E+03  0.55101464372E+03  0.00000000000E+00 0.  1.
         21   -1    0    0  502  503 -0.00000000000E+00 -0.00000000000E+00 -0.24798162670E+02  0.24798162670E+02  0.00000000000E+00 0.  1.
         25    2    1    2    0    0 -0.63848243188E+02 -0.47892568792E+02  0.27835268889E+03  0.31541550270E+03  0.12504568617E+03 0.  0.
          5    1    3    3  501    0 -0.58820169738E+02  0.32679395517E+02  0.11613773213E+03  0.13422271821E+03  0.10000000000E+00 0. -1.
         -5    1    3    3    0  501 -0.50280734502E+01 -0.80571964310E+02  0.16221495676E+03  0.18119278449E+03  0.10000000000E+00 0. -1.
         21    1    1    2  504  503  0.63848243188E+02  0.47892568792E+02  0.24786379216E+03  0.26039730369E+03  0.00000000000E+00 0.  1.
<mgrwt>
<rscale>  1 0.14834662E+03</rscale>
<asrwt>0</asrwt>
<pdfrwt beam="1">  1       21 0.84771474E-01 0.14834662E+03</pdfrwt>
<pdfrwt beam="2">  1       21 0.38151024E-02 0.14834662E+03</pdfrwt>
<totfact> 0.51550346E+05</totfact>
</mgrwt>
</event>
<event>
 6    1  0.4241465E-002  0.1303948E+03  0.7546771E-02  0.1226871E+00
         21   -1    0    0  504  502  0.00000000000E+00  0.00000000000E+00  0.63017995212E+02  0.63017995212E+02  0.00000000000E+00 0. -1.
         21   -1    0    0  502  503 -0.00000000000E+00 -0.00000000000E+00 -0.12414493274E+03  0.12414493274E+03  0.00000000000E+00 0. -1.
         25    2    1    2    0    0 -0.30362045707E+02  0.21321520384E+02 -0.71404009282E+02  0.14866514549E+03  0.12500532745E+03 0.  0.
          5    1    3    3  501    0 -0.74124303128E+02  0.23237993346E+02 -0.18267159070E+02  0.79800474619E+02  0.10000000000E+00 0. -1.
         -5    1    3    3    0  501  0.43762257421E+02 -0.19164729623E+01 -0.53136850212E+02  0.68864670867E+02  0.10000000000E+00 0. -1.
         21    1    1    2  504  503  0.30362045707E+02 -0.21321520384E+02  0.10277071754E+02  0.38497782466E+02  0.00000000000E+00 0. -1.
<mgrwt>
<rscale>  1 0.13039476E+03</rscale>
<asrwt>0</asrwt>
<pdfrwt beam="1">  1       21 0.96950763E-02 0.13039476E+03</pdfrwt>
<pdfrwt beam="2">  1       21 0.19099220E-01 0.13039476E+03</pdfrwt>
<totfact> 0.21421510E+06</totfact>
</mgrwt>
</event>
<event>
 6    1  0.4241465E-002  0.1278190E+03  0.7546771E-02  0.1230728E+00
         21   -1    0    0  504  502  0.00000000000E+00  0.00000000000E+00  0.87421594927E+02  0.87421594927E+02  0.00000000000E+00 0. -1.
         21   -1    0    0  502  503 -0.00000000000E+00 -0.00000000000E+00 -0.82696712982E+02  0.82696712982E+02  0.00000000000E+00 0. -1.
         25    2    1    2    0    0  0.23302031717E+02 -0.13017016352E+02 -0.24922425376E+02  0.13022607523E+03  0.12500110394E+03 0.  0.
          5    1    3    3  501    0  0.13714463340E+02 -0.62437814889E+02  0.15366220336E+02  0.65747227776E+02  0.10000000000E+00 0. -1.
         -5    1    3    3    0  501  0.95875683772E+01  0.49420798537E+02 -0.40288645711E+02  0.64478847452E+02  0.10000000000E+00 0. -1.
         21    1    1    2  504  503 -0.23302031717E+02  0.13017016352E+02  0.29647307321E+02  0.39892232680E+02  0.00000000000E+00 0. -1.
<mgrwt>
<rscale>  1 0.12781903E+03</rscale>
<asrwt>0</asrwt>
<pdfrwt beam="1">  1       21 0.13449476E-01 0.12781903E+03</pdfrwt>
<pdfrwt beam="2">  1       21 0.12722571E-01 0.12781903E+03</pdfrwt>
<totfact> 0.25045920E+06</totfact>
</mgrwt>
</event>
<event>
 6    1  0.4241465E-002  0.1275229E+03  0.7546771E-02  0.1231178E+00
         21   -1    0    0  503  502  0.00000000000E+00  0.00000000000E+00  0.12031304627E+03  0.12031304627E+03  0.00000000000E+00 0. -1.
         21   -1    0    0  504  503 -0.00000000000E+00 -0.00000000000E+00 -0.25407520191E+03  0.25407520191E+03  0.00000000000E+00 0.  1.
         25    2    1    2    0    0 -0.13322174227E+02 -0.21452990987E+02 -0.23644720643E+03  0.26864359913E+03  0.12499756309E+03 0.  0.
          5    1    3    3  501    0 -0.33060208891E+02 -0.17267760023E+02 -0.65577708437E+01  0.37870401457E+02  0.10000000000E+00 0. -1.
         -5    1    3    3    0  501  0.19738034664E+02 -0.41852309639E+01 -0.22988943558E+03  0.23077319767E+03  0.10000000000E+00 0. -1.
         21    1    1    2  504  502  0.13322174227E+02  0.21452990987E+02  0.10268505079E+03  0.10574464906E+03  0.00000000000E+00 0. -1.
<mgrwt>
<rscale>  1 0.12752295E+03</rscale>
<asrwt>0</asrwt>
<pdfrwt beam="1">  1       21 0.18509700E-01 0.12752295E+03</pdfrwt>
<pdfrwt beam="2">  1       21 0.39088492E-01 0.12752295E+03</pdfrwt>
<totfact> 0.17154764E+05</totfact>
</mgrwt>
</event>
<event>
 6    1  0.4241465E-002  0.1261105E+03  0.7546771E-02  0.1233344E+00
         21   -1    0    0  503  502  0.00000000000E+00  0.00000000000E+00  0.59285433039E+02  0.59285433039E+02  0.00000000000E+00 0.  1.
         21   -1    0    0  504  503 -0.00000000000E+00 -0.00000000000E+00 -0.10695918934E+03  0.10695918934E+03  0.00000000000E+00 0.  1.
         25    2    1    2    0    0 -0.64057076468E+01  0.15454873157E+02 -0.65240077589E+02  0.14198639000E+03  0.12499592404E+03 0.  0.
          5    1    3    3  501    0  0.29488346045E+01 -0.50556465155E+02 -0.54602577622E+02  0.74472164447E+02  0.10000000000E+00 0.  1.
         -5    1    3    3    0  501 -0.93545422513E+01  0.66011338312E+02 -0.10637499967E+02  0.67514225553E+02  0.10000000000E+00 0.  1.
         21    1    1    2  504  502  0.64057076468E+01 -0.15454873157E+02  0.17566321286E+02  0.24258232381E+02  0.00000000000E+00 0.  1.
<mgrwt>
<rscale>  1 0.12611054E+03</rscale>
<asrwt>0</asrwt>
<pdfrwt beam="1">  1       21 0.91208359E-02 0.12611054E+03</pdfrwt>
<pdfrwt beam="2">  1       21 0.16455260E-01 0.12611054E+03</pdfrwt>
<totfact> 0.31247569E+06</totfact>
</mgrwt>
</event>
<event>
 6    1  0.4241465E-002  0.1275301E+03  0.7546771E-02  0.1231167E+00
         21   -1    0    0  503  502  0.00000000000E+00  0.00000000000E+00  0.20194743383E+03  0.20194743383E+03  0.00000000000E+00 0.  1.
         21   -1    0    0  504  503 -0.00000000000E+00 -0.00000000000E+00 -0.34955656488E+02  0.34955656488E+02  0.00000000000E+00 0.  1.
         25    2    1    2    0    0  0.17971860457E+02  0.17750614010E+02  0.90580714520E+02  0.15642500269E+03  0.12500337419E+03 0.  0.
          5    1    3    3  501    0  0.90163819431E+00  0.15728237848E+02 -0.30394357257E+02  0.34234739232E+02  0.10000000000E+00 0. -1.
         -5    1    3    3    0  501  0.17070222262E+02  0.20223761621E+01  0.12097507178E+03  0.12219026346E+03  0.10000000000E+00 0. -1.
         21    1    1    2  504  502 -0.17971860457E+02 -0.17750614010E+02  0.76411062825E+02  0.80478087626E+02  0.00000000000E+00 0.  1.
<mgrwt>
<rscale>  1 0.12753006E+03</rscale>
<asrwt>0</asrwt>
<pdfrwt beam="1">  1       21 0.31068835E-01 0.12753006E+03</pdfrwt>
<pdfrwt beam="2">  1       21 0.53777934E-02 0.12753006E+03</pdfrwt>
<totfact> 0.23482326E+06</totfact>
</mgrwt>
</event>
<event>
 6    1  0.4241465E-002  0.1272193E+03  0.7546771E-02  0.1231641E+00
         21   -1    0    0  504  502  0.00000000000E+00  0.00000000000E+00  0.71350300827E+01  0.71350300827E+01  0.00000000000E+00 0.  1.
         21   -1    0    0  502  503 -0.00000000000E+00 -0.00000000000E+00 -0.15903795293E+04  0.15903795293E+04  0.00000000000E+00 0.  1.
         25    2    1    2    0    0 -0.23667128713E+02  0.49298132518E+00 -0.15569309330E+04  0.15621199302E+04  0.12499747988E+03 0.  0.
          5    1    3    3  501    0 -0.37827864115E+02  0.34004366798E+02 -0.14040068851E+04  0.14049279653E+04  0.10000000000E+00 0.  1.
         -5    1    3    3    0  501  0.14160735402E+02 -0.33511385473E+02 -0.15292404793E+03  0.15719196487E+03  0.10000000000E+00 0.  1.
         21    1    1    2  504  503  0.23667128713E+02 -0.49298132518E+00 -0.26313566190E+02  0.35394629221E+02  0.00000000000E+00 0.  1.
<mgrwt>
<rscale>  1 0.12721928E+03</rscale>
<asrwt>0</asrwt>
<pdfrwt beam="1">  1       21 0.10976964E-02 0.12721928E+03</pdfrwt>
<pdfrwt beam="2">  1       21 0.24467390E+00 0.12721928E+03</pdfrwt>
<totfact> 0.24100203E+05</totfact>
</mgrwt>
</event>
<event>
 6    1  0.4241465E-002  0.1268782E+03  0.7546771E-02  0.1232163E+00
         21   -1    0    0  504  502  0.00000000000E+00  0.00000000000E+00  0.21390854084E+02  0.21390854084E+02  0.00000000000E+00 0.  1.
         21   -1    0    0  502  503 -0.00000000000E+00 -0.00000000000E+00 -0.28499278355E+03  0.28499278355E+03  0.00000000000E+00 0.  1.
         25    2    1    2    0    0 -0.20091592826E+02  0.83296506418E+01 -0.25100290670E+03  0.28124819340E+03  0.12500012775E+03 0.  0.
          5    1    3    3  501    0  0.44603024821E+02  0.13991307519E+02 -0.17568858576E+03  0.18180119823E+03  0.10000000000E+00 0.  1.
         -5    1    3    3    0  501 -0.64694617647E+02 -0.56616568769E+01 -0.75314320935E+02  0.99446995173E+02  0.10000000000E+00 0.  1.
         21    1    1    2  504  503  0.20091592826E+02 -0.83296506418E+01 -0.12599022765E+02  0.25135444231E+02  0.00000000000E+00 0.  1.
<mgrwt>
<rscale>  1 0.12687824E+03</rscale>
<asrwt>0</asrwt>
<pdfrwt beam="1">  1       21 0.32909008E-02 0.12687824E+03</pdfrwt>
<pdfrwt beam="2">  1       21 0.43845042E-01 0.12687824E+03</pdfrwt>
<totfact> 0.26909574E+06</totfact>
</mgrwt>
</event>
<event>
 6    1  0.4241465E-002  0.1308897E+03  0.7546771E-02  0.1226141E+00
         21   -1    0    0  504  502  0.00000000000E+00  0.00000000000E+00  0.44032829460E+01  0.44032829460E+01  0.00000000000E+00 0.  1.
         21   -1    0    0  502  503 -0.00000000000E+00 -0.00000000000E+00 -0.18271196099E+04  0.18271196099E+04  0.00000000000E+00 0.  1.
         25    2    1    2    0    0  0.83991521155E+01  0.37895254310E+02 -0.16086355218E+04  0.16139517845E+04  0.12500209842E+03 0.  0.
          5    1    3    3  501    0  0.49572704714E+01 -0.16164104737E+02 -0.13295732648E+04  0.13296807621E+04  0.10000000000E+00 0.  1.
         -5    1    3    3    0  501  0.34418816441E+01  0.54059359048E+02 -0.27906225701E+03  0.28427102233E+03  0.10000000000E+00 0.  1.
         21    1    1    2  504  503 -0.83991521155E+01 -0.37895254310E+02 -0.21408080516E+03  0.21757110836E+03  0.00000000000E+00 0.  1.
<mgrwt>
<rscale>  1 0.13088973E+03</rscale>
<asrwt>0</asrwt>
<pdfrwt beam="1">  1       21 0.67742766E-03 0.13088973E+03</pdfrwt>
<pdfrwt beam="2">  1       21 0.28109552E+00 0.13088973E+03</pdfrwt>
<totfact> 0.31812308E+05</totfact>
</mgrwt>
</event>
<event>
 6    1  0.4241465E-002  0.1299247E+03  0.7546771E-02  0.1227567E+00
         21   -1    0    0  503  502  0.00000000000E+00  0.00000000000E+00  0.89304513464E+02  0.89304513464E+02  0.00000000000E+00 0. -1.
         21   -1    0    0  504  503 -0.00000000000E+00 -0.00000000000E+00 -0.78326797117E+02  0.78326797117E+02  0.00000000000E+00 0. -1.
         25    2    1    2    0    0  0.21453062661E+01 -0.35364993966E+02 -0.18857681488E+01  0.12993841509E+03  0.12500060183E+03 0.  0.
          5    1    3    3  501    0  0.20560980011E+02 -0.32319188377E+02 -0.58724458003E+02  0.70113164271E+02  0.10000000000E+00 0.  1.
         -5    1    3    3    0  501 -0.18415673745E+02 -0.30458055885E+01  0.56838689854E+02  0.59825250818E+02  0.10000000000E+00 0.  1.
         21    1    1    2  504  502 -0.21453062661E+01  0.35364993966E+02  0.12863484496E+02  0.37692895492E+02  0.00000000000E+00 0. -1.
<mgrwt>
<rscale>  1 0.12992473E+03</rscale>
<asrwt>0</asrwt>
<pdfrwt beam="1">  1       21 0.13739156E-01 0.12992473E+03</pdfrwt>
<pdfrwt beam="2">  1       21 0.12050276E-01 0.12992473E+03</pdfrwt>
<totfact> 0.26564122E+06</totfact>
</mgrwt>
</event>
<event>
 6    1  0.4241465E-002  0.1271030E+03  0.7546771E-02  0.1231819E+00
         21   -1    0    0  504  502  0.00000000000E+00  0.00000000000E+00  0.31320126311E+02  0.31320126311E+02  0.00000000000E+00 0.  1.
         21   -1    0    0  502  503 -0.00000000000E+00 -0.00000000000E+00 -0.18114528226E+03  0.18114528226E+03  0.00000000000E+00 0.  1.
         25    2    1    2    0    0 -0.20670145493E+02  0.11247221225E+02 -0.12730793607E+03  0.17989578942E+03  0.12490568269E+03 0.  0.
          5    1    3    3  501    0  0.40261139616E+02 -0.23059285389E+02 -0.17244493202E+02  0.49498207560E+02  0.10000000000E+00 0.  1.
         -5    1    3    3    0  501 -0.60931285109E+02  0.34306506614E+02 -0.11006344286E+03  0.13039758186E+03  0.10000000000E+00 0.  1.
         21    1    1    2  504  503  0.20670145493E+02 -0.11247221225E+02 -0.22517219879E+02  0.32569619142E+02  0.00000000000E+00 0. -1.
<mgrwt>
<rscale>  1 0.12710305E+03</rscale>
<asrwt>0</asrwt>
<pdfrwt beam="1">  1       21 0.48184809E-02 0.12710305E+03</pdfrwt>
<pdfrwt beam="2">  1       21 0.27868505E-01 0.12710305E+03</pdfrwt>
<totfact> 0.34807835E+06</totfact>
</mgrwt>
</event>
<event>
 6    1  0.4241465E-002  0.1555542E+03  0.7546771E-02  0.1193809E+00
         21   -1    0    0  504  502  0.00000000000E+00  0.00000000000E+00  0.20548611428E+03  0.20548611428E+03  0.00000000000E+00 0.  1.
         21   -1    0    0  502  503 -0.00000000000E+00 -0.00000000000E+00 -0.10585500819E+03  0.10585500819E+03  0.00000000000E+00 0.  1.
         25    2    1    2    0    0 -0.32760581917E+02  0.86586347713E+02 -0.23469250751E+02  0.15731466632E+03  0.12500658851E+03 0.  0.
          5    1    3    3  501    0 -0.53309307111E+02  0.67965975950E+02 -0.64492150850E+02  0.10779843984E+03  0.10000000000E+00 0. -1.
         -5    1    3    3    0  501  0.20548725195E+02  0.18620371763E+02  0.41022900099E+02  0.49516226474E+02  0.10000000000E+00 0. -1.
         21    1    1    2  504  503  0.32760581917E+02 -0.86586347713E+02  0.12310035684E+03  0.15402645614E+03  0.00000000000E+00 0.  1.
<mgrwt>
<rscale>  1 0.15555417E+03</rscale>
<asrwt>0</asrwt>
<pdfrwt beam="1">  1       21 0.31613248E-01 0.15555417E+03</pdfrwt>
<pdfrwt beam="2">  1       21 0.16285386E-01 0.15555417E+03</pdfrwt>
<totfact> 0.32734415E+05</totfact>
</mgrwt>
</event>
<event>
 6    1  0.4241465E-002  0.1305284E+03  0.7546771E-02  0.1226674E+00
         21   -1    0    0  504  502  0.00000000000E+00  0.00000000000E+00  0.81241944050E+02  0.81241944050E+02  0.00000000000E+00 0.  1.
         21   -1    0    0  502  503 -0.00000000000E+00 -0.00000000000E+00 -0.16961620848E+03  0.16961620848E+03  0.00000000000E+00 0.  1.
         25    2    1    2    0    0  0.29382303561E+02  0.23357404103E+02 -0.13713458106E+03  0.18932396231E+03  0.12501512425E+03 0.  0.
          5    1    3    3  501    0  0.72407113822E+02  0.38981456855E+02 -0.69572260535E+02  0.10771561422E+03  0.10000000000E+00 0. -1.
         -5    1    3    3    0  501 -0.43024810260E+02 -0.15624052752E+02 -0.67562320528E+02  0.81608348087E+02  0.10000000000E+00 0. -1.
         21    1    1    2  504  503 -0.29382303561E+02 -0.23357404103E+02  0.48760316630E+02  0.61534190227E+02  0.00000000000E+00 0.  1.
<mgrwt>
<rscale>  1 0.13052842E+03</rscale>
<asrwt>0</asrwt>
<pdfrwt beam="1">  1       21 0.12498761E-01 0.13052842E+03</pdfrwt>
<pdfrwt beam="2">  1       21 0.26094801E-01 0.13052842E+03</pdfrwt>
<totfact> 0.76412614E+05</totfact>
</mgrwt>
</event>
<event>
 6    1  0.4241465E-002  0.1484282E+03  0.7546771E-02  0.1202418E+00
         21   -1    0    0  504  502  0.00000000000E+00  0.00000000000E+00  0.16528199149E+03  0.16528199149E+03  0.00000000000E+00 0.  1.
         21   -1    0    0  502  503 -0.00000000000E+00 -0.00000000000E+00 -0.13465622026E+03  0.13465622026E+03  0.00000000000E+00 0. -1.
         25    2    1    2    0    0 -0.35118299668E+02  0.71927722678E+02 -0.75886607017E+02  0.16670240958E+03  0.12499609583E+03 0.  0.
          5    1    3    3  501    0 -0.78129899228E+02  0.43630919499E+02 -0.21954120867E+02  0.92140825440E+02  0.10000000000E+00 0.  1.
         -5    1    3    3    0  501  0.43011599560E+02  0.28296803179E+02 -0.53932486150E+02  0.74561584138E+02  0.10000000000E+00 0.  1.
         21    1    1    2  504  503  0.35118299668E+02 -0.71927722678E+02  0.10651237825E+03  0.13323580218E+03  0.00000000000E+00 0.  1.
<mgrwt>
<rscale>  1 0.14842815E+03</rscale>
<asrwt>0</asrwt>
<pdfrwt beam="1">  1       21 0.25427999E-01 0.14842815E+03</pdfrwt>
<pdfrwt beam="2">  1       21 0.20716342E-01 0.14842815E+03</pdfrwt>
<totfact> 0.31985864E+05</totfact>
</mgrwt>
</event>
<event>
 6    1  0.4241465E-002  0.1360571E+03  0.7546771E-02  0.1218735E+00
         21   -1    0    0  504  502  0.00000000000E+00  0.00000000000E+00  0.70545113536E+02  0.70545113536E+02  0.00000000000E+00 0. -1.
         21   -1    0    0  502  503 -0.00000000000E+00 -0.00000000000E+00 -0.23279136306E+03  0.23279136306E+03  0.00000000000E+00 0. -1.
         25    2    1    2    0    0 -0.16905205552E+02 -0.51037640488E+02 -0.19692693025E+03  0.23935697724E+03  0.12498367884E+03 0.  0.
          5    1    3    3  501    0 -0.56086806061E+02 -0.23141366952E+02 -0.34152614835E+02  0.69625166274E+02  0.10000000000E+00 0.  1.
         -5    1    3    3    0  501  0.39181600510E+02 -0.27896273536E+02 -0.16277431542E+03  0.16973181097E+03  0.10000000000E+00 0.  1.
         21    1    1    2  504  503  0.16905205552E+02  0.51037640488E+02  0.34680680729E+02  0.63979499350E+02  0.00000000000E+00 0. -1.
<mgrwt>
<rscale>  1 0.13605714E+03</rscale>
<asrwt>0</asrwt>
<pdfrwt beam="1">  1       21 0.10853094E-01 0.13605714E+03</pdfrwt>
<pdfrwt beam="2">  1       21 0.35814056E-01 0.13605714E+03</pdfrwt>
<totfact> 0.53146725E+05</totfact>
</mgrwt>
</event>
<event>
 6    1  0.4241465E-002  0.1281346E+03  0.7546771E-02  0.1230250E+00
         21   -1    0    0  504  502  0.00000000000E+00  0.00000000000E+00  0.31632556139E+02  0.31632556139E+02  0.00000000000E+00 0.  1.
         21   -1    0    0  502  503 -0.00000000000E+00 -0.00000000000E+00 -0.31670581024E+03  0.31670581024E+03  0.00000000000E+00 0.  1.
         25    2    1    2    0    0  0.16731682337E+02  0.22654842390E+02 -0.29239493798E+03  0.31923857029E+03  0.12500109569E+03 0.  0.
          5    1    3    3  501    0  0.71371946422E+02  0.14904273737E+02 -0.17014289502E+03  0.18510728467E+03  0.10000000000E+00 0. -1.
         -5    1    3    3    0  501 -0.54640264084E+02  0.77505686534E+01 -0.12225204296E+03  0.13413128562E+03  0.10000000000E+00 0. -1.
         21    1    1    2  504  503 -0.16731682337E+02 -0.22654842390E+02  0.73216838823E+01  0.29099796089E+02  0.00000000000E+00 0.  1.
<mgrwt>
<rscale>  1 0.12813456E+03</rscale>
<asrwt>0</asrwt>
<pdfrwt beam="1">  1       21 0.48665471E-02 0.12813456E+03</pdfrwt>
<pdfrwt beam="2">  1       21 0.48723971E-01 0.12813456E+03</pdfrwt>
<totfact> 0.11333017E+06</totfact>
</mgrwt>
</event>
<event>
 6    1  0.4241465E-002  0.1290523E+03  0.7546771E-02  0.1228869E+00
         21   -1    0    0  503  502  0.00000000000E+00  0.00000000000E+00  0.22546693740E+02  0.22546693740E+02  0.00000000000E+00 0. -1.
         21   -1    0    0  504  503 -0.00000000000E+00 -0.00000000000E+00 -0.29180187510E+03  0.29180187510E+03  0.00000000000E+00 0. -1.
         25    2    1    2    0    0 -0.12469244326E+02 -0.29710942785E+02 -0.22814540480E+03  0.26211605115E+03  0.12496510059E+03 0.  0.
          5    1    3    3  501    0 -0.41395034352E+02 -0.33707685729E+02 -0.22667725571E+03  0.23287839145E+03  0.10000000000E+00 0.  1.
         -5    1    3    3    0  501  0.28925790026E+02  0.39967429442E+01 -0.14681490809E+01  0.29237659697E+02  0.10000000000E+00 0.  1.
         21    1    1    2  504  502  0.12469244326E+02  0.29710942785E+02 -0.41109776561E+02  0.52232517689E+02  0.00000000000E+00 0. -1.
<mgrwt>
<rscale>  1 0.12905231E+03</rscale>
<asrwt>0</asrwt>
<pdfrwt beam="1">  1       21 0.34687223E-02 0.12905231E+03</pdfrwt>
<pdfrwt beam="2">  1       21 0.44892594E-01 0.12905231E+03</pdfrwt>
<totfact> 0.23532653E+06</totfact>
</mgrwt>
</event>
<event>
 6    1  0.4241465E-002  0.1265055E+03  0.7546771E-02  0.1232735E+00
         21   -1    0    0  503  502  0.00000000000E+00  0.00000000000E+00  0.62319395165E+03  0.62319395165E+03  0.00000000000E+00 0. -1.
         21   -1    0    0  504  503 -0.00000000000E+00 -0.00000000000E+00 -0.58329366056E+02  0.58329366056E+02  0.00000000000E+00 0.  1.
         25    2    1    2    0    0  0.18477392194E+02 -0.60574610691E+01  0.10633964867E+02  0.12695169221E+03  0.12500217634E+03 0.  0.
          5    1    3    3  501    0  0.21562836046E+02 -0.53519266208E+02 -0.29423038346E+02  0.64768765152E+02  0.10000000000E+00 0.  1.
         -5    1    3    3    0  501 -0.30854438514E+01  0.47461805139E+02  0.40057003213E+02  0.62182927056E+02  0.10000000000E+00 0.  1.
         21    1    1    2  504  502 -0.18477392194E+02  0.60574610691E+01  0.55423062072E+03  0.55457162549E+03  0.00000000000E+00 0. -1.
<mgrwt>
<rscale>  1 0.12650554E+03</rscale>
<asrwt>0</asrwt>
<pdfrwt beam="1">  1       21 0.95875988E-01 0.12650554E+03</pdfrwt>
<pdfrwt beam="2">  1       21 0.89737490E-02 0.12650554E+03</pdfrwt>
<totfact> 0.91620611E+04</totfact>
</mgrwt>
</event>
<event>
 6    1  0.4241465E-002  0.1259072E+03  0.7546771E-02  0.1233658E+00
         21   -1    0    0  504  502  0.00000000000E+00  0.00000000000E+00  0.38831032027E+03  0.38831032027E+03  0.00000000000E+00 0. -1.
         21   -1    0    0  502  503 -0.00000000000E+00 -0.00000000000E+00 -0.21350459556E+02  0.21350459556E+02  0.00000000000E+00 0. -1.
         25    2    1    2    0    0 -0.10941231059E+02 -0.10408075243E+02  0.16706789391E+03  0.20919922002E+03  0.12499837564E+03 0.  0.
          5    1    3    3  501    0  0.38003951778E+02 -0.34351726902E+02  0.13851216617E+03  0.14768199508E+03  0.10000000000E+00 0.  1.
         -5    1    3    3    0  501 -0.48945182837E+02  0.23943651659E+02  0.28555727733E+02  0.61517224938E+02  0.10000000000E+00 0.  1.
         21    1    1    2  504  503  0.10941231059E+02  0.10408075243E+02  0.19989196681E+03  0.20046155981E+03  0.00000000000E+00 0. -1.
<mgrwt>
<rscale>  1 0.12590724E+03</rscale>
<asrwt>0</asrwt>
<pdfrwt beam="1">  1       21 0.59740044E-01 0.12590724E+03</pdfrwt>
<pdfrwt beam="2">  1       21 0.32846864E-02 0.12590724E+03</pdfrwt>
<totfact> 0.14225963E+06</totfact>
</mgrwt>
</event>
<event>
 6    1  0.4241465E-002  0.1262491E+03  0.7546771E-02  0.1233130E+00
         21   -1    0    0  504  502  0.00000000000E+00  0.00000000000E+00  0.16620935041E+03  0.16620935041E+03  0.00000000000E+00 0. -1.
         21   -1    0    0  502  503 -0.00000000000E+00 -0.00000000000E+00 -0.42047278851E+02  0.42047278851E+02  0.00000000000E+00 0. -1.
         25    2    1    2    0    0  0.82890790593E+01  0.15660297573E+02  0.56503896851E+02  0.13831678113E+03  0.12499955132E+03 0.  0.
          5    1    3    3  501    0  0.52750731051E+02 -0.15088827206E+02  0.63372206614E+02  0.83823379221E+02  0.10000000000E+00 0.  1.
         -5    1    3    3    0  501 -0.44461651992E+02  0.30749124779E+02 -0.68683097638E+01  0.54493401908E+02  0.10000000000E+00 0.  1.
         21    1    1    2  504  503 -0.82890790593E+01 -0.15660297573E+02  0.67658174708E+02  0.69939848131E+02  0.00000000000E+00 0. -1.
<mgrwt>
<rscale>  1 0.12624913E+03</rscale>
<asrwt>0</asrwt>
<pdfrwt beam="1">  1       21 0.25570669E-01 0.12624913E+03</pdfrwt>
<pdfrwt beam="2">  1       21 0.64688122E-02 0.12624913E+03</pdfrwt>
<totfact> 0.24927246E+06</totfact>
</mgrwt>
</event>
<event>
 6    1  0.4241465E-002  0.1282324E+03  0.7546771E-02  0.1230102E+00
         21   -1    0    0  504  502  0.00000000000E+00  0.00000000000E+00  0.10588826298E+03  0.10588826298E+03  0.00000000000E+00 0. -1.
         21   -1    0    0  502  503 -0.00000000000E+00 -0.00000000000E+00 -0.60062825328E+02  0.60062825328E+02  0.00000000000E+00 0. -1.
         25    2    1    2    0    0 -0.27799092904E+02  0.66786021621E+01  0.48805515499E+02  0.13720610340E+03  0.12500457262E+03 0.  0.
          5    1    3    3  501    0  0.22979069488E+01 -0.45673595166E+02  0.60355753285E+02  0.75724399148E+02  0.10000000000E+00 0.  1.
         -5    1    3    3    0  501 -0.30096999853E+02  0.52352197328E+02 -0.11550237786E+02  0.61481704255E+02  0.10000000000E+00 0.  1.
         21    1    1    2  504  503  0.27799092904E+02 -0.66786021621E+01 -0.29800778485E+01  0.28744984904E+02  0.00000000000E+00 0. -1.
<mgrwt>
<rscale>  1 0.12823235E+03</rscale>
<asrwt>0</asrwt>
<pdfrwt beam="1">  1       21 0.16290502E-01 0.12823235E+03</pdfrwt>
<pdfrwt beam="2">  1       21 0.92404347E-02 0.12823235E+03</pdfrwt>
<totfact> 0.31131587E+06</totfact>
</mgrwt>
</event>
<event>
 6    1  0.4241465E-002  0.1292738E+03  0.7546771E-02  0.1228537E+00
         21   -1    0    0  503  502  0.00000000000E+00  0.00000000000E+00  0.32765885066E+03  0.32765885066E+03  0.00000000000E+00 0.  1.
         21   -1    0    0  504  503 -0.00000000000E+00 -0.00000000000E+00 -0.32010387059E+02  0.32010387059E+02  0.00000000000E+00 0.  1.
         25    2    1    2    0    0  0.91019762333E+01  0.31688830602E+02  0.10599854011E+03  0.16717476653E+03  0.12499873641E+03 0.  0.
          5    1    3    3  501    0 -0.45302346131E+02  0.53516051459E+02  0.65280092831E+02  0.95800682925E+02  0.10000000000E+00 0.  1.
         -5    1    3    3    0  501  0.54404322365E+02 -0.21827220858E+02  0.40718447278E+02  0.71374083609E+02  0.10000000000E+00 0.  1.
         21    1    1    2  504  502 -0.91019762333E+01 -0.31688830602E+02  0.18964992350E+03  0.19249447119E+03  0.00000000000E+00 0.  1.
<mgrwt>
<rscale>  1 0.12927379E+03</rscale>
<asrwt>0</asrwt>
<pdfrwt beam="1">  1       21 0.50409051E-01 0.12927379E+03</pdfrwt>
<pdfrwt beam="2">  1       21 0.49246752E-02 0.12927379E+03</pdfrwt>
<totfact> 0.10358770E+06</totfact>
</mgrwt>
</event>
<event>
 6    1  0.4241465E-002  0.1266486E+03  0.7546771E-02  0.1232515E+00
         21   -1    0    0  503  502  0.00000000000E+00  0.00000000000E+00  0.61871579752E+02  0.61871579752E+02  0.00000000000E+00 0.  1.
         21   -1    0    0  504  503 -0.00000000000E+00 -0.00000000000E+00 -0.88468015967E+02  0.88468015967E+02  0.00000000000E+00 0.  1.
         25    2    1    2    0    0 -0.20375743238E+02  0.87064730947E+00 -0.28629463364E+02  0.12984417821E+03  0.12499574195E+03 0.  0.
          5    1    3    3  501    0 -0.72858637617E+02 -0.45071241178E+01 -0.89899840460E+01  0.73549473529E+02  0.10000000000E+00 0. -1.
         -5    1    3    3    0  501  0.52482894378E+02  0.53777714272E+01 -0.19639479318E+02  0.56294704686E+02  0.10000000000E+00 0. -1.
         21    1    1    2  504  502  0.20375743238E+02 -0.87064730947E+00  0.20330271487E+01  0.20495417504E+02  0.00000000000E+00 0.  1.
<mgrwt>
<rscale>  1 0.12664859E+03</rscale>
<asrwt>0</asrwt>
<pdfrwt beam="1">  1       21 0.95187046E-02 0.12664859E+03</pdfrwt>
<pdfrwt beam="2">  1       21 0.13610464E-01 0.12664859E+03</pdfrwt>
<totfact> 0.40844173E+06</totfact>
</mgrwt>
</event>
<event>
 6    1  0.4241465E-002  0.1426039E+03  0.7546771E-02  0.1209868E+00
         21   -1    0    0  504  502  0.00000000000E+00  0.00000000000E+00  0.10182467662E+03  0.10182467662E+03  0.00000000000E+00 0.  1.
         21   -1    0    0  502  503 -0.00000000000E+00 -0.00000000000E+00 -0.18390436449E+03  0.18390436449E+03  0.00000000000E+00 0.  1.
         25    2    1    2    0    0 -0.50562488440E+02  0.46421298102E+02 -0.13705459593E+03  0.19778734071E+03  0.12499747087E+03 0.  0.
          5    1    3    3  501    0 -0.77310767742E+02  0.13221240365E+01 -0.11980097219E+03  0.14258676572E+03  0.10000000000E+00 0. -1.
         -5    1    3    3    0  501  0.26748279301E+02  0.45099174066E+02 -0.17253623741E+02  0.55200574990E+02  0.10000000000E+00 0. -1.
         21    1    1    2  504  503  0.50562488440E+02 -0.46421298102E+02  0.54974908057E+02  0.87941700408E+02  0.00000000000E+00 0.  1.
<mgrwt>
<rscale>  1 0.14260389E+03</rscale>
<asrwt>0</asrwt>
<pdfrwt beam="1">  1       21 0.15665335E-01 0.14260389E+03</pdfrwt>
<pdfrwt beam="2">  1       21 0.28292979E-01 0.14260389E+03</pdfrwt>
<totfact> 0.43619801E+05</totfact>
</mgrwt>
</event>
<event>
 6    1  0.4241465E-002  0.1262873E+03  0.7546771E-02  0.1233071E+00
         21   -1    0    0  503  502  0.00000000000E+00  0.00000000000E+00  0.11967516672E+03  0.11967516672E+03  0.00000000000E+00 0. -1.
         21   -1    0    0  504  503 -0.00000000000E+00 -0.00000000000E+00 -0.10441015333E+03  0.10441015333E+03  0.00000000000E+00 0. -1.
         25    2    1    2    0    0  0.11697724148E+02 -0.13622429996E+02 -0.64862574922E+02  0.14197053602E+03  0.12500428842E+03 0.  0.
          5    1    3    3  501    0 -0.20300181305E+02 -0.63701212329E+02 -0.34060613924E+02  0.75033840593E+02  0.10000000000E+00 0.  1.
         -5    1    3    3    0  501  0.31997905453E+02  0.50078782333E+02 -0.30801960998E+02  0.66936695427E+02  0.10000000000E+00 0.  1.
         21    1    1    2  504  502 -0.11697724148E+02  0.13622429996E+02  0.80127588309E+02  0.82114784038E+02  0.00000000000E+00 0. -1.
<mgrwt>
<rscale>  1 0.12628729E+03</rscale>
<asrwt>0</asrwt>
<pdfrwt beam="1">  1       21 0.18411564E-01 0.12628729E+03</pdfrwt>
<pdfrwt beam="2">  1       21 0.16063100E-01 0.12628729E+03</pdfrwt>
<totfact> 0.93341877E+05</totfact>
</mgrwt>
</event>
<event>
 6    1  0.4241465E-002  0.1518657E+03  0.7546771E-02  0.1198199E+00
         21   -1    0    0  503  502  0.00000000000E+00  0.00000000000E+00  0.32596779108E+02  0.32596779108E+02  0.00000000000E+00 0.  1.
         21   -1    0    0  504  503 -0.00000000000E+00 -0.00000000000E+00 -0.44413984223E+03  0.44413984223E+03  0.00000000000E+00 0.  1.
         25    2    1    2    0    0  0.49197944596E+02  0.70827841629E+02 -0.22805513440E+03  0.27399333320E+03  0.12500472553E+03 0.  0.
          5    1    3    3  501    0  0.29215632542E+02  0.10543395006E+03 -0.14330743543E+03  0.18029670563E+03  0.10000000000E+00 0.  1.
         -5    1    3    3    0  501  0.19982312054E+02 -0.34606108434E+02 -0.84747698978E+02  0.93696627570E+02  0.10000000000E+00 0.  1.
         21    1    1    2  504  502 -0.49197944596E+02 -0.70827841629E+02 -0.18348792872E+03  0.20274328815E+03  0.00000000000E+00 0.  1.
<mgrwt>
<rscale>  1 0.15186574E+03</rscale>
<asrwt>0</asrwt>
<pdfrwt beam="1">  1       21 0.50148894E-02 0.15186574E+03</pdfrwt>
<pdfrwt beam="2">  1       21 0.68329203E-01 0.15186574E+03</pdfrwt>
<totfact> 0.52655455E+05</totfact>
</mgrwt>
</event>
<event>
 6    1  0.4241465E-002  0.1292041E+03  0.7546771E-02  0.1228641E+00
         21   -1    0    0  504  502  0.00000000000E+00  0.00000000000E+00  0.45626878328E+02  0.45626878328E+02  0.00000000000E+00 0. -1.
         21   -1    0    0  502  503 -0.00000000000E+00 -0.00000000000E+00 -0.34396405275E+03  0.34396405275E+03  0.00000000000E+00 0. -1.
         25    2    1    2    0    0 -0.21063016364E+02  0.24967779282E+02 -0.32350642677E+03  0.34835342480E+03  0.12500663880E+03 0.  0.
          5    1    3    3  501    0 -0.70786379926E+02  0.33713482719E+02 -0.20844110066E+03  0.22269937796E+03  0.10000000000E+00 0.  1.
         -5    1    3    3    0  501  0.49723363562E+02 -0.87457034365E+01 -0.11506532611E+03  0.12565404683E+03  0.10000000000E+00 0.  1.
         21    1    1    2  504  503  0.21063016364E+02 -0.24967779282E+02  0.25169252349E+02  0.41237506283E+02  0.00000000000E+00 0. -1.
<mgrwt>
<rscale>  1 0.12920410E+03</rscale>
<asrwt>0</asrwt>
<pdfrwt beam="1">  1       21 0.70195196E-02 0.12920410E+03</pdfrwt>
<pdfrwt beam="2">  1       21 0.52917548E-01 0.12920410E+03</pdfrwt>
<totfact> 0.51380854E+05</totfact>
</mgrwt>
</event>
<event>
 6    1  0.4241465E-002  0.1275294E+03  0.7546771E-02  0.1231168E+00
         21   -1    0    0  503  502  0.00000000000E+00  0.00000000000E+00  0.14633753541E+03  0.14633753541E+03  0.00000000000E+00 0.  1.
         21   -1    0    0  504  503 -0.00000000000E+00 -0.00000000000E+00 -0.66011361958E+02  0.66011361958E+02  0.00000000000E+00 0.  1.
         25    2    1    2    0    0 -0.91210873863E+01 -0.23522637413E+02 -0.65260216845E+00  0.12753102893E+03  0.12500891466E+03 0.  0.
          5    1    3    3  501    0 -0.49701012100E+02 -0.48891098003E+02  0.23954771475E+02  0.73718187336E+02  0.10000000000E+00 0.  1.
         -5    1    3    3    0  501  0.40579924714E+02  0.25368460589E+02 -0.24607373643E+02  0.53812841591E+02  0.10000000000E+00 0.  1.
         21    1    1    2  504  502  0.91210873863E+01  0.23522637413E+02  0.80978775622E+02  0.84817868443E+02  0.00000000000E+00 0.  1.
<mgrwt>
<rscale>  1 0.12752936E+03</rscale>
<asrwt>0</asrwt>
<pdfrwt beam="1">  1       21 0.22513467E-01 0.12752936E+03</pdfrwt>
<pdfrwt beam="2">  1       21 0.10155594E-01 0.12752936E+03</pdfrwt>
<totfact> 0.14549436E+06</totfact>
</mgrwt>
</event>
<event>
 6    1  0.4241465E-002  0.1276749E+03  0.7546771E-02  0.1230947E+00
         21   -1    0    0  504  502  0.00000000000E+00  0.00000000000E+00  0.21085738611E+02  0.21085738611E+02  0.00000000000E+00 0.  1.
         21   -1    0    0  502  503 -0.00000000000E+00 -0.00000000000E+00 -0.70158520165E+03  0.70158520165E+03  0.00000000000E+00 0. -1.
         25    2    1    2    0    0  0.24124605818E+02  0.97277980882E+01 -0.68454201456E+03  0.69634663810E+03  0.12499697609E+03 0.  0.
          5    1    3    3  501    0  0.94256962864E+01 -0.23358685555E+02 -0.63220978936E+03  0.63271138737E+03  0.10000000000E+00 0.  1.
         -5    1    3    3    0  501  0.14698909532E+02  0.33086483644E+02 -0.52332225198E+02  0.63635250730E+02  0.10000000000E+00 0.  1.
         21    1    1    2  504  503 -0.24124605818E+02 -0.97277980882E+01  0.40425515204E+01  0.26324302162E+02  0.00000000000E+00 0.  1.
<mgrwt>
<rscale>  1 0.12767486E+03</rscale>
<asrwt>0</asrwt>
<pdfrwt beam="1">  1       21 0.32439597E-02 0.12767486E+03</pdfrwt>
<pdfrwt beam="2">  1       21 0.10793619E+00 0.12767486E+03</pdfrwt>
<totfact> 0.38584052E+05</totfact>
</mgrwt>
</event>
<event>
 6    1  0.4241465E-002  0.1494543E+03  0.7546771E-02  0.1201145E+00
         21   -1    0    0  504  502  0.00000000000E+00  0.00000000000E+00  0.29953075588E+02  0.29953075588E+02  0.00000000000E+00 0. -1.
         21   -1    0    0  502  503 -0.00000000000E+00 -0.00000000000E+00 -0.44855490562E+03  0.44855490562E+03  0.00000000000E+00 0. -1.
         25    2    1    2    0    0 -0.72370200689E+02 -0.38382004010E+02 -0.25588084658E+03  0.29633020365E+03  0.12500383102E+03 0.  0.
          5    1    3    3  501    0  0.17343831456E+02 -0.43336111099E+02 -0.15188327398E+03  0.15889419728E+03  0.10000000000E+00 0. -1.
         -5    1    3    3    0  501 -0.89714032145E+02  0.49541070883E+01 -0.10399757260E+03  0.13743600637E+03  0.10000000000E+00 0. -1.
         21    1    1    2  504  503  0.72370200689E+02  0.38382004010E+02 -0.16272098345E+03  0.18217777755E+03  0.00000000000E+00 0. -1.
<mgrwt>
<rscale>  1 0.14945428E+03</rscale>
<asrwt>0</asrwt>
<pdfrwt beam="1">  1       21 0.46081656E-02 0.14945428E+03</pdfrwt>
<pdfrwt beam="2">  1       21 0.69008446E-01 0.14945428E+03</pdfrwt>
<totfact> 0.59425276E+05</totfact>
</mgrwt>
</event>
<event>
 6    1  0.4241465E-002  0.1276649E+03  0.7546771E-02  0.1230962E+00
         21   -1    0    0  503  502  0.00000000000E+00  0.00000000000E+00  0.10554972374E+03  0.10554972374E+03  0.00000000000E+00 0.  1.
         21   -1    0    0  504  503 -0.00000000000E+00 -0.00000000000E+00 -0.64344279724E+02  0.64344279724E+02  0.00000000000E+00 0.  1.
         25    2    1    2    0    0 -0.12153265446E+02 -0.22966202584E+02  0.82554984495E+01  0.12793155317E+03  0.12499272266E+03 0.  0.
          5    1    3    3  501    0 -0.16734049057E+02 -0.53269600290E+02 -0.41448015206E+02  0.69538670374E+02  0.10000000000E+00 0. -1.
         -5    1    3    3    0  501  0.45807836115E+01  0.30303397706E+02  0.49703513655E+02  0.58392882792E+02  0.10000000000E+00 0. -1.
         21    1    1    2  504  502  0.12153265446E+02  0.22966202584E+02  0.32949945565E+02  0.41962450296E+02  0.00000000000E+00 0.  1.
<mgrwt>
<rscale>  1 0.12766491E+03</rscale>
<asrwt>0</asrwt>
<pdfrwt beam="1">  1       21 0.16238419E-01 0.12766491E+03</pdfrwt>
<pdfrwt beam="2">  1       21 0.98991199E-02 0.12766491E+03</pdfrwt>
<totfact> 0.27765140E+06</totfact>
</mgrwt>
</event>
<event>
 6    1  0.4241465E-002  0.1292520E+03  0.7546771E-02  0.1228570E+00
         21   -1    0    0  503  502  0.00000000000E+00  0.00000000000E+00  0.15757634349E+03  0.15757634349E+03  0.00000000000E+00 0.  1.
         21   -1    0    0  504  503 -0.00000000000E+00 -0.00000000000E+00 -0.18897345685E+03  0.18897345685E+03  0.00000000000E+00 0.  1.
         25    2    1    2    0    0  0.17286245080E+02 -0.27969637281E+02 -0.16463759521E+03  0.20931226581E+03  0.12499988794E+03 0.  0.
          5    1    3    3  501    0  0.66958897259E+02 -0.40040398942E+02 -0.95096754963E+02  0.12300459452E+03  0.10000000000E+00 0.  1.
         -5    1    3    3    0  501 -0.49672652179E+02  0.12070761661E+02 -0.69540840242E+02  0.86307671288E+02  0.10000000000E+00 0.  1.
         21    1    1    2  504  502 -0.17286245080E+02  0.27969637281E+02  0.13324048185E+03  0.13723753452E+03  0.00000000000E+00 0.  1.
<mgrwt>
<rscale>  1 0.12925203E+03</rscale>
<asrwt>0</asrwt>
<pdfrwt beam="1">  1       21 0.24242514E-01 0.12925203E+03</pdfrwt>
<pdfrwt beam="2">  1       21 0.29072839E-01 0.12925203E+03</pdfrwt>
<totfact> 0.18525344E+05</totfact>
</mgrwt>
</event>
<event>
 6    1  0.4241465E-002  0.1308197E+03  0.7546771E-02  0.1226244E+00
         21   -1    0    0  503  502  0.00000000000E+00  0.00000000000E+00  0.10677823103E+04  0.10677823103E+04  0.00000000000E+00 0.  1.
         21   -1    0    0  504  503 -0.00000000000E+00 -0.00000000000E+00 -0.93675016364E+01  0.93675016364E+01  0.00000000000E+00 0. -1.
         25    2    1    2    0    0  0.18646037591E+02 -0.33699171395E+02  0.48162449234E+03  0.49907509542E+03  0.12502195958E+03 0.  0.
          5    1    3    3  501    0  0.87707952513E+01 -0.13775164241E+02 -0.59654802702E+00  0.16341599333E+02  0.10000000000E+00 0.  1.
         -5    1    3    3    0  501  0.98752423393E+01 -0.19924007154E+02  0.48222104037E+03  0.48273349609E+03  0.10000000000E+00 0.  1.
         21    1    1    2  504  502 -0.18646037591E+02  0.33699171395E+02  0.57679031630E+03  0.57807471649E+03  0.00000000000E+00 0.  1.
<mgrwt>
<rscale>  1 0.13081972E+03</rscale>
<asrwt>0</asrwt>
<pdfrwt beam="1">  1       21 0.16427411E+00 0.13081972E+03</pdfrwt>
<pdfrwt beam="2">  1       21 0.14411549E-02 0.13081972E+03</pdfrwt>
<totfact> 0.49946962E+05</totfact>
</mgrwt>
</event>
<event>
 6    1  0.4241465E-002  0.1274847E+03  0.7546771E-02  0.1231236E+00
         21   -1    0    0  503  502  0.00000000000E+00  0.00000000000E+00  0.25271031993E+01  0.25271031993E+01  0.00000000000E+00 0.  1.
         21   -1    0    0  504  503 -0.00000000000E+00 -0.00000000000E+00 -0.23910292882E+04  0.23910292882E+04  0.00000000000E+00 0.  1.
         25    2    1    2    0    0 -0.16060655642E+02 -0.19157910416E+02 -0.21418182004E+04  0.21456089001E+04  0.12500951309E+03 0.  0.
          5    1    3    3  501    0 -0.53154408536E+02 -0.43642089966E+02 -0.76839543237E+03  0.77146715656E+03  0.10000000000E+00 0.  1.
         -5    1    3    3    0  501  0.37093752894E+02  0.24484179551E+02 -0.13734227681E+04  0.13741417436E+04  0.10000000000E+00 0.  1.
         21    1    1    2  504  502  0.16060655642E+02  0.19157910416E+02 -0.24668398458E+03  0.24794749130E+03  0.00000000000E+00 0.  1.
<mgrwt>
<rscale>  1 0.12748470E+03</rscale>
<asrwt>0</asrwt>
<pdfrwt beam="1">  1       21 0.38878610E-03 0.12748470E+03</pdfrwt>
<pdfrwt beam="2">  1       21 0.36784972E+00 0.12748470E+03</pdfrwt>
<totfact> 0.24158889E+05</totfact>
</mgrwt>
</event>
<event>
 6    1  0.4241465E-002  0.1260033E+03  0.7546771E-02  0.1233510E+00
         21   -1    0    0  503  502  0.00000000000E+00  0.00000000000E+00  0.32207367035E+02  0.32207367035E+02  0.00000000000E+00 0.  1.
         21   -1    0    0  504  503 -0.00000000000E+00 -0.00000000000E+00 -0.16060404468E+03  0.16060404468E+03  0.00000000000E+00 0.  1.
         25    2    1    2    0    0 -0.11220524581E+02 -0.11218613365E+02 -0.12291212436E+03  0.17602338674E+03  0.12500033963E+03 0.  0.
          5    1    3    3  501    0  0.40207836434E+02  0.37248445112E+02 -0.45787321579E+02  0.71418524147E+02  0.10000000000E+00 0. -1.
         -5    1    3    3    0  501 -0.51428361015E+02 -0.48467058477E+02 -0.77124802784E+02  0.10460486260E+03  0.10000000000E+00 0. -1.
         21    1    1    2  504  502  0.11220524581E+02  0.11218613365E+02 -0.54845532793E+01  0.16788024969E+02  0.00000000000E+00 0. -1.
<mgrwt>
<rscale>  1 0.12600334E+03</rscale>
<asrwt>0</asrwt>
<pdfrwt beam="1">  1       21 0.49549795E-02 0.12600334E+03</pdfrwt>
<pdfrwt beam="2">  1       21 0.24708315E-01 0.12600334E+03</pdfrwt>
<totfact> 0.41726628E+06</totfact>
</mgrwt>
</event>
<event>
 6    1  0.4241465E-002  0.1342183E+03  0.7546771E-02  0.1221327E+00
         21   -1    0    0  504  502  0.00000000000E+00  0.00000000000E+00  0.32463814555E+03  0.32463814555E+03  0.00000000000E+00 0. -1.
         21   -1    0    0  502  503 -0.00000000000E+00 -0.00000000000E+00 -0.31945401044E+02  0.31945401044E+02  0.00000000000E+00 0. -1.
         25    2    1    2    0    0 -0.42073960427E+02  0.24963609749E+02  0.13061318862E+03  0.18728150173E+03  0.12498462262E+03 0.  0.
          5    1    3    3  501    0  0.43551050510E+02  0.21243055151E+02  0.44577616000E+02  0.65841743909E+02  0.10000000000E+00 0.  1.
         -5    1    3    3    0  501 -0.85625010937E+02  0.37205545978E+01  0.86035572619E+02  0.12143975782E+03  0.10000000000E+00 0.  1.
         21    1    1    2  504  503  0.42073960427E+02 -0.24963609749E+02  0.16207955589E+03  0.16930204486E+03  0.00000000000E+00 0. -1.
<mgrwt>
<rscale>  1 0.13421831E+03</rscale>
<asrwt>0</asrwt>
<pdfrwt beam="1">  1       21 0.49944328E-01 0.13421831E+03</pdfrwt>
<pdfrwt beam="2">  1       21 0.49146773E-02 0.13421831E+03</pdfrwt>
<totfact> 0.10597575E+06</totfact>
</mgrwt>
</event>
<event>
 6    1  0.4241465E-002  0.1426931E+03  0.7546771E-02  0.1209750E+00
         21   -1    0    0  503  502  0.00000000000E+00  0.00000000000E+00  0.19633287925E+04  0.19633287925E+04  0.00000000000E+00 0. -1.
         21   -1    0    0  504  503 -0.00000000000E+00 -0.00000000000E+00 -0.61611521016E+01  0.61611521016E+01  0.00000000000E+00 0. -1.
         25    2    1    2    0    0 -0.66943076518E+02  0.15980153571E+02  0.10399682703E+04  0.10497120228E+04  0.12499834766E+03 0.  0.
          5    1    3    3  501    0 -0.27178588167E+02  0.65854137119E+02  0.37622131314E+03  0.38290720741E+03  0.10000000000E+00 0.  1.
         -5    1    3    3    0  501 -0.39764488351E+02 -0.49873983548E+02  0.66374695713E+03  0.66680481542E+03  0.10000000000E+00 0.  1.
         21    1    1    2  504  502  0.66943076518E+02 -0.15980153571E+02  0.91719937013E+03  0.91977792177E+03  0.00000000000E+00 0. -1.
<mgrwt>
<rscale>  1 0.14269312E+03</rscale>
<asrwt>0</asrwt>
<pdfrwt beam="1">  1       21 0.30205008E+00 0.14269312E+03</pdfrwt>
<pdfrwt beam="2">  1       21 0.94787112E-03 0.14269312E+03</pdfrwt>
<totfact> 0.14170213E+05</totfact>
</mgrwt>
</event>
<event>
 6    1  0.4241465E-002  0.1261932E+03  0.7546771E-02  0.1233216E+00
         21   -1    0    0  503  502  0.00000000000E+00  0.00000000000E+00  0.13551510796E+04  0.13551510796E+04  0.00000000000E+00 0.  1.
         21   -1    0    0  504  503 -0.00000000000E+00 -0.00000000000E+00 -0.29384887642E+02  0.29384887642E+02  0.00000000000E+00 0. -1.
         25    2    1    2    0    0  0.17219173342E+02 -0.12787635116E+01  0.10644250671E+03  0.16509003381E+03  0.12500630729E+03 0.  0.
          5    1    3    3  501    0  0.38176444544E+02  0.34190239505E+02  0.31819281831E+00  0.51249630653E+02  0.10000000000E+00 0. -1.
         -5    1    3    3    0  501 -0.20957271203E+02 -0.35469003016E+02  0.10612431389E+03  0.11384040316E+03  0.10000000000E+00 0. -1.
         21    1    1    2  504  502 -0.17219173342E+02  0.12787635116E+01  0.12193236853E+04  0.12194459335E+04  0.00000000000E+00 0.  1.
<mgrwt>
<rscale>  1 0.12619315E+03</rscale>
<asrwt>0</asrwt>
<pdfrwt beam="1">  1       21 0.20848473E+00 0.12619315E+03</pdfrwt>
<pdfrwt beam="2">  1       21 0.45207530E-02 0.12619315E+03</pdfrwt>
<totfact> 0.39848372E+04</totfact>
</mgrwt>
</event>
<event>
 6    1  0.4241465E-002  0.1370265E+03  0.7546771E-02  0.1217387E+00
         21   -1    0    0  504  502  0.00000000000E+00  0.00000000000E+00  0.18483502798E+03  0.18483502798E+03  0.00000000000E+00 0. -1.
         21   -1    0    0  502  503 -0.00000000000E+00 -0.00000000000E+00 -0.53859708608E+02  0.53859708608E+02  0.00000000000E+00 0. -1.
         25    2    1    2    0    0  0.46387495881E+02 -0.31626887945E+02  0.11855337173E+03  0.18119374009E+03  0.12499683869E+03 0.  0.
          5    1    3    3  501    0  0.10260299678E+02 -0.71150359864E+02  0.10268107906E+03  0.12534377310E+03  0.10000000000E+00 0.  1.
         -5    1    3    3    0  501  0.36127196203E+02  0.39523471919E+02  0.15872292675E+02  0.55849966990E+02  0.10000000000E+00 0.  1.
         21    1    1    2  504  503 -0.46387495881E+02  0.31626887945E+02  0.12421947641E+02  0.57500996499E+02  0.00000000000E+00 0. -1.
<mgrwt>
<rscale>  1 0.13702653E+03</rscale>
<asrwt>0</asrwt>
<pdfrwt beam="1">  1       21 0.28436158E-01 0.13702653E+03</pdfrwt>
<pdfrwt beam="2">  1       21 0.82861091E-02 0.13702653E+03</pdfrwt>
<totfact> 0.13336419E+06</totfact>
</mgrwt>
</event>
<event>
 6    1  0.4241465E-002  0.1800743E+03  0.7546771E-02  0.1167731E+00
         21   -1    0    0  504  502  0.00000000000E+00  0.00000000000E+00  0.28212524894E+02  0.28212524894E+02  0.00000000000E+00 0.  1.
         21   -1    0    0  502  503 -0.00000000000E+00 -0.00000000000E+00 -0.11264427372E+04  0.11264427372E+04  0.00000000000E+00 0. -1.
         25    2    1    2    0    0 -0.11055653646E+01  0.12963399510E+03 -0.89971979678E+03  0.91756333893E+03  0.12498229180E+03 0.  0.
          5    1    3    3  501    0 -0.55852955944E+02  0.10640398663E+03 -0.63097277645E+03  0.64231457688E+03  0.10000000000E+00 0.  1.
         -5    1    3    3    0  501  0.54747390579E+02  0.23230008472E+02 -0.26874702034E+03  0.27524876205E+03  0.10000000000E+00 0.  1.
         21    1    1    2  504  503  0.11055653646E+01 -0.12963399510E+03 -0.19851041554E+03  0.23709192319E+03  0.00000000000E+00 0.  1.
<mgrwt>
<rscale>  1 0.18007434E+03</rscale>
<asrwt>0</asrwt>
<pdfrwt beam="1">  1       21 0.43403895E-02 0.18007434E+03</pdfrwt>
<pdfrwt beam="2">  1       21 0.17329884E+00 0.18007434E+03</pdfrwt>
<totfact> 0.69618854E+04</totfact>
</mgrwt>
</event>
<event>
 6    1  0.4241465E-002  0.1267142E+03  0.7546771E-02  0.1232414E+00
         21   -1    0    0  504  502  0.00000000000E+00  0.00000000000E+00  0.80136691310E+02  0.80136691310E+02  0.00000000000E+00 0.  1.
         21   -1    0    0  502  503 -0.00000000000E+00 -0.00000000000E+00 -0.78948588115E+02  0.78948588115E+02  0.00000000000E+00 0.  1.
         25    2    1    2    0    0  0.20153830209E+02 -0.30680078991E+01 -0.21564211281E+02  0.12853601825E+03  0.12506359676E+03 0.  0.
          5    1    3    3  501    0 -0.11363542846E+02  0.70196155455E+01 -0.69231187331E+02  0.70507959889E+02  0.10000000000E+00 0. -1.
         -5    1    3    3    0  501  0.31517373054E+02 -0.10087623445E+02  0.47666976050E+02  0.58028058358E+02  0.10000000000E+00 0. -1.
         21    1    1    2  504  503 -0.20153830209E+02  0.30680078991E+01  0.22752314476E+02  0.30549261178E+02  0.00000000000E+00 0.  1.
<mgrwt>
<rscale>  1 0.12671422E+03</rscale>
<asrwt>0</asrwt>
<pdfrwt beam="1">  1       21 0.12328722E-01 0.12671422E+03</pdfrwt>
<pdfrwt beam="2">  1       21 0.12145937E-01 0.12671422E+03</pdfrwt>
<totfact> 0.31742187E+06</totfact>
</mgrwt>
</event>
<event>
 6    1  0.4241465E-002  0.1309383E+03  0.7546771E-02  0.1226070E+00
         21   -1    0    0  504  502  0.00000000000E+00  0.00000000000E+00  0.34465870585E+03  0.34465870585E+03  0.00000000000E+00 0. -1.
         21   -1    0    0  502  503 -0.00000000000E+00 -0.00000000000E+00 -0.21972357038E+02  0.21972357038E+02  0.00000000000E+00 0. -1.
         25    2    1    2    0    0 -0.19207751994E+02  0.33910258862E+02  0.21084900011E+03  0.24819780760E+03  0.12500402977E+03 0.  0.
          5    1    3    3  501    0 -0.40368001497E+02 -0.96156703529E+01  0.11504878162E+02  0.43062848056E+02  0.10000000000E+00 0. -1.
         -5    1    3    3    0  501  0.21160249503E+02  0.43525929214E+02  0.19934412195E+03  0.20513495954E+03  0.10000000000E+00 0. -1.
         21    1    1    2  504  503  0.19207751994E+02 -0.33910258862E+02  0.11183734870E+03  0.11843325528E+03  0.00000000000E+00 0. -1.
<mgrwt>
<rscale>  1 0.13093835E+03</rscale>
<asrwt>0</asrwt>
<pdfrwt beam="1">  1       21 0.53024412E-01 0.13093835E+03</pdfrwt>
<pdfrwt beam="2">  1       21 0.33803629E-02 0.13093835E+03</pdfrwt>
<totfact> 0.17443780E+06</totfact>
</mgrwt>
</event>
<event>
 6    1  0.4241465E-002  0.1264283E+03  0.7546771E-02  0.1232854E+00
         21   -1    0    0  503  502  0.00000000000E+00  0.00000000000E+00  0.12613540613E+03  0.12613540613E+03  0.00000000000E+00 0. -1.
         21   -1    0    0  504  503 -0.00000000000E+00 -0.00000000000E+00 -0.12541525271E+03  0.12541525271E+03  0.00000000000E+00 0. -1.
         25    2    1    2    0    0 -0.18948012617E+02  0.21526352878E-01 -0.92353912789E+02  0.15656745272E+03  0.12500037759E+03 0.  0.
          5    1    3    3  501    0 -0.60620245930E+02  0.26697724690E+02 -0.83034236110E+02  0.10621806384E+03  0.10000000000E+00 0.  1.
         -5    1    3    3    0  501  0.41672233313E+02 -0.26676198337E+02 -0.93196766793E+01  0.50349388878E+02  0.10000000000E+00 0.  1.
         21    1    1    2  504  502  0.18948012617E+02 -0.21526352878E-01  0.93074066205E+02  0.94983206124E+02  0.00000000000E+00 0. -1.
<mgrwt>
<rscale>  1 0.12642833E+03</rscale>
<asrwt>0</asrwt>
<pdfrwt beam="1">  1       21 0.19405447E-01 0.12642833E+03</pdfrwt>
<pdfrwt beam="2">  1       21 0.19294654E-01 0.12642833E+03</pdfrwt>
<totfact> 0.60636298E+05</totfact>
</mgrwt>
</event>
<event>
 6    1  0.4241465E-002  0.1296741E+03  0.7546771E-02  0.1227940E+00
         21   -1    0    0  504  502  0.00000000000E+00  0.00000000000E+00  0.36998413112E+02  0.36998413112E+02  0.00000000000E+00 0.  1.
         21   -1    0    0  502  503 -0.00000000000E+00 -0.00000000000E+00 -0.18189291025E+03  0.18189291025E+03  0.00000000000E+00 0.  1.
         25    2    1    2    0    0 -0.32793791005E+02 -0.99905742656E+01 -0.11786080039E+03  0.17523281832E+03  0.12506049754E+03 0.  0.
          5    1    3    3  501    0 -0.57808362697E+02 -0.39628712771E+02 -0.24684689708E+02  0.74307372310E+02  0.10000000000E+00 0. -1.
         -5    1    3    3    0  501  0.25014571692E+02  0.29638138505E+02 -0.93176110680E+02  0.10092544601E+03  0.10000000000E+00 0. -1.
         21    1    1    2  504  503  0.32793791005E+02  0.99905742656E+01 -0.27033696751E+02  0.43658505044E+02  0.00000000000E+00 0. -1.
<mgrwt>
<rscale>  1 0.12967410E+03</rscale>
<asrwt>0</asrwt>
<pdfrwt beam="1">  1       21 0.56920634E-02 0.12967410E+03</pdfrwt>
<pdfrwt beam="2">  1       21 0.27983525E-01 0.12967410E+03</pdfrwt>
<totfact> 0.26108341E+06</totfact>
</mgrwt>
</event>
<event>
 6    1  0.4241465E-002  0.1259865E+03  0.7546771E-02  0.1233536E+00
         21   -1    0    0  503  502  0.00000000000E+00  0.00000000000E+00  0.54754740187E+02  0.54754740187E+02  0.00000000000E+00 0. -1.
         21   -1    0    0  504  503 -0.00000000000E+00 -0.00000000000E+00 -0.16890432831E+03  0.16890432831E+03  0.00000000000E+00 0. -1.
         25    2    1    2    0    0  0.15673255469E+02  0.21442283381E+01 -0.14310690894E+03  0.19066247653E+03  0.12498937522E+03 0.  0.
          5    1    3    3  501    0  0.23636972036E+02  0.49528800296E+02 -0.12961550500E+03  0.14075509810E+03  0.10000000000E+00 0.  1.
         -5    1    3    3    0  501 -0.79637165669E+01 -0.47384571957E+02 -0.13491403938E+02  0.49907378426E+02  0.10000000000E+00 0.  1.
         21    1    1    2  504  502 -0.15673255469E+02 -0.21442283381E+01  0.28957320819E+02  0.32996591963E+02  0.00000000000E+00 0. -1.
<mgrwt>
<rscale>  1 0.12598648E+03</rscale>
<asrwt>0</asrwt>
<pdfrwt beam="1">  1       21 0.84238060E-02 0.12598648E+03</pdfrwt>
<pdfrwt beam="2">  1       21 0.25985282E-01 0.12598648E+03</pdfrwt>
<totfact> 0.15371892E+06</totfact>
</mgrwt>
</event>
<event>
 6    1  0.4241465E-002  0.1261672E+03  0.7546771E-02  0.1233256E+00
         21   -1    0    0  504  502  0.00000000000E+00  0.00000000000E+00  0.37103905783E+02  0.37103905783E+02  0.00000000000E+00 0.  1.
         21   -1    0    0  502  503 -0.00000000000E+00 -0.00000000000E+00 -0.18610149233E+03  0.18610149233E+03  0.00000000000E+00 0. -1.
         25    2    1    2    0    0 -0.14466628967E+02  0.90998571251E+01 -0.15932983836E+03  0.20323426443E+03  0.12500431230E+03 0.  0.
          5    1    3    3  501    0  0.15350476773E+02  0.61428408111E+02 -0.10217957301E+03  0.12020716119E+03  0.10000000000E+00 0.  1.
         -5    1    3    3    0  501 -0.29817105740E+02 -0.52328550986E+02 -0.57150265349E+02  0.83027103240E+02  0.10000000000E+00 0.  1.
         21    1    1    2  504  503  0.14466628967E+02 -0.90998571251E+01  0.10332251810E+02  0.19971133689E+02  0.00000000000E+00 0.  1.
<mgrwt>
<rscale>  1 0.12616723E+03</rscale>
<asrwt>0</asrwt>
<pdfrwt beam="1">  1       21 0.57082931E-02 0.12616723E+03</pdfrwt>
<pdfrwt beam="2">  1       21 0.28630999E-01 0.12616723E+03</pdfrwt>
<totfact> 0.24846061E+06</totfact>
</mgrwt>
</event>
<event>
 6    1  0.4241465E-002  0.1265749E+03  0.7546771E-02  0.1232628E+00
         21   -1    0    0  504  502  0.00000000000E+00  0.00000000000E+00  0.70768947697E+02  0.70768947697E+02  0.00000000000E+00 0.  1.
         21   -1    0    0  502  503 -0.00000000000E+00 -0.00000000000E+00 -0.94363611184E+02  0.94363611184E+02  0.00000000000E+00 0.  1.
         25    2    1    2    0    0  0.16279507487E+02 -0.11390853357E+02 -0.46467698460E+02  0.13483487525E+03  0.12500569059E+03 0.  0.
          5    1    3    3  501    0 -0.34725973050E+02 -0.24123388317E+02 -0.66310196742E+02  0.78644028763E+02  0.10000000000E+00 0. -1.
         -5    1    3    3    0  501  0.51005480537E+02  0.12732534961E+02  0.19842498282E+02  0.56190846491E+02  0.10000000000E+00 0. -1.
         21    1    1    2  504  503 -0.16279507487E+02  0.11390853357E+02  0.22873034973E+02  0.30297683626E+02  0.00000000000E+00 0.  1.
<mgrwt>
<rscale>  1 0.12657487E+03</rscale>
<asrwt>0</asrwt>
<pdfrwt beam="1">  1       21 0.10887531E-01 0.12657487E+03</pdfrwt>
<pdfrwt beam="2">  1       21 0.14517479E-01 0.12657487E+03</pdfrwt>
<totfact> 0.28756655E+06</totfact>
</mgrwt>
</event>
<event>
 6    1  0.4241465E-002  0.1262019E+03  0.7546771E-02  0.1233203E+00
         21   -1    0    0  503  502  0.00000000000E+00  0.00000000000E+00  0.15973812888E+03  0.15973812888E+03  0.00000000000E+00 0.  1.
         21   -1    0    0  504  503 -0.00000000000E+00 -0.00000000000E+00 -0.32436844997E+02  0.32436844997E+02  0.00000000000E+00 0.  1.
         25    2    1    2    0    0  0.14251946249E+02  0.10018370810E+02  0.10730188252E+03  0.16565211995E+03  0.12499378035E+03 0.  0.
          5    1    3    3  501    0 -0.27143768974E+02 -0.18675416050E+02 -0.12853859815E+02  0.35366468170E+02  0.10000000000E+00 0. -1.
         -5    1    3    3    0  501  0.41395715223E+02  0.28693786860E+02  0.12015574234E+03  0.13028565178E+03  0.10000000000E+00 0. -1.
         21    1    1    2  504  502 -0.14251946249E+02 -0.10018370810E+02  0.19999401358E+02  0.26522853924E+02  0.00000000000E+00 0.  1.
<mgrwt>
<rscale>  1 0.12620194E+03</rscale>
<asrwt>0</asrwt>
<pdfrwt beam="1">  1       21 0.24575096E-01 0.12620194E+03</pdfrwt>
<pdfrwt beam="2">  1       21 0.49902839E-02 0.12620194E+03</pdfrwt>
<totfact> 0.41657976E+06</totfact>
</mgrwt>
</event>
<event>
 6    1  0.4241465E-002  0.1476468E+03  0.7546771E-02  0.1203395E+00
         21   -1    0    0  503  502  0.00000000000E+00  0.00000000000E+00  0.45235561139E+03  0.45235561139E+03  0.00000000000E+00 0. -1.
         21   -1    0    0  504  503 -0.00000000000E+00 -0.00000000000E+00 -0.38606148954E+02  0.38606148954E+02  0.00000000000E+00 0. -1.
         25    2    1    2    0    0 -0.66621630989E+02 -0.41663504058E+02  0.13062491554E+03  0.19713562410E+03  0.12500118577E+03 0.  0.
          5    1    3    3  501    0 -0.74838693111E+01  0.13925345000E+02 -0.20324834939E+02  0.25749416470E+02  0.10000000000E+00 0. -1.
         -5    1    3    3    0  501 -0.59137761678E+02 -0.55588849059E+02  0.15094975048E+03  0.17138620763E+03  0.10000000000E+00 0. -1.
         21    1    1    2  504  502  0.66621630989E+02  0.41663504058E+02  0.28312454689E+03  0.29382613624E+03  0.00000000000E+00 0. -1.
<mgrwt>
<rscale>  1 0.14764683E+03</rscale>
<asrwt>0</asrwt>
<pdfrwt beam="1">  1       21 0.69593167E-01 0.14764683E+03</pdfrwt>
<pdfrwt beam="2">  1       21 0.59394079E-02 0.14764683E+03</pdfrwt>
<totfact> 0.38008671E+05</totfact>
</mgrwt>
</event>
<event>
 6    1  0.4241465E-002  0.1285879E+03  0.7546771E-02  0.1229566E+00
         21   -1    0    0  504  502  0.00000000000E+00  0.00000000000E+00  0.11392203422E+03  0.11392203422E+03  0.00000000000E+00 0.  1.
         21   -1    0    0  502  503 -0.00000000000E+00 -0.00000000000E+00 -0.70639212619E+02  0.70639212619E+02  0.00000000000E+00 0.  1.
         25    2    1    2    0    0  0.28250769326E+02 -0.10576418614E+02 -0.37997275495E+01  0.12864404883E+03  0.12499954709E+03 0.  0.
          5    1    3    3  501    0  0.95201561119E+01 -0.65889798823E+02  0.13096739067E+02  0.67850081323E+02  0.10000000000E+00 0.  1.
         -5    1    3    3    0  501  0.18730613214E+02  0.55313380209E+02 -0.16896466616E+02  0.60793967510E+02  0.10000000000E+00 0.  1.
         21    1    1    2  504  503 -0.28250769326E+02  0.10576418614E+02  0.47082549147E+02  0.55917198002E+02  0.00000000000E+00 0.  1.
<mgrwt>
<rscale>  1 0.12858792E+03</rscale>
<asrwt>0</asrwt>
<pdfrwt beam="1">  1       21 0.17526467E-01 0.12858792E+03</pdfrwt>
<pdfrwt beam="2">  1       21 0.10867571E-01 0.12858792E+03</pdfrwt>
<totfact> 0.20521022E+06</totfact>
</mgrwt>
</event>
<event>
 6    1  0.4241465E-002  0.1261908E+03  0.7546771E-02  0.1233220E+00
         21   -1    0    0  503  502  0.00000000000E+00  0.00000000000E+00  0.26831923023E+03  0.26831923023E+03  0.00000000000E+00 0.  1.
         21   -1    0    0  504  503 -0.00000000000E+00 -0.00000000000E+00 -0.30485373910E+02  0.30485373910E+02  0.00000000000E+00 0.  1.
         25    2    1    2    0    0 -0.11179324939E+02  0.13156876125E+02  0.10305557978E+03  0.16292500845E+03  0.12500410058E+03 0.  0.
          5    1    3    3  501    0 -0.42787804217E+01  0.36305696859E+02  0.12503297775E+03  0.13026767485E+03  0.10000000000E+00 0. -1.
         -5    1    3    3    0  501 -0.69005445175E+01 -0.23148820734E+02 -0.21977397977E+02  0.32657333600E+02  0.10000000000E+00 0. -1.
         21    1    1    2  504  502  0.11179324939E+02 -0.13156876125E+02  0.13477827655E+03  0.13587959569E+03  0.00000000000E+00 0.  1.
<mgrwt>
<rscale>  1 0.12619075E+03</rscale>
<asrwt>0</asrwt>
<pdfrwt beam="1">  1       21 0.41279880E-01 0.12619075E+03</pdfrwt>
<pdfrwt beam="2">  1       21 0.46900577E-02 0.12619075E+03</pdfrwt>
<totfact> 0.16877650E+06</totfact>
</mgrwt>
</event>
<event>
 6    1  0.4241465E-002  0.1305507E+03  0.7546771E-02  0.1226641E+00
         21   -1    0    0  503  502  0.00000000000E+00  0.00000000000E+00  0.36670818957E+02  0.36670818957E+02  0.00000000000E+00 0.  1.
         21   -1    0    0  504  503 -0.00000000000E+00 -0.00000000000E+00 -0.53549740057E+03  0.53549740057E+03  0.00000000000E+00 0.  1.
         25    2    1    2    0    0 -0.11890393634E+02 -0.35671675308E+02 -0.51496095742E+03  0.53125162188E+03  0.12501859142E+03 0.  0.
          5    1    3    3  501    0  0.31880423472E+02  0.14630582022E+02 -0.37035587553E+03  0.37201330604E+03  0.10000000000E+00 0.  1.
         -5    1    3    3    0  501 -0.43770817105E+02 -0.50302257330E+02 -0.14460508189E+03  0.15923831584E+03  0.10000000000E+00 0.  1.
         21    1    1    2  504  502  0.11890393634E+02  0.35671675308E+02  0.16134375810E+02  0.40916597645E+02  0.00000000000E+00 0.  1.
<mgrwt>
<rscale>  1 0.13055075E+03</rscale>
<asrwt>0</asrwt>
<pdfrwt beam="1">  1       21 0.56416649E-02 0.13055075E+03</pdfrwt>
<pdfrwt beam="2">  1       21 0.82384209E-01 0.13055075E+03</pdfrwt>
<totfact> 0.28626648E+05</totfact>
</mgrwt>
</event>
<event>
 6    1  0.4241465E-002  0.1261566E+03  0.7546771E-02  0.1233273E+00
         21   -1    0    0  503  502  0.00000000000E+00  0.00000000000E+00  0.21520777626E+03  0.21520777626E+03  0.00000000000E+00 0. -1.
         21   -1    0    0  504  503 -0.00000000000E+00 -0.00000000000E+00 -0.35336076217E+02  0.35336076217E+02  0.00000000000E+00 0. -1.
         25    2    1    2    0    0  0.40143943268E+01  0.16586201153E+02  0.80353841268E+02  0.14957345263E+03  0.12499704194E+03 0.  0.
          5    1    3    3  501    0 -0.38181091057E+01  0.17242675864E+02  0.11382741300E+03  0.11518931278E+03  0.10000000000E+00 0. -1.
         -5    1    3    3    0  501  0.78325034325E+01 -0.65647471102E+00 -0.33473571729E+02  0.34384139852E+02  0.10000000000E+00 0. -1.
         21    1    1    2  504  502 -0.40143943268E+01 -0.16586201153E+02  0.99517858777E+02  0.10097039985E+03  0.00000000000E+00 0.  1.
<mgrwt>
<rscale>  1 0.12615656E+03</rscale>
<asrwt>0</asrwt>
<pdfrwt beam="1">  1       21 0.33108888E-01 0.12615656E+03</pdfrwt>
<pdfrwt beam="2">  1       21 0.54363196E-02 0.12615656E+03</pdfrwt>
<totfact> 0.20371154E+06</totfact>
</mgrwt>
</event>
<event>
 6    1  0.4241465E-002  0.1338386E+03  0.7546771E-02  0.1221869E+00
         21   -1    0    0  503  502  0.00000000000E+00  0.00000000000E+00  0.22447167812E+02  0.22447167812E+02  0.00000000000E+00 0.  1.
         21   -1    0    0  504  503 -0.00000000000E+00 -0.00000000000E+00 -0.40656363192E+03  0.40656363192E+03  0.00000000000E+00 0.  1.
         25    2    1    2    0    0  0.21090182257E+02 -0.42922482894E+02 -0.21492922931E+03  0.25319425971E+03  0.12500249683E+03 0.  0.
          5    1    3    3  501    0 -0.22299905348E+02  0.33994567076E+02 -0.38968452751E+02  0.56315776467E+02  0.10000000000E+00 0. -1.
         -5    1    3    3    0  501  0.43390087605E+02 -0.76917049970E+02 -0.17596077655E+03  0.19687848324E+03  0.10000000000E+00 0. -1.
         21    1    1    2  504  502 -0.21090182257E+02  0.42922482894E+02 -0.16918723480E+03  0.17581654002E+03  0.00000000000E+00 0.  1.
<mgrwt>
<rscale>  1 0.13383856E+03</rscale>
<asrwt>0</asrwt>
<pdfrwt beam="1">  1       21 0.34534106E-02 0.13383856E+03</pdfrwt>
<pdfrwt beam="2">  1       21 0.62548249E-01 0.13383856E+03</pdfrwt>
<totfact> 0.11885020E+06</totfact>
</mgrwt>
</event>
<event>
 6    1  0.4241465E-002  0.1274211E+03  0.7546771E-02  0.1231333E+00
         21   -1    0    0  504  502  0.00000000000E+00  0.00000000000E+00  0.11141646505E+04  0.11141646505E+04  0.00000000000E+00 0.  1.
         21   -1    0    0  502  503 -0.00000000000E+00 -0.00000000000E+00 -0.79122287343E+01  0.79122287343E+01  0.00000000000E+00 0.  1.
         25    2    1    2    0    0 -0.17182097640E+02  0.17817816379E+02  0.52296121757E+03  0.53826070273E+03  0.12499379968E+03 0.  0.
          5    1    3    3  501    0  0.51055721800E+02  0.71820939122E+01  0.31340614358E+03  0.31761878099E+03  0.10000000000E+00 0.  1.
         -5    1    3    3    0  501 -0.68237819441E+02  0.10635722466E+02  0.20955507399E+03  0.22064192174E+03  0.10000000000E+00 0.  1.
         21    1    1    2  504  503  0.17182097640E+02 -0.17817816379E+02  0.58329120415E+03  0.58381617646E+03  0.00000000000E+00 0.  1.
<mgrwt>
<rscale>  1 0.12742115E+03</rscale>
<asrwt>0</asrwt>
<pdfrwt beam="1">  1       21 0.17140982E+00 0.12742115E+03</pdfrwt>
<pdfrwt beam="2">  1       21 0.12172668E-02 0.12742115E+03</pdfrwt>
<totfact> 0.58325114E+05</totfact>
</mgrwt>
</event>
<event>
 6    1  0.4241465E-002  0.1516975E+03  0.7546771E-02  0.1198403E+00
         21   -1    0    0  504  502  0.00000000000E+00  0.00000000000E+00  0.73018555335E+03  0.73018555335E+03  0.00000000000E+00 0.  1.
         21   -1    0    0  502  503 -0.00000000000E+00 -0.00000000000E+00 -0.13040401648E+03  0.13040401648E+03  0.00000000000E+00 0. -1.
         25    2    1    2    0    0  0.48626015371E+00 -0.85941428647E+02 -0.82660864475E+02  0.17275688905E+03  0.12500383431E+03 0.  0.
          5    1    3    3  501    0  0.22988379622E+02 -0.22022881709E+02 -0.98202401053E+02  0.10323368873E+03  0.10000000000E+00 0.  1.
         -5    1    3    3    0  501 -0.22502119468E+02 -0.63918546937E+02  0.15541536578E+02  0.69523200317E+02  0.10000000000E+00 0.  1.
         21    1    1    2  504  503 -0.48626015371E+00  0.85941428647E+02  0.68244240134E+03  0.68783268078E+03  0.00000000000E+00 0.  1.
<mgrwt>
<rscale>  1 0.15169748E+03</rscale>
<asrwt>0</asrwt>
<pdfrwt beam="1">  1       21 0.11233624E+00 0.15169748E+03</pdfrwt>
<pdfrwt beam="2">  1       21 0.20062157E-01 0.15169748E+03</pdfrwt>
<totfact> 0.14663322E+04</totfact>
</mgrwt>
</event>
<event>
 6    1  0.4241465E-002  0.1269328E+03  0.7546771E-02  0.1232079E+00
         21   -1    0    0  504  502  0.00000000000E+00  0.00000000000E+00  0.30497873583E+02  0.30497873583E+02  0.00000000000E+00 0. -1.
         21   -1    0    0  502  503 -0.00000000000E+00 -0.00000000000E+00 -0.21729439918E+03  0.21729439918E+03  0.00000000000E+00 0. -1.
         25    2    1    2    0    0 -0.57816896185E+01  0.21250754772E+02 -0.18670739931E+03  0.22576886575E+03  0.12500762084E+03 0.  0.
          5    1    3    3  501    0 -0.33415806986E+00  0.67896824562E+02 -0.59896467015E+02  0.90541080223E+02  0.10000000000E+00 0. -1.
         -5    1    3    3    0  501 -0.54475315486E+01 -0.46646069790E+02 -0.12681093230E+03  0.13522778552E+03  0.10000000000E+00 0. -1.
         21    1    1    2  504  503  0.57816896185E+01 -0.21250754772E+02 -0.89126284551E-01  0.22023407019E+02  0.00000000000E+00 0. -1.
<mgrwt>
<rscale>  1 0.12693277E+03</rscale>
<asrwt>0</asrwt>
<pdfrwt beam="1">  1       21 0.46919806E-02 0.12693277E+03</pdfrwt>
<pdfrwt beam="2">  1       21 0.33429907E-01 0.12693277E+03</pdfrwt>
<totfact> 0.25605226E+06</totfact>
</mgrwt>
</event>
<event>
 6    1  0.4241465E-002  0.1263814E+03  0.7546771E-02  0.1232926E+00
         21   -1    0    0  503  502  0.00000000000E+00  0.00000000000E+00  0.17220168222E+02  0.17220168222E+02  0.00000000000E+00 0.  1.
         21   -1    0    0  504  503 -0.00000000000E+00 -0.00000000000E+00 -0.22311726064E+04  0.22311726064E+04  0.00000000000E+00 0. -1.
         25    2    1    2    0    0  0.17309016981E+02 -0.68398679120E+01 -0.22237647472E+04  0.22273531152E+04  0.12500345153E+03 0.  0.
          5    1    3    3  501    0  0.20039028521E+02  0.47562463192E+02 -0.16959388445E+04  0.16967239978E+04  0.10000000000E+00 0. -1.
         -5    1    3    3    0  501 -0.27300115396E+01 -0.54402331104E+02 -0.52782590277E+03  0.53062911739E+03  0.10000000000E+00 0. -1.
         21    1    1    2  504  502 -0.17309016981E+02  0.68398679120E+01  0.98123090170E+01  0.21039659459E+02  0.00000000000E+00 0.  1.
<mgrwt>
<rscale>  1 0.12638136E+03</rscale>
<asrwt>0</asrwt>
<pdfrwt beam="1">  1       21 0.26492566E-02 0.12638136E+03</pdfrwt>
<pdfrwt beam="2">  1       21 0.34325733E+00 0.12638136E+03</pdfrwt>
<totfact> 0.16263336E+04</totfact>
</mgrwt>
</event>
<event>
 6    1  0.4241465E-002  0.1284267E+03  0.7546771E-02  0.1229809E+00
         21   -1    0    0  504  502  0.00000000000E+00  0.00000000000E+00  0.29351528749E+03  0.29351528749E+03  0.00000000000E+00 0.  1.
         21   -1    0    0  502  503 -0.00000000000E+00 -0.00000000000E+00 -0.23321530888E+02  0.23321530888E+02  0.00000000000E+00 0.  1.
         25    2    1    2    0    0  0.14683881320E+02  0.25502093348E+02  0.17413120191E+03  0.21636797968E+03  0.12500981568E+03 0.  0.
          5    1    3    3  501    0  0.46228432927E+02  0.29648488075E+02  0.17612567780E+03  0.18448947188E+03  0.10000000000E+00 0.  1.
         -5    1    3    3    0  501 -0.31544551608E+02 -0.41463947272E+01 -0.19944758855E+01  0.31878507798E+02  0.10000000000E+00 0.  1.
         21    1    1    2  504  503 -0.14683881320E+02 -0.25502093348E+02  0.96062554689E+02  0.10046883870E+03  0.00000000000E+00 0.  1.
<mgrwt>
<rscale>  1 0.12842674E+03</rscale>
<asrwt>0</asrwt>
<pdfrwt beam="1">  1       21 0.45156195E-01 0.12842674E+03</pdfrwt>
<pdfrwt beam="2">  1       21 0.35879281E-02 0.12842674E+03</pdfrwt>
<totfact> 0.21989221E+06</totfact>
</mgrwt>
</event>
<event>
 6    1  0.4241465E-002  0.1356377E+03  0.7546771E-02  0.1219322E+00
         21   -1    0    0  504  502  0.00000000000E+00  0.00000000000E+00  0.68053509219E+02  0.68053509219E+02  0.00000000000E+00 0. -1.
         21   -1    0    0  502  503 -0.00000000000E+00 -0.00000000000E+00 -0.55329505221E+03  0.55329505221E+03  0.00000000000E+00 0. -1.
         25    2    1    2    0    0 -0.50643349160E+02 -0.14437043813E+02 -0.53316382837E+03  0.55014657772E+03  0.12499764816E+03 0.  0.
          5    1    3    3  501    0  0.11135268280E+02 -0.58514150993E+02 -0.24870490190E+03  0.25573822220E+03  0.10000000000E+00 0. -1.
         -5    1    3    3    0  501 -0.61778617440E+02  0.44077107180E+02 -0.28445892647E+03  0.29440835552E+03  0.10000000000E+00 0. -1.
         21    1    1    2  504  503  0.50643349160E+02  0.14437043813E+02  0.47922285379E+02  0.71201983710E+02  0.00000000000E+00 0. -1.
<mgrwt>
<rscale>  1 0.13563771E+03</rscale>
<asrwt>0</asrwt>
<pdfrwt beam="1">  1       21 0.10469771E-01 0.13563771E+03</pdfrwt>
<pdfrwt beam="2">  1       21 0.85122315E-01 0.13563771E+03</pdfrwt>
<totfact> 0.91524272E+04</totfact>
</mgrwt>
</event>
<event>
 6    1  0.4241465E-002  0.1260163E+03  0.7546771E-02  0.1233489E+00
         21   -1    0    0  503  502  0.00000000000E+00  0.00000000000E+00  0.11298225667E+04  0.11298225667E+04  0.00000000000E+00 0. -1.
         21   -1    0    0  504  503 -0.00000000000E+00 -0.00000000000E+00 -0.49865783097E+01  0.49865783097E+01  0.00000000000E+00 0. -1.
         25    2    1    2    0    0  0.13861444288E+02  0.79238103747E+01  0.82704442596E+03  0.83658986149E+03  0.12500074971E+03 0.  0.
          5    1    3    3  501    0 -0.29564522677E+01  0.36512461012E+02  0.76795038595E+03  0.76882358555E+03  0.10000000000E+00 0.  1.
         -5    1    3    3    0  501  0.16817896556E+02 -0.28588650637E+02  0.59094040010E+02  0.67766275938E+02  0.10000000000E+00 0.  1.
         21    1    1    2  504  502 -0.13861444288E+02 -0.79238103747E+01  0.29779156246E+03  0.29821928355E+03  0.00000000000E+00 0. -1.
<mgrwt>
<rscale>  1 0.12601632E+03</rscale>
<asrwt>0</asrwt>
<pdfrwt beam="1">  1       21 0.17381865E+00 0.12601632E+03</pdfrwt>
<pdfrwt beam="2">  1       21 0.76716679E-03 0.12601632E+03</pdfrwt>
<totfact> 0.11615792E+06</totfact>
</mgrwt>
</event>
<event>
 6    1  0.4241465E-002  0.1372549E+03  0.7546771E-02  0.1217071E+00
         21   -1    0    0  504  502  0.00000000000E+00  0.00000000000E+00  0.39286540543E+02  0.39286540543E+02  0.00000000000E+00 0. -1.
         21   -1    0    0  502  503 -0.00000000000E+00 -0.00000000000E+00 -0.23935769393E+03  0.23935769393E+03  0.00000000000E+00 0. -1.
         25    2    1    2    0    0  0.40933549273E+02  0.39217605184E+02 -0.14133691147E+03  0.19701527401E+03  0.12500127854E+03 0.  0.
          5    1    3    3  501    0  0.46241078058E+00  0.77119592218E+02 -0.10664572905E+03  0.13160914426E+03  0.10000000000E+00 0.  1.
         -5    1    3    3    0  501  0.40471138492E+02 -0.37901987034E+02 -0.34691182424E+02  0.65406129758E+02  0.10000000000E+00 0.  1.
         21    1    1    2  504  503 -0.40933549273E+02 -0.39217605184E+02 -0.58734241913E+02  0.81628960458E+02  0.00000000000E+00 0. -1.
<mgrwt>
<rscale>  1 0.13725486E+03</rscale>
<asrwt>0</asrwt>
<pdfrwt beam="1">  1       21 0.60440832E-02 0.13725486E+03</pdfrwt>
<pdfrwt beam="2">  1       21 0.36824260E-01 0.13725486E+03</pdfrwt>
<totfact> 0.13839137E+06</totfact>
</mgrwt>
</event>
<event>
 6    1  0.4241465E-002  0.1340584E+03  0.7546771E-02  0.1221555E+00
         21   -1    0    0  504  502  0.00000000000E+00  0.00000000000E+00  0.56354187557E+03  0.56354187557E+03  0.00000000000E+00 0. -1.
         21   -1    0    0  502  503 -0.00000000000E+00 -0.00000000000E+00 -0.20415296815E+02  0.20415296815E+02  0.00000000000E+00 0.  1.
         25    2    1    2    0    0 -0.22601564421E+02  0.42937053370E+02  0.22314699553E+03  0.26031948152E+03  0.12496891445E+03 0.  0.
          5    1    3    3  501    0 -0.62754059958E+02  0.56974630963E+02  0.10620052094E+03  0.13587767021E+03  0.10000000000E+00 0.  1.
         -5    1    3    3    0  501  0.40152495537E+02 -0.14037577593E+02  0.11694647459E+03  0.12444181131E+03  0.10000000000E+00 0.  1.
         21    1    1    2  504  503  0.22601564421E+02 -0.42937053370E+02  0.31997958322E+03  0.32363769086E+03  0.00000000000E+00 0. -1.
<mgrwt>
<rscale>  1 0.13405839E+03</rscale>
<asrwt>0</asrwt>
<pdfrwt beam="1">  1       21 0.86698738E-01 0.13405839E+03</pdfrwt>
<pdfrwt beam="2">  1       21 0.31408153E-02 0.13405839E+03</pdfrwt>
<totfact> 0.67671840E+05</totfact>
</mgrwt>
</event>
<event>
 6    1  0.4241465E-002  0.1293008E+03  0.7546771E-02  0.1228497E+00
         21   -1    0    0  503  502  0.00000000000E+00  0.00000000000E+00  0.10254505787E+04  0.10254505787E+04  0.00000000000E+00 0. -1.
         21   -1    0    0  504  503 -0.00000000000E+00 -0.00000000000E+00 -0.13278636367E+02  0.13278636367E+02  0.00000000000E+00 0. -1.
         25    2    1    2    0    0 -0.60606498713E+01  0.32507060732E+02  0.31139951261E+03  0.33717705112E+03  0.12500106750E+03 0.  0.
          5    1    3    3  501    0 -0.37933857981E+02  0.29378534780E+02  0.36159208678E+02  0.60079732517E+02  0.10000000000E+00 0. -1.
         -5    1    3    3    0  501  0.31873208110E+02  0.31285259512E+01  0.27524030393E+03  0.27709731860E+03  0.10000000000E+00 0. -1.
         21    1    1    2  504  502  0.60606498713E+01 -0.32507060732E+02  0.70077242977E+03  0.70155216399E+03  0.00000000000E+00 0. -1.
<mgrwt>
<rscale>  1 0.12930084E+03</rscale>
<asrwt>0</asrwt>
<pdfrwt beam="1">  1       21 0.15776156E+00 0.12930084E+03</pdfrwt>
<pdfrwt beam="2">  1       21 0.20428679E-02 0.12930084E+03</pdfrwt>
<totfact> 0.31784592E+05</totfact>
</mgrwt>
</event>
<event>
 6    1  0.4241465E-002  0.1495891E+03  0.7546771E-02  0.1200979E+00
         21   -1    0    0  504  502  0.00000000000E+00  0.00000000000E+00  0.48096331391E+03  0.48096331391E+03  0.00000000000E+00 0. -1.
         21   -1    0    0  502  503 -0.00000000000E+00 -0.00000000000E+00 -0.50720445993E+02  0.50720445993E+02  0.00000000000E+00 0. -1.
         25    2    1    2    0    0 -0.80865153289E+02  0.14588540213E+02  0.75526595037E+02  0.16757439066E+03  0.12499964531E+03 0.  0.
          5    1    3    3  501    0 -0.46532995547E+01  0.52106621018E+02 -0.23027140023E+01  0.52364736631E+02  0.10000000000E+00 0.  1.
         -5    1    3    3    0  501 -0.76211853734E+02 -0.37518080805E+02  0.77829309039E+02  0.11520965403E+03  0.10000000000E+00 0.  1.
         21    1    1    2  504  503  0.80865153289E+02 -0.14588540213E+02  0.35471627288E+03  0.36410936923E+03  0.00000000000E+00 0. -1.
<mgrwt>
<rscale>  1 0.14958914E+03</rscale>
<asrwt>0</asrwt>
<pdfrwt beam="1">  1       21 0.73994353E-01 0.14958914E+03</pdfrwt>
<pdfrwt beam="2">  1       21 0.78031459E-02 0.14958914E+03</pdfrwt>
<totfact> 0.20796901E+05</totfact>
</mgrwt>
</event>
<event>
 6    1  0.4241465E-002  0.1262652E+03  0.7546771E-02  0.1233105E+00
         21   -1    0    0  503  502  0.00000000000E+00  0.00000000000E+00  0.17399762303E+02  0.17399762303E+02  0.00000000000E+00 0. -1.
         21   -1    0    0  504  503 -0.00000000000E+00 -0.00000000000E+00 -0.29883585049E+03  0.29883585049E+03  0.00000000000E+00 0. -1.
         25    2    1    2    0    0  0.25709684860E+01 -0.17767251335E+02 -0.24642415736E+03  0.27688945162E+03  0.12498247072E+03 0.  0.
          5    1    3    3  501    0 -0.23309613478E+02  0.41797630737E+02 -0.16994840206E+03  0.17655834554E+03  0.10000000000E+00 0.  1.
         -5    1    3    3    0  501  0.25880581964E+02 -0.59564882072E+02 -0.76475755296E+02  0.10033110608E+03  0.10000000000E+00 0.  1.
         21    1    1    2  504  502 -0.25709684860E+01  0.17767251335E+02 -0.35011930832E+02  0.39346161179E+02  0.00000000000E+00 0. -1.
<mgrwt>
<rscale>  1 0.12626521E+03</rscale>
<asrwt>0</asrwt>
<pdfrwt beam="1">  1       21 0.26768866E-02 0.12626521E+03</pdfrwt>
<pdfrwt beam="2">  1       21 0.45974745E-01 0.12626521E+03</pdfrwt>
<totfact> 0.34273979E+06</totfact>
</mgrwt>
</event>
<event>
 6    1  0.4241465E-002  0.1399214E+03  0.7546771E-02  0.1213435E+00
         21   -1    0    0  503  502  0.00000000000E+00  0.00000000000E+00  0.70669389621E+02  0.70669389621E+02  0.00000000000E+00 0.  1.
         21   -1    0    0  504  503 -0.00000000000E+00 -0.00000000000E+00 -0.23162756638E+03  0.23162756638E+03  0.00000000000E+00 0. -1.
         25    2    1    2    0    0  0.94101365184E+01 -0.62172966976E+02 -0.18757578459E+03  0.23401426758E+03  0.12499589584E+03 0.  0.
          5    1    3    3  501    0  0.27487611440E+02 -0.64556536639E+02 -0.19999925817E+03  0.21195006128E+03  0.10000000000E+00 0. -1.
         -5    1    3    3    0  501 -0.18077474921E+02  0.23835696634E+01  0.12423473587E+02  0.22064206304E+02  0.10000000000E+00 0. -1.
         21    1    1    2  504  502 -0.94101365184E+01  0.62172966976E+02  0.26617607825E+02  0.68282688422E+02  0.00000000000E+00 0.  1.
<mgrwt>
<rscale>  1 0.13992142E+03</rscale>
<asrwt>0</asrwt>
<pdfrwt beam="1">  1       21 0.10872214E-01 0.13992142E+03</pdfrwt>
<pdfrwt beam="2">  1       21 0.35635010E-01 0.13992142E+03</pdfrwt>
<totfact> 0.53491756E+05</totfact>
</mgrwt>
</event>
<event>
 6    1  0.4241465E-002  0.1261296E+03  0.7546771E-02  0.1233314E+00
         21   -1    0    0  503  502  0.00000000000E+00  0.00000000000E+00  0.53921669812E+03  0.53921669812E+03  0.00000000000E+00 0.  1.
         21   -1    0    0  504  503 -0.00000000000E+00 -0.00000000000E+00 -0.42033135726E+02  0.42033135726E+02  0.00000000000E+00 0. -1.
         25    2    1    2    0    0 -0.15848992145E+02 -0.56490143075E+01  0.53105995439E+02  0.13685362843E+03  0.12500226777E+03 0.  0.
          5    1    3    3  501    0  0.54429761021E+01  0.52916831334E+02  0.52201669108E+02  0.74530807623E+02  0.10000000000E+00 0. -1.
         -5    1    3    3    0  501 -0.21291968247E+02 -0.58565845641E+02  0.90432633138E+00  0.62322820809E+02  0.10000000000E+00 0. -1.
         21    1    1    2  504  502  0.15848992145E+02  0.56490143075E+01  0.44407756696E+03  0.44439620542E+03  0.00000000000E+00 0.  1.
<mgrwt>
<rscale>  1 0.12612957E+03</rscale>
<asrwt>0</asrwt>
<pdfrwt beam="1">  1       21 0.82956410E-01 0.12612957E+03</pdfrwt>
<pdfrwt beam="2">  1       21 0.64666367E-02 0.12612957E+03</pdfrwt>
<totfact> 0.22385226E+05</totfact>
</mgrwt>
</event>
<event>
 6    1  0.4241465E-002  0.1314600E+03  0.7546771E-02  0.1225305E+00
         21   -1    0    0  504  502  0.00000000000E+00  0.00000000000E+00  0.98892723122E+03  0.98892723122E+03  0.00000000000E+00 0.  1.
         21   -1    0    0  502  503 -0.00000000000E+00 -0.00000000000E+00 -0.15646873377E+03  0.15646873377E+03  0.00000000000E+00 0. -1.
         25    2    1    2    0    0  0.27724464949E+01 -0.40596252620E+02 -0.12834976846E+03  0.18372644482E+03  0.12500400505E+03 0.  0.
          5    1    3    3  501    0  0.13033619925E+02  0.22282367043E+02 -0.11599034394E+03  0.11882823325E+03  0.10000000000E+00 0.  1.
         -5    1    3    3    0  501 -0.10261173431E+02 -0.62878619663E+02 -0.12359424512E+02  0.64898211572E+02  0.10000000000E+00 0.  1.
         21    1    1    2  504  503 -0.27724464949E+01  0.40596252620E+02  0.96080826591E+03  0.96166952017E+03  0.00000000000E+00 0.  1.
<mgrwt>
<rscale>  1 0.13146005E+03</rscale>
<asrwt>0</asrwt>
<pdfrwt beam="1">  1       21 0.15214265E+00 0.13146005E+03</pdfrwt>
<pdfrwt beam="2">  1       21 0.24072114E-01 0.13146005E+03</pdfrwt>
<totfact> 0.49713069E+03</totfact>
</mgrwt>
</event>
<event>
 6    1  0.4241465E-002  0.1260285E+03  0.7546771E-02  0.1233471E+00
         21   -1    0    0  503  502  0.00000000000E+00  0.00000000000E+00  0.61086267202E+01  0.61086267202E+01  0.00000000000E+00 0. -1.
         21   -1    0    0  504  503 -0.00000000000E+00 -0.00000000000E+00 -0.83250961222E+03  0.83250961222E+03  0.00000000000E+00 0. -1.
         25    2    1    2    0    0  0.14397048555E+02 -0.74330042692E+01 -0.71062240240E+03  0.72171141765E+03  0.12498258684E+03 0.  0.
          5    1    3    3  501    0 -0.46432728746E+02 -0.35187420818E+02 -0.37433668158E+03  0.37884312593E+03  0.10000000000E+00 0.  1.
         -5    1    3    3    0  501  0.60829777301E+02  0.27754416549E+02 -0.33628572081E+03  0.34286829172E+03  0.10000000000E+00 0.  1.
         21    1    1    2  504  502 -0.14397048555E+02  0.74330042692E+01 -0.11577858311E+03  0.11690682130E+03  0.00000000000E+00 0. -1.
<mgrwt>
<rscale>  1 0.12602846E+03</rscale>
<asrwt>0</asrwt>
<pdfrwt beam="1">  1       21 0.93978884E-03 0.12602846E+03</pdfrwt>
<pdfrwt beam="2">  1       21 0.12807839E+00 0.12602846E+03</pdfrwt>
<totfact> 0.18638015E+06</totfact>
</mgrwt>
</event>
<event>
 6    1  0.4241465E-002  0.1726361E+03  0.7546771E-02  0.1175126E+00
         21   -1    0    0  503  502  0.00000000000E+00  0.00000000000E+00  0.67132475184E+03  0.67132475184E+03  0.00000000000E+00 0.  1.
         21   -1    0    0  504  503 -0.00000000000E+00 -0.00000000000E+00 -0.52275584108E+02  0.52275584108E+02  0.00000000000E+00 0.  1.
         25    2    1    2    0    0  0.98309078746E+02  0.67189520187E+02  0.11926560456E+03  0.20982731544E+03  0.12499644509E+03 0.  0.
          5    1    3    3  501    0  0.11090010358E+03  0.82133253127E+02  0.65768947739E+02  0.15287337482E+03  0.10000000000E+00 0. -1.
         -5    1    3    3    0  501 -0.12591024833E+02 -0.14943732940E+02  0.53496656822E+02  0.56953940615E+02  0.10000000000E+00 0. -1.
         21    1    1    2  504  502 -0.98309078746E+02 -0.67189520187E+02  0.49978356317E+03  0.51377302051E+03  0.00000000000E+00 0.  1.
<mgrwt>
<rscale>  1 0.17263609E+03</rscale>
<asrwt>0</asrwt>
<pdfrwt beam="1">  1       21 0.10328073E+00 0.17263609E+03</pdfrwt>
<pdfrwt beam="2">  1       21 0.80423980E-02 0.17263609E+03</pdfrwt>
<totfact> 0.91165216E+04</totfact>
</mgrwt>
</event>
<event>
 6    1  0.4241465E-002  0.1302307E+03  0.7546771E-02  0.1227114E+00
         21   -1    0    0  503  502  0.00000000000E+00  0.00000000000E+00  0.95660973247E+01  0.95660973247E+01  0.00000000000E+00 0.  1.
         21   -1    0    0  504  503 -0.00000000000E+00 -0.00000000000E+00 -0.73435197213E+03  0.73435197213E+03  0.00000000000E+00 0.  1.
         25    2    1    2    0    0  0.28608405183E+02  0.22731566749E+02 -0.53272574281E+03  0.54841293071E+03  0.12499944217E+03 0.  0.
          5    1    3    3  501    0  0.21556393538E+02  0.14865199171E+02 -0.14215400416E+02  0.29794963631E+02  0.10000000000E+00 0. -1.
         -5    1    3    3    0  501  0.70520116445E+01  0.78663675777E+01 -0.51851034239E+03  0.51861796708E+03  0.10000000000E+00 0. -1.
         21    1    1    2  504  502 -0.28608405183E+02 -0.22731566749E+02 -0.19206013199E+03  0.19550513874E+03  0.00000000000E+00 0.  1.
<mgrwt>
<rscale>  1 0.13023066E+03</rscale>
<asrwt>0</asrwt>
<pdfrwt beam="1">  1       21 0.14717072E-02 0.13023066E+03</pdfrwt>
<pdfrwt beam="2">  1       21 0.11297724E+00 0.13023066E+03</pdfrwt>
<totfact> 0.12440297E+06</totfact>
</mgrwt>
</event>
<event>
 6    1  0.4241465E-002  0.2172213E+03  0.7546771E-02  0.1135972E+00
         21   -1    0    0  503  502  0.00000000000E+00  0.00000000000E+00  0.12059310411E+03  0.12059310411E+03  0.00000000000E+00 0. -1.
         21   -1    0    0  504  503 -0.00000000000E+00 -0.00000000000E+00 -0.56569897869E+03  0.56569897869E+03  0.00000000000E+00 0. -1.
         25    2    1    2    0    0 -0.47031416224E+02  0.17125240602E+03 -0.45935711973E+03  0.50812800486E+03  0.12508303321E+03 0.  0.
          5    1    3    3  501    0 -0.79213476897E+02  0.89887476093E+02 -0.18725552327E+03  0.22230423810E+03  0.10000000000E+00 0.  1.
         -5    1    3    3    0  501  0.32182060672E+02  0.81364929923E+02 -0.27210159646E+03  0.28582376676E+03  0.10000000000E+00 0.  1.
         21    1    1    2  504  502  0.47031416224E+02 -0.17125240602E+03  0.14251245147E+02  0.17816407794E+03  0.00000000000E+00 0. -1.
<mgrwt>
<rscale>  1 0.21722133E+03</rscale>
<asrwt>0</asrwt>
<pdfrwt beam="1">  1       21 0.18552785E-01 0.21722133E+03</pdfrwt>
<pdfrwt beam="2">  1       21 0.87030613E-01 0.21722133E+03</pdfrwt>
<totfact> 0.29727782E+04</totfact>
</mgrwt>
</event>
<event>
 6    1  0.4241465E-002  0.1267642E+03  0.7546771E-02  0.1232338E+00
         21   -1    0    0  503  502  0.00000000000E+00  0.00000000000E+00  0.38763844501E+02  0.38763844501E+02  0.00000000000E+00 0.  1.
         21   -1    0    0  504  503 -0.00000000000E+00 -0.00000000000E+00 -0.19979077309E+04  0.19979077309E+04  0.00000000000E+00 0.  1.
         25    2    1    2    0    0 -0.35959418637E+01  0.20749604461E+02 -0.19928770971E+04  0.19969046748E+04  0.12500271610E+03 0.  0.
          5    1    3    3  501    0  0.47918753064E+02  0.48445354633E+02 -0.11182575654E+04  0.11203317151E+04  0.10000000000E+00 0.  1.
         -5    1    3    3    0  501 -0.51514694928E+02 -0.27695750172E+02 -0.87461953167E+03  0.87657295963E+03  0.10000000000E+00 0.  1.
         21    1    1    2  504  502  0.35959418637E+01 -0.20749604461E+02  0.33733210698E+02  0.39766900648E+02  0.00000000000E+00 0.  1.
<mgrwt>
<rscale>  1 0.12676417E+03</rscale>
<asrwt>0</asrwt>
<pdfrwt beam="1">  1       21 0.59636666E-02 0.12676417E+03</pdfrwt>
<pdfrwt beam="2">  1       21 0.30737051E+00 0.12676417E+03</pdfrwt>
<totfact> 0.67436636E+03</totfact>
</mgrwt>
</event>
<event>
 6    1  0.4241465E-002  0.1631396E+03  0.7546771E-02  0.1185197E+00
         21   -1    0    0  503  502  0.00000000000E+00  0.00000000000E+00  0.88031803348E+02  0.88031803348E+02  0.00000000000E+00 0.  1.
         21   -1    0    0  504  503 -0.00000000000E+00 -0.00000000000E+00 -0.21355760017E+03  0.21355760017E+03  0.00000000000E+00 0.  1.
         25    2    1    2    0    0  0.82182311162E+02  0.65084470774E+02 -0.44517761004E+02  0.16910460261E+03  0.12499845990E+03 0.  0.
          5    1    3    3  501    0  0.11516091386E+03  0.41396744014E+02 -0.36644004756E+02  0.12774396103E+03  0.10000000000E+00 0.  1.
         -5    1    3    3    0  501 -0.32978602694E+02  0.23687726761E+02 -0.78737562474E+01  0.41360641583E+02  0.10000000000E+00 0.  1.
         21    1    1    2  504  502 -0.82182311162E+02 -0.65084470774E+02 -0.81008035820E+02  0.13248480091E+03  0.00000000000E+00 0.  1.
<mgrwt>
<rscale>  1 0.16313962E+03</rscale>
<asrwt>0</asrwt>
<pdfrwt beam="1">  1       21 0.13543354E-01 0.16313962E+03</pdfrwt>
<pdfrwt beam="2">  1       21 0.32855015E-01 0.16313962E+03</pdfrwt>
<totfact> 0.42339276E+05</totfact>
</mgrwt>
</event>
<event>
 6    1  0.4241465E-002  0.1367509E+03  0.7546771E-02  0.1217769E+00
         21   -1    0    0  503  502  0.00000000000E+00  0.00000000000E+00  0.14812646522E+03  0.14812646522E+03  0.00000000000E+00 0.  1.
         21   -1    0    0  504  503 -0.00000000000E+00 -0.00000000000E+00 -0.62856865704E+02  0.62856865704E+02  0.00000000000E+00 0.  1.
         25    2    1    2    0    0 -0.38122283967E+02  0.40276051972E+02  0.51946783807E+02  0.14628496198E+03  0.12500141142E+03 0.  0.
          5    1    3    3  501    0 -0.38538394123E+02  0.83913641433E+02  0.27923433630E+02  0.96469866724E+02  0.10000000000E+00 0. -1.
         -5    1    3    3    0  501  0.41611015577E+00 -0.43637589461E+02  0.24023350177E+02  0.49815095255E+02  0.10000000000E+00 0. -1.
         21    1    1    2  504  502  0.38122283967E+02 -0.40276051972E+02  0.33322815710E+02  0.64698368945E+02  0.00000000000E+00 0.  1.
<mgrwt>
<rscale>  1 0.13675095E+03</rscale>
<asrwt>0</asrwt>
<pdfrwt beam="1">  1       21 0.22788687E-01 0.13675095E+03</pdfrwt>
<pdfrwt beam="2">  1       21 0.96702871E-02 0.13675095E+03</pdfrwt>
<totfact> 0.15514218E+06</totfact>
</mgrwt>
</event>
<event>
 6    1  0.4241465E-002  0.1265537E+03  0.7546771E-02  0.1232661E+00
         21   -1    0    0  504  502  0.00000000000E+00  0.00000000000E+00  0.95778483790E+03  0.95778483790E+03  0.00000000000E+00 0.  1.
         21   -1    0    0  502  503 -0.00000000000E+00 -0.00000000000E+00 -0.78634489428E+01  0.78634489428E+01  0.00000000000E+00 0. -1.
         25    2    1    2    0    0  0.73591121915E+01 -0.18280941002E+02  0.51646779590E+03  0.53174695397E+03  0.12500995767E+03 0.  0.
          5    1    3    3  501    0  0.65865653730E+02 -0.12902020091E+02  0.30273072071E+03  0.31008167589E+03  0.10000000000E+00 0. -1.
         -5    1    3    3    0  501 -0.58506541538E+02 -0.53789209110E+01  0.21373707520E+03  0.22166527808E+03  0.10000000000E+00 0. -1.
         21    1    1    2  504  503 -0.73591121915E+01  0.18280941002E+02  0.43345359305E+03  0.43390133287E+03  0.00000000000E+00 0.  1.
<mgrwt>
<rscale>  1 0.12655370E+03</rscale>
<asrwt>0</asrwt>
<pdfrwt beam="1">  1       21 0.14735142E+00 0.12655370E+03</pdfrwt>
<pdfrwt beam="2">  1       21 0.12097621E-02 0.12655370E+03</pdfrwt>
<totfact> 0.87825567E+05</totfact>
</mgrwt>
</event>
<event>
 6    1  0.4241465E-002  0.1285046E+03  0.7546771E-02  0.1229692E+00
         21   -1    0    0  503  502  0.00000000000E+00  0.00000000000E+00  0.15912323247E+02  0.15912323247E+02  0.00000000000E+00 0. -1.
         21   -1    0    0  504  503 -0.00000000000E+00 -0.00000000000E+00 -0.44956588663E+03  0.44956588663E+03  0.00000000000E+00 0. -1.
         25    2    1    2    0    0  0.22043051333E+02  0.20043596716E+02 -0.40186213780E+03  0.42190830487E+03  0.12500319213E+03 0.  0.
          5    1    3    3  501    0  0.46637605251E+02  0.27271111863E+00 -0.49034219717E+02  0.67672042219E+02  0.10000000000E+00 0. -1.
         -5    1    3    3    0  501 -0.24594553918E+02  0.19770885597E+02 -0.35282791808E+03  0.35423626265E+03  0.10000000000E+00 0. -1.
         21    1    1    2  504  502 -0.22043051333E+02 -0.20043596716E+02 -0.31791425579E+02  0.43569905000E+02  0.00000000000E+00 0.  1.
<mgrwt>
<rscale>  1 0.12850463E+03</rscale>
<asrwt>0</asrwt>
<pdfrwt beam="1">  1       21 0.24480499E-02 0.12850463E+03</pdfrwt>
<pdfrwt beam="2">  1       21 0.69163977E-01 0.12850463E+03</pdfrwt>
<totfact> 0.16803913E+06</totfact>
</mgrwt>
</event>
<event>
 6    1  0.4241465E-002  0.1413923E+03  0.7546771E-02  0.1211468E+00
         21   -1    0    0  504  502  0.00000000000E+00  0.00000000000E+00  0.31707567901E+02  0.31707567901E+02  0.00000000000E+00 0. -1.
         21   -1    0    0  502  503 -0.00000000000E+00 -0.00000000000E+00 -0.49766058871E+03  0.49766058871E+03  0.00000000000E+00 0. -1.
         25    2    1    2    0    0 -0.30050645884E+02 -0.58843021701E+02 -0.43306671235E+03  0.45556401171E+03  0.12500499550E+03 0.  0.
          5    1    3    3  501    0  0.20858995425E+02 -0.96763569354E+01 -0.75509344930E+01  0.24202400406E+02  0.10000000000E+00 0. -1.
         -5    1    3    3    0  501 -0.50909641308E+02 -0.49166664766E+02 -0.42551577785E+03  0.43136161130E+03  0.10000000000E+00 0. -1.
         21    1    1    2  504  503  0.30050645884E+02  0.58843021701E+02 -0.32886308466E+02  0.73804144907E+02  0.00000000000E+00 0. -1.
<mgrwt>
<rscale>  1 0.14139233E+03</rscale>
<asrwt>0</asrwt>
<pdfrwt beam="1">  1       21 0.48780876E-02 0.14139233E+03</pdfrwt>
<pdfrwt beam="2">  1       21 0.76563164E-01 0.14139233E+03</pdfrwt>
<totfact> 0.42999896E+05</totfact>
</mgrwt>
</event>
<event>
 6    1  0.4241465E-002  0.1467207E+03  0.7546771E-02  0.1204561E+00
         21   -1    0    0  504  502  0.00000000000E+00  0.00000000000E+00  0.56325464397E+02  0.56325464397E+02  0.00000000000E+00 0. -1.
         21   -1    0    0  502  503 -0.00000000000E+00 -0.00000000000E+00 -0.25305840703E+03  0.25305840703E+03  0.00000000000E+00 0. -1.
         25    2    1    2    0    0 -0.32852293614E+02 -0.69439770939E+02 -0.17731856441E+03  0.23014957919E+03  0.12500320210E+03 0.  0.
          5    1    3    3  501    0  0.17994596441E+02  0.30017723620E+02 -0.43974654865E+02  0.56201863874E+02  0.10000000000E+00 0. -1.
         -5    1    3    3    0  501 -0.50846890055E+02 -0.99457494560E+02 -0.13334390954E+03  0.17394771532E+03  0.10000000000E+00 0. -1.
         21    1    1    2  504  503  0.32852293614E+02  0.69439770939E+02 -0.19414378222E+02  0.79234292232E+02  0.00000000000E+00 0. -1.
<mgrwt>
<rscale>  1 0.14672067E+03</rscale>
<asrwt>0</asrwt>
<pdfrwt beam="1">  1       21 0.86654563E-02 0.14672067E+03</pdfrwt>
<pdfrwt beam="2">  1       21 0.38932061E-01 0.14672067E+03</pdfrwt>
<totfact> 0.66725482E+05</totfact>
</mgrwt>
</event>
<event>
 6    1  0.4241465E-002  0.1379180E+03  0.7546771E-02  0.1216158E+00
         21   -1    0    0  504  502  0.00000000000E+00  0.00000000000E+00  0.35663651469E+03  0.35663651469E+03  0.00000000000E+00 0.  1.
         21   -1    0    0  502  503 -0.00000000000E+00 -0.00000000000E+00 -0.31225074998E+02  0.31225074998E+02  0.00000000000E+00 0. -1.
         25    2    1    2    0    0 -0.58122032116E+02 -0.46619178440E+01  0.15363437161E+03  0.20645799211E+03  0.12498591229E+03 0.  0.
          5    1    3    3  501    0  0.38623473201E+02  0.10326089326E+02  0.42360320538E+02  0.58247811624E+02  0.10000000000E+00 0.  1.
         -5    1    3    3    0  501 -0.96745505317E+02 -0.14988007170E+02  0.11127405107E+03  0.14821018049E+03  0.10000000000E+00 0.  1.
         21    1    1    2  504  503  0.58122032116E+02  0.46619178440E+01  0.17177706808E+03  0.18140359758E+03  0.00000000000E+00 0.  1.
<mgrwt>
<rscale>  1 0.13791803E+03</rscale>
<asrwt>0</asrwt>
<pdfrwt beam="1">  1       21 0.54867153E-01 0.13791803E+03</pdfrwt>
<pdfrwt beam="2">  1       21 0.48038579E-02 0.13791803E+03</pdfrwt>
<totfact> 0.90559026E+05</totfact>
</mgrwt>
</event>
<event>
 6    1  0.4241465E-002  0.1451318E+03  0.7546771E-02  0.1206586E+00
         21   -1    0    0  504  502  0.00000000000E+00  0.00000000000E+00  0.74598679022E+02  0.74598679022E+02  0.00000000000E+00 0. -1.
         21   -1    0    0  502  503 -0.00000000000E+00 -0.00000000000E+00 -0.24296721123E+03  0.24296721123E+03  0.00000000000E+00 0. -1.
         25    2    1    2    0    0  0.17392417838E+02 -0.71615898747E+02 -0.19153768999E+03  0.24031213290E+03  0.12502760248E+03 0.  0.
          5    1    3    3  501    0  0.48493393954E+02 -0.73705757652E+02 -0.63936802907E+02  0.10895904154E+03  0.10000000000E+00 0.  1.
         -5    1    3    3    0  501 -0.31100976116E+02  0.20898589048E+01 -0.12760088708E+03  0.13135309136E+03  0.10000000000E+00 0.  1.
         21    1    1    2  504  503 -0.17392417838E+02  0.71615898747E+02  0.23169157783E+02  0.77253757345E+02  0.00000000000E+00 0. -1.
<mgrwt>
<rscale>  1 0.14513178E+03</rscale>
<asrwt>0</asrwt>
<pdfrwt beam="1">  1       21 0.11476720E-01 0.14513178E+03</pdfrwt>
<pdfrwt beam="2">  1       21 0.37379570E-01 0.14513178E+03</pdfrwt>
<totfact> 0.44202776E+05</totfact>
</mgrwt>
</event>
<event>
 6    1  0.4241465E-002  0.1261660E+03  0.7546771E-02  0.1233258E+00
         21   -1    0    0  503  502  0.00000000000E+00  0.00000000000E+00  0.12470033841E+03  0.12470033841E+03  0.00000000000E+00 0.  1.
         21   -1    0    0  504  503 -0.00000000000E+00 -0.00000000000E+00 -0.67432359663E+02  0.67432359663E+02  0.00000000000E+00 0.  1.
         25    2    1    2    0    0 -0.14258278685E+01 -0.17071437910E+02 -0.62741296716E+01  0.12632185915E+03  0.12499752165E+03 0.  0.
          5    1    3    3  501    0 -0.50578769452E+02 -0.37448906735E+02 -0.27957084261E+02  0.68863931744E+02  0.10000000000E+00 0.  1.
         -5    1    3    3    0  501  0.49152941583E+02  0.20377468825E+02  0.21682954590E+02  0.57457927406E+02  0.10000000000E+00 0.  1.
         21    1    1    2  504  502  0.14258278685E+01  0.17071437910E+02  0.63542108420E+02  0.65810838924E+02  0.00000000000E+00 0.  1.
<mgrwt>
<rscale>  1 0.12616595E+03</rscale>
<asrwt>0</asrwt>
<pdfrwt beam="1">  1       21 0.19184667E-01 0.12616595E+03</pdfrwt>
<pdfrwt beam="2">  1       21 0.10374209E-01 0.12616595E+03</pdfrwt>
<totfact> 0.18855090E+06</totfact>
</mgrwt>
</event>
<event>
 6    1  0.4241465E-002  0.1357706E+03  0.7546771E-02  0.1219136E+00
         21   -1    0    0  503  502  0.00000000000E+00  0.00000000000E+00  0.32128014556E+02  0.32128014556E+02  0.00000000000E+00 0. -1.
         21   -1    0    0  504  503 -0.00000000000E+00 -0.00000000000E+00 -0.30053355227E+03  0.30053355227E+03  0.00000000000E+00 0. -1.
         25    2    1    2    0    0 -0.48801886621E+00  0.52991386044E+02 -0.23047289683E+03  0.26749094153E+03  0.12500128987E+03 0.  0.
          5    1    3    3  501    0 -0.28100566199E+02 -0.23637436416E+02 -0.20014799318E+02  0.41820717506E+02  0.10000000000E+00 0. -1.
         -5    1    3    3    0  501  0.27612547333E+02  0.76628822460E+02 -0.21045809751E+03  0.22567022402E+03  0.10000000000E+00 0. -1.
         21    1    1    2  504  502  0.48801886621E+00 -0.52991386044E+02 -0.37932640886E+02  0.65170625299E+02  0.00000000000E+00 0. -1.
<mgrwt>
<rscale>  1 0.13577057E+03</rscale>
<asrwt>0</asrwt>
<pdfrwt beam="1">  1       21 0.49427717E-02 0.13577057E+03</pdfrwt>
<pdfrwt beam="2">  1       21 0.46235929E-01 0.13577057E+03</pdfrwt>
<totfact> 0.12299603E+06</totfact>
</mgrwt>
</event>
<event>
 6    1  0.4241465E-002  0.1260536E+03  0.7546771E-02  0.1233432E+00
         21   -1    0    0  504  502  0.00000000000E+00  0.00000000000E+00  0.93187585936E+02  0.93187585936E+02  0.00000000000E+00 0.  1.
         21   -1    0    0  502  503 -0.00000000000E+00 -0.00000000000E+00 -0.56534163213E+02  0.56534163213E+02  0.00000000000E+00 0.  1.
         25    2    1    2    0    0 -0.11477334829E+02 -0.11544602832E+02  0.22284403047E+02  0.12800825575E+03  0.12499804739E+03 0.  0.
          5    1    3    3  501    0 -0.65050585693E+02 -0.74043165377E+01 -0.85977695919E+01  0.66032827021E+02  0.10000000000E+00 0. -1.
         -5    1    3    3    0  501  0.53573250864E+02 -0.41402862942E+01  0.30882172638E+02  0.61975428725E+02  0.10000000000E+00 0. -1.
         21    1    1    2  504  503  0.11477334829E+02  0.11544602832E+02  0.14369019676E+02  0.21713493403E+02  0.00000000000E+00 0.  1.
<mgrwt>
<rscale>  1 0.12605364E+03</rscale>
<asrwt>0</asrwt>
<pdfrwt beam="1">  1       21 0.14336552E-01 0.12605364E+03</pdfrwt>
<pdfrwt beam="2">  1       21 0.86975635E-02 0.12605364E+03</pdfrwt>
<totfact> 0.43517731E+06</totfact>
</mgrwt>
</event>
<event>
 6    1  0.4241465E-002  0.1457068E+03  0.7546771E-02  0.1205850E+00
         21   -1    0    0  503  502  0.00000000000E+00  0.00000000000E+00  0.47564405349E+03  0.47564405349E+03  0.00000000000E+00 0.  1.
         21   -1    0    0  504  503 -0.00000000000E+00 -0.00000000000E+00 -0.26633741278E+02  0.26633741278E+02  0.00000000000E+00 0.  1.
         25    2    1    2    0    0  0.61285657493E+02 -0.42992775819E+02  0.34135615445E+03  0.37115293721E+03  0.12500467203E+03 0.  0.
          5    1    3    3  501    0  0.91474978249E+02 -0.53676634627E+02  0.30388436082E+03  0.32186109970E+03  0.10000000000E+00 0.  1.
         -5    1    3    3    0  501 -0.30189320756E+02  0.10683858808E+02  0.37471793633E+02  0.49291837507E+02  0.10000000000E+00 0.  1.
         21    1    1    2  504  502 -0.61285657493E+02  0.42992775819E+02  0.10765415776E+03  0.13112485756E+03  0.00000000000E+00 0.  1.
<mgrwt>
<rscale>  1 0.14570682E+03</rscale>
<asrwt>0</asrwt>
<pdfrwt beam="1">  1       21 0.73176002E-01 0.14570682E+03</pdfrwt>
<pdfrwt beam="2">  1       21 0.40974990E-02 0.14570682E+03</pdfrwt>
<totfact> 0.63616633E+05</totfact>
</mgrwt>
</event>
<event>
 6    1  0.4241465E-002  0.1260094E+03  0.7546771E-02  0.1233500E+00
         21   -1    0    0  503  502  0.00000000000E+00  0.00000000000E+00  0.25157273399E+02  0.25157273399E+02  0.00000000000E+00 0.  1.
         21   -1    0    0  504  503 -0.00000000000E+00 -0.00000000000E+00 -0.23322667566E+03  0.23322667566E+03  0.00000000000E+00 0.  1.
         25    2    1    2    0    0 -0.40471614220E+00  0.15912905977E+02 -0.20711721258E+03  0.24243744359E+03  0.12499995974E+03 0.  0.
          5    1    3    3  501    0  0.87353757426E+01  0.69907649597E+02 -0.12986034365E+03  0.14773999158E+03  0.10000000000E+00 0. -1.
         -5    1    3    3    0  501 -0.91400918848E+01 -0.53994743620E+02 -0.77256868931E+02  0.94697452000E+02  0.10000000000E+00 0. -1.
         21    1    1    2  504  502  0.40471614220E+00 -0.15912905977E+02 -0.95218968719E+00  0.15946505479E+02  0.00000000000E+00 0.  1.
<mgrwt>
<rscale>  1 0.12600942E+03</rscale>
<asrwt>0</asrwt>
<pdfrwt beam="1">  1       21 0.38703499E-02 0.12600942E+03</pdfrwt>
<pdfrwt beam="2">  1       21 0.35881026E-01 0.12600942E+03</pdfrwt>
<totfact> 0.30705062E+06</totfact>
</mgrwt>
</event>
<event>
 6    1  0.4241465E-002  0.1263565E+03  0.7546771E-02  0.1232964E+00
         21   -1    0    0  504  502  0.00000000000E+00  0.00000000000E+00  0.22974659903E+03  0.22974659903E+03  0.00000000000E+00 0.  1.
         21   -1    0    0  502  503 -0.00000000000E+00 -0.00000000000E+00 -0.12079564681E+03  0.12079564681E+03  0.00000000000E+00 0.  1.
         25    2    1    2    0    0 -0.14951076497E+02  0.10870917219E+02 -0.87198434057E+02  0.15352373587E+03  0.12499703614E+03 0.  0.
          5    1    3    3  501    0 -0.26711574922E+02  0.61346047666E+02 -0.22423397918E+02  0.70566738435E+02  0.10000000000E+00 0. -1.
         -5    1    3    3    0  501  0.11760498426E+02 -0.50475130447E+02 -0.64775036139E+02  0.82956997437E+02  0.10000000000E+00 0. -1.
         21    1    1    2  504  503  0.14951076497E+02 -0.10870917219E+02  0.19614938628E+03  0.19701850997E+03  0.00000000000E+00 0.  1.
<mgrwt>
<rscale>  1 0.12635652E+03</rscale>
<asrwt>0</asrwt>
<pdfrwt beam="1">  1       21 0.35345631E-01 0.12635652E+03</pdfrwt>
<pdfrwt beam="2">  1       21 0.18583946E-01 0.12635652E+03</pdfrwt>
<totfact> 0.20787996E+05</totfact>
</mgrwt>
</event>
<event>
 6    1  0.4241465E-002  0.1268244E+03  0.7546771E-02  0.1232245E+00
         21   -1    0    0  503  502  0.00000000000E+00  0.00000000000E+00  0.87459067381E+02  0.87459067381E+02  0.00000000000E+00 0. -1.
         21   -1    0    0  504  503 -0.00000000000E+00 -0.00000000000E+00 -0.73453122412E+02  0.73453122412E+02  0.00000000000E+00 0. -1.
         25    2    1    2    0    0 -0.20937841930E+02 -0.44969801950E+01 -0.11806410979E+02  0.12737275367E+03  0.12500324389E+03 0.  0.
          5    1    3    3  501    0 -0.27213662749E+02  0.57880739119E+02 -0.26414137123E+01  0.64013674067E+02  0.10000000000E+00 0. -1.
         -5    1    3    3    0  501  0.62758208188E+01 -0.62377719314E+02 -0.91649972668E+01  0.63359079607E+02  0.10000000000E+00 0. -1.
         21    1    1    2  504  502  0.20937841930E+02  0.44969801950E+01  0.25812355948E+02  0.33539436119E+02  0.00000000000E+00 0. -1.
<mgrwt>
<rscale>  1 0.12682439E+03</rscale>
<asrwt>0</asrwt>
<pdfrwt beam="1">  1       21 0.13455241E-01 0.12682439E+03</pdfrwt>
<pdfrwt beam="2">  1       21 0.11300480E-01 0.12682439E+03</pdfrwt>
<totfact> 0.30862811E+06</totfact>
</mgrwt>
</event>
<event>
 6    1  0.4241465E-002  0.1274800E+03  0.7546771E-02  0.1231244E+00
         21   -1    0    0  504  502  0.00000000000E+00  0.00000000000E+00  0.23020749573E+01  0.23020749573E+01  0.00000000000E+00 0. -1.
         21   -1    0    0  502  503 -0.00000000000E+00 -0.00000000000E+00 -0.26023799108E+04  0.26023799108E+04  0.00000000000E+00 0. -1.
         25    2    1    2    0    0 -0.24893450876E+02  0.25841860145E+01 -0.23151589221E+04  0.23186659909E+04  0.12499912319E+03 0.  0.
          5    1    3    3  501    0  0.52845987279E+01  0.37683642447E+02 -0.19756044233E+04  0.19759708579E+04  0.10000000000E+00 0.  1.
         -5    1    3    3    0  501 -0.30178049604E+02 -0.35099456433E+02 -0.33955449884E+03  0.34269513303E+03  0.10000000000E+00 0.  1.
         21    1    1    2  504  503  0.24893450876E+02 -0.25841860145E+01 -0.28491891370E+03  0.28601599483E+03  0.00000000000E+00 0.  1.
<mgrwt>
<rscale>  1 0.12747997E+03</rscale>
<asrwt>0</asrwt>
<pdfrwt beam="1">  1       21 0.35416524E-03 0.12747997E+03</pdfrwt>
<pdfrwt beam="2">  1       21 0.40036630E+00 0.12747997E+03</pdfrwt>
<totfact> 0.17801387E+05</totfact>
</mgrwt>
</event>
<event>
 6    1  0.4241465E-002  0.1327257E+03  0.7546771E-02  0.1223466E+00
         21   -1    0    0  503  502  0.00000000000E+00  0.00000000000E+00  0.22920864527E+03  0.22920864527E+03  0.00000000000E+00 0.  1.
         21   -1    0    0  504  503 -0.00000000000E+00 -0.00000000000E+00 -0.44560966772E+02  0.44560966772E+02  0.00000000000E+00 0.  1.
         25    2    1    2    0    0  0.28245687686E+02 -0.34554471668E+02  0.68536631350E+02  0.14937666347E+03  0.12499714944E+03 0.  0.
          5    1    3    3  501    0 -0.27728778040E+02 -0.39388309880E+02  0.78710126340E+02  0.92280106607E+02  0.10000000000E+00 0. -1.
         -5    1    3    3    0  501  0.55974465726E+02  0.48338382120E+01 -0.10173494990E+02  0.57096556862E+02  0.10000000000E+00 0. -1.
         21    1    1    2  504  502 -0.28245687686E+02  0.34554471668E+02  0.11611104715E+03  0.12439294857E+03  0.00000000000E+00 0.  1.
<mgrwt>
<rscale>  1 0.13272572E+03</rscale>
<asrwt>0</asrwt>
<pdfrwt beam="1">  1       21 0.35262868E-01 0.13272572E+03</pdfrwt>
<pdfrwt beam="2">  1       21 0.68555335E-02 0.13272572E+03</pdfrwt>
<totfact> 0.12157379E+06</totfact>
</mgrwt>
</event>
<event>
 6    1  0.4241465E-002  0.1376295E+03  0.7546771E-02  0.1216555E+00
         21   -1    0    0  503  502  0.00000000000E+00  0.00000000000E+00  0.12114229471E+03  0.12114229471E+03  0.00000000000E+00 0.  1.
         21   -1    0    0  504  503 -0.00000000000E+00 -0.00000000000E+00 -0.82470713982E+02  0.82470713982E+02  0.00000000000E+00 0.  1.
         25    2    1    2    0    0 -0.41029900307E+02 -0.40419274365E+02  0.68222012259E+01  0.13779847053E+03  0.12499882236E+03 0.  0.
          5    1    3    3  501    0 -0.55807098594E+02 -0.34509588911E+02  0.55903859127E+02  0.86200901652E+02  0.10000000000E+00 0.  1.
         -5    1    3    3    0  501  0.14777198287E+02 -0.59096854536E+01 -0.49081657901E+02  0.51597568874E+02  0.10000000000E+00 0.  1.
         21    1    1    2  504  502  0.41029900307E+02  0.40419274365E+02  0.31849379502E+02  0.65814538166E+02  0.00000000000E+00 0.  1.
<mgrwt>
<rscale>  1 0.13762949E+03</rscale>
<asrwt>0</asrwt>
<pdfrwt beam="1">  1       21 0.18637276E-01 0.13762949E+03</pdfrwt>
<pdfrwt beam="2">  1       21 0.12687802E-01 0.13762949E+03</pdfrwt>
<totfact> 0.13959486E+06</totfact>
</mgrwt>
</event>
<event>
 6    1  0.4241465E-002  0.1400304E+03  0.7546771E-02  0.1213288E+00
         21   -1    0    0  504  502  0.00000000000E+00  0.00000000000E+00  0.30648356638E+03  0.30648356638E+03  0.00000000000E+00 0.  1.
         21   -1    0    0  502  503 -0.00000000000E+00 -0.00000000000E+00 -0.15352336552E+03  0.15352336552E+03  0.00000000000E+00 0.  1.
         25    2    1    2    0    0 -0.47911411544E+02  0.41076750587E+02 -0.11718086665E+03  0.18259208162E+03  0.12500283982E+03 0.  0.
          5    1    3    3  501    0 -0.54298551166E+02  0.79792757592E+02 -0.61394375852E+02  0.11438748275E+03  0.10000000000E+00 0. -1.
         -5    1    3    3    0  501  0.63871396214E+01 -0.38716007004E+02 -0.55786490803E+02  0.68204598870E+02  0.10000000000E+00 0. -1.
         21    1    1    2  504  503  0.47911411544E+02 -0.41076750587E+02  0.27014106752E+03  0.27741485028E+03  0.00000000000E+00 0.  1.
<mgrwt>
<rscale>  1 0.14003040E+03</rscale>
<asrwt>0</asrwt>
<pdfrwt beam="1">  1       21 0.47151318E-01 0.14003040E+03</pdfrwt>
<pdfrwt beam="2">  1       21 0.23618979E-01 0.14003040E+03</pdfrwt>
<totfact> 0.74303474E+04</totfact>
</mgrwt>
</event>
<event>
 6    1  0.4241465E-002  0.1272715E+03  0.7546771E-02  0.1231561E+00
         21   -1    0    0  504  502  0.00000000000E+00  0.00000000000E+00  0.10396672902E+03  0.10396672902E+03  0.00000000000E+00 0. -1.
         21   -1    0    0  502  503 -0.00000000000E+00 -0.00000000000E+00 -0.90327696397E+02  0.90327696397E+02  0.00000000000E+00 0.  1.
         25    2    1    2    0    0 -0.49824146426E+01 -0.23384283841E+02 -0.41767076142E+02  0.13394969843E+03  0.12500553537E+03 0.  0.
          5    1    3    3  501    0  0.23677712980E+02 -0.53811132951E+02  0.17577760339E+02  0.61361712655E+02  0.10000000000E+00 0.  1.
         -5    1    3    3    0  501 -0.28660127623E+02  0.30426849110E+02 -0.59344836481E+02  0.72587985776E+02  0.10000000000E+00 0.  1.
         21    1    1    2  504  503  0.49824146426E+01  0.23384283841E+02  0.55406108761E+02  0.60344726981E+02  0.00000000000E+00 0. -1.
<mgrwt>
<rscale>  1 0.12727149E+03</rscale>
<asrwt>0</asrwt>
<pdfrwt beam="1">  1       21 0.15994881E-01 0.12727149E+03</pdfrwt>
<pdfrwt beam="2">  1       21 0.13896569E-01 0.12727149E+03</pdfrwt>
<totfact> 0.15661174E+06</totfact>
</mgrwt>
</event>
<event>
 6    1  0.4241465E-002  0.1271927E+03  0.7546771E-02  0.1231682E+00
         21   -1    0    0  503  502  0.00000000000E+00  0.00000000000E+00  0.45871821795E+02  0.45871821795E+02  0.00000000000E+00 0.  1.
         21   -1    0    0  504  503 -0.00000000000E+00 -0.00000000000E+00 -0.39309150326E+03  0.39309150326E+03  0.00000000000E+00 0.  1.
         25    2    1    2    0    0  0.21340649520E+02  0.98915891277E+01 -0.37880103512E+03  0.39958504733E+03  0.12499887594E+03 0.  0.
          5    1    3    3  501    0  0.48801801961E+02  0.55426975933E+02 -0.23027126031E+03  0.24182354902E+03  0.10000000000E+00 0. -1.
         -5    1    3    3    0  501 -0.27461152441E+02 -0.45535386805E+02 -0.14852977482E+03  0.15776149832E+03  0.10000000000E+00 0. -1.
         21    1    1    2  504  502 -0.21340649520E+02 -0.98915891277E+01  0.31581353657E+02  0.39378277721E+02  0.00000000000E+00 0.  1.
<mgrwt>
<rscale>  1 0.12719271E+03</rscale>
<asrwt>0</asrwt>
<pdfrwt beam="1">  1       21 0.70572034E-02 0.12719271E+03</pdfrwt>
<pdfrwt beam="2">  1       21 0.60475616E-01 0.12719271E+03</pdfrwt>
<totfact> 0.38459274E+05</totfact>
</mgrwt>
</event>
<event>
 6    1  0.4241465E-002  0.1475934E+03  0.7546771E-02  0.1203462E+00
         21   -1    0    0  504  502  0.00000000000E+00  0.00000000000E+00  0.24832983348E+03  0.24832983348E+03  0.00000000000E+00 0. -1.
         21   -1    0    0  502  503 -0.00000000000E+00 -0.00000000000E+00 -0.21154506464E+03  0.21154506464E+03  0.00000000000E+00 0.  1.
         25    2    1    2    0    0 -0.18792339256E+02  0.76192253481E+02 -0.17798346546E+03  0.23121837411E+03  0.12500164416E+03 0.  0.
          5    1    3    3  501    0 -0.56472786777E+02  0.90954087912E+02 -0.12607503442E+03  0.16539874866E+03  0.10000000000E+00 0.  1.
         -5    1    3    3    0  501  0.37680447521E+02 -0.14761834431E+02 -0.51908431045E+02  0.65819625453E+02  0.10000000000E+00 0.  1.
         21    1    1    2  504  503  0.18792339256E+02 -0.76192253481E+02  0.21476823431E+03  0.22865652401E+03  0.00000000000E+00 0. -1.
<mgrwt>
<rscale>  1 0.14759344E+03</rscale>
<asrwt>0</asrwt>
<pdfrwt beam="1">  1       21 0.38204590E-01 0.14759344E+03</pdfrwt>
<pdfrwt beam="2">  1       21 0.32545395E-01 0.14759344E+03</pdfrwt>
<totfact> 0.61277672E+04</totfact>
</mgrwt>
</event>
<event>
 6    1  0.4241465E-002  0.1353513E+03  0.7546771E-02  0.1219725E+00
         21   -1    0    0  503  502  0.00000000000E+00  0.00000000000E+00  0.12481729582E+02  0.12481729582E+02  0.00000000000E+00 0. -1.
         21   -1    0    0  504  503 -0.00000000000E+00 -0.00000000000E+00 -0.10711506111E+04  0.10711506111E+04  0.00000000000E+00 0. -1.
         25    2    1    2    0    0  0.51930932082E+02  0.17908435992E+00 -0.98042024616E+03  0.98971906838E+03  0.12499248559E+03 0.  0.
          5    1    3    3  501    0 -0.27943311822E+02  0.36360137234E+02 -0.26408703632E+03  0.26803891696E+03  0.10000000000E+00 0.  1.
         -5    1    3    3    0  501  0.79874243904E+02 -0.36181052874E+02 -0.71633320984E+03  0.72168015142E+03  0.10000000000E+00 0.  1.
         21    1    1    2  504  502 -0.51930932082E+02 -0.17908435992E+00 -0.78248635328E+02  0.93913272271E+02  0.00000000000E+00 0. -1.
<mgrwt>
<rscale>  1 0.13535130E+03</rscale>
<asrwt>0</asrwt>
<pdfrwt beam="1">  1       21 0.19202652E-02 0.13535130E+03</pdfrwt>
<pdfrwt beam="2">  1       21 0.16479248E+00 0.13535130E+03</pdfrwt>
<totfact> 0.31207944E+05</totfact>
</mgrwt>
</event>
<event>
 6    1  0.4241465E-002  0.1263184E+03  0.7546771E-02  0.1233023E+00
         21   -1    0    0  503  502  0.00000000000E+00  0.00000000000E+00  0.23676379310E+02  0.23676379310E+02  0.00000000000E+00 0.  1.
         21   -1    0    0  504  503 -0.00000000000E+00 -0.00000000000E+00 -0.27465163661E+03  0.27465163661E+03  0.00000000000E+00 0.  1.
         25    2    1    2    0    0  0.97789008015E+01 -0.15374889787E+02 -0.24997628464E+03  0.28007939726E+03  0.12499724696E+03 0.  0.
          5    1    3    3  501    0 -0.53056404696E+02 -0.31127144961E+02 -0.12455488808E+03  0.13891656264E+03  0.10000000000E+00 0. -1.
         -5    1    3    3    0  501  0.62835305497E+02  0.15752255174E+02 -0.12542139656E+03  0.14116283461E+03  0.10000000000E+00 0. -1.
         21    1    1    2  504  502 -0.97789008015E+01  0.15374889787E+02 -0.99897266229E+00  0.18248618667E+02  0.00000000000E+00 0.  1.
<mgrwt>
<rscale>  1 0.12631835E+03</rscale>
<asrwt>0</asrwt>
<pdfrwt beam="1">  1       21 0.36425200E-02 0.12631835E+03</pdfrwt>
<pdfrwt beam="2">  1       21 0.42254097E-01 0.12631835E+03</pdfrwt>
<totfact> 0.24520024E+06</totfact>
</mgrwt>
</event>
<event>
 6    1  0.4241465E-002  0.1289374E+03  0.7546771E-02  0.1229041E+00
         21   -1    0    0  503  502  0.00000000000E+00  0.00000000000E+00  0.28124648137E+03  0.28124648137E+03  0.00000000000E+00 0.  1.
         21   -1    0    0  504  503 -0.00000000000E+00 -0.00000000000E+00 -0.16325192975E+03  0.16325192975E+03  0.00000000000E+00 0.  1.
         25    2    1    2    0    0 -0.38687649093E+01 -0.31365155153E+02 -0.13666308269E+03  0.18788732209E+03  0.12500442925E+03 0.  0.
          5    1    3    3  501    0 -0.65747221927E+01  0.32602525551E+01  0.23180183002E+02  0.24314339445E+02  0.10000000000E+00 0.  1.
         -5    1    3    3    0  501  0.27059572834E+01 -0.34625407708E+02 -0.15984326570E+03  0.16357298265E+03  0.10000000000E+00 0.  1.
         21    1    1    2  504  502  0.38687649093E+01  0.31365155153E+02  0.25465763431E+03  0.25661108903E+03  0.00000000000E+00 0.  1.
<mgrwt>
<rscale>  1 0.12893738E+03</rscale>
<asrwt>0</asrwt>
<pdfrwt beam="1">  1       21 0.43268689E-01 0.12893738E+03</pdfrwt>
<pdfrwt beam="2">  1       21 0.25115682E-01 0.12893738E+03</pdfrwt>
<totfact> 0.79212092E+04</totfact>
</mgrwt>
</event>
<event>
 6    1  0.4241465E-002  0.1333907E+03  0.7546771E-02  0.1222510E+00
         21   -1    0    0  503  502  0.00000000000E+00  0.00000000000E+00  0.59385444939E+03  0.59385444939E+03  0.00000000000E+00 0.  1.
         21   -1    0    0  504  503 -0.00000000000E+00 -0.00000000000E+00 -0.93557547605E+02  0.93557547605E+02  0.00000000000E+00 0.  1.
         25    2    1    2    0    0  0.35762064082E+02  0.29860039926E+02 -0.44506858491E+02  0.14061982037E+03  0.12499010447E+03 0.  0.
          5    1    3    3  501    0  0.20180156456E+02 -0.10094544155E+02  0.39959383802E+02  0.45890095774E+02  0.10000000000E+00 0. -1.
         -5    1    3    3    0  501  0.15581907625E+02  0.39954584081E+02 -0.84466242293E+02  0.94729724593E+02  0.10000000000E+00 0. -1.
         21    1    1    2  504  502 -0.35762064082E+02 -0.29860039926E+02  0.54480376027E+03  0.54679217662E+03  0.00000000000E+00 0.  1.
<mgrwt>
<rscale>  1 0.13339068E+03</rscale>
<asrwt>0</asrwt>
<pdfrwt beam="1">  1       21 0.91362221E-01 0.13339068E+03</pdfrwt>
<pdfrwt beam="2">  1       21 0.14393469E-01 0.13339068E+03</pdfrwt>
<totfact> 0.44295332E+04</totfact>
</mgrwt>
</event>
<event>
 6    1  0.4241465E-002  0.1290249E+03  0.7546771E-02  0.1228910E+00
         21   -1    0    0  504  502  0.00000000000E+00  0.00000000000E+00  0.42497800747E+02  0.42497800747E+02  0.00000000000E+00 0.  1.
         21   -1    0    0  502  503 -0.00000000000E+00 -0.00000000000E+00 -0.23749895668E+03  0.23749895668E+03  0.00000000000E+00 0.  1.
         25    2    1    2    0    0 -0.28522609172E+01 -0.31799170863E+02 -0.20861310374E+03  0.24528929738E+03  0.12501235819E+03 0.  0.
          5    1    3    3  501    0 -0.32075863339E+02 -0.38794828916E+02 -0.19787246736E+02  0.54087382012E+02  0.10000000000E+00 0. -1.
         -5    1    3    3    0  501  0.29223602422E+02  0.69956580535E+01 -0.18882585700E+03  0.19120191537E+03  0.10000000000E+00 0. -1.
         21    1    1    2  504  503  0.28522609172E+01  0.31799170863E+02  0.13611947800E+02  0.34707460045E+02  0.00000000000E+00 0.  1.
<mgrwt>
<rscale>  1 0.12902485E+03</rscale>
<asrwt>0</asrwt>
<pdfrwt beam="1">  1       21 0.65381232E-02 0.12902485E+03</pdfrwt>
<pdfrwt beam="2">  1       21 0.36538301E-01 0.12902485E+03</pdfrwt>
<totfact> 0.12285613E+06</totfact>
</mgrwt>
</event>
<event>
 6    1  0.4241465E-002  0.1263390E+03  0.7546771E-02  0.1232991E+00
         21   -1    0    0  503  502  0.00000000000E+00  0.00000000000E+00  0.13137205449E+04  0.13137205449E+04  0.00000000000E+00 0.  1.
         21   -1    0    0  504  503 -0.00000000000E+00 -0.00000000000E+00 -0.42166029929E+01  0.42166029929E+01  0.00000000000E+00 0.  1.
         25    2    1    2    0    0 -0.16231340561E+02 -0.84588904108E+01  0.10094273502E+04  0.10173028682E+04  0.12500616404E+03 0.  0.
          5    1    3    3  501    0  0.13493964710E+02  0.96496601663E+01  0.15304289443E+02  0.22570651303E+02  0.10000000000E+00 0. -1.
         -5    1    3    3    0  501 -0.29725305271E+02 -0.18108550577E+02  0.99412306077E+03  0.99473221690E+03  0.10000000000E+00 0. -1.
         21    1    1    2  504  502  0.16231340561E+02  0.84588904108E+01  0.30007659170E+03  0.30063427970E+03  0.00000000000E+00 0. -1.
<mgrwt>
<rscale>  1 0.12633903E+03</rscale>
<asrwt>0</asrwt>
<pdfrwt beam="1">  1       21 0.20211053E+00 0.12633903E+03</pdfrwt>
<pdfrwt beam="2">  1       21 0.64870920E-03 0.12633903E+03</pdfrwt>
<totfact> 0.98721068E+05</totfact>
</mgrwt>
</event>
<event>
 6    1  0.4241465E-002  0.1394569E+03  0.7546771E-02  0.1214062E+00
         21   -1    0    0  503  502  0.00000000000E+00  0.00000000000E+00  0.55446371474E+03  0.55446371474E+03  0.00000000000E+00 0. -1.
         21   -1    0    0  504  503 -0.00000000000E+00 -0.00000000000E+00 -0.73677918935E+02  0.73677918935E+02  0.00000000000E+00 0.  1.
         25    2    1    2    0    0 -0.33062997409E+02 -0.52252867969E+02 -0.39157021375E+01  0.13951184936E+03  0.12499879752E+03 0.  0.
          5    1    3    3  501    0  0.44547593335E+01 -0.87405462090E+02  0.33776000609E+01  0.87584118801E+02  0.10000000000E+00 0.  1.
         -5    1    3    3    0  501 -0.37517756742E+02  0.35152594121E+02 -0.72933021984E+01  0.51927730563E+02  0.10000000000E+00 0.  1.
         21    1    1    2  504  502  0.33062997409E+02  0.52252867969E+02  0.48470149794E+03  0.48862978431E+03  0.00000000000E+00 0. -1.
<mgrwt>
<rscale>  1 0.13945689E+03</rscale>
<asrwt>0</asrwt>
<pdfrwt beam="1">  1       21 0.85302107E-01 0.13945689E+03</pdfrwt>
<pdfrwt beam="2">  1       21 0.11335065E-01 0.13945689E+03</pdfrwt>
<totfact> 0.79056524E+04</totfact>
</mgrwt>
</event>
<event>
 6    1  0.4241465E-002  0.1328488E+03  0.7546771E-02  0.1223289E+00
         21   -1    0    0  504  502  0.00000000000E+00  0.00000000000E+00  0.23282912004E+03  0.23282912004E+03  0.00000000000E+00 0.  1.
         21   -1    0    0  502  503 -0.00000000000E+00 -0.00000000000E+00 -0.55510953430E+02  0.55510953430E+02  0.00000000000E+00 0.  1.
         25    2    1    2    0    0  0.21040712141E+02 -0.39773096813E+02  0.32602736521E+02  0.13679085208E+03  0.12499675191E+03 0.  0.
          5    1    3    3  501    0  0.45913728590E+02 -0.73409530407E+02  0.51193608269E+01  0.86736655936E+02  0.10000000000E+00 0. -1.
         -5    1    3    3    0  501 -0.24873016449E+02  0.33636433594E+02  0.27483375694E+02  0.50054196146E+02  0.10000000000E+00 0. -1.
         21    1    1    2  504  503 -0.21040712141E+02  0.39773096813E+02  0.14471543009E+03  0.15154922139E+03  0.00000000000E+00 0.  1.
<mgrwt>
<rscale>  1 0.13284878E+03</rscale>
<asrwt>0</asrwt>
<pdfrwt beam="1">  1       21 0.35819864E-01 0.13284878E+03</pdfrwt>
<pdfrwt beam="2">  1       21 0.85401468E-02 0.13284878E+03</pdfrwt>
<totfact> 0.80765309E+05</totfact>
</mgrwt>
</event>
<event>
 6    1  0.4241465E-002  0.1370061E+03  0.7546771E-02  0.1217415E+00
         21   -1    0    0  504  502  0.00000000000E+00  0.00000000000E+00  0.41286969124E+03  0.41286969124E+03  0.00000000000E+00 0. -1.
         21   -1    0    0  502  503 -0.00000000000E+00 -0.00000000000E+00 -0.22719151860E+02  0.22719151860E+02  0.00000000000E+00 0. -1.
         25    2    1    2    0    0 -0.53670361469E+02 -0.16278063450E+02  0.26061421135E+03  0.29443239327E+03  0.12500073599E+03 0.  0.
          5    1    3    3  501    0 -0.37611706870E+02 -0.31529387033E+02  0.26692833489E+03  0.27140281632E+03  0.10000000000E+00 0. -1.
         -5    1    3    3    0  501 -0.16058654599E+02  0.15251323584E+02 -0.63141235342E+01  0.23029576952E+02  0.10000000000E+00 0. -1.
         21    1    1    2  504  503  0.53670361469E+02  0.16278063450E+02  0.12953632803E+03  0.14115644983E+03  0.00000000000E+00 0. -1.
<mgrwt>
<rscale>  1 0.13700608E+03</rscale>
<asrwt>0</asrwt>
<pdfrwt beam="1">  1       21 0.63518408E-01 0.13700608E+03</pdfrwt>
<pdfrwt beam="2">  1       21 0.34952544E-02 0.13700608E+03</pdfrwt>
<totfact> 0.11273818E+06</totfact>
</mgrwt>
</event>
<event>
 6    1  0.4241465E-002  0.1274492E+03  0.7546771E-02  0.1231290E+00
         21   -1    0    0  503  502  0.00000000000E+00  0.00000000000E+00  0.11095311239E+02  0.11095311239E+02  0.00000000000E+00 0. -1.
         21   -1    0    0  504  503 -0.00000000000E+00 -0.00000000000E+00 -0.56509310747E+03  0.56509310747E+03  0.00000000000E+00 0. -1.
         25    2    1    2    0    0  0.74076277141E+01 -0.23746219477E+02 -0.50961600420E+03  0.52531112169E+03  0.12499818779E+03 0.  0.
          5    1    3    3  501    0 -0.20773832481E+02 -0.67832785034E+02 -0.22479111529E+03  0.23571994900E+03  0.10000000000E+00 0. -1.
         -5    1    3    3    0  501  0.28181460195E+02  0.44086565558E+02 -0.28482488891E+03  0.28959117270E+03  0.10000000000E+00 0. -1.
         21    1    1    2  504  502 -0.74076277141E+01  0.23746219477E+02 -0.44381792031E+02  0.50877297016E+02  0.00000000000E+00 0.  1.
<mgrwt>
<rscale>  1 0.12744922E+03</rscale>
<asrwt>0</asrwt>
<pdfrwt beam="1">  1       21 0.17069707E-02 0.12744922E+03</pdfrwt>
<pdfrwt beam="2">  1       21 0.86937412E-01 0.12744922E+03</pdfrwt>
<totfact> 0.18095819E+06</totfact>
</mgrwt>
</event>
<event>
 6    1  0.4241465E-002  0.1300256E+03  0.7546771E-02  0.1227418E+00
         21   -1    0    0  503  502  0.00000000000E+00  0.00000000000E+00  0.39304325811E+02  0.39304325811E+02  0.00000000000E+00 0. -1.
         21   -1    0    0  504  503 -0.00000000000E+00 -0.00000000000E+00 -0.19359765828E+03  0.19359765828E+03  0.00000000000E+00 0. -1.
         25    2    1    2    0    0  0.21865160012E+01 -0.35803097340E+02 -0.14708020169E+03  0.19631411879E+03  0.12498001791E+03 0.  0.
          5    1    3    3  501    0  0.33898092316E+02 -0.70759358854E+02 -0.66138760433E+02  0.10261731413E+03  0.10000000000E+00 0. -1.
         -5    1    3    3    0  501 -0.31711576315E+02  0.34956261514E+02 -0.80941441255E+02  0.93696804661E+02  0.10000000000E+00 0. -1.
         21    1    1    2  504  502 -0.21865160012E+01  0.35803097340E+02 -0.72131307801E+01  0.36587865297E+02  0.00000000000E+00 0. -1.
<mgrwt>
<rscale>  1 0.13002556E+03</rscale>
<asrwt>0</asrwt>
<pdfrwt beam="1">  1       21 0.60468194E-02 0.13002556E+03</pdfrwt>
<pdfrwt beam="2">  1       21 0.29784255E-01 0.13002556E+03</pdfrwt>
<totfact> 0.20908235E+06</totfact>
</mgrwt>
</event>
<event>
 6    1  0.4241465E-002  0.1479003E+03  0.7546771E-02  0.1203077E+00
         21   -1    0    0  503  502  0.00000000000E+00  0.00000000000E+00  0.39473917948E+02  0.39473917948E+02  0.00000000000E+00 0. -1.
         21   -1    0    0  504  503 -0.00000000000E+00 -0.00000000000E+00 -0.46532193757E+03  0.46532193757E+03  0.00000000000E+00 0. -1.
         25    2    1    2    0    0 -0.78062607567E+02  0.13010583977E+02 -0.39153465396E+03  0.41853779468E+03  0.12494580558E+03 0.  0.
          5    1    3    3  501    0  0.51139276699E+01  0.18892185085E+02 -0.14338506590E+01  0.19624801686E+02  0.10000000000E+00 0. -1.
         -5    1    3    3    0  501 -0.83176535237E+02 -0.58816011078E+01 -0.39010080330E+03  0.39891299300E+03  0.10000000000E+00 0. -1.
         21    1    1    2  504  502  0.78062607567E+02 -0.13010583977E+02 -0.34313365660E+02  0.86258060832E+02  0.00000000000E+00 0. -1.
<mgrwt>
<rscale>  1 0.14790031E+03</rscale>
<asrwt>0</asrwt>
<pdfrwt beam="1">  1       21 0.60729107E-02 0.14790031E+03</pdfrwt>
<pdfrwt beam="2">  1       21 0.71587987E-01 0.14790031E+03</pdfrwt>
<totfact> 0.34398426E+05</totfact>
</mgrwt>
</event>
<event>
 6    1  0.4241465E-002  0.1261941E+03  0.7546771E-02  0.1233215E+00
         21   -1    0    0  504  502  0.00000000000E+00  0.00000000000E+00  0.15197054320E+03  0.15197054320E+03  0.00000000000E+00 0. -1.
         21   -1    0    0  502  503 -0.00000000000E+00 -0.00000000000E+00 -0.35078985832E+02  0.35078985832E+02  0.00000000000E+00 0. -1.
         25    2    1    2    0    0  0.10208270821E+02  0.13939357374E+02  0.11287884217E+03  0.16931210080E+03  0.12500575982E+03 0.  0.
          5    1    3    3  501    0 -0.28537840810E+02  0.36786392117E+02 -0.13170997073E+01  0.46576729756E+02  0.10000000000E+00 0.  1.
         -5    1    3    3    0  501  0.38746111632E+02 -0.22847034743E+02  0.11419594188E+03  0.12273537104E+03  0.10000000000E+00 0.  1.
         21    1    1    2  504  503 -0.10208270821E+02 -0.13939357374E+02  0.40127151980E+01  0.17737428236E+02  0.00000000000E+00 0. -1.
<mgrwt>
<rscale>  1 0.12619411E+03</rscale>
<asrwt>0</asrwt>
<pdfrwt beam="1">  1       21 0.23380083E-01 0.12619411E+03</pdfrwt>
<pdfrwt beam="2">  1       21 0.53967671E-02 0.12619411E+03</pdfrwt>
<totfact> 0.40106413E+06</totfact>
</mgrwt>
</event>
<event>
 6    1  0.4241465E-002  0.1308910E+03  0.7546771E-02  0.1226140E+00
         21   -1    0    0  503  502  0.00000000000E+00  0.00000000000E+00  0.18837820484E+02  0.18837820484E+02  0.00000000000E+00 0.  1.
         21   -1    0    0  504  503 -0.00000000000E+00 -0.00000000000E+00 -0.45477382441E+03  0.45477382441E+03  0.00000000000E+00 0.  1.
         25    2    1    2    0    0 -0.16837497720E+02 -0.34983581856E+02 -0.23531694550E+03  0.26927036435E+03  0.12500044780E+03 0.  0.
          5    1    3    3  501    0  0.72352959987E+01  0.20034192509E+02 -0.19674842060E+03  0.19789812881E+03  0.10000000000E+00 0.  1.
         -5    1    3    3    0  501 -0.24072793719E+02 -0.55017774365E+02 -0.38568524900E+02  0.71372235543E+02  0.10000000000E+00 0.  1.
         21    1    1    2  504  502  0.16837497720E+02  0.34983581856E+02 -0.20061905843E+03  0.20434128054E+03  0.00000000000E+00 0.  1.
<mgrwt>
<rscale>  1 0.13089104E+03</rscale>
<asrwt>0</asrwt>
<pdfrwt beam="1">  1       21 0.28981263E-02 0.13089104E+03</pdfrwt>
<pdfrwt beam="2">  1       21 0.69965201E-01 0.13089104E+03</pdfrwt>
<totfact> 0.12445163E+06</totfact>
</mgrwt>
</event>
<event>
 6    1  0.4241465E-002  0.1269420E+03  0.7546771E-02  0.1232065E+00
         21   -1    0    0  503  502  0.00000000000E+00  0.00000000000E+00  0.26767469923E+02  0.26767469923E+02  0.00000000000E+00 0.  1.
         21   -1    0    0  504  503 -0.00000000000E+00 -0.00000000000E+00 -0.21148560045E+03  0.21148560045E+03  0.00000000000E+00 0.  1.
         25    2    1    2    0    0 -0.15666690046E+01 -0.22052851111E+02 -0.16783737841E+03  0.21043684335E+03  0.12500198700E+03 0.  0.
          5    1    3    3  501    0  0.27844850120E+02 -0.59608376334E+02 -0.47958090450E+02  0.81415493900E+02  0.10000000000E+00 0. -1.
         -5    1    3    3    0  501 -0.29411519125E+02  0.37555525222E+02 -0.11987928796E+03  0.12902134945E+03  0.10000000000E+00 0. -1.
         21    1    1    2  504  502  0.15666690046E+01  0.22052851111E+02 -0.16880752124E+02  0.27816227030E+02  0.00000000000E+00 0.  1.
<mgrwt>
<rscale>  1 0.12694203E+03</rscale>
<asrwt>0</asrwt>
<pdfrwt beam="1">  1       21 0.41180724E-02 0.12694203E+03</pdfrwt>
<pdfrwt beam="2">  1       21 0.32536246E-01 0.12694203E+03</pdfrwt>
<totfact> 0.33558058E+06</totfact>
</mgrwt>
</event>
<event>
 6    1  0.4241465E-002  0.1572281E+03  0.7546771E-02  0.1191862E+00
         21   -1    0    0  504  502  0.00000000000E+00  0.00000000000E+00  0.21065475556E+03  0.21065475556E+03  0.00000000000E+00 0. -1.
         21   -1    0    0  502  503 -0.00000000000E+00 -0.00000000000E+00 -0.14637707544E+03  0.14637707544E+03  0.00000000000E+00 0.  1.
         25    2    1    2    0    0 -0.11156334064E+02  0.94713831728E+02 -0.85876040201E+02  0.17915177749E+03  0.12500196553E+03 0.  0.
          5    1    3    3  501    0 -0.59896235446E+02  0.11902135584E+02 -0.30767653783E+02  0.68380394641E+02  0.10000000000E+00 0.  1.
         -5    1    3    3    0  501  0.48739901382E+02  0.82811696144E+02 -0.55108386418E+02  0.11077138285E+03  0.10000000000E+00 0.  1.
         21    1    1    2  504  503  0.11156334064E+02 -0.94713831728E+02  0.15015372032E+03  0.17788005351E+03  0.00000000000E+00 0. -1.
<mgrwt>
<rscale>  1 0.15722807E+03</rscale>
<asrwt>0</asrwt>
<pdfrwt beam="1">  1       21 0.32408424E-01 0.15722807E+03</pdfrwt>
<pdfrwt beam="2">  1       21 0.22519550E-01 0.15722807E+03</pdfrwt>
<totfact> 0.17110533E+05</totfact>
</mgrwt>
</event>
<event>
 6    1  0.4241465E-002  0.1289009E+03  0.7546771E-02  0.1229096E+00
         21   -1    0    0  504  502  0.00000000000E+00  0.00000000000E+00  0.34179513486E+02  0.34179513486E+02  0.00000000000E+00 0. -1.
         21   -1    0    0  502  503 -0.00000000000E+00 -0.00000000000E+00 -0.23487191323E+03  0.23487191323E+03  0.00000000000E+00 0. -1.
         25    2    1    2    0    0 -0.29437015843E+02  0.11126802299E+02 -0.19954889562E+03  0.23756093239E+03  0.12500036491E+03 0.  0.
          5    1    3    3  501    0  0.10233136724E+02  0.61246161741E+02 -0.12338689488E+03  0.13813089894E+03  0.10000000000E+00 0.  1.
         -5    1    3    3    0  501 -0.39670152566E+02 -0.50119359442E+02 -0.76162000739E+02  0.99430033451E+02  0.10000000000E+00 0.  1.
         21    1    1    2  504  503  0.29437015843E+02 -0.11126802299E+02 -0.11435041311E+01  0.31490494325E+02  0.00000000000E+00 0. -1.
<mgrwt>
<rscale>  1 0.12890087E+03</rscale>
<asrwt>0</asrwt>
<pdfrwt beam="1">  1       21 0.52583867E-02 0.12890087E+03</pdfrwt>
<pdfrwt beam="2">  1       21 0.36134140E-01 0.12890087E+03</pdfrwt>
<totfact> 0.18160999E+06</totfact>
</mgrwt>
</event>
<event>
 6    1  0.4241465E-002  0.1392952E+03  0.7546771E-02  0.1214280E+00
         21   -1    0    0  504  502  0.00000000000E+00  0.00000000000E+00  0.17184900959E+04  0.17184900959E+04  0.00000000000E+00 0.  1.
         21   -1    0    0  502  503 -0.00000000000E+00 -0.00000000000E+00 -0.10306572871E+02  0.10306572871E+02  0.00000000000E+00 0.  1.
         25    2    1    2    0    0  0.24289916720E+01  0.61418534933E+02  0.49971810327E+03  0.51876906281E+03  0.12500008543E+03 0.  0.
          5    1    3    3  501    0  0.72318788796E+01 -0.16700034338E+02  0.64160103813E+01  0.19296797875E+02  0.10000000000E+00 0.  1.
         -5    1    3    3    0  501 -0.48028872076E+01  0.78118569271E+02  0.49330209289E+03  0.49947226494E+03  0.10000000000E+00 0.  1.
         21    1    1    2  504  503 -0.24289916720E+01 -0.61418534933E+02  0.12084654197E+04  0.12100276059E+04  0.00000000000E+00 0.  1.
<mgrwt>
<rscale>  1 0.13929522E+03</rscale>
<asrwt>0</asrwt>
<pdfrwt beam="1">  1       21 0.26438286E+00 0.13929522E+03</pdfrwt>
<pdfrwt beam="2">  1       21 0.15856280E-02 0.13929522E+03</pdfrwt>
<totfact> 0.10251387E+05</totfact>
</mgrwt>
</event>
<event>
 6    1  0.4241465E-002  0.1283015E+03  0.7546771E-02  0.1229998E+00
         21   -1    0    0  503  502  0.00000000000E+00  0.00000000000E+00  0.28897745327E+03  0.28897745327E+03  0.00000000000E+00 0. -1.
         21   -1    0    0  504  503 -0.00000000000E+00 -0.00000000000E+00 -0.35594772006E+03  0.35594772006E+03  0.00000000000E+00 0. -1.
         25    2    1    2    0    0  0.16402395569E+02 -0.23815376418E+02 -0.34360797646E+03  0.36678018750E+03  0.12500021488E+03 0.  0.
          5    1    3    3  501    0  0.18611860588E+01  0.16739234970E+02  0.33373360711E+01  0.17170143068E+02  0.10000000000E+00 0.  1.
         -5    1    3    3    0  501  0.14541209510E+02 -0.40554611388E+02 -0.34694531253E+03  0.34961004443E+03  0.10000000000E+00 0.  1.
         21    1    1    2  504  502 -0.16402395569E+02  0.23815376418E+02  0.27663770967E+03  0.27814498584E+03  0.00000000000E+00 0. -1.
<mgrwt>
<rscale>  1 0.12830146E+03</rscale>
<asrwt>0</asrwt>
<pdfrwt beam="1">  1       21 0.44458070E-01 0.12830146E+03</pdfrwt>
<pdfrwt beam="2">  1       21 0.54761187E-01 0.12830146E+03</pdfrwt>
<totfact> 0.15987669E+04</totfact>
</mgrwt>
</event>
<event>
 6    1  0.4241465E-002  0.1325203E+03  0.7546771E-02  0.1223763E+00
         21   -1    0    0  503  502  0.00000000000E+00  0.00000000000E+00  0.13231033517E+03  0.13231033517E+03  0.00000000000E+00 0. -1.
         21   -1    0    0  504  503 -0.00000000000E+00 -0.00000000000E+00 -0.23484463632E+03  0.23484463632E+03  0.00000000000E+00 0. -1.
         25    2    1    2    0    0  0.41402507716E+02  0.14772698704E+02 -0.21153884734E+03  0.24962033250E+03  0.12501690363E+03 0.  0.
          5    1    3    3  501    0  0.77955894174E+02 -0.19800291620E+02 -0.14931490214E+03  0.16959989088E+03  0.10000000000E+00 0. -1.
         -5    1    3    3    0  501 -0.36553386458E+02  0.34572990324E+02 -0.62223945200E+02  0.80020441624E+02  0.10000000000E+00 0. -1.
         21    1    1    2  504  502 -0.41402507716E+02 -0.14772698704E+02  0.10900454619E+03  0.11753463899E+03  0.00000000000E+00 0. -1.
<mgrwt>
<rscale>  1 0.13252029E+03</rscale>
<asrwt>0</asrwt>
<pdfrwt beam="1">  1       21 0.20355436E-01 0.13252029E+03</pdfrwt>
<pdfrwt beam="2">  1       21 0.36129944E-01 0.13252029E+03</pdfrwt>
<totfact> 0.16803140E+05</totfact>
</mgrwt>
</event>
<event>
 6    1  0.4241465E-002  0.1526402E+03  0.7546771E-02  0.1197266E+00
         21   -1    0    0  503  502  0.00000000000E+00  0.00000000000E+00  0.62772469243E+03  0.62772469243E+03  0.00000000000E+00 0. -1.
         21   -1    0    0  504  503 -0.00000000000E+00 -0.00000000000E+00 -0.24898498128E+03  0.24898498128E+03  0.00000000000E+00 0.  1.
         25    2    1    2    0    0 -0.83094500115E+02  0.27727279388E+02 -0.22211274181E+03  0.26950528620E+03  0.12500212495E+03 0.  0.
          5    1    3    3  501    0 -0.53459571052E+02 -0.47669759930E+02 -0.10486981418E+03  0.12699614039E+03  0.10000000000E+00 0.  1.
         -5    1    3    3    0  501 -0.29634929063E+02  0.75397039319E+02 -0.11724292764E+03  0.14250914581E+03  0.10000000000E+00 0.  1.
         21    1    1    2  504  502  0.83094500115E+02 -0.27727279388E+02  0.60085245296E+03  0.60720438750E+03  0.00000000000E+00 0. -1.
<mgrwt>
<rscale>  1 0.15264020E+03</rscale>
<asrwt>0</asrwt>
<pdfrwt beam="1">  1       21 0.96573029E-01 0.15264020E+03</pdfrwt>
<pdfrwt beam="2">  1       21 0.38305382E-01 0.15264020E+03</pdfrwt>
<totfact> 0.60545349E+03</totfact>
</mgrwt>
</event>
<event>
 6    1  0.4241465E-002  0.1291411E+03  0.7546771E-02  0.1228736E+00
         21   -1    0    0  503  502  0.00000000000E+00  0.00000000000E+00  0.13273928767E+02  0.13273928767E+02  0.00000000000E+00 0. -1.
         21   -1    0    0  504  503 -0.00000000000E+00 -0.00000000000E+00 -0.49284565255E+03  0.49284565255E+03  0.00000000000E+00 0. -1.
         25    2    1    2    0    0  0.21891130456E+02 -0.23940033877E+02 -0.37328343760E+03  0.39499106745E+03  0.12500028706E+03 0.  0.
          5    1    3    3  501    0 -0.83657989292E+01  0.37342732196E+02 -0.42370976857E+02  0.57094447361E+02  0.10000000000E+00 0. -1.
         -5    1    3    3    0  501  0.30256929386E+02 -0.61282766073E+02 -0.33091246075E+03  0.33789662009E+03  0.10000000000E+00 0. -1.
         21    1    1    2  504  502 -0.21891130456E+02  0.23940033877E+02 -0.10628828618E+03  0.11112851386E+03  0.00000000000E+00 0. -1.
<mgrwt>
<rscale>  1 0.12914108E+03</rscale>
<asrwt>0</asrwt>
<pdfrwt beam="1">  1       21 0.20421428E-02 0.12914108E+03</pdfrwt>
<pdfrwt beam="2">  1       21 0.75822413E-01 0.12914108E+03</pdfrwt>
<totfact> 0.18427993E+06</totfact>
</mgrwt>
</event>
<event>
 6    1  0.4241465E-002  0.1264074E+03  0.7546771E-02  0.1232886E+00
         21   -1    0    0  504  502  0.00000000000E+00  0.00000000000E+00  0.85208111600E+02  0.85208111600E+02  0.00000000000E+00 0. -1.
         21   -1    0    0  502  503 -0.00000000000E+00 -0.00000000000E+00 -0.21731669825E+03  0.21731669825E+03  0.00000000000E+00 0.  1.
         25    2    1    2    0    0  0.21016902916E+00  0.18808274190E+02 -0.19749608218E+03  0.23448570402E+03  0.12500019025E+03 0.  0.
          5    1    3    3  501    0  0.23802006364E+02 -0.36233124719E+02 -0.21124200835E+02  0.48224648208E+02  0.10000000000E+00 0.  1.
         -5    1    3    3    0  501 -0.23591837334E+02  0.55041398909E+02 -0.17637188135E+03  0.18626105581E+03  0.10000000000E+00 0.  1.
         21    1    1    2  504  503 -0.21016902916E+00 -0.18808274190E+02  0.65387495537E+02  0.68039105826E+02  0.00000000000E+00 0. -1.
<mgrwt>
<rscale>  1 0.12640745E+03</rscale>
<asrwt>0</asrwt>
<pdfrwt beam="1">  1       21 0.13108940E-01 0.12640745E+03</pdfrwt>
<pdfrwt beam="2">  1       21 0.33433338E-01 0.12640745E+03</pdfrwt>
<totfact> 0.43567391E+05</totfact>
</mgrwt>
</event>
<event>
 6    1  0.4241465E-002  0.1269366E+03  0.7546771E-02  0.1232073E+00
         21   -1    0    0  503  502  0.00000000000E+00  0.00000000000E+00  0.62414364324E+02  0.62414364324E+02  0.00000000000E+00 0.  1.
         21   -1    0    0  504  503 -0.00000000000E+00 -0.00000000000E+00 -0.28721406818E+03  0.28721406818E+03  0.00000000000E+00 0.  1.
         25    2    1    2    0    0  0.15992582655E+02  0.15207297548E+02 -0.27054195410E+03  0.29884085473E+03  0.12500353166E+03 0.  0.
          5    1    3    3  501    0 -0.57462919063E+00  0.66411973725E+02 -0.19566518000E+03  0.20662950689E+03  0.10000000000E+00 0.  1.
         -5    1    3    3    0  501  0.16567211846E+02 -0.51204676177E+02 -0.74876774099E+02  0.92211347839E+02  0.10000000000E+00 0.  1.
         21    1    1    2  504  502 -0.15992582655E+02 -0.15207297548E+02  0.45742250246E+02  0.50787577775E+02  0.00000000000E+00 0.  1.
<mgrwt>
<rscale>  1 0.12693663E+03</rscale>
<asrwt>0</asrwt>
<pdfrwt beam="1">  1       21 0.96022098E-02 0.12693663E+03</pdfrwt>
<pdfrwt beam="2">  1       21 0.44186780E-01 0.12693663E+03</pdfrwt>
<totfact> 0.43318860E+05</totfact>
</mgrwt>
</event>
<event>
 6    1  0.4241465E-002  0.1263442E+03  0.7546771E-02  0.1232983E+00
         21   -1    0    0  504  502  0.00000000000E+00  0.00000000000E+00  0.18240100623E+03  0.18240100623E+03  0.00000000000E+00 0.  1.
         21   -1    0    0  502  503 -0.00000000000E+00 -0.00000000000E+00 -0.19689657964E+03  0.19689657964E+03  0.00000000000E+00 0. -1.
         25    2    1    2    0    0 -0.17203291318E+02 -0.67010977183E+01 -0.17604849089E+03  0.21669314839E+03  0.12498796530E+03 0.  0.
          5    1    3    3  501    0  0.78988126970E+01 -0.63632353860E+02 -0.90171600722E+02  0.11064535813E+03  0.10000000000E+00 0.  1.
         -5    1    3    3    0  501 -0.25102104015E+02  0.56931256142E+02 -0.85876890172E+02  0.10604779025E+03  0.10000000000E+00 0.  1.
         21    1    1    2  504  503  0.17203291318E+02  0.67010977183E+01  0.16155291748E+03  0.16260443748E+03  0.00000000000E+00 0.  1.
<mgrwt>
<rscale>  1 0.12634417E+03</rscale>
<asrwt>0</asrwt>
<pdfrwt beam="1">  1       21 0.28061693E-01 0.12634417E+03</pdfrwt>
<pdfrwt beam="2">  1       21 0.30291781E-01 0.12634417E+03</pdfrwt>
<totfact> 0.12978057E+05</totfact>
</mgrwt>
</event>
<event>
 6    1  0.4241465E-002  0.1261804E+03  0.7546771E-02  0.1233236E+00
         21   -1    0    0  504  502  0.00000000000E+00  0.00000000000E+00  0.60692633647E+03  0.60692633647E+03  0.00000000000E+00 0.  1.
         21   -1    0    0  502  503 -0.00000000000E+00 -0.00000000000E+00 -0.10392192582E+02  0.10392192582E+02  0.00000000000E+00 0.  1.
         25    2    1    2    0    0  0.62641794727E+01 -0.16001086407E+02  0.38634796946E+03  0.40643111209E+03  0.12500488255E+03 0.  0.
          5    1    3    3  501    0 -0.54446080587E+02  0.13584502232E+02  0.21636119279E+03  0.22351977572E+03  0.10000000000E+00 0.  1.
         -5    1    3    3    0  501  0.60710260060E+02 -0.29585588639E+02  0.16998677667E+03  0.18291133638E+03  0.10000000000E+00 0.  1.
         21    1    1    2  504  503 -0.62641794727E+01  0.16001086407E+02  0.21018617443E+03  0.21088741696E+03  0.00000000000E+00 0.  1.
<mgrwt>
<rscale>  1 0.12618041E+03</rscale>
<asrwt>0</asrwt>
<pdfrwt beam="1">  1       21 0.93373255E-01 0.12618041E+03</pdfrwt>
<pdfrwt beam="2">  1       21 0.15987993E-02 0.12618041E+03</pdfrwt>
<totfact> 0.17067238E+06</totfact>
</mgrwt>
</event>
<event>
 6    1  0.4241465E-002  0.1264551E+03  0.7546771E-02  0.1232813E+00
         21   -1    0    0  504  502  0.00000000000E+00  0.00000000000E+00  0.60492163821E+02  0.60492163821E+02  0.00000000000E+00 0. -1.
         21   -1    0    0  502  503 -0.00000000000E+00 -0.00000000000E+00 -0.93148447657E+02  0.93148447657E+02  0.00000000000E+00 0. -1.
         25    2    1    2    0    0  0.18692308466E+02 -0.40065306268E+01 -0.40781764357E+02  0.13286856013E+03  0.12500178912E+03 0.  0.
          5    1    3    3  501    0  0.70841870613E+02  0.11975497643E+02 -0.21078715835E+02  0.74875265856E+02  0.10000000000E+00 0.  1.
         -5    1    3    3    0  501 -0.52149562148E+02 -0.15982028269E+02 -0.19703048521E+02  0.57993294275E+02  0.10000000000E+00 0.  1.
         21    1    1    2  504  503 -0.18692308466E+02  0.40065306268E+01  0.81254805217E+01  0.20772051347E+02  0.00000000000E+00 0. -1.
<mgrwt>
<rscale>  1 0.12645514E+03</rscale>
<asrwt>0</asrwt>
<pdfrwt beam="1">  1       21 0.93064867E-02 0.12645514E+03</pdfrwt>
<pdfrwt beam="2">  1       21 0.14330530E-01 0.12645514E+03</pdfrwt>
<totfact> 0.38729047E+06</totfact>
</mgrwt>
</event>
<event>
 6    1  0.4241465E-002  0.1289466E+03  0.7546771E-02  0.1229027E+00
         21   -1    0    0  504  502  0.00000000000E+00  0.00000000000E+00  0.90527853575E+03  0.90527853575E+03  0.00000000000E+00 0.  1.
         21   -1    0    0  502  503 -0.00000000000E+00 -0.00000000000E+00 -0.32257199200E+02  0.32257199200E+02  0.00000000000E+00 0.  1.
         25    2    1    2    0    0 -0.23231746958E+01 -0.31580070801E+02  0.98235787445E+02  0.16210337484E+03  0.12499814473E+03 0.  0.
          5    1    3    3  501    0  0.53431922297E+02 -0.41013811282E+02  0.30712948076E+02  0.74029711709E+02  0.10000000000E+00 0.  1.
         -5    1    3    3    0  501 -0.55755096992E+02  0.94337404806E+01  0.67522839369E+02  0.88073663127E+02  0.10000000000E+00 0.  1.
         21    1    1    2  504  503  0.23231746958E+01  0.31580070801E+02  0.77478554911E+03  0.77543236012E+03  0.00000000000E+00 0.  1.
<mgrwt>
<rscale>  1 0.12894663E+03</rscale>
<asrwt>0</asrwt>
<pdfrwt beam="1">  1       21 0.13927360E+00 0.12894663E+03</pdfrwt>
<pdfrwt beam="2">  1       21 0.49626467E-02 0.12894663E+03</pdfrwt>
<totfact> 0.10185966E+05</totfact>
</mgrwt>
</event>
<event>
 6    1  0.4241465E-002  0.1296663E+03  0.7546771E-02  0.1227952E+00
         21   -1    0    0  504  502  0.00000000000E+00  0.00000000000E+00  0.19071538454E+03  0.19071538454E+03  0.00000000000E+00 0. -1.
         21   -1    0    0  502  503 -0.00000000000E+00 -0.00000000000E+00 -0.97559400215E+02  0.97559400215E+02  0.00000000000E+00 0. -1.
         25    2    1    2    0    0  0.21026658019E+01 -0.34432495390E+02 -0.51532224926E+02  0.13953105938E+03  0.12499331336E+03 0.  0.
          5    1    3    3  501    0 -0.40209722651E+02 -0.61786582764E+02 -0.50090152945E+02  0.89125961579E+02  0.10000000000E+00 0.  1.
         -5    1    3    3    0  501  0.42312388453E+02  0.27354087374E+02 -0.14420719816E+01  0.50405097801E+02  0.10000000000E+00 0.  1.
         21    1    1    2  504  503 -0.21026658019E+01  0.34432495390E+02  0.14468820925E+03  0.14874372537E+03  0.00000000000E+00 0. -1.
<mgrwt>
<rscale>  1 0.12966629E+03</rscale>
<asrwt>0</asrwt>
<pdfrwt beam="1">  1       21 0.29340828E-01 0.12966629E+03</pdfrwt>
<pdfrwt beam="2">  1       21 0.15009139E-01 0.12966629E+03</pdfrwt>
<totfact> 0.44008415E+05</totfact>
</mgrwt>
</event>
<event>
 6    1  0.4241465E-002  0.1262107E+03  0.7546771E-02  0.1233189E+00
         21   -1    0    0  504  502  0.00000000000E+00  0.00000000000E+00  0.27926727924E+03  0.27926727924E+03  0.00000000000E+00 0.  1.
         21   -1    0    0  502  503 -0.00000000000E+00 -0.00000000000E+00 -0.19343559244E+02  0.19343559244E+02  0.00000000000E+00 0.  1.
         25    2    1    2    0    0 -0.14419275239E+02 -0.10034521898E+02  0.20297939513E+03  0.23901836193E+03  0.12498214017E+03 0.  0.
          5    1    3    3  501    0 -0.27562927334E+02  0.51687035241E+02  0.12968271173E+03  0.14229856042E+03  0.10000000000E+00 0.  1.
         -5    1    3    3    0  501  0.13143652095E+02 -0.61721557139E+02  0.73296683399E+02  0.96719801506E+02  0.10000000000E+00 0.  1.
         21    1    1    2  504  503  0.14419275239E+02  0.10034521898E+02  0.56944324865E+02  0.59592476560E+02  0.00000000000E+00 0.  1.
<mgrwt>
<rscale>  1 0.12621071E+03</rscale>
<asrwt>0</asrwt>
<pdfrwt beam="1">  1       21 0.42964194E-01 0.12621071E+03</pdfrwt>
<pdfrwt beam="2">  1       21 0.29759324E-02 0.12621071E+03</pdfrwt>
<totfact> 0.33067078E+06</totfact>
</mgrwt>
</event>
<event>
 6    1  0.4241465E-002  0.1266315E+03  0.7546771E-02  0.1232541E+00
         21   -1    0    0  504  502  0.00000000000E+00  0.00000000000E+00  0.74098798183E+02  0.74098798183E+02  0.00000000000E+00 0. -1.
         21   -1    0    0  502  503 -0.00000000000E+00 -0.00000000000E+00 -0.72943590696E+02  0.72943590696E+02  0.00000000000E+00 0. -1.
         25    2    1    2    0    0 -0.20260489129E+02 -0.11021327419E+01  0.30105837771E+01  0.12666729287E+03  0.12499534932E+03 0.  0.
          5    1    3    3  501    0  0.38001201569E+02 -0.27278131130E+02  0.31844577757E+02  0.56588646309E+02  0.10000000000E+00 0. -1.
         -5    1    3    3    0  501 -0.58261690698E+02  0.26175998388E+02 -0.28833993979E+02  0.70078646558E+02  0.10000000000E+00 0. -1.
         21    1    1    2  504  503  0.20260489129E+02  0.11021327419E+01 -0.18553762908E+01  0.20375096012E+02  0.00000000000E+00 0. -1.
<mgrwt>
<rscale>  1 0.12663151E+03</rscale>
<asrwt>0</asrwt>
<pdfrwt beam="1">  1       21 0.11399815E-01 0.12663151E+03</pdfrwt>
<pdfrwt beam="2">  1       21 0.11222091E-01 0.12663151E+03</pdfrwt>
<totfact> 0.41930128E+06</totfact>
</mgrwt>
</event>
<event>
 6    1  0.4241465E-002  0.1260915E+03  0.7546771E-02  0.1233373E+00
         21   -1    0    0  503  502  0.00000000000E+00  0.00000000000E+00  0.16788523420E+02  0.16788523420E+02  0.00000000000E+00 0. -1.
         21   -1    0    0  504  503 -0.00000000000E+00 -0.00000000000E+00 -0.30301917219E+03  0.30301917219E+03  0.00000000000E+00 0. -1.
         25    2    1    2    0    0  0.15730602269E+02  0.50258103814E+01 -0.25556941349E+03  0.28498210205E+03  0.12500545093E+03 0.  0.
          5    1    3    3  501    0  0.93987000383E+01 -0.39867911785E+02 -0.22857502372E+03  0.23221614376E+03  0.10000000000E+00 0. -1.
         -5    1    3    3    0  501  0.63319022308E+01  0.44893722167E+02 -0.26994389769E+02  0.52765958296E+02  0.10000000000E+00 0. -1.
         21    1    1    2  504  502 -0.15730602269E+02 -0.50258103814E+01 -0.30661235284E+02  0.34825593561E+02  0.00000000000E+00 0. -1.
<mgrwt>
<rscale>  1 0.12609153E+03</rscale>
<asrwt>0</asrwt>
<pdfrwt beam="1">  1       21 0.25828499E-02 0.12609153E+03</pdfrwt>
<pdfrwt beam="2">  1       21 0.46618332E-01 0.12609153E+03</pdfrwt>
<totfact> 0.35314020E+06</totfact>
</mgrwt>
</event>
<event>
 6    1  0.4241465E-002  0.1260576E+03  0.7546771E-02  0.1233426E+00
         21   -1    0    0  504  502  0.00000000000E+00  0.00000000000E+00  0.20215343377E+02  0.20215343377E+02  0.00000000000E+00 0. -1.
         21   -1    0    0  502  503 -0.00000000000E+00 -0.00000000000E+00 -0.39720271340E+03  0.39720271340E+03  0.00000000000E+00 0. -1.
         25    2    1    2    0    0  0.15990480124E+02  0.32339011645E+01 -0.38040699106E+03  0.40074930219E+03  0.12499748314E+03 0.  0.
          5    1    3    3  501    0  0.26396108694E+02 -0.29403540299E+02 -0.32506772596E+02  0.51166619988E+02  0.10000000000E+00 0.  1.
         -5    1    3    3    0  501 -0.10405628571E+02  0.32637441464E+02 -0.34790021846E+03  0.34958268220E+03  0.10000000000E+00 0.  1.
         21    1    1    2  504  503 -0.15990480124E+02 -0.32339011645E+01  0.34196210373E+01  0.16668754583E+02  0.00000000000E+00 0. -1.
<mgrwt>
<rscale>  1 0.12605762E+03</rscale>
<asrwt>0</asrwt>
<pdfrwt beam="1">  1       21 0.31100530E-02 0.12605762E+03</pdfrwt>
<pdfrwt beam="2">  1       21 0.61108107E-01 0.12605762E+03</pdfrwt>
<totfact> 0.14831759E+06</totfact>
</mgrwt>
</event>
<event>
 6    1  0.4241465E-002  0.1277144E+03  0.7546771E-02  0.1230887E+00
         21   -1    0    0  504  502  0.00000000000E+00  0.00000000000E+00  0.24946586841E+02  0.24946586841E+02  0.00000000000E+00 0.  1.
         21   -1    0    0  502  503 -0.00000000000E+00 -0.00000000000E+00 -0.28553450788E+03  0.28553450788E+03  0.00000000000E+00 0.  1.
         25    2    1    2    0    0 -0.66924995032E+01  0.25332069023E+02 -0.25266404207E+03  0.28310791207E+03  0.12499787378E+03 0.  0.
          5    1    3    3  501    0  0.16648819261E+02 -0.45312658355E+02 -0.62971189911E+02  0.79346083387E+02  0.10000000000E+00 0.  1.
         -5    1    3    3    0  501 -0.23341318764E+02  0.70644727378E+02 -0.18969285216E+03  0.20376182868E+03  0.10000000000E+00 0.  1.
         21    1    1    2  504  503  0.66924995032E+01 -0.25332069023E+02 -0.79238789681E+01  0.27373182651E+02  0.00000000000E+00 0.  1.
<mgrwt>
<rscale>  1 0.12771441E+03</rscale>
<asrwt>0</asrwt>
<pdfrwt beam="1">  1       21 0.38379365E-02 0.12771441E+03</pdfrwt>
<pdfrwt beam="2">  1       21 0.43928385E-01 0.12771441E+03</pdfrwt>
<totfact> 0.20797692E+06</totfact>
</mgrwt>
</event>
<event>
 6    1  0.4241465E-002  0.1557190E+03  0.7546771E-02  0.1193617E+00
         21   -1    0    0  503  502  0.00000000000E+00  0.00000000000E+00  0.43185720864E+03  0.43185720864E+03  0.00000000000E+00 0.  1.
         21   -1    0    0  504  503 -0.00000000000E+00 -0.00000000000E+00 -0.50956867697E+02  0.50956867697E+02  0.00000000000E+00 0. -1.
         25    2    1    2    0    0  0.67633019258E+02 -0.63640947057E+02  0.95468135871E+02  0.18265422038E+03  0.12499601522E+03 0.  0.
          5    1    3    3  501    0 -0.21276747655E+02 -0.49921428099E+02  0.40854109083E+01  0.54420120880E+02  0.10000000000E+00 0.  1.
         -5    1    3    3    0  501  0.88909766914E+02 -0.13719518958E+02  0.91382724963E+02  0.12823409950E+03  0.10000000000E+00 0.  1.
         21    1    1    2  504  502 -0.67633019258E+02  0.63640947057E+02  0.28543220508E+03  0.30015985596E+03  0.00000000000E+00 0.  1.
<mgrwt>
<rscale>  1 0.15571898E+03</rscale>
<asrwt>0</asrwt>
<pdfrwt beam="1">  1       21 0.66439568E-01 0.15571898E+03</pdfrwt>
<pdfrwt beam="2">  1       21 0.78395184E-02 0.15571898E+03</pdfrwt>
<totfact> 0.26084966E+05</totfact>
</mgrwt>
</event>
<event>
 6    1  0.4241465E-002  0.1285955E+03  0.7546771E-02  0.1229555E+00
         21   -1    0    0  503  502  0.00000000000E+00  0.00000000000E+00  0.22500221439E+03  0.22500221439E+03  0.00000000000E+00 0.  1.
         21   -1    0    0  504  503 -0.00000000000E+00 -0.00000000000E+00 -0.41975697928E+02  0.41975697928E+02  0.00000000000E+00 0.  1.
         25    2    1    2    0    0 -0.29131272667E+02  0.78994414352E+01  0.62969878949E+02  0.14318522904E+03  0.12500308772E+03 0.  0.
          5    1    3    3  501    0 -0.54635669814E+02 -0.43772343043E+02  0.25783739904E+02  0.74604863614E+02  0.10000000000E+00 0.  1.
         -5    1    3    3    0  501  0.25504397147E+02  0.51671784478E+02  0.37186139045E+02  0.68580365426E+02  0.10000000000E+00 0.  1.
         21    1    1    2  504  502  0.29131272667E+02 -0.78994414352E+01  0.12005663752E+03  0.12379268328E+03  0.00000000000E+00 0.  1.
<mgrwt>
<rscale>  1 0.12859551E+03</rscale>
<asrwt>0</asrwt>
<pdfrwt beam="1">  1       21 0.34615725E-01 0.12859551E+03</pdfrwt>
<pdfrwt beam="2">  1       21 0.64577998E-02 0.12859551E+03</pdfrwt>
<totfact> 0.13954737E+06</totfact>
</mgrwt>
</event>
<event>
 6    1  0.4241465E-002  0.1278281E+03  0.7546771E-02  0.1230714E+00
         21   -1    0    0  503  502  0.00000000000E+00  0.00000000000E+00  0.29574005858E+01  0.29574005858E+01  0.00000000000E+00 0. -1.
         21   -1    0    0  504  503 -0.00000000000E+00 -0.00000000000E+00 -0.20234024006E+04  0.20234024006E+04  0.00000000000E+00 0. -1.
         25    2    1    2    0    0  0.25618433376E+02  0.76171162150E+01 -0.17043350687E+04  0.17091220145E+04  0.12500283862E+03 0.  0.
          5    1    3    3  501    0  0.43122803332E+02 -0.52925933110E+01 -0.20154905017E+03  0.20617860543E+03  0.10000000000E+00 0. -1.
         -5    1    3    3    0  501 -0.17504369956E+02  0.12909709526E+02 -0.15027860185E+04  0.15029434091E+04  0.10000000000E+00 0. -1.
         21    1    1    2  504  502 -0.25618433376E+02 -0.76171162150E+01 -0.31610993136E+03  0.31723778668E+03  0.00000000000E+00 0. -1.
<mgrwt>
<rscale>  1 0.12782814E+03</rscale>
<asrwt>0</asrwt>
<pdfrwt beam="1">  1       21 0.45498655E-03 0.12782814E+03</pdfrwt>
<pdfrwt beam="2">  1       21 0.31129141E+00 0.12782814E+03</pdfrwt>
<totfact> 0.39982788E+05</totfact>
</mgrwt>
</event>
<event>
 6    1  0.4241465E-002  0.1546439E+03  0.7546771E-02  0.1194880E+00
         21   -1    0    0  504  502  0.00000000000E+00  0.00000000000E+00  0.32783658814E+02  0.32783658814E+02  0.00000000000E+00 0.  1.
         21   -1    0    0  502  503 -0.00000000000E+00 -0.00000000000E+00 -0.87590313887E+03  0.87590313887E+03  0.00000000000E+00 0.  1.
         25    2    1    2    0    0  0.85429758292E+02 -0.31433610690E+02 -0.78633774233E+03  0.80139988692E+03  0.12501367229E+03 0.  0.
          5    1    3    3  501    0  0.58540461452E+02  0.38612403928E+02 -0.51958180390E+03  0.52429301379E+03  0.10000000000E+00 0. -1.
         -5    1    3    3    0  501  0.26889296840E+02 -0.70046014618E+02 -0.26675593843E+03  0.27710687313E+03  0.10000000000E+00 0. -1.
         21    1    1    2  504  503 -0.85429758292E+02  0.31433610690E+02 -0.56781737732E+02  0.10728691077E+03  0.00000000000E+00 0.  1.
<mgrwt>
<rscale>  1 0.15464389E+03</rscale>
<asrwt>0</asrwt>
<pdfrwt beam="1">  1       21 0.50436404E-02 0.15464389E+03</pdfrwt>
<pdfrwt beam="2">  1       21 0.13475431E+00 0.15464389E+03</pdfrwt>
<totfact> 0.10645177E+05</totfact>
</mgrwt>
</event>
<event>
 6    1  0.4241465E-002  0.1761016E+03  0.7546771E-02  0.1171630E+00
         21   -1    0    0  504  502  0.00000000000E+00  0.00000000000E+00  0.52720968930E+02  0.52720968930E+02  0.00000000000E+00 0.  1.
         21   -1    0    0  502  503 -0.00000000000E+00 -0.00000000000E+00 -0.61804310842E+03  0.61804310842E+03  0.00000000000E+00 0.  1.
         25    2    1    2    0    0  0.12295773238E+03  0.16349565241E+02 -0.50097867513E+03  0.53102863574E+03  0.12500346719E+03 0.  0.
          5    1    3    3  501    0  0.32352984958E+02  0.65237286127E+02 -0.19170349267E+03  0.20506793567E+03  0.10000000000E+00 0. -1.
         -5    1    3    3    0  501  0.90604747418E+02 -0.48887720886E+02 -0.30927518246E+03  0.32596070007E+03  0.10000000000E+00 0. -1.
         21    1    1    2  504  503 -0.12295773238E+03 -0.16349565241E+02 -0.64343464357E+02  0.13973544160E+03  0.00000000000E+00 0.  1.
<mgrwt>
<rscale>  1 0.17610162E+03</rscale>
<asrwt>0</asrwt>
<pdfrwt beam="1">  1       21 0.81109182E-02 0.17610162E+03</pdfrwt>
<pdfrwt beam="2">  1       21 0.95083556E-01 0.17610162E+03</pdfrwt>
<totfact> 0.10902332E+05</totfact>
</mgrwt>
</event>
<event>
 6    1  0.4241465E-002  0.1279569E+03  0.7546771E-02  0.1230519E+00
         21   -1    0    0  504  502  0.00000000000E+00  0.00000000000E+00  0.16355056556E+03  0.16355056556E+03  0.00000000000E+00 0.  1.
         21   -1    0    0  502  503 -0.00000000000E+00 -0.00000000000E+00 -0.78897174972E+03  0.78897174972E+03  0.00000000000E+00 0.  1.
         25    2    1    2    0    0 -0.90933820592E+00  0.27363892846E+02 -0.78259244743E+03  0.79298418340E+03  0.12499346711E+03 0.  0.
          5    1    3    3  501    0 -0.29469789207E+02  0.14386026794E+02 -0.50461154700E+02  0.60181096504E+02  0.10000000000E+00 0.  1.
         -5    1    3    3    0  501  0.28560451001E+02  0.12977866052E+02 -0.73213129273E+03  0.73280308689E+03  0.10000000000E+00 0.  1.
         21    1    1    2  504  503  0.90933820592E+00 -0.27363892846E+02  0.15717126327E+03  0.15953813188E+03  0.00000000000E+00 0.  1.
<mgrwt>
<rscale>  1 0.12795693E+03</rscale>
<asrwt>0</asrwt>
<pdfrwt beam="1">  1       21 0.25161625E-01 0.12795693E+03</pdfrwt>
<pdfrwt beam="2">  1       21 0.12138027E+00 0.12795693E+03</pdfrwt>
<totfact> 0.81127832E+03</totfact>
</mgrwt>
</event>
<event>
 6    1  0.4241465E-002  0.1273312E+03  0.7546771E-02  0.1231470E+00
         21   -1    0    0  503  502  0.00000000000E+00  0.00000000000E+00  0.32657966450E+02  0.32657966450E+02  0.00000000000E+00 0. -1.
         21   -1    0    0  504  503 -0.00000000000E+00 -0.00000000000E+00 -0.17626645588E+03  0.17626645588E+03  0.00000000000E+00 0. -1.
         25    2    1    2    0    0  0.18186635786E+01 -0.24323551511E+02 -0.12177217197E+03  0.17618656266E+03  0.12497319833E+03 0.  0.
          5    1    3    3  501    0 -0.32396647310E+02 -0.54554884369E+02 -0.23206943294E+02  0.67559976188E+02  0.10000000000E+00 0. -1.
         -5    1    3    3    0  501  0.34215310889E+02  0.30231332858E+02 -0.98565228674E+02  0.10862658647E+03  0.10000000000E+00 0. -1.
         21    1    1    2  504  502 -0.18186635786E+01  0.24323551511E+02 -0.21836317467E+02  0.32737859671E+02  0.00000000000E+00 0. -1.
<mgrwt>
<rscale>  1 0.12733123E+03</rscale>
<asrwt>0</asrwt>
<pdfrwt beam="1">  1       21 0.50243024E-02 0.12733123E+03</pdfrwt>
<pdfrwt beam="2">  1       21 0.27117917E-01 0.12733123E+03</pdfrwt>
<totfact> 0.34187954E+06</totfact>
</mgrwt>
</event>
<event>
 6    1  0.4241465E-002  0.1281476E+03  0.7546771E-02  0.1230230E+00
         21   -1    0    0  503  502  0.00000000000E+00  0.00000000000E+00  0.12035918829E+03  0.12035918829E+03  0.00000000000E+00 0. -1.
         21   -1    0    0  504  503 -0.00000000000E+00 -0.00000000000E+00 -0.53452727262E+02  0.53452727262E+02  0.00000000000E+00 0. -1.
         25    2    1    2    0    0  0.17479437807E+01 -0.28182923375E+02  0.38612677564E+02  0.13383854116E+03  0.12499793500E+03 0.  0.
          5    1    3    3  501    0 -0.56934627347E+02 -0.15722797981E+02  0.43931772939E+02  0.73612287296E+02  0.10000000000E+00 0.  1.
         -5    1    3    3    0  501  0.58682571127E+02 -0.12460125394E+02 -0.53190953747E+01  0.60226253865E+02  0.10000000000E+00 0.  1.
         21    1    1    2  504  502 -0.17479437807E+01  0.28182923375E+02  0.28293783460E+02  0.39973374388E+02  0.00000000000E+00 0. -1.
<mgrwt>
<rscale>  1 0.12814763E+03</rscale>
<asrwt>0</asrwt>
<pdfrwt beam="1">  1       21 0.18516798E-01 0.12814763E+03</pdfrwt>
<pdfrwt beam="2">  1       21 0.82234966E-02 0.12814763E+03</pdfrwt>
<totfact> 0.30161346E+06</totfact>
</mgrwt>
</event>
<event>
 6    1  0.4241465E-002  0.1288833E+03  0.7546771E-02  0.1229122E+00
         21   -1    0    0  504  502  0.00000000000E+00  0.00000000000E+00  0.15807771404E+03  0.15807771404E+03  0.00000000000E+00 0. -1.
         21   -1    0    0  502  503 -0.00000000000E+00 -0.00000000000E+00 -0.68912616839E+02  0.68912616839E+02  0.00000000000E+00 0. -1.
         25    2    1    2    0    0  0.26120242577E+02 -0.17849070755E+02  0.12475426693E+03  0.17937263038E+03  0.12494021376E+03 0.  0.
          5    1    3    3  501    0 -0.23991823081E+02  0.11342813717E+02 -0.13261403691E+02  0.29667184323E+02  0.10000000000E+00 0. -1.
         -5    1    3    3    0  501  0.50112065659E+02 -0.29191884472E+02  0.13801567062E+03  0.14970544606E+03  0.10000000000E+00 0. -1.
         21    1    1    2  504  503 -0.26120242577E+02  0.17849070755E+02 -0.35589169725E+02  0.47617700499E+02  0.00000000000E+00 0. -1.
<mgrwt>
<rscale>  1 0.12888333E+03</rscale>
<asrwt>0</asrwt>
<pdfrwt beam="1">  1       21 0.24319648E-01 0.12888333E+03</pdfrwt>
<pdfrwt beam="2">  1       21 0.10601941E-01 0.12888333E+03</pdfrwt>
<totfact> 0.11675344E+06</totfact>
</mgrwt>
</event>
<event>
 6    1  0.4241465E-002  0.1272237E+03  0.7546771E-02  0.1231634E+00
         21   -1    0    0  504  502  0.00000000000E+00  0.00000000000E+00  0.23823444345E+03  0.23823444345E+03  0.00000000000E+00 0. -1.
         21   -1    0    0  502  503 -0.00000000000E+00 -0.00000000000E+00 -0.12090059433E+03  0.12090059433E+03  0.00000000000E+00 0. -1.
         25    2    1    2    0    0  0.21818590654E+02  0.91865044127E+01 -0.86555646791E+02  0.15387576441E+03  0.12500171247E+03 0.  0.
          5    1    3    3  501    0 -0.42996699804E+02 -0.18717734177E+02 -0.64883642921E+02  0.80056023417E+02  0.10000000000E+00 0.  1.
         -5    1    3    3    0  501  0.64815290458E+02  0.27904238590E+02 -0.21672003870E+02  0.73819740993E+02  0.10000000000E+00 0.  1.
         21    1    1    2  504  503 -0.21818590654E+02 -0.91865044127E+01  0.20388949591E+03  0.20525927337E+03  0.00000000000E+00 0. -1.
<mgrwt>
<rscale>  1 0.12722370E+03</rscale>
<asrwt>0</asrwt>
<pdfrwt beam="1">  1       21 0.36651453E-01 0.12722370E+03</pdfrwt>
<pdfrwt beam="2">  1       21 0.18600092E-01 0.12722370E+03</pdfrwt>
<totfact> 0.19318840E+05</totfact>
</mgrwt>
</event>
<event>
 6    1  0.4241465E-002  0.1345486E+03  0.7546771E-02  0.1220858E+00
         21   -1    0    0  504  502  0.00000000000E+00  0.00000000000E+00  0.53367870032E+02  0.53367870032E+02  0.00000000000E+00 0. -1.
         21   -1    0    0  502  503 -0.00000000000E+00 -0.00000000000E+00 -0.17550578040E+03  0.17550578040E+03  0.00000000000E+00 0. -1.
         25    2    1    2    0    0 -0.49652718928E+02  0.33735800502E+01 -0.11795295382E+03  0.17893080909E+03  0.12500624619E+03 0.  0.
          5    1    3    3  501    0 -0.69801122900E+02 -0.43773331439E+01 -0.13458935938E+03  0.15167617962E+03  0.10000000000E+00 0.  1.
         -5    1    3    3    0  501  0.20148403972E+02  0.77509131941E+01  0.16636405559E+02  0.27254629476E+02  0.10000000000E+00 0.  1.
         21    1    1    2  504  503  0.49652718928E+02 -0.33735800502E+01 -0.41849565391E+01  0.49942841334E+02  0.00000000000E+00 0. -1.
<mgrwt>
<rscale>  1 0.13454863E+03</rscale>
<asrwt>0</asrwt>
<pdfrwt beam="1">  1       21 0.82104417E-02 0.13454863E+03</pdfrwt>
<pdfrwt beam="2">  1       21 0.27000889E-01 0.13454863E+03</pdfrwt>
<totfact> 0.14958194E+06</totfact>
</mgrwt>
</event>
<event>
 6    1  0.4241465E-002  0.1288277E+03  0.7546771E-02  0.1229206E+00
         21   -1    0    0  503  502  0.00000000000E+00  0.00000000000E+00  0.59194840012E+02  0.59194840012E+02  0.00000000000E+00 0.  1.
         21   -1    0    0  504  503 -0.00000000000E+00 -0.00000000000E+00 -0.11411299442E+03  0.11411299442E+03  0.00000000000E+00 0.  1.
         25    2    1    2    0    0  0.27253257003E+02  0.15148335454E+02 -0.59301079249E+02  0.14182097822E+03  0.12499743909E+03 0.  0.
          5    1    3    3  501    0  0.40255905437E+01 -0.17224487214E+02 -0.89874548866E+02  0.91598760215E+02  0.10000000000E+00 0. -1.
         -5    1    3    3    0  501  0.23227666459E+02  0.32372822668E+02  0.30573469617E+02  0.50222218002E+02  0.10000000000E+00 0. -1.
         21    1    1    2  504  502 -0.27253257003E+02 -0.15148335454E+02  0.43829248382E+01  0.31486856217E+02  0.00000000000E+00 0.  1.
<mgrwt>
<rscale>  1 0.12882768E+03</rscale>
<asrwt>0</asrwt>
<pdfrwt beam="1">  1       21 0.91068986E-02 0.12882768E+03</pdfrwt>
<pdfrwt beam="2">  1       21 0.17555845E-01 0.12882768E+03</pdfrwt>
<totfact> 0.27869847E+06</totfact>
</mgrwt>
</event>
<event>
 6    1  0.4241465E-002  0.1303562E+03  0.7546771E-02  0.1226928E+00
         21   -1    0    0  504  502  0.00000000000E+00  0.00000000000E+00  0.48790112992E+02  0.48790112992E+02  0.00000000000E+00 0. -1.
         21   -1    0    0  502  503 -0.00000000000E+00 -0.00000000000E+00 -0.29991596765E+03  0.29991596765E+03  0.00000000000E+00 0. -1.
         25    2    1    2    0    0 -0.36264934480E+02 -0.72285890906E+01 -0.27524782923E+03  0.30455556954E+03  0.12500131787E+03 0.  0.
          5    1    3    3  501    0 -0.54251323257E+02 -0.31707206898E+02 -0.59033485427E+02  0.86217837169E+02  0.10000000000E+00 0.  1.
         -5    1    3    3    0  501  0.17986388776E+02  0.24478617807E+02 -0.21621434380E+03  0.21833773237E+03  0.10000000000E+00 0.  1.
         21    1    1    2  504  503  0.36264934480E+02  0.72285890906E+01  0.24121974573E+02  0.44150511100E+02  0.00000000000E+00 0. -1.
<mgrwt>
<rscale>  1 0.13035616E+03</rscale>
<asrwt>0</asrwt>
<pdfrwt beam="1">  1       21 0.75061714E-02 0.13035616E+03</pdfrwt>
<pdfrwt beam="2">  1       21 0.46140917E-01 0.13035616E+03</pdfrwt>
<totfact> 0.60737285E+05</totfact>
</mgrwt>
</event>
<event>
 6    1  0.4241465E-002  0.1260054E+03  0.7546771E-02  0.1233506E+00
         21   -1    0    0  504  502  0.00000000000E+00  0.00000000000E+00  0.14711621093E+03  0.14711621093E+03  0.00000000000E+00 0.  1.
         21   -1    0    0  502  503 -0.00000000000E+00 -0.00000000000E+00 -0.34212564674E+02  0.34212564674E+02  0.00000000000E+00 0.  1.
         25    2    1    2    0    0  0.11370001296E+01  0.15829757973E+02  0.10108093302E+03  0.16153861252E+03  0.12500197721E+03 0.  0.
          5    1    3    3  501    0 -0.31016602248E+01  0.21716420078E+02  0.12994150441E+03  0.13178022524E+03  0.10000000000E+00 0. -1.
         -5    1    3    3    0  501  0.42386603544E+01 -0.58866621046E+01 -0.28860571388E+02  0.29758387274E+02  0.10000000000E+00 0. -1.
         21    1    1    2  504  503 -0.11370001296E+01 -0.15829757973E+02  0.11822713236E+02  0.19790163088E+02  0.00000000000E+00 0. -1.
<mgrwt>
<rscale>  1 0.12600543E+03</rscale>
<asrwt>0</asrwt>
<pdfrwt beam="1">  1       21 0.22633263E-01 0.12600543E+03</pdfrwt>
<pdfrwt beam="2">  1       21 0.52634716E-02 0.12600543E+03</pdfrwt>
<totfact> 0.44450650E+06</totfact>
</mgrwt>
</event>
<event>
 6    1  0.4241465E-002  0.1265689E+03  0.7546771E-02  0.1232637E+00
         21   -1    0    0  504  502  0.00000000000E+00  0.00000000000E+00  0.64862144246E+01  0.64862144246E+01  0.00000000000E+00 0. -1.
         21   -1    0    0  502  503 -0.00000000000E+00 -0.00000000000E+00 -0.85959054690E+03  0.85959054690E+03  0.00000000000E+00 0. -1.
         25    2    1    2    0    0 -0.73945791309E+01 -0.18431036336E+02 -0.78492270647E+03  0.79506185425E+03  0.12500125625E+03 0.  0.
          5    1    3    3  501    0 -0.60203660179E+02 -0.33438905953E+02 -0.51748163211E+03  0.52204395476E+03  0.10000000000E+00 0. -1.
         -5    1    3    3    0  501  0.52809081048E+02  0.15007869616E+02 -0.26744107436E+03  0.27301789949E+03  0.10000000000E+00 0. -1.
         21    1    1    2  504  503  0.73945791309E+01  0.18431036336E+02 -0.68181626013E+02  0.71014907074E+02  0.00000000000E+00 0. -1.
<mgrwt>
<rscale>  1 0.12656894E+03</rscale>
<asrwt>0</asrwt>
<pdfrwt beam="1">  1       21 0.99787913E-03 0.12656894E+03</pdfrwt>
<pdfrwt beam="2">  1       21 0.13224470E+00 0.12656894E+03</pdfrwt>
<totfact> 0.15662749E+06</totfact>
</mgrwt>
</event>
<event>
 6    1  0.4241465E-002  0.1259788E+03  0.7546771E-02  0.1233547E+00
         21   -1    0    0  503  502  0.00000000000E+00  0.00000000000E+00  0.16306118563E+03  0.16306118563E+03  0.00000000000E+00 0. -1.
         21   -1    0    0  504  503 -0.00000000000E+00 -0.00000000000E+00 -0.40816163973E+02  0.40816163973E+02  0.00000000000E+00 0. -1.
         25    2    1    2    0    0 -0.15680027432E+02  0.51960324185E+00  0.59725649934E+02  0.13941957204E+03  0.12499812223E+03 0.  0.
          5    1    3    3  501    0 -0.63478597486E+02 -0.28454756780E+02  0.39377071575E+02  0.79936032476E+02  0.10000000000E+00 0.  1.
         -5    1    3    3    0  501  0.47798570054E+02  0.28974360022E+02  0.20348578359E+02  0.59483539564E+02  0.10000000000E+00 0.  1.
         21    1    1    2  504  502  0.15680027432E+02 -0.51960324185E+00  0.62519371725E+02  0.64457777566E+02  0.00000000000E+00 0. -1.
<mgrwt>
<rscale>  1 0.12597882E+03</rscale>
<asrwt>0</asrwt>
<pdfrwt beam="1">  1       21 0.25086336E-01 0.12597882E+03</pdfrwt>
<pdfrwt beam="2">  1       21 0.62794099E-02 0.12597882E+03</pdfrwt>
<totfact> 0.27182948E+06</totfact>
</mgrwt>
</event>
<event>
 6    1  0.4241465E-002  0.1262792E+03  0.7546771E-02  0.1233084E+00
         21   -1    0    0  503  502  0.00000000000E+00  0.00000000000E+00  0.38747618661E+02  0.38747618661E+02  0.00000000000E+00 0.  1.
         21   -1    0    0  504  503 -0.00000000000E+00 -0.00000000000E+00 -0.24381071505E+03  0.24381071505E+03  0.00000000000E+00 0.  1.
         25    2    1    2    0    0  0.10994632286E+02  0.14112814869E+02 -0.22360130196E+03  0.25679559805E+03  0.12500553371E+03 0.  0.
          5    1    3    3  501    0  0.31549309060E+02  0.32696946117E+02 -0.17263561314E+02  0.48605449661E+02  0.10000000000E+00 0.  1.
         -5    1    3    3    0  501 -0.20554676773E+02 -0.18584131248E+02 -0.20633774065E+03  0.20819014839E+03  0.10000000000E+00 0.  1.
         21    1    1    2  504  502 -0.10994632286E+02 -0.14112814869E+02  0.18538205574E+02  0.25762735657E+02  0.00000000000E+00 0.  1.
<mgrwt>
<rscale>  1 0.12627920E+03</rscale>
<asrwt>0</asrwt>
<pdfrwt beam="1">  1       21 0.59611721E-02 0.12627920E+03</pdfrwt>
<pdfrwt beam="2">  1       21 0.37509341E-01 0.12627920E+03</pdfrwt>
<totfact> 0.13642632E+06</totfact>
</mgrwt>
</event>
<event>
 6    1  0.4241465E-002  0.1261488E+03  0.7546771E-02  0.1233285E+00
         21   -1    0    0  503  502  0.00000000000E+00  0.00000000000E+00  0.19652869132E+02  0.19652869132E+02  0.00000000000E+00 0. -1.
         21   -1    0    0  504  503 -0.00000000000E+00 -0.00000000000E+00 -0.26286920938E+03  0.26286920938E+03  0.00000000000E+00 0. -1.
         25    2    1    2    0    0 -0.86864772216E+01 -0.14671442923E+02 -0.22160525774E+03  0.25499490991E+03  0.12499123049E+03 0.  0.
          5    1    3    3  501    0  0.14775789381E+02 -0.17111840438E+02 -0.22912387564E+03  0.23023661616E+03  0.10000000000E+00 0.  1.
         -5    1    3    3    0  501 -0.23462266603E+02  0.24403975157E+01  0.75186179001E+01  0.24758293748E+02  0.10000000000E+00 0.  1.
         21    1    1    2  504  502  0.86864772216E+01  0.14671442923E+02 -0.21611082510E+02  0.27527168601E+02  0.00000000000E+00 0. -1.
<mgrwt>
<rscale>  1 0.12614878E+03</rscale>
<asrwt>0</asrwt>
<pdfrwt beam="1">  1       21 0.30235183E-02 0.12614878E+03</pdfrwt>
<pdfrwt beam="2">  1       21 0.40441417E-01 0.12614878E+03</pdfrwt>
<totfact> 0.36383256E+06</totfact>
</mgrwt>
</event>
<event>
 6    1  0.4241465E-002  0.1260617E+03  0.7546771E-02  0.1233419E+00
         21   -1    0    0  503  502  0.00000000000E+00  0.00000000000E+00  0.10839112338E+03  0.10839112338E+03  0.00000000000E+00 0. -1.
         21   -1    0    0  504  503 -0.00000000000E+00 -0.00000000000E+00 -0.64081239697E+02  0.64081239697E+02  0.00000000000E+00 0. -1.
         25    2    1    2    0    0 -0.10197915340E+02 -0.12914418281E+02  0.91795975865E+00  0.12606504966E+03  0.12498309653E+03 0.  0.
          5    1    3    3  501    0 -0.25157009251E+02 -0.57899407136E+02  0.30577670722E+02  0.70144282788E+02  0.10000000000E+00 0.  1.
         -5    1    3    3    0  501  0.14959093912E+02  0.44984988855E+02 -0.29659710963E+02  0.55920766870E+02  0.10000000000E+00 0.  1.
         21    1    1    2  504  502  0.10197915340E+02  0.12914418281E+02  0.43391923923E+02  0.46407313416E+02  0.00000000000E+00 0. -1.
<mgrwt>
<rscale>  1 0.12606171E+03</rscale>
<asrwt>0</asrwt>
<pdfrwt beam="1">  1       21 0.16675557E-01 0.12606171E+03</pdfrwt>
<pdfrwt beam="2">  1       21 0.98586523E-02 0.12606171E+03</pdfrwt>
<totfact> 0.26635480E+06</totfact>
</mgrwt>
</event>
<event>
 6    1  0.4241465E-002  0.1282006E+03  0.7546771E-02  0.1230150E+00
         21   -1    0    0  503  502  0.00000000000E+00  0.00000000000E+00  0.24914078634E+03  0.24914078634E+03  0.00000000000E+00 0.  1.
         21   -1    0    0  504  503 -0.00000000000E+00 -0.00000000000E+00 -0.32772071934E+02  0.32772071934E+02  0.00000000000E+00 0.  1.
         25    2    1    2    0    0 -0.27467158710E+02  0.76603467856E+01  0.10138228973E+03  0.16344343783E+03  0.12498905144E+03 0.  0.
          5    1    3    3  501    0 -0.60633074290E+02  0.46828105259E+02  0.55510483703E+02  0.94607953899E+02  0.10000000000E+00 0.  1.
         -5    1    3    3    0  501  0.33165915580E+02 -0.39167758474E+02  0.45871806030E+02  0.68835483936E+02  0.10000000000E+00 0.  1.
         21    1    1    2  504  502  0.27467158710E+02 -0.76603467856E+01  0.11498642467E+03  0.11846942044E+03  0.00000000000E+00 0.  1.
<mgrwt>
<rscale>  1 0.12820058E+03</rscale>
<asrwt>0</asrwt>
<pdfrwt beam="1">  1       21 0.38329351E-01 0.12820058E+03</pdfrwt>
<pdfrwt beam="2">  1       21 0.50418574E-02 0.12820058E+03</pdfrwt>
<totfact> 0.17342147E+06</totfact>
</mgrwt>
</event>
<event>
 6    1  0.4241465E-002  0.1261421E+03  0.7546771E-02  0.1233295E+00
         21   -1    0    0  504  502  0.00000000000E+00  0.00000000000E+00  0.24695436858E+03  0.24695436858E+03  0.00000000000E+00 0. -1.
         21   -1    0    0  502  503 -0.00000000000E+00 -0.00000000000E+00 -0.72141494069E+02  0.72141494069E+02  0.00000000000E+00 0. -1.
         25    2    1    2    0    0  0.16679948069E+02  0.28214544917E+01 -0.16339864858E+02  0.12719601627E+03  0.12500261636E+03 0.  0.
          5    1    3    3  501    0 -0.70236048252E+01  0.33128192998E+02  0.44067153216E+02  0.55576363578E+02  0.10000000000E+00 0. -1.
         -5    1    3    3    0  501  0.23703552894E+02 -0.30306738507E+02 -0.60407018073E+02  0.71619652689E+02  0.10000000000E+00 0. -1.
         21    1    1    2  504  503 -0.16679948069E+02 -0.28214544917E+01  0.19115273937E+03  0.19189984639E+03  0.00000000000E+00 0. -1.
<mgrwt>
<rscale>  1 0.12614212E+03</rscale>
<asrwt>0</asrwt>
<pdfrwt beam="1">  1       21 0.37992979E-01 0.12614212E+03</pdfrwt>
<pdfrwt beam="2">  1       21 0.11098692E-01 0.12614212E+03</pdfrwt>
<totfact> 0.45496445E+05</totfact>
</mgrwt>
</event>
<event>
 6    1  0.4241465E-002  0.1286508E+03  0.7546771E-02  0.1229472E+00
         21   -1    0    0  504  502  0.00000000000E+00  0.00000000000E+00  0.10880230277E+03  0.10880230277E+03  0.00000000000E+00 0.  1.
         21   -1    0    0  502  503 -0.00000000000E+00 -0.00000000000E+00 -0.60839014635E+02  0.60839014635E+02  0.00000000000E+00 0.  1.
         25    2    1    2    0    0 -0.13622058023E+02 -0.27011835963E+02  0.52689065958E+02  0.13902216126E+03  0.12504328812E+03 0.  0.
          5    1    3    3  501    0 -0.63565060453E+02 -0.22464971249E+02  0.57545449287E+02  0.88637918394E+02  0.10000000000E+00 0. -1.
         -5    1    3    3    0  501  0.49943002430E+02 -0.45468647139E+01 -0.48563833292E+01  0.50384242869E+02  0.10000000000E+00 0. -1.
         21    1    1    2  504  503  0.13622058023E+02  0.27011835963E+02 -0.47257778212E+01  0.30619156143E+02  0.00000000000E+00 0.  1.
<mgrwt>
<rscale>  1 0.12865078E+03</rscale>
<asrwt>0</asrwt>
<pdfrwt beam="1">  1       21 0.16738816E-01 0.12865078E+03</pdfrwt>
<pdfrwt beam="2">  1       21 0.93598484E-02 0.12865078E+03</pdfrwt>
<totfact> 0.28982050E+06</totfact>
</mgrwt>
</event>
<event>
 6    1  0.4241465E-002  0.1594797E+03  0.7546771E-02  0.1189285E+00
         21   -1    0    0  503  502  0.00000000000E+00  0.00000000000E+00  0.16239097544E+02  0.16239097544E+02  0.00000000000E+00 0.  1.
         21   -1    0    0  504  503 -0.00000000000E+00 -0.00000000000E+00 -0.11191534301E+04  0.11191534301E+04  0.00000000000E+00 0. -1.
         25    2    1    2    0    0 -0.71394585861E+02 -0.68654359130E+02 -0.82704092185E+03  0.84227694182E+03  0.12499260935E+03 0.  0.
          5    1    3    3  501    0  0.14421687016E+02  0.22789882078E+02 -0.71858822191E+02  0.76753267737E+02  0.10000000000E+00 0. -1.
         -5    1    3    3    0  501 -0.85816272877E+02 -0.91444241208E+02 -0.75518209966E+03  0.76552367409E+03  0.10000000000E+00 0. -1.
         21    1    1    2  504  502  0.71394585861E+02  0.68654359130E+02 -0.27587341072E+03  0.29311558583E+03  0.00000000000E+00 0.  1.
<mgrwt>
<rscale>  1 0.15947965E+03</rscale>
<asrwt>0</asrwt>
<pdfrwt beam="1">  1       21 0.24983236E-02 0.15947965E+03</pdfrwt>
<pdfrwt beam="2">  1       21 0.17217739E+00 0.15947965E+03</pdfrwt>
<totfact> 0.17899806E+05</totfact>
</mgrwt>
</event>
<event>
 6    1  0.4241465E-002  0.1302352E+03  0.7546771E-02  0.1227107E+00
         21   -1    0    0  504  502  0.00000000000E+00  0.00000000000E+00  0.18265579526E+03  0.18265579526E+03  0.00000000000E+00 0. -1.
         21   -1    0    0  502  503 -0.00000000000E+00 -0.00000000000E+00 -0.70998827695E+02  0.70998827695E+02  0.00000000000E+00 0. -1.
         25    2    1    2    0    0 -0.36324628869E+02  0.39933815484E+01 -0.60797415421E+01  0.13037705634E+03  0.12500315118E+03 0.  0.
          5    1    3    3  501    0 -0.23811393687E+02 -0.19085303766E+02  0.55554749655E+02  0.63384315871E+02  0.10000000000E+00 0. -1.
         -5    1    3    3    0  501 -0.12513235182E+02  0.23078685315E+02 -0.61634491197E+02  0.66992740470E+02  0.10000000000E+00 0. -1.
         21    1    1    2  504  503  0.36324628869E+02 -0.39933815484E+01  0.11773670911E+03  0.12327756661E+03  0.00000000000E+00 0. -1.
<mgrwt>
<rscale>  1 0.13023522E+03</rscale>
<asrwt>0</asrwt>
<pdfrwt beam="1">  1       21 0.28100891E-01 0.13023522E+03</pdfrwt>
<pdfrwt beam="2">  1       21 0.10922897E-01 0.13023522E+03</pdfrwt>
<totfact> 0.84205759E+05</totfact>
</mgrwt>
</event>
<event>
 6    1  0.4241465E-002  0.1281540E+03  0.7546771E-02  0.1230221E+00
         21   -1    0    0  503  502  0.00000000000E+00  0.00000000000E+00  0.36352017559E+03  0.36352017559E+03  0.00000000000E+00 0.  1.
         21   -1    0    0  504  503 -0.00000000000E+00 -0.00000000000E+00 -0.62924849504E+02  0.62924849504E+02  0.00000000000E+00 0.  1.
         25    2    1    2    0    0 -0.19001883161E+02  0.20601561310E+02  0.36768126383E+01  0.12820669838E+03  0.12505175995E+03 0.  0.
          5    1    3    3  501    0  0.52145708042E+01 -0.49606666238E+02 -0.14113349469E+02  0.51838303572E+02  0.10000000000E+00 0.  1.
         -5    1    3    3    0  501 -0.24216453965E+02  0.70208227548E+02  0.17790162107E+02  0.76368394810E+02  0.10000000000E+00 0.  1.
         21    1    1    2  504  502  0.19001883161E+02 -0.20601561310E+02  0.29691851345E+03  0.29823832671E+03  0.00000000000E+00 0.  1.
<mgrwt>
<rscale>  1 0.12815396E+03</rscale>
<asrwt>0</asrwt>
<pdfrwt beam="1">  1       21 0.55926179E-01 0.12815396E+03</pdfrwt>
<pdfrwt beam="2">  1       21 0.96807463E-02 0.12815396E+03</pdfrwt>
<totfact> 0.26274085E+05</totfact>
</mgrwt>
</event>
<event>
 6    1  0.4241465E-002  0.1265574E+03  0.7546771E-02  0.1232655E+00
         21   -1    0    0  503  502  0.00000000000E+00  0.00000000000E+00  0.10906853547E+03  0.10906853547E+03  0.00000000000E+00 0.  1.
         21   -1    0    0  504  503 -0.00000000000E+00 -0.00000000000E+00 -0.13386724357E+03  0.13386724357E+03  0.00000000000E+00 0.  1.
         25    2    1    2    0    0 -0.18859528613E+02 -0.64305482992E+01 -0.10241323147E+03  0.16280433696E+03  0.12497899177E+03 0.  0.
          5    1    3    3  501    0 -0.22722285060E+02 -0.10456925578E+02  0.24943882535E+02  0.35325016728E+02  0.10000000000E+00 0. -1.
         -5    1    3    3    0  501  0.38627564468E+01  0.40263772790E+01 -0.12735711400E+03  0.12747932024E+03  0.10000000000E+00 0. -1.
         21    1    1    2  504  502  0.18859528613E+02  0.64305482992E+01  0.77614523374E+02  0.80131442078E+02  0.00000000000E+00 0.  1.
<mgrwt>
<rscale>  1 0.12655743E+03</rscale>
<asrwt>0</asrwt>
<pdfrwt beam="1">  1       21 0.16779775E-01 0.12655743E+03</pdfrwt>
<pdfrwt beam="2">  1       21 0.20594961E-01 0.12655743E+03</pdfrwt>
<totfact> 0.70138632E+05</totfact>
</mgrwt>
</event>
<event>
 6    1  0.4241465E-002  0.1461813E+03  0.7546771E-02  0.1205246E+00
         21   -1    0    0  503  502  0.00000000000E+00  0.00000000000E+00  0.17699590100E+03  0.17699590100E+03  0.00000000000E+00 0.  1.
         21   -1    0    0  504  503 -0.00000000000E+00 -0.00000000000E+00 -0.77459029997E+02  0.77459029997E+02  0.00000000000E+00 0.  1.
         25    2    1    2    0    0 -0.11829571713E+01  0.75773853850E+02  0.25272266773E+02  0.14834975791E+03  0.12500354750E+03 0.  0.
          5    1    3    3  501    0 -0.13119647857E+02  0.91108815711E+02 -0.24217620773E+02  0.95181114807E+02  0.10000000000E+00 0. -1.
         -5    1    3    3    0  501  0.11936690685E+02 -0.15334961860E+02  0.49489887546E+02  0.53168643100E+02  0.10000000000E+00 0. -1.
         21    1    1    2  504  502  0.11829571713E+01 -0.75773853850E+02  0.74264604232E+02  0.10610517309E+03  0.00000000000E+00 0.  1.
<mgrwt>
<rscale>  1 0.14618127E+03</rscale>
<asrwt>0</asrwt>
<pdfrwt beam="1">  1       21 0.27230138E-01 0.14618127E+03</pdfrwt>
<pdfrwt beam="2">  1       21 0.11916774E-01 0.14618127E+03</pdfrwt>
<totfact> 0.76675966E+05</totfact>
</mgrwt>
</event>
<event>
 6    1  0.4241465E-002  0.1259205E+03  0.7546771E-02  0.1233638E+00
         21   -1    0    0  504  502  0.00000000000E+00  0.00000000000E+00  0.61637103163E+03  0.61637103163E+03  0.00000000000E+00 0. -1.
         21   -1    0    0  502  503 -0.00000000000E+00 -0.00000000000E+00 -0.10649324058E+02  0.10649324058E+02  0.00000000000E+00 0. -1.
         25    2    1    2    0    0  0.97164676499E+01 -0.11684651298E+02  0.37060145885E+03  0.39140950666E+03  0.12500007913E+03 0.  0.
          5    1    3    3  501    0  0.29378515875E+02 -0.44059115887E+02  0.33586969975E+03  0.34001877609E+03  0.10000000000E+00 0. -1.
         -5    1    3    3    0  501 -0.19662048225E+02  0.32374464588E+02  0.34731759098E+02  0.51390730564E+02  0.10000000000E+00 0. -1.
         21    1    1    2  504  503 -0.97164676499E+01  0.11684651298E+02  0.23512024873E+03  0.23561084903E+03  0.00000000000E+00 0.  1.
<mgrwt>
<rscale>  1 0.12592045E+03</rscale>
<asrwt>0</asrwt>
<pdfrwt beam="1">  1       21 0.94826284E-01 0.12592045E+03</pdfrwt>
<pdfrwt beam="2">  1       21 0.16383580E-02 0.12592045E+03</pdfrwt>
<totfact> 0.15838054E+06</totfact>
</mgrwt>
</event>
<event>
 6    1  0.4241465E-002  0.1296195E+03  0.7546771E-02  0.1228021E+00
         21   -1    0    0  503  502  0.00000000000E+00  0.00000000000E+00  0.16185341784E+02  0.16185341784E+02  0.00000000000E+00 0. -1.
         21   -1    0    0  504  503 -0.00000000000E+00 -0.00000000000E+00 -0.42641076246E+03  0.42641076246E+03  0.00000000000E+00 0. -1.
         25    2    1    2    0    0 -0.78439470903E+00 -0.34329304338E+02 -0.29181817610E+03  0.31931029005E+03  0.12498838755E+03 0.  0.
          5    1    3    3  501    0 -0.45948220021E+02  0.16376785818E+02 -0.19529640149E+03  0.20129613129E+03  0.10000000000E+00 0.  1.
         -5    1    3    3    0  501  0.45163825312E+02 -0.50706090156E+02 -0.96521774603E+02  0.11801415876E+03  0.10000000000E+00 0.  1.
         21    1    1    2  504  502  0.78439470903E+00  0.34329304338E+02 -0.11840724458E+03  0.12328581419E+03  0.00000000000E+00 0. -1.
<mgrwt>
<rscale>  1 0.12961949E+03</rscale>
<asrwt>0</asrwt>
<pdfrwt beam="1">  1       21 0.24900526E-02 0.12961949E+03</pdfrwt>
<pdfrwt beam="2">  1       21 0.65601654E-01 0.12961949E+03</pdfrwt>
<totfact> 0.18331339E+06</totfact>
</mgrwt>
</event>
<event>
 6    1  0.4241465E-002  0.1284034E+03  0.7546771E-02  0.1229844E+00
         21   -1    0    0  503  502  0.00000000000E+00  0.00000000000E+00  0.22208522132E+02  0.22208522132E+02  0.00000000000E+00 0. -1.
         21   -1    0    0  504  503 -0.00000000000E+00 -0.00000000000E+00 -0.49588430010E+03  0.49588430010E+03  0.00000000000E+00 0. -1.
         25    2    1    2    0    0  0.19609935304E+02 -0.21930221429E+02 -0.47141233352E+03  0.48858676598E+03  0.12498782152E+03 0.  0.
          5    1    3    3  501    0  0.57121630988E+02 -0.70895463996E+01 -0.41644849851E+03  0.42040754549E+03  0.10000000000E+00 0.  1.
         -5    1    3    3    0  501 -0.37511695684E+02 -0.14840675029E+02 -0.54963835008E+02  0.68179220495E+02  0.10000000000E+00 0.  1.
         21    1    1    2  504  502 -0.19609935304E+02  0.21930221429E+02 -0.22634444528E+01  0.29506056248E+02  0.00000000000E+00 0. -1.
<mgrwt>
<rscale>  1 0.12840343E+03</rscale>
<asrwt>0</asrwt>
<pdfrwt beam="1">  1       21 0.34166956E-02 0.12840343E+03</pdfrwt>
<pdfrwt beam="2">  1       21 0.76289895E-01 0.12840343E+03</pdfrwt>
<totfact> 0.78501923E+05</totfact>
</mgrwt>
</event>
<event>
 6    1  0.4241465E-002  0.1413444E+03  0.7546771E-02  0.1211531E+00
         21   -1    0    0  503  502  0.00000000000E+00  0.00000000000E+00  0.86512303249E+03  0.86512303249E+03  0.00000000000E+00 0.  1.
         21   -1    0    0  504  503 -0.00000000000E+00 -0.00000000000E+00 -0.49978279702E+03  0.49978279702E+03  0.00000000000E+00 0. -1.
         25    2    1    2    0    0  0.47578005633E+02  0.45709426086E+02 -0.48849116903E+03  0.50852911008E+03  0.12500086129E+03 0.  0.
          5    1    3    3  501    0  0.67275433125E+01  0.19647883534E+02 -0.34247875241E+01  0.21048475858E+02  0.10000000000E+00 0.  1.
         -5    1    3    3    0  501  0.40850462321E+02  0.26061542552E+02 -0.48506638151E+03  0.48748063422E+03  0.10000000000E+00 0.  1.
         21    1    1    2  504  502 -0.47578005633E+02 -0.45709426086E+02  0.85383140451E+03  0.85637671943E+03  0.00000000000E+00 0.  1.
<mgrwt>
<rscale>  1 0.14134438E+03</rscale>
<asrwt>0</asrwt>
<pdfrwt beam="1">  1       21 0.13309585E+00 0.14134438E+03</pdfrwt>
<pdfrwt beam="2">  1       21 0.76889661E-01 0.14134438E+03</pdfrwt>
<totfact> 0.65252156E+02</totfact>
</mgrwt>
</event>
<event>
 6    1  0.4241465E-002  0.1265161E+03  0.7546771E-02  0.1232719E+00
         21   -1    0    0  504  502  0.00000000000E+00  0.00000000000E+00  0.11960900376E+03  0.11960900376E+03  0.00000000000E+00 0. -1.
         21   -1    0    0  502  503 -0.00000000000E+00 -0.00000000000E+00 -0.51203346427E+02  0.51203346427E+02  0.00000000000E+00 0. -1.
         25    2    1    2    0    0  0.19434466262E+02  0.26458655776E+00  0.33525908568E+02  0.13088284532E+03  0.12501425586E+03 0.  0.
          5    1    3    3  501    0 -0.40205635911E+02 -0.38043670604E+02  0.19034223975E+02  0.58533116390E+02  0.10000000000E+00 0. -1.
         -5    1    3    3    0  501  0.59640102173E+02  0.38308257162E+02  0.14491684594E+02  0.72349728931E+02  0.10000000000E+00 0. -1.
         21    1    1    2  504  503 -0.19434466262E+02 -0.26458655776E+00  0.34879748765E+02  0.39929504866E+02  0.00000000000E+00 0. -1.
<mgrwt>
<rscale>  1 0.12651614E+03</rscale>
<asrwt>0</asrwt>
<pdfrwt beam="1">  1       21 0.18401385E-01 0.12651614E+03</pdfrwt>
<pdfrwt beam="2">  1       21 0.78774380E-02 0.12651614E+03</pdfrwt>
<totfact> 0.32839599E+06</totfact>
</mgrwt>
</event>
<event>
 6    1  0.4241465E-002  0.1282460E+03  0.7546771E-02  0.1230082E+00
         21   -1    0    0  503  502  0.00000000000E+00  0.00000000000E+00  0.12407918813E+04  0.12407918813E+04  0.00000000000E+00 0.  1.
         21   -1    0    0  504  503 -0.00000000000E+00 -0.00000000000E+00 -0.50932078338E+01  0.50932078338E+01  0.00000000000E+00 0.  1.
         25    2    1    2    0    0  0.33783931376E+01  0.28480884335E+02  0.10777674714E+04  0.10853707941E+04  0.12499785614E+03 0.  0.
          5    1    3    3  501    0  0.77813886692E+01  0.77212044538E+01  0.44303791026E+01  0.11823927724E+02  0.10000000000E+00 0.  1.
         -5    1    3    3    0  501 -0.44029955316E+01  0.20759679881E+02  0.10733370923E+04  0.10735468664E+04  0.10000000000E+00 0.  1.
         21    1    1    2  504  502 -0.33783931376E+01 -0.28480884335E+02  0.15793120202E+03  0.16051429496E+03  0.00000000000E+00 0.  1.
<mgrwt>
<rscale>  1 0.12824601E+03</rscale>
<asrwt>0</asrwt>
<pdfrwt beam="1">  1       21 0.19089082E+00 0.12824601E+03</pdfrwt>
<pdfrwt beam="2">  1       21 0.78357142E-03 0.12824601E+03</pdfrwt>
<totfact> 0.86580073E+05</totfact>
</mgrwt>
</event>
<event>
 6    1  0.4241465E-002  0.1327775E+03  0.7546771E-02  0.1223392E+00
         21   -1    0    0  504  502  0.00000000000E+00  0.00000000000E+00  0.10604358176E+03  0.10604358176E+03  0.00000000000E+00 0. -1.
         21   -1    0    0  502  503 -0.00000000000E+00 -0.00000000000E+00 -0.25677299448E+03  0.25677299448E+03  0.00000000000E+00 0. -1.
         25    2    1    2    0    0  0.69198316338E+01 -0.44231693421E+02 -0.23355861600E+03  0.26866242769E+03  0.12500218467E+03 0.  0.
          5    1    3    3  501    0  0.90984548205E+01  0.58646047363E+01 -0.21488037075E+03  0.21515287402E+03  0.10000000000E+00 0.  1.
         -5    1    3    3    0  501 -0.21786231867E+01 -0.50096298157E+02 -0.18678245253E+02  0.53509553668E+02  0.10000000000E+00 0.  1.
         21    1    1    2  504  503 -0.69198316338E+01  0.44231693421E+02  0.82829203282E+02  0.94154148549E+02  0.00000000000E+00 0. -1.
<mgrwt>
<rscale>  1 0.13277753E+03</rscale>
<asrwt>0</asrwt>
<pdfrwt beam="1">  1       21 0.16314397E-01 0.13277753E+03</pdfrwt>
<pdfrwt beam="2">  1       21 0.39503537E-01 0.13277753E+03</pdfrwt>
<totfact> 0.21120722E+05</totfact>
</mgrwt>
</event>
<event>
 6    1  0.4241465E-002  0.1330331E+03  0.7546771E-02  0.1223023E+00
         21   -1    0    0  503  502  0.00000000000E+00  0.00000000000E+00  0.71288291619E+02  0.71288291619E+02  0.00000000000E+00 0.  1.
         21   -1    0    0  504  503 -0.00000000000E+00 -0.00000000000E+00 -0.23158286975E+03  0.23158286975E+03  0.00000000000E+00 0. -1.
         25    2    1    2    0    0 -0.85726920594E+01  0.44729412715E+02 -0.20149981687E+03  0.24145387463E+03  0.12499434372E+03 0.  0.
          5    1    3    3  501    0 -0.10000401984E+02 -0.35591720302E+02 -0.12562734363E+03  0.13095425942E+03  0.10000000000E+00 0.  1.
         -5    1    3    3    0  501  0.14277099250E+01  0.80321133017E+02 -0.75872473247E+02  0.11049961521E+03  0.10000000000E+00 0.  1.
         21    1    1    2  504  502  0.85726920594E+01 -0.44729412715E+02  0.41205238740E+02  0.61417286741E+02  0.00000000000E+00 0.  1.
<mgrwt>
<rscale>  1 0.13303307E+03</rscale>
<asrwt>0</asrwt>
<pdfrwt beam="1">  1       21 0.10967430E-01 0.13303307E+03</pdfrwt>
<pdfrwt beam="2">  1       21 0.35628134E-01 0.13303307E+03</pdfrwt>
<totfact> 0.52726248E+05</totfact>
</mgrwt>
</event>
<event>
 6    1  0.4241465E-002  0.1321802E+03  0.7546771E-02  0.1224256E+00
         21   -1    0    0  504  502  0.00000000000E+00  0.00000000000E+00  0.19719066737E+02  0.19719066737E+02  0.00000000000E+00 0. -1.
         21   -1    0    0  502  503 -0.00000000000E+00 -0.00000000000E+00 -0.41379714063E+03  0.41379714063E+03  0.00000000000E+00 0. -1.
         25    2    1    2    0    0  0.24075125065E+02  0.35600968894E+02 -0.33753905128E+03  0.36249718378E+03  0.12499822589E+03 0.  0.
          5    1    3    3  501    0 -0.15076937525E+02 -0.84321289785E+01 -0.27867466515E+03  0.27920958766E+03  0.10000000000E+00 0.  1.
         -5    1    3    3    0  501  0.39152062590E+02  0.44033097873E+02 -0.58864386132E+02  0.83287596123E+02  0.10000000000E+00 0.  1.
         21    1    1    2  504  503 -0.24075125065E+02 -0.35600968894E+02 -0.56539022604E+02  0.71019023579E+02  0.00000000000E+00 0.  1.
<mgrwt>
<rscale>  1 0.13218017E+03</rscale>
<asrwt>0</asrwt>
<pdfrwt beam="1">  1       21 0.30337026E-02 0.13218017E+03</pdfrwt>
<pdfrwt beam="2">  1       21 0.63661097E-01 0.13218017E+03</pdfrwt>
<totfact> 0.14164650E+06</totfact>
</mgrwt>
</event>
<event>
 6    1  0.4241465E-002  0.1264986E+03  0.7546771E-02  0.1232746E+00
         21   -1    0    0  503  502  0.00000000000E+00  0.00000000000E+00  0.24005789166E+03  0.24005789166E+03  0.00000000000E+00 0.  1.
         21   -1    0    0  504  503 -0.00000000000E+00 -0.00000000000E+00 -0.22194209602E+02  0.22194209602E+02  0.00000000000E+00 0.  1.
         25    2    1    2    0    0  0.58688854449E+01  0.18493431977E+02  0.19182135446E+03  0.22977666948E+03  0.12500173986E+03 0.  0.
          5    1    3    3  501    0  0.33473691924E+02  0.12485780072E+02 -0.16079720927E+00  0.35727001145E+02  0.10000000000E+00 0. -1.
         -5    1    3    3    0  501 -0.27604806479E+02  0.60076519046E+01  0.19198215167E+03  0.19404966833E+03  0.10000000000E+00 0. -1.
         21    1    1    2  504  502 -0.58688854449E+01 -0.18493431977E+02  0.26042327598E+02  0.32475431781E+02  0.00000000000E+00 0. -1.
<mgrwt>
<rscale>  1 0.12649856E+03</rscale>
<asrwt>0</asrwt>
<pdfrwt beam="1">  1       21 0.36931981E-01 0.12649856E+03</pdfrwt>
<pdfrwt beam="2">  1       21 0.34144940E-02 0.12649856E+03</pdfrwt>
<totfact> 0.35686500E+06</totfact>
</mgrwt>
</event>
<event>
 6    1  0.4241465E-002  0.1259767E+03  0.7546771E-02  0.1233551E+00
         21   -1    0    0  503  502  0.00000000000E+00  0.00000000000E+00  0.21975668258E+03  0.21975668258E+03  0.00000000000E+00 0. -1.
         21   -1    0    0  504  503 -0.00000000000E+00 -0.00000000000E+00 -0.35129443827E+02  0.35129443827E+02  0.00000000000E+00 0. -1.
         25    2    1    2    0    0 -0.10373419729E+01 -0.15615750409E+02  0.80302759922E+02  0.14939430387E+03  0.12500078815E+03 0.  0.
          5    1    3    3  501    0 -0.48702265078E+02 -0.20541122936E+02 -0.33778157766E+01  0.52964780701E+02  0.10000000000E+00 0. -1.
         -5    1    3    3    0  501  0.47664923105E+02  0.49253725274E+01  0.83680575699E+02  0.96429523168E+02  0.10000000000E+00 0. -1.
         21    1    1    2  504  502  0.10373419729E+01  0.15615750409E+02  0.10432447884E+03  0.10549182254E+03  0.00000000000E+00 0. -1.
<mgrwt>
<rscale>  1 0.12597668E+03</rscale>
<asrwt>0</asrwt>
<pdfrwt beam="1">  1       21 0.33808720E-01 0.12597668E+03</pdfrwt>
<pdfrwt beam="2">  1       21 0.54045299E-02 0.12597668E+03</pdfrwt>
<totfact> 0.19749491E+06</totfact>
</mgrwt>
</event>
<event>
 6    1  0.4241465E-002  0.1501399E+03  0.7546771E-02  0.1200301E+00
         21   -1    0    0  504  502  0.00000000000E+00  0.00000000000E+00  0.18104404430E+03  0.18104404430E+03  0.00000000000E+00 0.  1.
         21   -1    0    0  502  503 -0.00000000000E+00 -0.00000000000E+00 -0.14013726962E+03  0.14013726962E+03  0.00000000000E+00 0.  1.
         25    2    1    2    0    0 -0.56101244555E+02 -0.61399456638E+02 -0.83300295473E+02  0.17170008034E+03  0.12499894178E+03 0.  0.
          5    1    3    3  501    0 -0.34063640715E+02 -0.99169343922E+02 -0.47178511930E+02  0.11498135667E+03  0.10000000000E+00 0.  1.
         -5    1    3    3    0  501 -0.22037603840E+02  0.37769887284E+02 -0.36121783544E+02  0.56718723671E+02  0.10000000000E+00 0.  1.
         21    1    1    2  504  503  0.56101244555E+02  0.61399456638E+02  0.12420707016E+03  0.14948123358E+03  0.00000000000E+00 0.  1.
<mgrwt>
<rscale>  1 0.15013986E+03</rscale>
<asrwt>0</asrwt>
<pdfrwt beam="1">  1       21 0.27852930E-01 0.15013986E+03</pdfrwt>
<pdfrwt beam="2">  1       21 0.21559580E-01 0.15013986E+03</pdfrwt>
<totfact> 0.24942836E+05</totfact>
</mgrwt>
</event>
<event>
 6    1  0.4241465E-002  0.1317630E+03  0.7546771E-02  0.1224863E+00
         21   -1    0    0  504  502  0.00000000000E+00  0.00000000000E+00  0.16774725875E+04  0.16774725875E+04  0.00000000000E+00 0.  1.
         21   -1    0    0  502  503 -0.00000000000E+00 -0.00000000000E+00 -0.20249683746E+02  0.20249683746E+02  0.00000000000E+00 0.  1.
         25    2    1    2    0    0 -0.41553205312E+02 -0.27532020112E+01  0.19758009481E+03  0.23748551691E+03  0.12500891123E+03 0.  0.
          5    1    3    3  501    0  0.11480822520E+02  0.52997245398E+02  0.70775391687E+02  0.89160996932E+02  0.10000000000E+00 0. -1.
         -5    1    3    3    0  501 -0.53034027832E+02 -0.55750447409E+02  0.12680470312E+03  0.14832451998E+03  0.10000000000E+00 0. -1.
         21    1    1    2  504  503  0.41553205312E+02  0.27532020112E+01  0.14596428090E+04  0.14602367544E+04  0.00000000000E+00 0.  1.
<mgrwt>
<rscale>  1 0.13176296E+03</rscale>
<asrwt>0</asrwt>
<pdfrwt beam="1">  1       21 0.25807260E+00 0.13176296E+03</pdfrwt>
<pdfrwt beam="2">  1       21 0.31153373E-02 0.13176296E+03</pdfrwt>
<totfact> 0.37500277E+04</totfact>
</mgrwt>
</event>
<event>
 6    1  0.4241465E-002  0.1307183E+03  0.7546771E-02  0.1226394E+00
         21   -1    0    0  504  502  0.00000000000E+00  0.00000000000E+00  0.31847968657E+03  0.31847968657E+03  0.00000000000E+00 0.  1.
         21   -1    0    0  502  503 -0.00000000000E+00 -0.00000000000E+00 -0.24011363251E+02  0.24011363251E+02  0.00000000000E+00 0.  1.
         25    2    1    2    0    0 -0.38224279272E+02 -0.13143455056E+01  0.18491006247E+03  0.22644866295E+03  0.12499777086E+03 0.  0.
          5    1    3    3  501    0 -0.18209702144E+02  0.40475333316E+02  0.99871060661E+01  0.45492836214E+02  0.10000000000E+00 0.  1.
         -5    1    3    3    0  501 -0.20014577128E+02 -0.41789678821E+02  0.17492295640E+03  0.18095582674E+03  0.10000000000E+00 0.  1.
         21    1    1    2  504  503  0.38224279272E+02  0.13143455056E+01  0.10955826085E+03  0.11604238687E+03  0.00000000000E+00 0.  1.
<mgrwt>
<rscale>  1 0.13071827E+03</rscale>
<asrwt>0</asrwt>
<pdfrwt beam="1">  1       21 0.48996872E-01 0.13071827E+03</pdfrwt>
<pdfrwt beam="2">  1       21 0.36940561E-02 0.13071827E+03</pdfrwt>
<totfact> 0.17739976E+06</totfact>
</mgrwt>
</event>
<event>
 6    1  0.4241465E-002  0.1271959E+03  0.7546771E-02  0.1231677E+00
         21   -1    0    0  503  502  0.00000000000E+00  0.00000000000E+00  0.16177896461E+03  0.16177896461E+03  0.00000000000E+00 0. -1.
         21   -1    0    0  504  503 -0.00000000000E+00 -0.00000000000E+00 -0.43534948730E+02  0.43534948730E+02  0.00000000000E+00 0. -1.
         25    2    1    2    0    0 -0.99890664262E+01 -0.21323108896E+02  0.56400858502E+02  0.13913965448E+03  0.12499732072E+03 0.  0.
          5    1    3    3  501    0 -0.40497556640E+02  0.41039872272E+02  0.22671831656E+02  0.61954379672E+02  0.10000000000E+00 0. -1.
         -5    1    3    3    0  501  0.30508490214E+02 -0.62362981167E+02  0.33729026846E+02  0.77185274808E+02  0.10000000000E+00 0. -1.
         21    1    1    2  504  502  0.99890664262E+01  0.21323108896E+02  0.61843157376E+02  0.66174258857E+02  0.00000000000E+00 0. -1.
<mgrwt>
<rscale>  1 0.12719586E+03</rscale>
<asrwt>0</asrwt>
<pdfrwt beam="1">  1       21 0.24889071E-01 0.12719586E+03</pdfrwt>
<pdfrwt beam="2">  1       21 0.66976845E-02 0.12719586E+03</pdfrwt>
<totfact> 0.24730616E+06</totfact>
</mgrwt>
</event>
<event>
 6    1  0.4241465E-002  0.1294254E+03  0.7546771E-02  0.1228311E+00
         21   -1    0    0  503  502  0.00000000000E+00  0.00000000000E+00  0.14890993241E+02  0.14890993241E+02  0.00000000000E+00 0.  1.
         21   -1    0    0  504  503 -0.00000000000E+00 -0.00000000000E+00 -0.45718654955E+03  0.45718654955E+03  0.00000000000E+00 0.  1.
         25    2    1    2    0    0 -0.33509130645E+02  0.18484287373E+01 -0.31795284180E+03  0.34328550431E+03  0.12499859732E+03 0.  0.
          5    1    3    3  501    0  0.13646898004E+02 -0.13677514039E+02  0.20723159307E+01  0.19432362407E+02  0.10000000000E+00 0.  1.
         -5    1    3    3    0  501 -0.47156028649E+02  0.15525942776E+02 -0.32002515773E+03  0.32385314190E+03  0.10000000000E+00 0.  1.
         21    1    1    2  504  502  0.33509130645E+02 -0.18484287373E+01 -0.12434271450E+03  0.12879203848E+03  0.00000000000E+00 0.  1.
<mgrwt>
<rscale>  1 0.12942538E+03</rscale>
<asrwt>0</asrwt>
<pdfrwt beam="1">  1       21 0.22909218E-02 0.12942538E+03</pdfrwt>
<pdfrwt beam="2">  1       21 0.70336401E-01 0.12942538E+03</pdfrwt>
<totfact> 0.18044627E+06</totfact>
</mgrwt>
</event>
<event>
 6    1  0.4241465E-002  0.1260791E+03  0.7546771E-02  0.1233392E+00
         21   -1    0    0  503  502  0.00000000000E+00  0.00000000000E+00  0.21879720200E+03  0.21879720200E+03  0.00000000000E+00 0.  1.
         21   -1    0    0  504  503 -0.00000000000E+00 -0.00000000000E+00 -0.55496434379E+03  0.55496434379E+03  0.00000000000E+00 0.  1.
         25    2    1    2    0    0  0.13610179013E+02 -0.93794231449E+01 -0.54747664274E+03  0.56180656062E+03  0.12499090632E+03 0.  0.
          5    1    3    3  501    0 -0.36357273770E+02 -0.37398350485E+02 -0.40340852968E+03  0.40676644379E+03  0.10000000000E+00 0.  1.
         -5    1    3    3    0  501  0.49967452783E+02  0.28018927340E+02 -0.14406811305E+03  0.15504011683E+03  0.10000000000E+00 0.  1.
         21    1    1    2  504  502 -0.13610179013E+02  0.93794231449E+01  0.21130950094E+03  0.21195498517E+03  0.00000000000E+00 0.  1.
<mgrwt>
<rscale>  1 0.12607909E+03</rscale>
<asrwt>0</asrwt>
<pdfrwt beam="1">  1       21 0.33661109E-01 0.12607909E+03</pdfrwt>
<pdfrwt beam="2">  1       21 0.85379128E-01 0.12607909E+03</pdfrwt>
<totfact> 0.10617202E+04</totfact>
</mgrwt>
</event>
<event>
 6    1  0.4241465E-002  0.1314030E+03  0.7546771E-02  0.1225389E+00
         21   -1    0    0  504  502  0.00000000000E+00  0.00000000000E+00  0.13584147031E+03  0.13584147031E+03  0.00000000000E+00 0.  1.
         21   -1    0    0  502  503 -0.00000000000E+00 -0.00000000000E+00 -0.72962644270E+02  0.72962644270E+02  0.00000000000E+00 0.  1.
         25    2    1    2    0    0 -0.38401368275E+02 -0.12950386820E+02 -0.30238667846E+01  0.13143782654E+03  0.12499752345E+03 0.  0.
          5    1    3    3  501    0  0.16956417499E+02  0.45908070588E+02  0.89596758022E+01  0.49752958002E+02  0.10000000000E+00 0.  1.
         -5    1    3    3    0  501 -0.55357785774E+02 -0.58858457408E+02 -0.11983542587E+02  0.81684868533E+02  0.10000000000E+00 0.  1.
         21    1    1    2  504  503  0.38401368275E+02  0.12950386820E+02  0.65902692820E+02  0.77366288040E+02  0.00000000000E+00 0.  1.
<mgrwt>
<rscale>  1 0.13140304E+03</rscale>
<asrwt>0</asrwt>
<pdfrwt beam="1">  1       21 0.20898688E-01 0.13140304E+03</pdfrwt>
<pdfrwt beam="2">  1       21 0.11225022E-01 0.13140304E+03</pdfrwt>
<totfact> 0.14025683E+06</totfact>
</mgrwt>
</event>
<event>
 6    1  0.4241465E-002  0.1326997E+03  0.7546771E-02  0.1223504E+00
         21   -1    0    0  503  502  0.00000000000E+00  0.00000000000E+00  0.10524183967E+03  0.10524183967E+03  0.00000000000E+00 0.  1.
         21   -1    0    0  504  503 -0.00000000000E+00 -0.00000000000E+00 -0.75924135332E+02  0.75924135332E+02  0.00000000000E+00 0.  1.
         25    2    1    2    0    0 -0.52562045701E+01  0.44243466951E+02  0.32091873103E+02  0.13652509612E+03  0.12499640594E+03 0.  0.
          5    1    3    3  501    0  0.28479216899E+02 -0.34117907240E+02  0.24814612446E+02  0.50900612771E+02  0.10000000000E+00 0.  1.
         -5    1    3    3    0  501 -0.33735421470E+02  0.78361374191E+02  0.72772606565E+01  0.85624483353E+02  0.10000000000E+00 0.  1.
         21    1    1    2  504  502  0.52562045701E+01 -0.44243466951E+02 -0.27741687679E+01  0.44640878875E+02  0.00000000000E+00 0.  1.
<mgrwt>
<rscale>  1 0.13269971E+03</rscale>
<asrwt>0</asrwt>
<pdfrwt beam="1">  1       21 0.16191052E-01 0.13269971E+03</pdfrwt>
<pdfrwt beam="2">  1       21 0.11680636E-01 0.13269971E+03</pdfrwt>
<totfact> 0.20892318E+06</totfact>
</mgrwt>
</event>
<event>
 6    1  0.4241465E-002  0.1291700E+03  0.7546771E-02  0.1228693E+00
         21   -1    0    0  503  502  0.00000000000E+00  0.00000000000E+00  0.13637416750E+04  0.13637416750E+04  0.00000000000E+00 0. -1.
         21   -1    0    0  504  503 -0.00000000000E+00 -0.00000000000E+00 -0.51693811300E+01  0.51693811300E+01  0.00000000000E+00 0. -1.
         25    2    1    2    0    0 -0.22434732069E+02 -0.23551714005E+02  0.90469658279E+03  0.91387131991E+03  0.12500752776E+03 0.  0.
          5    1    3    3  501    0 -0.28452185404E+02 -0.72748644258E+02  0.61870642457E+03  0.62361810582E+03  0.10000000000E+00 0. -1.
         -5    1    3    3    0  501  0.60174533355E+01  0.49196930253E+02  0.28599015822E+03  0.29025321409E+03  0.10000000000E+00 0. -1.
         21    1    1    2  504  502  0.22434732069E+02  0.23551714005E+02  0.45387571108E+03  0.45503973623E+03  0.00000000000E+00 0. -1.
<mgrwt>
<rscale>  1 0.12916997E+03</rscale>
<asrwt>0</asrwt>
<pdfrwt beam="1">  1       21 0.20980613E+00 0.12916997E+03</pdfrwt>
<pdfrwt beam="2">  1       21 0.79529049E-03 0.12916997E+03</pdfrwt>
<totfact> 0.64320047E+05</totfact>
</mgrwt>
</event>
<event>
 6    1  0.4241465E-002  0.1301357E+03  0.7546771E-02  0.1227255E+00
         21   -1    0    0  503  502  0.00000000000E+00  0.00000000000E+00  0.57700879316E+01  0.57700879316E+01  0.00000000000E+00 0. -1.
         21   -1    0    0  504  503 -0.00000000000E+00 -0.00000000000E+00 -0.13465597576E+04  0.13465597576E+04  0.00000000000E+00 0. -1.
         25    2    1    2    0    0  0.22426117790E+02 -0.28405972438E+02 -0.11970885143E+04  0.12041412762E+04  0.12500188770E+03 0.  0.
          5    1    3    3  501    0 -0.31931670283E+02  0.89851750329E+01 -0.10621480304E+03  0.11127425274E+03  0.10000000000E+00 0.  1.
         -5    1    3    3    0  501  0.54357788073E+02 -0.37391147471E+02 -0.10908737113E+04  0.10928670235E+04  0.10000000000E+00 0.  1.
         21    1    1    2  504  502 -0.22426117790E+02  0.28405972438E+02 -0.14370115539E+03  0.14818856937E+03  0.00000000000E+00 0. -1.
<mgrwt>
<rscale>  1 0.13013571E+03</rscale>
<asrwt>0</asrwt>
<pdfrwt beam="1">  1       21 0.88770602E-03 0.13013571E+03</pdfrwt>
<pdfrwt beam="2">  1       21 0.20716300E+00 0.13013571E+03</pdfrwt>
<totfact> 0.56179945E+05</totfact>
</mgrwt>
</event>
<event>
 6    1  0.4241465E-002  0.1260015E+03  0.7546771E-02  0.1233512E+00
         21   -1    0    0  504  502  0.00000000000E+00  0.00000000000E+00  0.64326648304E+03  0.64326648304E+03  0.00000000000E+00 0.  1.
         21   -1    0    0  502  503 -0.00000000000E+00 -0.00000000000E+00 -0.25224667534E+02  0.25224667534E+02  0.00000000000E+00 0.  1.
         25    2    1    2    0    0 -0.13259878573E+02 -0.84750932748E+01  0.13305296339E+03  0.18324704884E+03  0.12501495214E+03 0.  0.
          5    1    3    3  501    0 -0.32223600345E+02  0.47185625704E+02  0.10158968873E+03  0.11655607469E+03  0.10000000000E+00 0. -1.
         -5    1    3    3    0  501  0.18963721771E+02 -0.55660718979E+02  0.31463274662E+02  0.66690974150E+02  0.10000000000E+00 0. -1.
         21    1    1    2  504  503  0.13259878573E+02  0.84750932748E+01  0.48498885212E+03  0.48524410173E+03  0.00000000000E+00 0.  1.
<mgrwt>
<rscale>  1 0.12600155E+03</rscale>
<asrwt>0</asrwt>
<pdfrwt beam="1">  1       21 0.98964062E-01 0.12600155E+03</pdfrwt>
<pdfrwt beam="2">  1       21 0.38807186E-02 0.12600155E+03</pdfrwt>
<totfact> 0.35235211E+05</totfact>
</mgrwt>
</event>
<event>
 6    1  0.4241465E-002  0.1286296E+03  0.7546771E-02  0.1229504E+00
         21   -1    0    0  503  502  0.00000000000E+00  0.00000000000E+00  0.14184216381E+03  0.14184216381E+03  0.00000000000E+00 0.  1.
         21   -1    0    0  504  503 -0.00000000000E+00 -0.00000000000E+00 -0.61366337329E+02  0.61366337329E+02  0.00000000000E+00 0.  1.
         25    2    1    2    0    0  0.25625516462E+02 -0.16243056222E+02  0.13073173757E+02  0.12929218654E+03  0.12500023064E+03 0.  0.
          5    1    3    3  501    0 -0.20128112232E+02  0.30661897135E+02 -0.32881116029E+02  0.49259218723E+02  0.10000000000E+00 0. -1.
         -5    1    3    3    0  501  0.45753628694E+02 -0.46904953357E+02  0.45954289786E+02  0.80032967818E+02  0.10000000000E+00 0. -1.
         21    1    1    2  504  502 -0.25625516462E+02  0.16243056222E+02  0.67402652728E+02  0.73916314601E+02  0.00000000000E+00 0.  1.
<mgrwt>
<rscale>  1 0.12862955E+03</rscale>
<asrwt>0</asrwt>
<pdfrwt beam="1">  1       21 0.21821871E-01 0.12862955E+03</pdfrwt>
<pdfrwt beam="2">  1       21 0.94409750E-02 0.12862955E+03</pdfrwt>
<totfact> 0.17521599E+06</totfact>
</mgrwt>
</event>
<event>
 6    1  0.4241465E-002  0.1342195E+03  0.7546771E-02  0.1221326E+00
         21   -1    0    0  503  502  0.00000000000E+00  0.00000000000E+00  0.38472782358E+03  0.38472782358E+03  0.00000000000E+00 0.  1.
         21   -1    0    0  504  503 -0.00000000000E+00 -0.00000000000E+00 -0.27299661627E+03  0.27299661627E+03  0.00000000000E+00 0. -1.
         25    2    1    2    0    0  0.45925203004E+02 -0.16759749740E+02 -0.25477753253E+03  0.28796956177E+03  0.12499945575E+03 0.  0.
          5    1    3    3  501    0  0.22766062236E+02 -0.36261673833E+02 -0.13636343880E+02  0.44935091557E+02  0.10000000000E+00 0. -1.
         -5    1    3    3    0  501  0.23159140768E+02  0.19501924092E+02 -0.24114118865E+03  0.24303447021E+03  0.10000000000E+00 0. -1.
         21    1    1    2  504  502 -0.45925203004E+02  0.16759749740E+02  0.36650873985E+03  0.36975487808E+03  0.00000000000E+00 0.  1.
<mgrwt>
<rscale>  1 0.13421951E+03</rscale>
<asrwt>0</asrwt>
<pdfrwt beam="1">  1       21 0.59188896E-01 0.13421951E+03</pdfrwt>
<pdfrwt beam="2">  1       21 0.41999479E-01 0.13421951E+03</pdfrwt>
<totfact> 0.15156078E+04</totfact>
</mgrwt>
</event>
<event>
 6    1  0.4241465E-002  0.1265313E+03  0.7546771E-02  0.1232695E+00
         21   -1    0    0  504  502  0.00000000000E+00  0.00000000000E+00  0.51850459455E+02  0.51850459455E+02  0.00000000000E+00 0.  1.
         21   -1    0    0  502  503 -0.00000000000E+00 -0.00000000000E+00 -0.26522913876E+03  0.26522913876E+03  0.00000000000E+00 0.  1.
         25    2    1    2    0    0 -0.10906024745E+02  0.16331771799E+02 -0.24735315189E+03  0.27783761899E+03  0.12499797050E+03 0.  0.
          5    1    3    3  501    0 -0.60457620451E+02  0.19940021615E+02 -0.19728696053E+03  0.20730384253E+03  0.10000000000E+00 0. -1.
         -5    1    3    3    0  501  0.49551595706E+02 -0.36082498161E+01 -0.50066191358E+02  0.70533776454E+02  0.10000000000E+00 0. -1.
         21    1    1    2  504  503  0.10906024745E+02 -0.16331771799E+02  0.33974472589E+02  0.39241979225E+02  0.00000000000E+00 0.  1.
<mgrwt>
<rscale>  1 0.12653126E+03</rscale>
<asrwt>0</asrwt>
<pdfrwt beam="1">  1       21 0.79769936E-02 0.12653126E+03</pdfrwt>
<pdfrwt beam="2">  1       21 0.40804484E-01 0.12653126E+03</pdfrwt>
<totfact> 0.70136405E+05</totfact>
</mgrwt>
</event>
<event>
 6    1  0.4241465E-002  0.1263922E+03  0.7546771E-02  0.1232909E+00
         21   -1    0    0  504  502  0.00000000000E+00  0.00000000000E+00  0.44626138740E+02  0.44626138740E+02  0.00000000000E+00 0.  1.
         21   -1    0    0  502  503 -0.00000000000E+00 -0.00000000000E+00 -0.12560550181E+03  0.12560550181E+03  0.00000000000E+00 0.  1.
         25    2    1    2    0    0 -0.18336936673E+02  0.38708521776E+01 -0.83261510558E+02  0.15135215591E+03  0.12499507676E+03 0.  0.
          5    1    3    3  501    0  0.24210345239E+02 -0.45609568328E+02 -0.88686096239E+01  0.52393089013E+02  0.10000000000E+00 0. -1.
         -5    1    3    3    0  501 -0.42547281913E+02  0.49480420506E+02 -0.74392900934E+02  0.98959066896E+02  0.10000000000E+00 0. -1.
         21    1    1    2  504  503  0.18336936673E+02 -0.38708521776E+01  0.22821474872E+01  0.18879484641E+02  0.00000000000E+00 0.  1.
<mgrwt>
<rscale>  1 0.12639223E+03</rscale>
<asrwt>0</asrwt>
<pdfrwt beam="1">  1       21 0.68655598E-02 0.12639223E+03</pdfrwt>
<pdfrwt beam="2">  1       21 0.19323923E-01 0.12639223E+03</pdfrwt>
<totfact> 0.37994539E+06</totfact>
</mgrwt>
</event>
<event>
 6    1  0.4241465E-002  0.1307882E+03  0.7546771E-02  0.1226291E+00
         21   -1    0    0  503  502  0.00000000000E+00  0.00000000000E+00  0.69101835829E+02  0.69101835829E+02  0.00000000000E+00 0. -1.
         21   -1    0    0  504  503 -0.00000000000E+00 -0.00000000000E+00 -0.12471666227E+03  0.12471666227E+03  0.00000000000E+00 0. -1.
         25    2    1    2    0    0 -0.37982146568E+02 -0.59536174567E+01 -0.74995074367E+02  0.15076407871E+03  0.12500982854E+03 0.  0.
          5    1    3    3  501    0  0.38909510937E+02  0.21940273092E+02 -0.45637834048E+02  0.63860375204E+02  0.10000000000E+00 0. -1.
         -5    1    3    3    0  501 -0.76891657505E+02 -0.27893890548E+02 -0.29357240320E+02  0.86903703505E+02  0.10000000000E+00 0. -1.
         21    1    1    2  504  502  0.37982146568E+02  0.59536174567E+01  0.19380247931E+02  0.43054419385E+02  0.00000000000E+00 0. -1.
<mgrwt>
<rscale>  1 0.13078817E+03</rscale>
<asrwt>0</asrwt>
<pdfrwt beam="1">  1       21 0.10631052E-01 0.13078817E+03</pdfrwt>
<pdfrwt beam="2">  1       21 0.19187179E-01 0.13078817E+03</pdfrwt>
<totfact> 0.18075842E+06</totfact>
</mgrwt>
</event>
<event>
 6    1  0.4241465E-002  0.1448270E+03  0.7546771E-02  0.1206978E+00
         21   -1    0    0  503  502  0.00000000000E+00  0.00000000000E+00  0.32727266356E+03  0.32727266356E+03  0.00000000000E+00 0. -1.
         21   -1    0    0  504  503 -0.00000000000E+00 -0.00000000000E+00 -0.53722069361E+03  0.53722069361E+03  0.00000000000E+00 0.  1.
         25    2    1    2    0    0  0.60143053966E+02 -0.41619867898E+02 -0.52316973266E+03  0.54284566896E+03  0.12500180313E+03 0.  0.
          5    1    3    3  501    0 -0.52475703595E+01 -0.10021732020E+02 -0.39779128288E+03  0.39795211627E+03  0.10000000000E+00 0. -1.
         -5    1    3    3    0  501  0.65390624325E+02 -0.31598135878E+02 -0.12537844979E+03  0.14489355269E+03  0.10000000000E+00 0. -1.
         21    1    1    2  504  502 -0.60143053966E+02  0.41619867898E+02  0.31322170262E+03  0.32164768822E+03  0.00000000000E+00 0. -1.
<mgrwt>
<rscale>  1 0.14482697E+03</rscale>
<asrwt>0</asrwt>
<pdfrwt beam="1">  1       21 0.50349642E-01 0.14482697E+03</pdfrwt>
<pdfrwt beam="2">  1       21 0.82649336E-01 0.14482697E+03</pdfrwt>
<totfact> 0.49979006E+03</totfact>
</mgrwt>
</event>
<event>
 6    1  0.4241465E-002  0.1301358E+03  0.7546771E-02  0.1227254E+00
         21   -1    0    0  504  502  0.00000000000E+00  0.00000000000E+00  0.18959695377E+03  0.18959695377E+03  0.00000000000E+00 0.  1.
         21   -1    0    0  502  503 -0.00000000000E+00 -0.00000000000E+00 -0.20668802160E+03  0.20668802160E+03  0.00000000000E+00 0.  1.
         25    2    1    2    0    0  0.30977020329E+01  0.36052133349E+02 -0.18407214925E+03  0.22542821188E+03  0.12500388195E+03 0.  0.
          5    1    3    3  501    0  0.48839341700E+02  0.54659970297E+02 -0.14494041998E+03  0.16242145485E+03  0.10000000000E+00 0.  1.
         -5    1    3    3    0  501 -0.45741639668E+02 -0.18607836948E+02 -0.39131729271E+02  0.63006757027E+02  0.10000000000E+00 0.  1.
         21    1    1    2  504  503 -0.30977020329E+01 -0.36052133349E+02  0.16698108142E+03  0.17085676349E+03  0.00000000000E+00 0.  1.
<mgrwt>
<rscale>  1 0.13013579E+03</rscale>
<asrwt>0</asrwt>
<pdfrwt beam="1">  1       21 0.29168762E-01 0.13013579E+03</pdfrwt>
<pdfrwt beam="2">  1       21 0.31798157E-01 0.13013579E+03</pdfrwt>
<totfact> 0.10953791E+05</totfact>
</mgrwt>
</event>
<event>
 6    1  0.4241465E-002  0.1278348E+03  0.7546771E-02  0.1230704E+00
         21   -1    0    0  503  502  0.00000000000E+00  0.00000000000E+00  0.70518503203E+03  0.70518503203E+03  0.00000000000E+00 0. -1.
         21   -1    0    0  504  503 -0.00000000000E+00 -0.00000000000E+00 -0.12582397906E+02  0.12582397906E+02  0.00000000000E+00 0. -1.
         25    2    1    2    0    0 -0.19087757903E+02  0.18884374458E+02  0.32577940847E+03  0.34996280655E+03  0.12498312242E+03 0.  0.
          5    1    3    3  501    0  0.70948519567E+01 -0.51297954292E+02  0.15663563605E+03  0.16497439049E+03  0.10000000000E+00 0. -1.
         -5    1    3    3    0  501 -0.26182609859E+02  0.70182328750E+02  0.16914377242E+03  0.18498841606E+03  0.10000000000E+00 0. -1.
         21    1    1    2  504  502  0.19087757903E+02 -0.18884374458E+02  0.36682322565E+03  0.36780462338E+03  0.00000000000E+00 0. -1.
<mgrwt>
<rscale>  1 0.12783483E+03</rscale>
<asrwt>0</asrwt>
<pdfrwt beam="1">  1       21 0.10848997E+00 0.12783483E+03</pdfrwt>
<pdfrwt beam="2">  1       21 0.19357541E-02 0.12783483E+03</pdfrwt>
<totfact> 0.88322932E+05</totfact>
</mgrwt>
</event>
<event>
 6    1  0.4241465E-002  0.1266362E+03  0.7546771E-02  0.1232534E+00
         21   -1    0    0  504  502  0.00000000000E+00  0.00000000000E+00  0.70592024547E+02  0.70592024547E+02  0.00000000000E+00 0. -1.
         21   -1    0    0  502  503 -0.00000000000E+00 -0.00000000000E+00 -0.50555736966E+03  0.50555736966E+03  0.00000000000E+00 0.  1.
         25    2    1    2    0    0  0.70290995538E+01 -0.19040791509E+02 -0.49595700793E+03  0.51186920353E+03  0.12499907131E+03 0.  0.
          5    1    3    3  501    0 -0.25388406800E+01 -0.69327467558E+02 -0.20438431397E+03  0.21583721010E+03  0.10000000000E+00 0.  1.
         -5    1    3    3    0  501  0.95679402339E+01  0.50286676050E+02 -0.29157269396E+03  0.29603199343E+03  0.10000000000E+00 0.  1.
         21    1    1    2  504  503 -0.70290995538E+01  0.19040791509E+02  0.60991662809E+02  0.64280190681E+02  0.00000000000E+00 0. -1.
<mgrwt>
<rscale>  1 0.12663620E+03</rscale>
<asrwt>0</asrwt>
<pdfrwt beam="1">  1       21 0.10860311E-01 0.12663620E+03</pdfrwt>
<pdfrwt beam="2">  1       21 0.77778061E-01 0.12663620E+03</pdfrwt>
<totfact> 0.10547321E+05</totfact>
</mgrwt>
</event>
<event>
 6    1  0.4241465E-002  0.1322378E+03  0.7546771E-02  0.1224172E+00
         21   -1    0    0  503  502  0.00000000000E+00  0.00000000000E+00  0.39649531092E+02  0.39649531092E+02  0.00000000000E+00 0.  1.
         21   -1    0    0  504  503 -0.00000000000E+00 -0.00000000000E+00 -0.40815700564E+03  0.40815700564E+03  0.00000000000E+00 0.  1.
         25    2    1    2    0    0  0.46160959054E+01 -0.42886662127E+02 -0.38067473050E+03  0.40298894814E+03  0.12500507091E+03 0.  0.
          5    1    3    3  501    0  0.49808970977E+02  0.20927869619E+02 -0.15264446074E+03  0.16192359529E+03  0.10000000000E+00 0.  1.
         -5    1    3    3    0  501 -0.45192875072E+02 -0.63814531746E+02 -0.22803026976E+03  0.24106535285E+03  0.10000000000E+00 0.  1.
         21    1    1    2  504  502 -0.46160959054E+01  0.42886662127E+02  0.12167255951E+02  0.44817588592E+02  0.00000000000E+00 0.  1.
<mgrwt>
<rscale>  1 0.13223782E+03</rscale>
<asrwt>0</asrwt>
<pdfrwt beam="1">  1       21 0.60999276E-02 0.13223782E+03</pdfrwt>
<pdfrwt beam="2">  1       21 0.62793388E-01 0.13223782E+03</pdfrwt>
<totfact> 0.45477175E+05</totfact>
</mgrwt>
</event>
<event>
 6    1  0.4241465E-002  0.1278902E+03  0.7546771E-02  0.1230620E+00
         21   -1    0    0  503  502  0.00000000000E+00  0.00000000000E+00  0.48189221421E+03  0.48189221421E+03  0.00000000000E+00 0.  1.
         21   -1    0    0  504  503 -0.00000000000E+00 -0.00000000000E+00 -0.57397573144E+02  0.57397573144E+02  0.00000000000E+00 0. -1.
         25    2    1    2    0    0 -0.26999441815E+02 -0.71893526343E+00  0.14842918905E+02  0.12874865641E+03  0.12500567011E+03 0.  0.
          5    1    3    3  501    0  0.69657266435E+01 -0.58648825242E+02 -0.34093153348E+01  0.59159441182E+02  0.10000000000E+00 0. -1.
         -5    1    3    3    0  501 -0.33965168459E+02  0.57929889979E+02  0.18252234240E+02  0.69589215229E+02  0.10000000000E+00 0. -1.
         21    1    1    2  504  502  0.26999441815E+02  0.71893526343E+00  0.40965172216E+03  0.41054113094E+03  0.00000000000E+00 0.  1.
<mgrwt>
<rscale>  1 0.12789020E+03</rscale>
<asrwt>0</asrwt>
<pdfrwt beam="1">  1       21 0.74137261E-01 0.12789020E+03</pdfrwt>
<pdfrwt beam="2">  1       21 0.88303962E-02 0.12789020E+03</pdfrwt>
<totfact> 0.16823764E+05</totfact>
</mgrwt>
</event>
<event>
 6    1  0.4241465E-002  0.1376104E+03  0.7546771E-02  0.1216581E+00
         21   -1    0    0  504  502  0.00000000000E+00  0.00000000000E+00  0.11942368360E+04  0.11942368360E+04  0.00000000000E+00 0.  1.
         21   -1    0    0  502  503 -0.00000000000E+00 -0.00000000000E+00 -0.11573222095E+02  0.11573222095E+02  0.00000000000E+00 0.  1.
         25    2    1    2    0    0 -0.42909219813E+02 -0.38302615801E+02  0.44222932069E+03  0.46314510396E+03  0.12501329420E+03 0.  0.
          5    1    3    3  501    0 -0.53121539500E+02  0.15858576287E+02  0.35942331190E+03  0.36367364428E+03  0.10000000000E+00 0. -1.
         -5    1    3    3    0  501  0.10212319687E+02 -0.54161192088E+02  0.82806008784E+02  0.99471459688E+02  0.10000000000E+00 0. -1.
         21    1    1    2  504  503  0.42909219813E+02  0.38302615801E+02  0.74043429320E+03  0.74266495412E+03  0.00000000000E+00 0.  1.
<mgrwt>
<rscale>  1 0.13761037E+03</rscale>
<asrwt>0</asrwt>
<pdfrwt beam="1">  1       21 0.18372865E+00 0.13761037E+03</pdfrwt>
<pdfrwt beam="2">  1       21 0.17804967E-02 0.13761037E+03</pdfrwt>
<totfact> 0.26147290E+05</totfact>
</mgrwt>
</event>
<event>
 6    1  0.4241465E-002  0.1272435E+03  0.7546771E-02  0.1231604E+00
         21   -1    0    0  503  502  0.00000000000E+00  0.00000000000E+00  0.26487669731E+02  0.26487669731E+02  0.00000000000E+00 0.  1.
         21   -1    0    0  504  503 -0.00000000000E+00 -0.00000000000E+00 -0.51407790016E+03  0.51407790016E+03  0.00000000000E+00 0.  1.
         25    2    1    2    0    0 -0.18473406156E+02 -0.14980779664E+02 -0.49843872556E+03  0.51442402554E+03  0.12500089765E+03 0.  0.
          5    1    3    3  501    0  0.26218178285E+02 -0.12161713562E+02 -0.23149330917E+02  0.37029740362E+02  0.10000000000E+00 0.  1.
         -5    1    3    3    0  501 -0.44691584442E+02 -0.28190661018E+01 -0.47528939465E+03  0.47739428517E+03  0.10000000000E+00 0.  1.
         21    1    1    2  504  502  0.18473406156E+02  0.14980779664E+02  0.10848495137E+02  0.26141544352E+02  0.00000000000E+00 0.  1.
<mgrwt>
<rscale>  1 0.12724353E+03</rscale>
<asrwt>0</asrwt>
<pdfrwt beam="1">  1       21 0.40750264E-02 0.12724353E+03</pdfrwt>
<pdfrwt beam="2">  1       21 0.79088902E-01 0.12724353E+03</pdfrwt>
<totfact> 0.54134065E+05</totfact>
</mgrwt>
</event>
<event>
 6    1  0.4241465E-002  0.1268803E+03  0.7546771E-02  0.1232160E+00
         21   -1    0    0  503  502  0.00000000000E+00  0.00000000000E+00  0.26564639895E+02  0.26564639895E+02  0.00000000000E+00 0.  1.
         21   -1    0    0  504  503 -0.00000000000E+00 -0.00000000000E+00 -0.20863770602E+03  0.20863770602E+03  0.00000000000E+00 0.  1.
         25    2    1    2    0    0  0.28569156860E+01  0.21591820647E+02 -0.15986518044E+03  0.20409673753E+03  0.12499693464E+03 0.  0.
          5    1    3    3  501    0  0.19005333588E+02 -0.41086066548E+01  0.16277229454E+02  0.25358263981E+02  0.10000000000E+00 0. -1.
         -5    1    3    3    0  501 -0.16148417902E+02  0.25700427302E+02 -0.17614240989E+03  0.17873847355E+03  0.10000000000E+00 0. -1.
         21    1    1    2  504  502 -0.28569156860E+01 -0.21591820647E+02 -0.22207885682E+02  0.31105608378E+02  0.00000000000E+00 0. -1.
<mgrwt>
<rscale>  1 0.12688027E+03</rscale>
<asrwt>0</asrwt>
<pdfrwt beam="1">  1       21 0.40868678E-02 0.12688027E+03</pdfrwt>
<pdfrwt beam="2">  1       21 0.32098108E-01 0.12688027E+03</pdfrwt>
<totfact> 0.34892352E+06</totfact>
</mgrwt>
</event>
<event>
 6    1  0.4241465E-002  0.1345348E+03  0.7546771E-02  0.1220878E+00
         21   -1    0    0  504  502  0.00000000000E+00  0.00000000000E+00  0.79559081038E+03  0.79559081038E+03  0.00000000000E+00 0.  1.
         21   -1    0    0  502  503 -0.00000000000E+00 -0.00000000000E+00 -0.18515927593E+02  0.18515927593E+02  0.00000000000E+00 0. -1.
         25    2    1    2    0    0 -0.68526474271E+01 -0.49271853966E+02  0.24330097781E+03  0.27801975249E+03  0.12499977041E+03 0.  0.
          5    1    3    3  501    0 -0.47822221651E+02 -0.20697811011E+01  0.18981079633E+03  0.19575340938E+03  0.10000000000E+00 0. -1.
         -5    1    3    3    0  501  0.40969574224E+02 -0.47202072865E+02  0.53490181473E+02  0.82266343111E+02  0.10000000000E+00 0. -1.
         21    1    1    2  504  503  0.68526474271E+01  0.49271853966E+02  0.53377390498E+03  0.53608698549E+03  0.00000000000E+00 0.  1.
<mgrwt>
<rscale>  1 0.13453482E+03</rscale>
<asrwt>0</asrwt>
<pdfrwt beam="1">  1       21 0.12239856E+00 0.13453482E+03</pdfrwt>
<pdfrwt beam="2">  1       21 0.28486049E-02 0.13453482E+03</pdfrwt>
<totfact> 0.35203591E+05</totfact>
</mgrwt>
</event>
<event>
 6    1  0.4241465E-002  0.1274811E+03  0.7546771E-02  0.1231242E+00
         21   -1    0    0  503  502  0.00000000000E+00  0.00000000000E+00  0.94143533937E+01  0.94143533937E+01  0.00000000000E+00 0. -1.
         21   -1    0    0  504  503 -0.00000000000E+00 -0.00000000000E+00 -0.17339721889E+04  0.17339721889E+04  0.00000000000E+00 0. -1.
         25    2    1    2    0    0  0.21233977739E+02 -0.13265841467E+02 -0.17093403213E+04  0.17140874450E+04  0.12499828339E+03 0.  0.
          5    1    3    3  501    0 -0.16873574636E+01 -0.68061586000E+02 -0.90833618236E+03  0.91088410725E+03  0.10000000000E+00 0. -1.
         -5    1    3    3    0  501  0.22921335202E+02  0.54795744534E+02 -0.80100413893E+03  0.80320333778E+03  0.10000000000E+00 0. -1.
         21    1    1    2  504  502 -0.21233977739E+02  0.13265841467E+02 -0.15217514171E+02  0.29299097221E+02  0.00000000000E+00 0. -1.
<mgrwt>
<rscale>  1 0.12748112E+03</rscale>
<asrwt>0</asrwt>
<pdfrwt beam="1">  1       21 0.14483628E-02 0.12748112E+03</pdfrwt>
<pdfrwt beam="2">  1       21 0.26676482E+00 0.12748112E+03</pdfrwt>
<totfact> 0.11608857E+05</totfact>
</mgrwt>
</event>
<event>
 6    1  0.4241465E-002  0.1336159E+03  0.7546771E-02  0.1222187E+00
         21   -1    0    0  503  502  0.00000000000E+00  0.00000000000E+00  0.16359926499E+03  0.16359926499E+03  0.00000000000E+00 0. -1.
         21   -1    0    0  504  503 -0.00000000000E+00 -0.00000000000E+00 -0.54725650931E+02  0.54725650931E+02  0.00000000000E+00 0. -1.
         25    2    1    2    0    0  0.22896941459E+02  0.41276110768E+02  0.49535082391E+02  0.14250243516E+03  0.12500092956E+03 0.  0.
          5    1    3    3  501    0  0.52070771463E+02 -0.26831874533E+02  0.30314193464E+02  0.65956614961E+02  0.10000000000E+00 0. -1.
         -5    1    3    3    0  501 -0.29173830004E+02  0.68107985301E+02  0.19220888927E+02  0.76545820199E+02  0.10000000000E+00 0. -1.
         21    1    1    2  504  502 -0.22896941459E+02 -0.41276110768E+02  0.59338531670E+02  0.75822480763E+02  0.00000000000E+00 0. -1.
<mgrwt>
<rscale>  1 0.13361594E+03</rscale>
<asrwt>0</asrwt>
<pdfrwt beam="1">  1       21 0.25169117E-01 0.13361594E+03</pdfrwt>
<pdfrwt beam="2">  1       21 0.84193310E-02 0.13361594E+03</pdfrwt>
<totfact> 0.16365323E+06</totfact>
</mgrwt>
</event>
<event>
 6    1  0.4241465E-002  0.1261199E+03  0.7546771E-02  0.1233329E+00
         21   -1    0    0  503  502  0.00000000000E+00  0.00000000000E+00  0.23781052814E+03  0.23781052814E+03  0.00000000000E+00 0.  1.
         21   -1    0    0  504  503 -0.00000000000E+00 -0.00000000000E+00 -0.33115792850E+02  0.33115792850E+02  0.00000000000E+00 0.  1.
         25    2    1    2    0    0 -0.17009200209E+01 -0.16661053238E+02  0.89814634580E+02  0.15483187081E+03  0.12500302320E+03 0.  0.
          5    1    3    3  501    0 -0.30018548325E+02 -0.40660384383E+01  0.11244663450E+03  0.11645557746E+03  0.10000000000E+00 0.  1.
         -5    1    3    3    0  501  0.28317628304E+02 -0.12595014800E+02 -0.22631999919E+02  0.38376293345E+02  0.10000000000E+00 0.  1.
         21    1    1    2  504  502  0.17009200209E+01  0.16661053238E+02  0.11488010071E+03  0.11609445018E+03  0.00000000000E+00 0. -1.
<mgrwt>
<rscale>  1 0.12611994E+03</rscale>
<asrwt>0</asrwt>
<pdfrwt beam="1">  1       21 0.36586234E-01 0.12611994E+03</pdfrwt>
<pdfrwt beam="2">  1       21 0.50947375E-02 0.12611994E+03</pdfrwt>
<totfact> 0.18678900E+06</totfact>
</mgrwt>
</event>
<event>
 6    1  0.4241465E-002  0.1325246E+03  0.7546771E-02  0.1223757E+00
         21   -1    0    0  504  502  0.00000000000E+00  0.00000000000E+00  0.12826743760E+04  0.12826743760E+04  0.00000000000E+00 0.  1.
         21   -1    0    0  502  503 -0.00000000000E+00 -0.00000000000E+00 -0.10791614174E+02  0.10791614174E+02  0.00000000000E+00 0.  1.
         25    2    1    2    0    0  0.20342231154E+02  0.39057954488E+02  0.41925278994E+03  0.43969951207E+03  0.12499371530E+03 0.  0.
          5    1    3    3  501    0  0.30169746986E+02  0.46706722029E+02  0.42304325922E+03  0.42668177918E+03  0.10000000000E+00 0. -1.
         -5    1    3    3    0  501 -0.98275158319E+01 -0.76487675409E+01 -0.37904692734E+01  0.13017732892E+02  0.10000000000E+00 0. -1.
         21    1    1    2  504  503 -0.20342231154E+02 -0.39057954488E+02  0.85262997192E+03  0.85376647813E+03  0.00000000000E+00 0.  1.
<mgrwt>
<rscale>  1 0.13252456E+03</rscale>
<asrwt>0</asrwt>
<pdfrwt beam="1">  1       21 0.19733440E+00 0.13252456E+03</pdfrwt>
<pdfrwt beam="2">  1       21 0.16602494E-02 0.13252456E+03</pdfrwt>
<totfact> 0.23943868E+05</totfact>
</mgrwt>
</event>
<event>
 6    1  0.4241465E-002  0.1283409E+03  0.7546771E-02  0.1229938E+00
         21   -1    0    0  503  502  0.00000000000E+00  0.00000000000E+00  0.19601812522E+02  0.19601812522E+02  0.00000000000E+00 0. -1.
         21   -1    0    0  504  503 -0.00000000000E+00 -0.00000000000E+00 -0.34154441703E+03  0.34154441703E+03  0.00000000000E+00 0. -1.
         25    2    1    2    0    0 -0.28857164087E+02  0.37159035742E+01 -0.29406326135E+03  0.32084980746E+03  0.12499941365E+03 0.  0.
          5    1    3    3  501    0  0.20123009272E+02 -0.41278515271E+02 -0.20272971158E+03  0.20786581557E+03  0.10000000000E+00 0. -1.
         -5    1    3    3    0  501 -0.48980173359E+02  0.44994418845E+02 -0.91333549771E+02  0.11298399189E+03  0.10000000000E+00 0. -1.
         21    1    1    2  504  502  0.28857164087E+02 -0.37159035742E+01 -0.27879343154E+02  0.40296422090E+02  0.00000000000E+00 0. -1.
<mgrwt>
<rscale>  1 0.12834094E+03</rscale>
<asrwt>0</asrwt>
<pdfrwt beam="1">  1       21 0.30156636E-02 0.12834094E+03</pdfrwt>
<pdfrwt beam="2">  1       21 0.52545293E-01 0.12834094E+03</pdfrwt>
<totfact> 0.21438378E+06</totfact>
</mgrwt>
</event>
<event>
 6    1  0.4241465E-002  0.1368610E+03  0.7546771E-02  0.1217616E+00
         21   -1    0    0  504  502  0.00000000000E+00  0.00000000000E+00  0.18661847152E+04  0.18661847152E+04  0.00000000000E+00 0.  1.
         21   -1    0    0  502  503 -0.00000000000E+00 -0.00000000000E+00 -0.64751760999E+01  0.64751760999E+01  0.00000000000E+00 0.  1.
         25    2    1    2    0    0 -0.11064229817E+02  0.54608783171E+02  0.81066109818E+03  0.82213280085E+03  0.12500555885E+03 0.  0.
          5    1    3    3  501    0 -0.57281605232E+02  0.18435323934E+02  0.61288846791E+03  0.61583547118E+03  0.10000000000E+00 0. -1.
         -5    1    3    3    0  501  0.46217375415E+02  0.36173459237E+02  0.19777263027E+03  0.20629732967E+03  0.10000000000E+00 0. -1.
         21    1    1    2  504  503  0.11064229817E+02 -0.54608783171E+02  0.10490484410E+04  0.10505270905E+04  0.00000000000E+00 0.  1.
<mgrwt>
<rscale>  1 0.13686097E+03</rscale>
<asrwt>0</asrwt>
<pdfrwt beam="1">  1       21 0.28710491E+00 0.13686097E+03</pdfrwt>
<pdfrwt beam="2">  1       21 0.99618243E-03 0.13686097E+03</pdfrwt>
<totfact> 0.15994895E+05</totfact>
</mgrwt>
</event>
<event>
 6    1  0.4241465E-002  0.1271335E+03  0.7546771E-02  0.1231772E+00
         21   -1    0    0  504  502  0.00000000000E+00  0.00000000000E+00  0.11902839654E+03  0.11902839654E+03  0.00000000000E+00 0.  1.
         21   -1    0    0  502  503 -0.00000000000E+00 -0.00000000000E+00 -0.68602310119E+02  0.68602310119E+02  0.00000000000E+00 0.  1.
         25    2    1    2    0    0 -0.10537485023E+02  0.20743805853E+02 -0.52984881799E+01  0.12724385141E+03  0.12498631795E+03 0.  0.
          5    1    3    3  501    0  0.41542796722E+02 -0.29874522106E+02  0.12061270264E+02  0.52571620395E+02  0.10000000000E+00 0.  1.
         -5    1    3    3    0  501 -0.52080281746E+02  0.50618327959E+02 -0.17359758444E+02  0.74672231018E+02  0.10000000000E+00 0.  1.
         21    1    1    2  504  503  0.10537485023E+02 -0.20743805853E+02  0.55724574597E+02  0.60386855241E+02  0.00000000000E+00 0. -1.
<mgrwt>
<rscale>  1 0.12713349E+03</rscale>
<asrwt>0</asrwt>
<pdfrwt beam="1">  1       21 0.18312061E-01 0.12713349E+03</pdfrwt>
<pdfrwt beam="2">  1       21 0.10554202E-01 0.12713349E+03</pdfrwt>
<totfact> 0.19931955E+06</totfact>
</mgrwt>
</event>
<event>
 6    1  0.4241465E-002  0.1262765E+03  0.7546771E-02  0.1233088E+00
         21   -1    0    0  504  502  0.00000000000E+00  0.00000000000E+00  0.60183926719E+02  0.60183926719E+02  0.00000000000E+00 0. -1.
         21   -1    0    0  502  503 -0.00000000000E+00 -0.00000000000E+00 -0.10744468758E+03  0.10744468758E+03  0.00000000000E+00 0. -1.
         25    2    1    2    0    0 -0.17709789811E+02  0.35768539235E+01 -0.65245116952E+02  0.14213611337E+03  0.12497727353E+03 0.  0.
          5    1    3    3  501    0  0.18533865461E+02 -0.42927846192E+02 -0.68668868219E+02  0.83076636969E+02  0.10000000000E+00 0.  1.
         -5    1    3    3    0  501 -0.36243655271E+02  0.46504700115E+02  0.34237512669E+01  0.59059476403E+02  0.10000000000E+00 0.  1.
         21    1    1    2  504  503  0.17709789811E+02 -0.35768539235E+01  0.17984356096E+02  0.25492500923E+02  0.00000000000E+00 0. -1.
<mgrwt>
<rscale>  1 0.12627648E+03</rscale>
<asrwt>0</asrwt>
<pdfrwt beam="1">  1       21 0.92590657E-02 0.12627648E+03</pdfrwt>
<pdfrwt beam="2">  1       21 0.16529952E-01 0.12627648E+03</pdfrwt>
<totfact> 0.30193214E+06</totfact>
</mgrwt>
</event>
<event>
 6    1  0.4241465E-002  0.1270915E+03  0.7546771E-02  0.1231836E+00
         21   -1    0    0  503  502  0.00000000000E+00  0.00000000000E+00  0.40768838603E+02  0.40768838603E+02  0.00000000000E+00 0. -1.
         21   -1    0    0  504  503 -0.00000000000E+00 -0.00000000000E+00 -0.43026692880E+03  0.43026692880E+03  0.00000000000E+00 0. -1.
         25    2    1    2    0    0 -0.21036743603E+02 -0.92061745988E+01 -0.41657626074E+03  0.43553188660E+03  0.12499977999E+03 0.  0.
          5    1    3    3  501    0  0.32998175348E+02  0.10387589990E+02 -0.32877578754E+03  0.33059084996E+03  0.10000000000E+00 0.  1.
         -5    1    3    3    0  501 -0.54034918951E+02 -0.19593764589E+02 -0.87800473202E+02  0.10494103664E+03  0.10000000000E+00 0.  1.
         21    1    1    2  504  502  0.21036743603E+02  0.92061745988E+01  0.27078170545E+02  0.35503880805E+02  0.00000000000E+00 0. -1.
<mgrwt>
<rscale>  1 0.12709148E+03</rscale>
<asrwt>0</asrwt>
<pdfrwt beam="1">  1       21 0.62721294E-02 0.12709148E+03</pdfrwt>
<pdfrwt beam="2">  1       21 0.66194908E-01 0.12709148E+03</pdfrwt>
<totfact> 0.38751222E+05</totfact>
</mgrwt>
</event>
<event>
 6    1  0.4241465E-002  0.1539786E+03  0.7546771E-02  0.1195668E+00
         21   -1    0    0  504  502  0.00000000000E+00  0.00000000000E+00  0.85985390914E+02  0.85985390914E+02  0.00000000000E+00 0.  1.
         21   -1    0    0  502  503 -0.00000000000E+00 -0.00000000000E+00 -0.22490182762E+03  0.22490182762E+03  0.00000000000E+00 0.  1.
         25    2    1    2    0    0  0.83149438518E+02 -0.34200968571E+02 -0.15619726646E+03  0.21933306814E+03  0.12500349337E+03 0.  0.
          5    1    3    3  501    0  0.31697300741E+02 -0.15972915085E+02 -0.16068938507E+03  0.16456287967E+03  0.10000000000E+00 0.  1.
         -5    1    3    3    0  501  0.51452137777E+02 -0.18228053486E+02  0.44921186142E+01  0.54770188473E+02  0.10000000000E+00 0.  1.
         21    1    1    2  504  503 -0.83149438518E+02  0.34200968571E+02  0.17280829751E+02  0.91554150391E+02  0.00000000000E+00 0.  1.
<mgrwt>
<rscale>  1 0.15397860E+03</rscale>
<asrwt>0</asrwt>
<pdfrwt beam="1">  1       21 0.13228522E-01 0.15397860E+03</pdfrwt>
<pdfrwt beam="2">  1       21 0.34600281E-01 0.15397860E+03</pdfrwt>
<totfact> 0.39946537E+05</totfact>
</mgrwt>
</event>
<event>
 6    1  0.4241465E-002  0.1262621E+03  0.7546771E-02  0.1233110E+00
         21   -1    0    0  504  502  0.00000000000E+00  0.00000000000E+00  0.25952349397E+04  0.25952349397E+04  0.00000000000E+00 0. -1.
         21   -1    0    0  502  503 -0.00000000000E+00 -0.00000000000E+00 -0.20827293332E+01  0.20827293332E+01  0.00000000000E+00 0. -1.
         25    2    1    2    0    0  0.17345216450E+02  0.41278104549E+01  0.24083089522E+04  0.24116164966E+04  0.12499688828E+03 0.  0.
          5    1    3    3  501    0 -0.47686059088E+02  0.29504855195E+02  0.98081017433E+03  0.98241188143E+03  0.10000000000E+00 0. -1.
         -5    1    3    3    0  501  0.65031275538E+02 -0.25377044741E+02  0.14274987779E+04  0.14292046152E+04  0.10000000000E+00 0. -1.
         21    1    1    2  504  503 -0.17345216450E+02 -0.41278104549E+01  0.18484325812E+03  0.18570117239E+03  0.00000000000E+00 0. -1.
<mgrwt>
<rscale>  1 0.12626210E+03</rscale>
<asrwt>0</asrwt>
<pdfrwt beam="1">  1       21 0.39926433E+00 0.12626210E+03</pdfrwt>
<pdfrwt beam="2">  1       21 0.32042197E-03 0.12626210E+03</pdfrwt>
<totfact> 0.21106150E+05</totfact>
</mgrwt>
</event>
<event>
 6    1  0.4241465E-002  0.1266663E+03  0.7546771E-02  0.1232488E+00
         21   -1    0    0  504  502  0.00000000000E+00  0.00000000000E+00  0.32317332418E+03  0.32317332418E+03  0.00000000000E+00 0. -1.
         21   -1    0    0  502  503 -0.00000000000E+00 -0.00000000000E+00 -0.16844984012E+02  0.16844984012E+02  0.00000000000E+00 0. -1.
         25    2    1    2    0    0  0.15531456226E+02 -0.13419055549E+02  0.25466111674E+03  0.28442335194E+03  0.12499224601E+03 0.  0.
          5    1    3    3  501    0  0.55932665571E+02  0.33019722352E+02  0.13790303776E+03  0.15243366743E+03  0.10000000000E+00 0.  1.
         -5    1    3    3    0  501 -0.40401209346E+02 -0.46438777902E+02  0.11675807898E+03  0.13198968451E+03  0.10000000000E+00 0.  1.
         21    1    1    2  504  503 -0.15531456226E+02  0.13419055549E+02  0.51667223427E+02  0.55594956255E+02  0.00000000000E+00 0. -1.
<mgrwt>
<rscale>  1 0.12666633E+03</rscale>
<asrwt>0</asrwt>
<pdfrwt beam="1">  1       21 0.49718968E-01 0.12666633E+03</pdfrwt>
<pdfrwt beam="2">  1       21 0.25915362E-02 0.12666633E+03</pdfrwt>
<totfact> 0.30782299E+06</totfact>
</mgrwt>
</event>
<event>
 6    1  0.4241465E-002  0.1259226E+03  0.7546771E-02  0.1233634E+00
         21   -1    0    0  504  502  0.00000000000E+00  0.00000000000E+00  0.10327851081E+03  0.10327851081E+03  0.00000000000E+00 0.  1.
         21   -1    0    0  502  503 -0.00000000000E+00 -0.00000000000E+00 -0.55904381917E+02  0.55904381917E+02  0.00000000000E+00 0.  1.
         25    2    1    2    0    0 -0.50848396639E+00 -0.15115738538E+02  0.19436026910E+02  0.12741369932E+03  0.12501098961E+03 0.  0.
          5    1    3    3  501    0 -0.55870624686E+02  0.21083073192E+02  0.72579774452E+01  0.60155722210E+02  0.10000000000E+00 0.  1.
         -5    1    3    3    0  501  0.55362140720E+02 -0.36198811730E+02  0.12178049465E+02  0.67257977107E+02  0.10000000000E+00 0.  1.
         21    1    1    2  504  503  0.50848396639E+00  0.15115738538E+02  0.27938101986E+02  0.31769193412E+02  0.00000000000E+00 0.  1.
<mgrwt>
<rscale>  1 0.12592256E+03</rscale>
<asrwt>0</asrwt>
<pdfrwt beam="1">  1       21 0.15889002E-01 0.12592256E+03</pdfrwt>
<pdfrwt beam="2">  1       21 0.86006742E-02 0.12592256E+03</pdfrwt>
<totfact> 0.36862152E+06</totfact>
</mgrwt>
</event>
<event>
 6    1  0.4241465E-002  0.1547914E+03  0.7546771E-02  0.1194706E+00
         21   -1    0    0  504  502  0.00000000000E+00  0.00000000000E+00  0.42798204126E+03  0.42798204126E+03  0.00000000000E+00 0.  1.
         21   -1    0    0  502  503 -0.00000000000E+00 -0.00000000000E+00 -0.38315913990E+02  0.38315913990E+02  0.00000000000E+00 0.  1.
         25    2    1    2    0    0  0.56392753500E+02 -0.71818773756E+02  0.30376382060E+03  0.34092935790E+03  0.12498915737E+03 0.  0.
          5    1    3    3  501    0 -0.22185724593E+02 -0.70293432632E+02  0.11675244684E+03  0.13807431655E+03  0.10000000000E+00 0.  1.
         -5    1    3    3    0  501  0.78578478093E+02 -0.15253411239E+01  0.18701137376E+03  0.20285504135E+03  0.10000000000E+00 0.  1.
         21    1    1    2  504  503 -0.56392753500E+02  0.71818773756E+02  0.85902306667E+02  0.12536859735E+03  0.00000000000E+00 0.  1.
<mgrwt>
<rscale>  1 0.15479137E+03</rscale>
<asrwt>0</asrwt>
<pdfrwt beam="1">  1       21 0.65843388E-01 0.15479137E+03</pdfrwt>
<pdfrwt beam="2">  1       21 0.58947563E-02 0.15479137E+03</pdfrwt>
<totfact> 0.43389711E+05</totfact>
</mgrwt>
</event>
<event>
 6    1  0.4241465E-002  0.1263130E+03  0.7546771E-02  0.1233032E+00
         21   -1    0    0  504  502  0.00000000000E+00  0.00000000000E+00  0.59389803039E+03  0.59389803039E+03  0.00000000000E+00 0. -1.
         21   -1    0    0  502  503 -0.00000000000E+00 -0.00000000000E+00 -0.10134082001E+02  0.10134082001E+02  0.00000000000E+00 0. -1.
         25    2    1    2    0    0 -0.17137311556E+02 -0.60441076579E+01  0.40237606168E+03  0.42173624263E+03  0.12499897862E+03 0.  0.
          5    1    3    3  501    0  0.45113883667E+02  0.18286397963E+02  0.25915536845E+03  0.26368763689E+03  0.10000000000E+00 0. -1.
         -5    1    3    3    0  501 -0.62251195223E+02 -0.24330505621E+02  0.14322069323E+03  0.15804860575E+03  0.10000000000E+00 0. -1.
         21    1    1    2  504  503  0.17137311556E+02  0.60441076579E+01  0.18138788672E+03  0.18229586976E+03  0.00000000000E+00 0. -1.
<mgrwt>
<rscale>  1 0.12631296E+03</rscale>
<asrwt>0</asrwt>
<pdfrwt beam="1">  1       21 0.91368900E-01 0.12631296E+03</pdfrwt>
<pdfrwt beam="2">  1       21 0.15590900E-02 0.12631296E+03</pdfrwt>
<totfact> 0.18676005E+06</totfact>
</mgrwt>
</event>
<event>
 6    1  0.4241465E-002  0.1809527E+03  0.7546771E-02  0.1166884E+00
         21   -1    0    0  503  502  0.00000000000E+00  0.00000000000E+00  0.22946283510E+03  0.22946283510E+03  0.00000000000E+00 0.  1.
         21   -1    0    0  504  503 -0.00000000000E+00 -0.00000000000E+00 -0.15155772158E+03  0.15155772158E+03  0.00000000000E+00 0.  1.
         25    2    1    2    0    0 -0.97417286161E+02 -0.87341122333E+02 -0.60272796632E+02  0.19072674661E+03  0.12500113026E+03 0.  0.
          5    1    3    3  501    0 -0.72734990784E+02 -0.83559872097E+02 -0.96371254014E+02  0.14683344207E+03  0.10000000000E+00 0.  1.
         -5    1    3    3    0  501 -0.24682295377E+02 -0.37812502359E+01  0.36098457382E+02  0.43893304544E+02  0.10000000000E+00 0.  1.
         21    1    1    2  504  502  0.97417286161E+02  0.87341122333E+02  0.13817791015E+03  0.19029381006E+03  0.00000000000E+00 0.  1.
<mgrwt>
<rscale>  1 0.18095271E+03</rscale>
<asrwt>0</asrwt>
<pdfrwt beam="1">  1       21 0.35301975E-01 0.18095271E+03</pdfrwt>
<pdfrwt beam="2">  1       21 0.23316573E-01 0.18095271E+03</pdfrwt>
<totfact> 0.13432293E+05</totfact>
</mgrwt>
</event>
<event>
 6    1  0.4241465E-002  0.1268204E+03  0.7546771E-02  0.1232251E+00
         21   -1    0    0  504  502  0.00000000000E+00  0.00000000000E+00  0.37677518187E+02  0.37677518187E+02  0.00000000000E+00 0.  1.
         21   -1    0    0  502  503 -0.00000000000E+00 -0.00000000000E+00 -0.15474111155E+03  0.15474111155E+03  0.00000000000E+00 0.  1.
         25    2    1    2    0    0 -0.13959066642E+01  0.21379476727E+02 -0.11446231934E+03  0.17083629420E+03  0.12499754513E+03 0.  0.
          5    1    3    3  501    0 -0.19016755875E+02  0.21164150177E+02  0.20283726176E+02  0.34942779001E+02  0.10000000000E+00 0.  1.
         -5    1    3    3    0  501  0.17620849211E+02  0.21532654948E+00 -0.13474604551E+03  0.13589351520E+03  0.10000000000E+00 0.  1.
         21    1    1    2  504  503  0.13959066642E+01 -0.21379476727E+02 -0.26012740251E+01  0.21582335533E+02  0.00000000000E+00 0.  1.
<mgrwt>
<rscale>  1 0.12682041E+03</rscale>
<asrwt>0</asrwt>
<pdfrwt beam="1">  1       21 0.57965414E-02 0.12682041E+03</pdfrwt>
<pdfrwt beam="2">  1       21 0.23806324E-01 0.12682041E+03</pdfrwt>
<totfact> 0.34369803E+06</totfact>
</mgrwt>
</event>
<event>
 6    1  0.4241465E-002  0.1270067E+03  0.7546771E-02  0.1231966E+00
         21   -1    0    0  504  502  0.00000000000E+00  0.00000000000E+00  0.22232091624E+03  0.22232091624E+03  0.00000000000E+00 0.  1.
         21   -1    0    0  502  503 -0.00000000000E+00 -0.00000000000E+00 -0.91978629873E+02  0.91978629873E+02  0.00000000000E+00 0.  1.
         25    2    1    2    0    0  0.22382938605E+02 -0.23976677876E+01 -0.47082219350E+02  0.13545268430E+03  0.12499579814E+03 0.  0.
          5    1    3    3  501    0  0.90789517690E+01  0.43919315978E+02 -0.69174060583E+02  0.82440247080E+02  0.10000000000E+00 0. -1.
         -5    1    3    3    0  501  0.13303986836E+02 -0.46316983766E+02  0.22091841233E+02  0.53012437219E+02  0.10000000000E+00 0. -1.
         21    1    1    2  504  503 -0.22382938605E+02  0.23976677876E+01  0.17742450572E+03  0.17884686182E+03  0.00000000000E+00 0.  1.
<mgrwt>
<rscale>  1 0.12700667E+03</rscale>
<asrwt>0</asrwt>
<pdfrwt beam="1">  1       21 0.34203218E-01 0.12700667E+03</pdfrwt>
<pdfrwt beam="2">  1       21 0.14150559E-01 0.12700667E+03</pdfrwt>
<totfact> 0.36342637E+05</totfact>
</mgrwt>
</event>
<event>
 6    1  0.4241465E-002  0.1500820E+03  0.7546771E-02  0.1200372E+00
         21   -1    0    0  504  502  0.00000000000E+00  0.00000000000E+00  0.15328289777E+03  0.15328289777E+03  0.00000000000E+00 0. -1.
         21   -1    0    0  502  503 -0.00000000000E+00 -0.00000000000E+00 -0.19794612925E+03  0.19794612925E+03  0.00000000000E+00 0.  1.
         25    2    1    2    0    0 -0.61828180693E+02  0.55417885009E+02 -0.15327408048E+03  0.21451698502E+03  0.12502290674E+03 0.  0.
          5    1    3    3  501    0 -0.55137100169E+02  0.89322251316E+02 -0.14495601835E+03  0.17897156660E+03  0.10000000000E+00 0.  1.
         -5    1    3    3    0  501 -0.66910805246E+01 -0.33904366307E+02 -0.83180621346E+01  0.35545418424E+02  0.10000000000E+00 0.  1.
         21    1    1    2  504  503  0.61828180693E+02 -0.55417885009E+02  0.10861084900E+03  0.13671204200E+03  0.00000000000E+00 0. -1.
<mgrwt>
<rscale>  1 0.15008195E+03</rscale>
<asrwt>0</asrwt>
<pdfrwt beam="1">  1       21 0.23581984E-01 0.15008195E+03</pdfrwt>
<pdfrwt beam="2">  1       21 0.30453250E-01 0.15008195E+03</pdfrwt>
<totfact> 0.17742508E+05</totfact>
</mgrwt>
</event>
<event>
 6    1  0.4241465E-002  0.1261240E+03  0.7546771E-02  0.1233323E+00
         21   -1    0    0  503  502  0.00000000000E+00  0.00000000000E+00  0.57202152896E+02  0.57202152896E+02  0.00000000000E+00 0.  1.
         21   -1    0    0  504  503 -0.00000000000E+00 -0.00000000000E+00 -0.98425808447E+02  0.98425808447E+02  0.00000000000E+00 0.  1.
         25    2    1    2    0    0 -0.11827146765E+02  0.11945720533E+02 -0.51154987893E+02  0.13610328460E+03  0.12499875861E+03 0.  0.
          5    1    3    3  501    0 -0.65080800777E+02  0.87370680019E+01 -0.55174081256E+01  0.65896121126E+02  0.10000000000E+00 0. -1.
         -5    1    3    3    0  501  0.53253654012E+02  0.32086525309E+01 -0.45637579768E+02  0.70207163479E+02  0.10000000000E+00 0. -1.
         21    1    1    2  504  502  0.11827146765E+02 -0.11945720533E+02  0.99313323417E+01  0.19524676738E+02  0.00000000000E+00 0.  1.
<mgrwt>
<rscale>  1 0.12612403E+03</rscale>
<asrwt>0</asrwt>
<pdfrwt beam="1">  1       21 0.88003313E-02 0.12612403E+03</pdfrwt>
<pdfrwt beam="2">  1       21 0.15142432E-01 0.12612403E+03</pdfrwt>
<totfact> 0.38646391E+06</totfact>
</mgrwt>
</event>
<event>
 6    1  0.4241465E-002  0.1377747E+03  0.7546771E-02  0.1216355E+00
         21   -1    0    0  504  502  0.00000000000E+00  0.00000000000E+00  0.72804683684E+02  0.72804683684E+02  0.00000000000E+00 0.  1.
         21   -1    0    0  502  503 -0.00000000000E+00 -0.00000000000E+00 -0.48036638628E+03  0.48036638628E+03  0.00000000000E+00 0.  1.
         25    2    1    2    0    0  0.88667987860E+01 -0.57255723397E+02 -0.45680729366E+03  0.47713182863E+03  0.12500016146E+03 0.  0.
          5    1    3    3  501    0 -0.18851370236E+02  0.30989219964E+02 -0.21874237618E+03  0.22172943659E+03  0.10000000000E+00 0.  1.
         -5    1    3    3    0  501  0.27718169022E+02 -0.88244943360E+02 -0.23806491748E+03  0.25540239204E+03  0.10000000000E+00 0.  1.
         21    1    1    2  504  503 -0.88667987860E+01  0.57255723397E+02  0.49245591071E+02  0.76039241332E+02  0.00000000000E+00 0.  1.
<mgrwt>
<rscale>  1 0.13777474E+03</rscale>
<asrwt>0</asrwt>
<pdfrwt beam="1">  1       21 0.11200721E-01 0.13777474E+03</pdfrwt>
<pdfrwt beam="2">  1       21 0.73902520E-01 0.13777474E+03</pdfrwt>
<totfact> 0.11135264E+05</totfact>
</mgrwt>
</event>
<event>
 6    1  0.4241465E-002  0.1298867E+03  0.7546771E-02  0.1227624E+00
         21   -1    0    0  504  502  0.00000000000E+00  0.00000000000E+00  0.68570876258E+03  0.68570876258E+03  0.00000000000E+00 0.  1.
         21   -1    0    0  502  503 -0.00000000000E+00 -0.00000000000E+00 -0.29782221147E+02  0.29782221147E+02  0.00000000000E+00 0. -1.
         25    2    1    2    0    0 -0.61782239803E+01 -0.34752881621E+02  0.11519943329E+03  0.17361300972E+03  0.12499853792E+03 0.  0.
          5    1    3    3  501    0 -0.21959528863E+02 -0.25809523576E+02  0.13934863115E+03  0.14340991395E+03  0.10000000000E+00 0. -1.
         -5    1    3    3    0  501  0.15781304883E+02 -0.89433580454E+01 -0.24149197861E+02  0.30203095773E+02  0.10000000000E+00 0. -1.
         21    1    1    2  504  503  0.61782239803E+01  0.34752881621E+02  0.54072710814E+03  0.54187797400E+03  0.00000000000E+00 0.  1.
<mgrwt>
<rscale>  1 0.12988675E+03</rscale>
<asrwt>0</asrwt>
<pdfrwt beam="1">  1       21 0.10549364E+00 0.12988675E+03</pdfrwt>
<pdfrwt beam="2">  1       21 0.45818807E-02 0.12988675E+03</pdfrwt>
<totfact> 0.22965257E+05</totfact>
</mgrwt>
</event>
<event>
 6    1  0.4241465E-002  0.1265394E+03  0.7546771E-02  0.1232683E+00
         21   -1    0    0  504  502  0.00000000000E+00  0.00000000000E+00  0.28643315637E+03  0.28643315637E+03  0.00000000000E+00 0. -1.
         21   -1    0    0  502  503 -0.00000000000E+00 -0.00000000000E+00 -0.20046296191E+02  0.20046296191E+02  0.00000000000E+00 0. -1.
         25    2    1    2    0    0 -0.95644831955E+01 -0.17214924997E+02  0.19526501866E+03  0.23268142195E+03  0.12499753448E+03 0.  0.
          5    1    3    3  501    0 -0.57872231647E+02 -0.34389406347E+02  0.14949759770E+03  0.16395538473E+03  0.10000000000E+00 0. -1.
         -5    1    3    3    0  501  0.48307748452E+02  0.17174481350E+02  0.45767420967E+02  0.68726037221E+02  0.10000000000E+00 0. -1.
         21    1    1    2  504  503  0.95644831955E+01  0.17214924997E+02  0.71121841517E+02  0.73798030612E+02  0.00000000000E+00 0. -1.
<mgrwt>
<rscale>  1 0.12653939E+03</rscale>
<asrwt>0</asrwt>
<pdfrwt beam="1">  1       21 0.44066637E-01 0.12653939E+03</pdfrwt>
<pdfrwt beam="2">  1       21 0.30840458E-02 0.12653939E+03</pdfrwt>
<totfact> 0.29633157E+06</totfact>
</mgrwt>
</event>
<event>
 6    1  0.4241465E-002  0.1270919E+03  0.7546771E-02  0.1231836E+00
         21   -1    0    0  503  502  0.00000000000E+00  0.00000000000E+00  0.29398749529E+02  0.29398749529E+02  0.00000000000E+00 0. -1.
         21   -1    0    0  504  503 -0.00000000000E+00 -0.00000000000E+00 -0.60913448169E+03  0.60913448169E+03  0.00000000000E+00 0.  1.
         25    2    1    2    0    0 -0.16069597984E+02 -0.16463350070E+02 -0.59661362732E+03  0.61000014130E+03  0.12499231256E+03 0.  0.
          5    1    3    3  501    0 -0.62962430945E+00  0.44385061445E+02 -0.99681847123E+02  0.10911879193E+03  0.10000000000E+00 0. -1.
         -5    1    3    3    0  501 -0.15439973674E+02 -0.60848411515E+02 -0.49693178020E+03  0.50088134937E+03  0.10000000000E+00 0. -1.
         21    1    1    2  504  502  0.16069597984E+02  0.16463350070E+02  0.16877895168E+02  0.28533089917E+02  0.00000000000E+00 0. -1.
<mgrwt>
<rscale>  1 0.12709190E+03</rscale>
<asrwt>0</asrwt>
<pdfrwt beam="1">  1       21 0.45228845E-02 0.12709190E+03</pdfrwt>
<pdfrwt beam="2">  1       21 0.93712999E-01 0.12709190E+03</pdfrwt>
<totfact> 0.30979832E+05</totfact>
</mgrwt>
</event>
<event>
 6    1  0.4241465E-002  0.1376088E+03  0.7546771E-02  0.1216583E+00
         21   -1    0    0  504  502  0.00000000000E+00  0.00000000000E+00  0.55251115117E+02  0.55251115117E+02  0.00000000000E+00 0.  1.
         21   -1    0    0  502  503 -0.00000000000E+00 -0.00000000000E+00 -0.29899814205E+03  0.29899814205E+03  0.00000000000E+00 0.  1.
         25    2    1    2    0    0  0.47051494260E+02  0.33129462796E+02 -0.26024440621E+03  0.29438634761E+03  0.12499906512E+03 0.  0.
          5    1    3    3  501    0  0.10354941787E+01  0.74661229569E+02 -0.15925418107E+03  0.17588995320E+03  0.10000000000E+00 0.  1.
         -5    1    3    3    0  501  0.46016000081E+02 -0.41531766774E+02 -0.10099022513E+03  0.11849639441E+03  0.10000000000E+00 0.  1.
         21    1    1    2  504  503 -0.47051494260E+02 -0.33129462796E+02  0.16497379277E+02  0.59862909554E+02  0.00000000000E+00 0.  1.
<mgrwt>
<rscale>  1 0.13760876E+03</rscale>
<asrwt>0</asrwt>
<pdfrwt beam="1">  1       21 0.85001715E-02 0.13760876E+03</pdfrwt>
<pdfrwt beam="2">  1       21 0.45999715E-01 0.13760876E+03</pdfrwt>
<totfact> 0.49287350E+05</totfact>
</mgrwt>
</event>
<event>
 6    1  0.4241465E-002  0.1267420E+03  0.7546771E-02  0.1232372E+00
         21   -1    0    0  503  502  0.00000000000E+00  0.00000000000E+00  0.14682220102E+04  0.14682220102E+04  0.00000000000E+00 0. -1.
         21   -1    0    0  504  503 -0.00000000000E+00 -0.00000000000E+00 -0.37281939227E+01  0.37281939227E+01  0.00000000000E+00 0. -1.
         25    2    1    2    0    0  0.44287720655E+01  0.20458442059E+02  0.12222749030E+04  0.12288284983E+04  0.12500151181E+03 0.  0.
          5    1    3    3  501    0 -0.14014336004E+02 -0.49990045173E+02  0.61920827045E+03  0.62138096078E+03  0.10000000000E+00 0.  1.
         -5    1    3    3    0  501  0.18443108069E+02  0.70448487233E+02  0.60306663253E+03  0.60744753753E+03  0.10000000000E+00 0.  1.
         21    1    1    2  504  502 -0.44287720655E+01 -0.20458442059E+02  0.24221891335E+03  0.24312170585E+03  0.00000000000E+00 0.  1.
<mgrwt>
<rscale>  1 0.12674202E+03</rscale>
<asrwt>0</asrwt>
<pdfrwt beam="1">  1       21 0.22587985E+00 0.12674202E+03</pdfrwt>
<pdfrwt beam="2">  1       21 0.57356947E-03 0.12674202E+03</pdfrwt>
<totfact> 0.85694324E+05</totfact>
</mgrwt>
</event>
<event>
 6    1  0.4241465E-002  0.1379103E+03  0.7546771E-02  0.1216169E+00
         21   -1    0    0  504  502  0.00000000000E+00  0.00000000000E+00  0.10459571081E+04  0.10459571081E+04  0.00000000000E+00 0.  1.
         21   -1    0    0  502  503 -0.00000000000E+00 -0.00000000000E+00 -0.11539348880E+03  0.11539348880E+03  0.00000000000E+00 0. -1.
         25    2    1    2    0    0  0.47090272301E+02  0.34379615941E+02 -0.73037843618E+02  0.15605693428E+03  0.12497915186E+03 0.  0.
          5    1    3    3  501    0  0.60502458274E+02  0.73327457593E+02 -0.61698271701E+02  0.11333203530E+03  0.10000000000E+00 0. -1.
         -5    1    3    3    0  501 -0.13412185973E+02 -0.38947841652E+02 -0.11339571917E+02  0.42724898984E+02  0.10000000000E+00 0. -1.
         21    1    1    2  504  503 -0.47090272301E+02 -0.34379615941E+02  0.10036014629E+04  0.10052936626E+04  0.00000000000E+00 0.  1.
<mgrwt>
<rscale>  1 0.13791026E+03</rscale>
<asrwt>0</asrwt>
<pdfrwt beam="1">  1       21 0.16091647E+00 0.13791026E+03</pdfrwt>
<pdfrwt beam="2">  1       21 0.17752845E-01 0.13791026E+03</pdfrwt>
<totfact> 0.74980852E+03</totfact>
</mgrwt>
</event>
<event>
 6    1  0.4241465E-002  0.1259665E+03  0.7546771E-02  0.1233566E+00
         21   -1    0    0  504  502  0.00000000000E+00  0.00000000000E+00  0.85437500804E+02  0.85437500804E+02  0.00000000000E+00 0.  1.
         21   -1    0    0  502  503 -0.00000000000E+00 -0.00000000000E+00 -0.61379846052E+02  0.61379846052E+02  0.00000000000E+00 0.  1.
         25    2    1    2    0    0  0.36026261171E+01  0.15353884723E+02  0.30781567397E+02  0.12967291067E+03  0.12497535028E+03 0.  0.
          5    1    3    3  501    0 -0.39745639033E+02  0.52495122827E+02  0.23148406304E+01  0.65884916559E+02  0.10000000000E+00 0.  1.
         -5    1    3    3    0  501  0.43348265150E+02 -0.37141238104E+02  0.28466726766E+02  0.63787994107E+02  0.10000000000E+00 0.  1.
         21    1    1    2  504  503 -0.36026261171E+01 -0.15353884723E+02 -0.67239126447E+01  0.17144436190E+02  0.00000000000E+00 0.  1.
<mgrwt>
<rscale>  1 0.12596650E+03</rscale>
<asrwt>0</asrwt>
<pdfrwt beam="1">  1       21 0.13144231E-01 0.12596650E+03</pdfrwt>
<pdfrwt beam="2">  1       21 0.94430533E-02 0.12596650E+03</pdfrwt>
<totfact> 0.44064182E+06</totfact>
</mgrwt>
</event>
<event>
 6    1  0.4241465E-002  0.1874842E+03  0.7546771E-02  0.1160750E+00
         21   -1    0    0  503  502  0.00000000000E+00  0.00000000000E+00  0.51389708408E+02  0.51389708408E+02  0.00000000000E+00 0.  1.
         21   -1    0    0  504  503 -0.00000000000E+00 -0.00000000000E+00 -0.56622261748E+03  0.56622261748E+03  0.00000000000E+00 0.  1.
         25    2    1    2    0    0 -0.77769092936E+02 -0.11609283411E+03 -0.37849815926E+03  0.42238747616E+03  0.12499898200E+03 0.  0.
          5    1    3    3  501    0 -0.47244662287E+02 -0.76198944966E+02 -0.35640926097E+03  0.36751314076E+03  0.10000000000E+00 0. -1.
         -5    1    3    3    0  501 -0.30524430649E+02 -0.39893889141E+02 -0.22088898295E+02  0.54874335396E+02  0.10000000000E+00 0. -1.
         21    1    1    2  504  502  0.77769092936E+02  0.11609283411E+03 -0.13633474981E+03  0.19522484973E+03  0.00000000000E+00 0.  1.
<mgrwt>
<rscale>  1 0.18748420E+03</rscale>
<asrwt>0</asrwt>
<pdfrwt beam="1">  1       21 0.79061097E-02 0.18748420E+03</pdfrwt>
<pdfrwt beam="2">  1       21 0.87111165E-01 0.18748420E+03</pdfrwt>
<totfact> 0.13900443E+05</totfact>
</mgrwt>
</event>
<event>
 6    1  0.4241465E-002  0.1358424E+03  0.7546771E-02  0.1219035E+00
         21   -1    0    0  503  502  0.00000000000E+00  0.00000000000E+00  0.42266021425E+02  0.42266021425E+02  0.00000000000E+00 0.  1.
         21   -1    0    0  504  503 -0.00000000000E+00 -0.00000000000E+00 -0.21946510222E+03  0.21946510222E+03  0.00000000000E+00 0.  1.
         25    2    1    2    0    0 -0.43099574914E+02 -0.31160029393E+02 -0.14864575286E+03  0.20136711677E+03  0.12499854033E+03 0.  0.
          5    1    3    3  501    0 -0.77750856675E+01  0.61644330438E+01 -0.14963875917E+03  0.14996739792E+03  0.10000000000E+00 0.  1.
         -5    1    3    3    0  501 -0.35324489247E+02 -0.37324462437E+02  0.99300631207E+00  0.51399718854E+02  0.10000000000E+00 0.  1.
         21    1    1    2  504  502  0.43099574914E+02  0.31160029393E+02 -0.28553327935E+02  0.60364006873E+02  0.00000000000E+00 0.  1.
<mgrwt>
<rscale>  1 0.13584239E+03</rscale>
<asrwt>0</asrwt>
<pdfrwt beam="1">  1       21 0.65024648E-02 0.13584239E+03</pdfrwt>
<pdfrwt beam="2">  1       21 0.33763862E-01 0.13584239E+03</pdfrwt>
<totfact> 0.14494634E+06</totfact>
</mgrwt>
</event>
<event>
 6    1  0.4241465E-002  0.1454834E+03  0.7546771E-02  0.1206135E+00
         21   -1    0    0  503  502  0.00000000000E+00  0.00000000000E+00  0.12352646027E+03  0.12352646027E+03  0.00000000000E+00 0. -1.
         21   -1    0    0  504  503 -0.00000000000E+00 -0.00000000000E+00 -0.10287336724E+03  0.10287336724E+03  0.00000000000E+00 0. -1.
         25    2    1    2    0    0  0.39997419142E+02  0.62777679928E+02 -0.10159626167E+02  0.14583771297E+03  0.12499835953E+03 0.  0.
          5    1    3    3  501    0 -0.45546531795E+01 -0.18786453110E+02 -0.43097997466E+02  0.47234765497E+02  0.10000000000E+00 0.  1.
         -5    1    3    3    0  501  0.44552072321E+02  0.81564133038E+02  0.32938371298E+02  0.98602947472E+02  0.10000000000E+00 0.  1.
         21    1    1    2  504  502 -0.39997419142E+02 -0.62777679928E+02  0.30812719200E+02  0.80562114543E+02  0.00000000000E+00 0. -1.
<mgrwt>
<rscale>  1 0.14548340E+03</rscale>
<asrwt>0</asrwt>
<pdfrwt beam="1">  1       21 0.19004071E-01 0.14548340E+03</pdfrwt>
<pdfrwt beam="2">  1       21 0.15826672E-01 0.14548340E+03</pdfrwt>
<totfact> 0.90524630E+05</totfact>
</mgrwt>
</event>
<event>
 6    1  0.4241465E-002  0.1279075E+03  0.7546771E-02  0.1230594E+00
         21   -1    0    0  504  502  0.00000000000E+00  0.00000000000E+00  0.14835888702E+03  0.14835888702E+03  0.00000000000E+00 0.  1.
         21   -1    0    0  502  503 -0.00000000000E+00 -0.00000000000E+00 -0.40519273401E+02  0.40519273401E+02  0.00000000000E+00 0.  1.
         25    2    1    2    0    0 -0.26751407271E+02 -0.45715928517E+01  0.90097375917E+02  0.15645402973E+03  0.12499515599E+03 0.  0.
          5    1    3    3  501    0 -0.13563194488E+02 -0.12249032517E+02  0.12079645187E+03  0.12217115791E+03  0.10000000000E+00 0.  1.
         -5    1    3    3    0  501 -0.13188212783E+02  0.76774396649E+01 -0.30699075948E+02  0.34282871821E+02  0.10000000000E+00 0.  1.
         21    1    1    2  504  503  0.26751407271E+02  0.45715928517E+01  0.17742237700E+02  0.32424130687E+02  0.00000000000E+00 0.  1.
<mgrwt>
<rscale>  1 0.12790749E+03</rscale>
<asrwt>0</asrwt>
<pdfrwt beam="1">  1       21 0.22824444E-01 0.12790749E+03</pdfrwt>
<pdfrwt beam="2">  1       21 0.62337345E-02 0.12790749E+03</pdfrwt>
<totfact> 0.32893299E+06</totfact>
</mgrwt>
</event>
<event>
 6    1  0.4241465E-002  0.1419266E+03  0.7546771E-02  0.1210760E+00
         21   -1    0    0  504  502  0.00000000000E+00  0.00000000000E+00  0.88611597561E+02  0.88611597561E+02  0.00000000000E+00 0.  1.
         21   -1    0    0  502  503 -0.00000000000E+00 -0.00000000000E+00 -0.55117059684E+03  0.55117059684E+03  0.00000000000E+00 0.  1.
         25    2    1    2    0    0 -0.59530083167E+02  0.31225430536E+02 -0.52753320097E+03  0.54629152535E+03  0.12499717688E+03 0.  0.
          5    1    3    3  501    0 -0.48104426106E+02 -0.38553288930E+02 -0.14965656859E+03  0.16185638826E+03  0.10000000000E+00 0.  1.
         -5    1    3    3    0  501 -0.11425657061E+02  0.69778719466E+02 -0.37787663238E+03  0.38443513709E+03  0.10000000000E+00 0.  1.
         21    1    1    2  504  503  0.59530083167E+02 -0.31225430536E+02  0.64974201692E+02  0.93490669051E+02  0.00000000000E+00 0.  1.
<mgrwt>
<rscale>  1 0.14192657E+03</rscale>
<asrwt>0</asrwt>
<pdfrwt beam="1">  1       21 0.13632554E-01 0.14192657E+03</pdfrwt>
<pdfrwt beam="2">  1       21 0.84795476E-01 0.14192657E+03</pdfrwt>
<totfact> 0.57622032E+04</totfact>
</mgrwt>
</event>
<event>
 6    1  0.4241465E-002  0.1269221E+03  0.7546771E-02  0.1232096E+00
         21   -1    0    0  503  502  0.00000000000E+00  0.00000000000E+00  0.85055095420E+03  0.85055095420E+03  0.00000000000E+00 0. -1.
         21   -1    0    0  504  503 -0.00000000000E+00 -0.00000000000E+00 -0.71667387291E+01  0.71667387291E+01  0.00000000000E+00 0. -1.
         25    2    1    2    0    0 -0.13705610081E+02  0.17219020150E+02  0.78738859413E+03  0.79755252018E+03  0.12499954350E+03 0.  0.
          5    1    3    3  501    0 -0.64885390762E+02 -0.10818591041E+02  0.49914692183E+03  0.50346282426E+03  0.10000000000E+00 0. -1.
         -5    1    3    3    0  501  0.51179780681E+02  0.28037611191E+02  0.28824167230E+03  0.29408969591E+03  0.10000000000E+00 0. -1.
         21    1    1    2  504  502  0.13705610081E+02 -0.17219020150E+02  0.55995621341E+02  0.60165172750E+02  0.00000000000E+00 0.  1.
<mgrwt>
<rscale>  1 0.12692212E+03</rscale>
<asrwt>0</asrwt>
<pdfrwt beam="1">  1       21 0.13085391E+00 0.12692212E+03</pdfrwt>
<pdfrwt beam="2">  1       21 0.11025759E-02 0.12692212E+03</pdfrwt>
<totfact> 0.13738578E+06</totfact>
</mgrwt>
</event>
<event>
 6    1  0.4241465E-002  0.1762264E+03  0.7546771E-02  0.1171506E+00
         21   -1    0    0  504  502  0.00000000000E+00  0.00000000000E+00  0.63510737241E+03  0.63510737241E+03  0.00000000000E+00 0. -1.
         21   -1    0    0  502  503 -0.00000000000E+00 -0.00000000000E+00 -0.29334623859E+03  0.29334623859E+03  0.00000000000E+00 0. -1.
         25    2    1    2    0    0 -0.11495667301E+03 -0.47066901366E+02 -0.25995027971E+03  0.31405394055E+03  0.12500159913E+03 0.  0.
          5    1    3    3  501    0 -0.11809326243E+02 -0.46532986689E+02 -0.18421058362E+02  0.51421050433E+02  0.10000000000E+00 0.  1.
         -5    1    3    3    0  501 -0.10314734676E+03 -0.53391467754E+00 -0.24152922134E+03  0.26263289012E+03  0.10000000000E+00 0.  1.
         21    1    1    2  504  503  0.11495667301E+03  0.47066901366E+02  0.60171141353E+03  0.61439967044E+03  0.00000000000E+00 0. -1.
<mgrwt>
<rscale>  1 0.17622636E+03</rscale>
<asrwt>0</asrwt>
<pdfrwt beam="1">  1       21 0.97708827E-01 0.17622636E+03</pdfrwt>
<pdfrwt beam="2">  1       21 0.45130191E-01 0.17622636E+03</pdfrwt>
<totfact> 0.41414927E+03</totfact>
</mgrwt>
</event>
<event>
 6    1  0.4241465E-002  0.1385603E+03  0.7546771E-02  0.1215279E+00
         21   -1    0    0  504  502  0.00000000000E+00  0.00000000000E+00  0.32594180758E+03  0.32594180758E+03  0.00000000000E+00 0. -1.
         21   -1    0    0  502  503 -0.00000000000E+00 -0.00000000000E+00 -0.48755753867E+02  0.48755753867E+02  0.00000000000E+00 0. -1.
         25    2    1    2    0    0 -0.41977098240E+02  0.42571570586E+02  0.62793426875E+02  0.15212484560E+03  0.12499815515E+03 0.  0.
          5    1    3    3  501    0 -0.75195550423E+02  0.38233736050E+02  0.39945381838E+01  0.84452091218E+02  0.10000000000E+00 0. -1.
         -5    1    3    3    0  501  0.33218452183E+02  0.43378345369E+01  0.58798888691E+02  0.67672754379E+02  0.10000000000E+00 0. -1.
         21    1    1    2  504  503  0.41977098240E+02 -0.42571570586E+02  0.21439262684E+03  0.22257271585E+03  0.00000000000E+00 0. -1.
<mgrwt>
<rscale>  1 0.13856029E+03</rscale>
<asrwt>0</asrwt>
<pdfrwt beam="1">  1       21 0.50144892E-01 0.13856029E+03</pdfrwt>
<pdfrwt beam="2">  1       21 0.75008854E-02 0.13856029E+03</pdfrwt>
<totfact> 0.51225975E+05</totfact>
</mgrwt>
</event>
<event>
 6    1  0.4241465E-002  0.1606172E+03  0.7546771E-02  0.1188002E+00
         21   -1    0    0  504  502  0.00000000000E+00  0.00000000000E+00  0.87047210573E+03  0.87047210573E+03  0.00000000000E+00 0. -1.
         21   -1    0    0  502  503 -0.00000000000E+00 -0.00000000000E+00 -0.23901724385E+02  0.23901724385E+02  0.00000000000E+00 0.  1.
         25    2    1    2    0    0  0.60009066425E+02 -0.81066781768E+02  0.31793931199E+03  0.35620683127E+03  0.12499995750E+03 0.  0.
          5    1    3    3  501    0  0.38001252151E+02 -0.35221321285E+02  0.29654161718E+03  0.30103417972E+03  0.10000000000E+00 0.  1.
         -5    1    3    3    0  501  0.22007814274E+02 -0.45845460484E+02  0.21397694811E+02  0.55172651552E+02  0.10000000000E+00 0.  1.
         21    1    1    2  504  503 -0.60009066425E+02  0.81066781768E+02  0.52863106936E+03  0.53816699885E+03  0.00000000000E+00 0. -1.
<mgrwt>
<rscale>  1 0.16061725E+03</rscale>
<asrwt>0</asrwt>
<pdfrwt beam="1">  1       21 0.13391876E+00 0.16061725E+03</pdfrwt>
<pdfrwt beam="2">  1       21 0.36771890E-02 0.16061725E+03</pdfrwt>
<totfact> 0.18315636E+05</totfact>
</mgrwt>
</event>
<event>
 6    1  0.4241465E-002  0.1289409E+03  0.7546771E-02  0.1229036E+00
         21   -1    0    0  503  502  0.00000000000E+00  0.00000000000E+00  0.66647836688E+01  0.66647836688E+01  0.00000000000E+00 0. -1.
         21   -1    0    0  504  503 -0.00000000000E+00 -0.00000000000E+00 -0.10935678694E+04  0.10935678694E+04  0.00000000000E+00 0. -1.
         25    2    1    2    0    0  0.72065341662E+01  0.30803217289E+02 -0.98838335881E+03  0.99675845859E+03  0.12499995390E+03 0.  0.
          5    1    3    3  501    0 -0.85550551125E+01 -0.29299426530E+02 -0.74312830159E+03  0.74375488434E+03  0.10000000000E+00 0. -1.
         -5    1    3    3    0  501  0.15761589279E+02  0.60102643819E+02 -0.24525505722E+03  0.25300357425E+03  0.10000000000E+00 0. -1.
         21    1    1    2  504  502 -0.72065341662E+01 -0.30803217289E+02 -0.98519726965E+02  0.10347419452E+03  0.00000000000E+00 0. -1.
<mgrwt>
<rscale>  1 0.12894092E+03</rscale>
<asrwt>0</asrwt>
<pdfrwt beam="1">  1       21 0.10253514E-02 0.12894092E+03</pdfrwt>
<pdfrwt beam="2">  1       21 0.16824120E+00 0.12894092E+03</pdfrwt>
<totfact> 0.80422662E+05</totfact>
</mgrwt>
</event>
<event>
 6    1  0.4241465E-002  0.1260278E+03  0.7546771E-02  0.1233472E+00
         21   -1    0    0  503  502  0.00000000000E+00  0.00000000000E+00  0.52791737705E+02  0.52791737705E+02  0.00000000000E+00 0.  1.
         21   -1    0    0  504  503 -0.00000000000E+00 -0.00000000000E+00 -0.97516853918E+02  0.97516853918E+02  0.00000000000E+00 0.  1.
         25    2    1    2    0    0 -0.77564880297E+01 -0.14062098256E+02 -0.46089940487E+02  0.13419125750E+03  0.12500042104E+03 0.  0.
          5    1    3    3  501    0 -0.52459700135E+02  0.25001306117E+02 -0.47120759564E+02  0.74816184264E+02  0.10000000000E+00 0.  1.
         -5    1    3    3    0  501  0.44703212105E+02 -0.39063404374E+02  0.10308190774E+01  0.59375073236E+02  0.10000000000E+00 0.  1.
         21    1    1    2  504  502  0.77564880297E+01  0.14062098256E+02  0.13648242740E+01  0.16117334123E+02  0.00000000000E+00 0.  1.
<mgrwt>
<rscale>  1 0.12602782E+03</rscale>
<asrwt>0</asrwt>
<pdfrwt beam="1">  1       21 0.81218059E-02 0.12602782E+03</pdfrwt>
<pdfrwt beam="2">  1       21 0.15002593E-01 0.12602782E+03</pdfrwt>
<totfact> 0.45143959E+06</totfact>
</mgrwt>
</event>
<event>
 6    1  0.4241465E-002  0.2011464E+03  0.7546771E-02  0.1148775E+00
         21   -1    0    0  503  502  0.00000000000E+00  0.00000000000E+00  0.77206369091E+02  0.77206369091E+02  0.00000000000E+00 0. -1.
         21   -1    0    0  504  503 -0.00000000000E+00 -0.00000000000E+00 -0.59884083495E+03  0.59884083495E+03  0.00000000000E+00 0. -1.
         25    2    1    2    0    0 -0.78903545570E+02 -0.13647528554E+03 -0.46822530882E+03  0.50960258525E+03  0.12493431079E+03 0.  0.
          5    1    3    3  501    0 -0.51766431695E+02 -0.12815563146E+03 -0.22037458602E+03  0.26013188480E+03  0.10000000000E+00 0. -1.
         -5    1    3    3    0  501 -0.27137113875E+02 -0.83196540755E+01 -0.24785072280E+03  0.24947070045E+03  0.10000000000E+00 0. -1.
         21    1    1    2  504  502  0.78903545570E+02  0.13647528554E+03 -0.53409157040E+02  0.16644461879E+03  0.00000000000E+00 0. -1.
<mgrwt>
<rscale>  1 0.20114635E+03</rscale>
<asrwt>0</asrwt>
<pdfrwt beam="1">  1       21 0.11877903E-01 0.20114635E+03</pdfrwt>
<pdfrwt beam="2">  1       21 0.92129355E-01 0.20114635E+03</pdfrwt>
<totfact> 0.59226435E+04</totfact>
</mgrwt>
</event>
<event>
 6    1  0.4241465E-002  0.1296231E+03  0.7546771E-02  0.1228016E+00
         21   -1    0    0  503  502  0.00000000000E+00  0.00000000000E+00  0.28563865500E+02  0.28563865500E+02  0.00000000000E+00 0.  1.
         21   -1    0    0  504  503 -0.00000000000E+00 -0.00000000000E+00 -0.63355640577E+03  0.63355640577E+03  0.00000000000E+00 0. -1.
         25    2    1    2    0    0 -0.33267294265E+02  0.84515166949E+01 -0.61326430864E+03  0.62681357001E+03  0.12499599310E+03 0.  0.
          5    1    3    3  501    0 -0.64060255268E+02  0.46523479573E+02 -0.42327041124E+03  0.43061119526E+03  0.10000000000E+00 0. -1.
         -5    1    3    3    0  501  0.30792961003E+02 -0.38071962879E+02 -0.18999389740E+03  0.19620237475E+03  0.10000000000E+00 0. -1.
         21    1    1    2  504  502  0.33267294265E+02 -0.84515166949E+01  0.82717683706E+01  0.35306701264E+02  0.00000000000E+00 0.  1.
<mgrwt>
<rscale>  1 0.12962307E+03</rscale>
<asrwt>0</asrwt>
<pdfrwt beam="1">  1       21 0.43944412E-02 0.12962307E+03</pdfrwt>
<pdfrwt beam="2">  1       21 0.97470209E-01 0.12962307E+03</pdfrwt>
<totfact> 0.29661732E+05</totfact>
</mgrwt>
</event>
<event>
 6    1  0.4241465E-002  0.1287261E+03  0.7546771E-02  0.1229358E+00
         21   -1    0    0  503  502  0.00000000000E+00  0.00000000000E+00  0.52911488422E+03  0.52911488422E+03  0.00000000000E+00 0. -1.
         21   -1    0    0  504  503 -0.00000000000E+00 -0.00000000000E+00 -0.12119529007E+02  0.12119529007E+02  0.00000000000E+00 0. -1.
         25    2    1    2    0    0 -0.30032831829E+02  0.65648926236E+01  0.39612115131E+03  0.41651215390E+03  0.12500135610E+03 0.  0.
          5    1    3    3  501    0  0.34975924023E+02  0.24139272370E+02  0.58889358052E+02  0.72622215772E+02  0.10000000000E+00 0.  1.
         -5    1    3    3    0  501 -0.65008755852E+02 -0.17574379747E+02  0.33723179326E+03  0.34388993812E+03  0.10000000000E+00 0.  1.
         21    1    1    2  504  502  0.30032831829E+02 -0.65648926236E+01  0.12087420391E+03  0.12472225933E+03  0.00000000000E+00 0. -1.
<mgrwt>
<rscale>  1 0.12872610E+03</rscale>
<asrwt>0</asrwt>
<pdfrwt beam="1">  1       21 0.81402272E-01 0.12872610E+03</pdfrwt>
<pdfrwt beam="2">  1       21 0.18645433E-02 0.12872610E+03</pdfrwt>
<totfact> 0.18217281E+06</totfact>
</mgrwt>
</event>
<event>
 6    1  0.4241465E-002  0.1295758E+03  0.7546771E-02  0.1228087E+00
         21   -1    0    0  504  502  0.00000000000E+00  0.00000000000E+00  0.46338325607E+03  0.46338325607E+03  0.00000000000E+00 0. -1.
         21   -1    0    0  502  503 -0.00000000000E+00 -0.00000000000E+00 -0.24379912972E+02  0.24379912972E+02  0.00000000000E+00 0. -1.
         25    2    1    2    0    0  0.99733507162E+00  0.34073497968E+02  0.15636269167E+03  0.20307432876E+03  0.12501157432E+03 0.  0.
          5    1    3    3  501    0  0.15475776296E+02  0.51002121946E+02  0.16917807083E+03  0.17737515537E+03  0.10000000000E+00 0.  1.
         -5    1    3    3    0  501 -0.14478441224E+02 -0.16928623978E+02 -0.12815379154E+02  0.25699173390E+02  0.10000000000E+00 0.  1.
         21    1    1    2  504  503 -0.99733507162E+00 -0.34073497968E+02  0.28264065142E+03  0.28468884028E+03  0.00000000000E+00 0. -1.
<mgrwt>
<rscale>  1 0.12957581E+03</rscale>
<asrwt>0</asrwt>
<pdfrwt beam="1">  1       21 0.71289725E-01 0.12957581E+03</pdfrwt>
<pdfrwt beam="2">  1       21 0.37507562E-02 0.12957581E+03</pdfrwt>
<totfact> 0.78109441E+05</totfact>
</mgrwt>
</event>
<event>
 6    1  0.4241465E-002  0.1547990E+03  0.7546771E-02  0.1194697E+00
         21   -1    0    0  504  502  0.00000000000E+00  0.00000000000E+00  0.26918856096E+03  0.26918856096E+03  0.00000000000E+00 0.  1.
         21   -1    0    0  502  503 -0.00000000000E+00 -0.00000000000E+00 -0.79012437319E+02  0.79012437319E+02  0.00000000000E+00 0.  1.
         25    2    1    2    0    0  0.78722694069E+02 -0.46249666788E+02  0.21346092432E+02  0.15626383753E+03  0.12500574794E+03 0.  0.
          5    1    3    3  501    0  0.96821615623E+02 -0.22547075442E+02 -0.23739369424E+02  0.10220745337E+03  0.10000000000E+00 0. -1.
         -5    1    3    3    0  501 -0.18098921553E+02 -0.23702591347E+02  0.45085461856E+02  0.54056384162E+02  0.10000000000E+00 0. -1.
         21    1    1    2  504  503 -0.78722694069E+02  0.46249666788E+02  0.16883003121E+03  0.19193716076E+03  0.00000000000E+00 0.  1.
<mgrwt>
<rscale>  1 0.15479900E+03</rscale>
<asrwt>0</asrwt>
<pdfrwt beam="1">  1       21 0.41413624E-01 0.15479900E+03</pdfrwt>
<pdfrwt beam="2">  1       21 0.12155760E-01 0.15479900E+03</pdfrwt>
<totfact> 0.32464891E+05</totfact>
</mgrwt>
</event>
<event>
 6    1  0.4241465E-002  0.1310565E+03  0.7546771E-02  0.1225896E+00
         21   -1    0    0  503  502  0.00000000000E+00  0.00000000000E+00  0.99514978122E+02  0.99514978122E+02  0.00000000000E+00 0.  1.
         21   -1    0    0  504  503 -0.00000000000E+00 -0.00000000000E+00 -0.74420349973E+02  0.74420349973E+02  0.00000000000E+00 0.  1.
         25    2    1    2    0    0  0.19685992326E+02 -0.34102152479E+02  0.29432306618E+02  0.13432080359E+03  0.12500129002E+03 0.  0.
          5    1    3    3  501    0  0.63754552462E+02 -0.65900938481E+01  0.46999203113E+02  0.79479603609E+02  0.10000000000E+00 0.  1.
         -5    1    3    3    0  501 -0.44068560136E+02 -0.27512058631E+02 -0.17566896495E+02  0.54841199978E+02  0.10000000000E+00 0.  1.
         21    1    1    2  504  502 -0.19685992326E+02  0.34102152479E+02 -0.43376784691E+01  0.39614524509E+02  0.00000000000E+00 0.  1.
<mgrwt>
<rscale>  1 0.13105654E+03</rscale>
<asrwt>0</asrwt>
<pdfrwt beam="1">  1       21 0.15309997E-01 0.13105654E+03</pdfrwt>
<pdfrwt beam="2">  1       21 0.11449285E-01 0.13105654E+03</pdfrwt>
<totfact> 0.23943139E+06</totfact>
</mgrwt>
</event>
<event>
 6    1  0.4241465E-002  0.1436105E+03  0.7546771E-02  0.1208552E+00
         21   -1    0    0  503  502  0.00000000000E+00  0.00000000000E+00  0.18391561022E+03  0.18391561022E+03  0.00000000000E+00 0.  1.
         21   -1    0    0  504  503 -0.00000000000E+00 -0.00000000000E+00 -0.73511944449E+02  0.73511944449E+02  0.00000000000E+00 0.  1.
         25    2    1    2    0    0 -0.64806215268E+02 -0.28274486298E+02  0.23706509906E+02  0.14555401469E+03  0.12499872186E+03 0.  0.
          5    1    3    3  501    0 -0.10649085508E+02 -0.72577489328E+02  0.75416255391E+01  0.73741311998E+02  0.10000000000E+00 0.  1.
         -5    1    3    3    0  501 -0.54157129760E+02  0.44303003030E+02  0.16164884367E+02  0.71812702692E+02  0.10000000000E+00 0.  1.
         21    1    1    2  504  502  0.64806215268E+02  0.28274486298E+02  0.86697155866E+02  0.11187353998E+03  0.00000000000E+00 0.  1.
<mgrwt>
<rscale>  1 0.14361049E+03</rscale>
<asrwt>0</asrwt>
<pdfrwt beam="1">  1       21 0.28294709E-01 0.14361049E+03</pdfrwt>
<pdfrwt beam="2">  1       21 0.11309530E-01 0.14361049E+03</pdfrwt>
<totfact> 0.78160063E+05</totfact>
</mgrwt>
</event>
<event>
 6    1  0.4241465E-002  0.1268879E+03  0.7546771E-02  0.1232148E+00
         21   -1    0    0  503  502  0.00000000000E+00  0.00000000000E+00  0.90700076861E+03  0.90700076861E+03  0.00000000000E+00 0. -1.
         21   -1    0    0  504  503 -0.00000000000E+00 -0.00000000000E+00 -0.22544531019E+02  0.22544531019E+02  0.00000000000E+00 0. -1.
         25    2    1    2    0    0 -0.21776368552E+02  0.11508279442E+01  0.15746474495E+03  0.20222682399E+03  0.12500003123E+03 0.  0.
          5    1    3    3  501    0 -0.34060678600E+02 -0.57400041213E+02  0.75881580172E+02  0.10105898657E+03  0.10000000000E+00 0. -1.
         -5    1    3    3    0  501  0.12284310048E+02  0.58550869158E+02  0.81583164775E+02  0.10116783741E+03  0.10000000000E+00 0. -1.
         21    1    1    2  504  502  0.21776368552E+02 -0.11508279442E+01  0.72699149265E+03  0.72731847564E+03  0.00000000000E+00 0. -1.
<mgrwt>
<rscale>  1 0.12688791E+03</rscale>
<asrwt>0</asrwt>
<pdfrwt beam="1">  1       21 0.13953855E+00 0.12688791E+03</pdfrwt>
<pdfrwt beam="2">  1       21 0.34683901E-02 0.12688791E+03</pdfrwt>
<totfact> 0.18416697E+05</totfact>
</mgrwt>
</event>
<event>
 6    1  0.4241465E-002  0.1266633E+03  0.7546771E-02  0.1232492E+00
         21   -1    0    0  504  502  0.00000000000E+00  0.00000000000E+00  0.69671044575E+03  0.69671044575E+03  0.00000000000E+00 0.  1.
         21   -1    0    0  502  503 -0.00000000000E+00 -0.00000000000E+00 -0.11672022996E+02  0.11672022996E+02  0.00000000000E+00 0.  1.
         25    2    1    2    0    0 -0.17848482268E+02 -0.10037021335E+02  0.34148217470E+03  0.36421651213E+03  0.12499712778E+03 0.  0.
          5    1    3    3  501    0  0.33380378988E+02 -0.14687541759E+02  0.28692382823E+03  0.28923220220E+03  0.10000000000E+00 0.  1.
         -5    1    3    3    0  501 -0.51228861257E+02  0.46505204239E+01  0.54558346471E+02  0.74984309929E+02  0.10000000000E+00 0.  1.
         21    1    1    2  504  503  0.17848482268E+02  0.10037021335E+02  0.34355624805E+03  0.34416595662E+03  0.00000000000E+00 0.  1.
<mgrwt>
<rscale>  1 0.12666330E+03</rscale>
<asrwt>0</asrwt>
<pdfrwt beam="1">  1       21 0.10718619E+00 0.12666330E+03</pdfrwt>
<pdfrwt beam="2">  1       21 0.17956964E-02 0.12666330E+03</pdfrwt>
<totfact> 0.10257965E+06</totfact>
</mgrwt>
</event>
<event>
 6    1  0.4241465E-002  0.1263572E+03  0.7546771E-02  0.1232963E+00
         21   -1    0    0  504  502  0.00000000000E+00  0.00000000000E+00  0.14904671471E+04  0.14904671471E+04  0.00000000000E+00 0.  1.
         21   -1    0    0  502  503 -0.00000000000E+00 -0.00000000000E+00 -0.35621630668E+01  0.35621630668E+01  0.00000000000E+00 0.  1.
         25    2    1    2    0    0  0.14535415162E+02 -0.11382639872E+02  0.12344044491E+04  0.12408547401E+04  0.12500119719E+03 0.  0.
          5    1    3    3  501    0 -0.44989627642E+02  0.29725147344E+02  0.55102539201E+03  0.55365751473E+03  0.10000000000E+00 0.  1.
         -5    1    3    3    0  501  0.59525042804E+02 -0.41107787217E+02  0.68337905714E+03  0.68719722542E+03  0.10000000000E+00 0.  1.
         21    1    1    2  504  503 -0.14535415162E+02  0.11382639872E+02  0.25250053484E+03  0.25317456997E+03  0.00000000000E+00 0.  1.
<mgrwt>
<rscale>  1 0.12635720E+03</rscale>
<asrwt>0</asrwt>
<pdfrwt beam="1">  1       21 0.22930214E+00 0.12635720E+03</pdfrwt>
<pdfrwt beam="2">  1       21 0.54802628E-03 0.12635720E+03</pdfrwt>
<totfact> 0.87791120E+05</totfact>
</mgrwt>
</event>
<event>
 6    1  0.4241465E-002  0.1274579E+03  0.7546771E-02  0.1231277E+00
         21   -1    0    0  504  502  0.00000000000E+00  0.00000000000E+00  0.20994290546E+02  0.20994290546E+02  0.00000000000E+00 0. -1.
         21   -1    0    0  502  503 -0.00000000000E+00 -0.00000000000E+00 -0.27801945888E+03  0.27801945888E+03  0.00000000000E+00 0. -1.
         25    2    1    2    0    0  0.24936294266E+02 -0.42766297275E+00 -0.20649045815E+03  0.24265987999E+03  0.12499402538E+03 0.  0.
          5    1    3    3  501    0  0.21185132172E+02  0.24700716806E+02 -0.21376835604E+03  0.21623102293E+03  0.10000000000E+00 0.  1.
         -5    1    3    3    0  501  0.37511620938E+01 -0.25128379779E+02  0.72778978891E+01  0.26428857052E+02  0.10000000000E+00 0.  1.
         21    1    1    2  504  503 -0.24936294266E+02  0.42766297275E+00 -0.50534710186E+02  0.56353869441E+02  0.00000000000E+00 0. -1.
<mgrwt>
<rscale>  1 0.12745787E+03</rscale>
<asrwt>0</asrwt>
<pdfrwt beam="1">  1       21 0.32298905E-02 0.12745787E+03</pdfrwt>
<pdfrwt beam="2">  1       21 0.42772229E-01 0.12745787E+03</pdfrwt>
<totfact> 0.29179736E+06</totfact>
</mgrwt>
</event>
<event>
 6    1  0.4241465E-002  0.1332124E+03  0.7546771E-02  0.1222766E+00
         21   -1    0    0  504  502  0.00000000000E+00  0.00000000000E+00  0.47248634036E+02  0.47248634036E+02  0.00000000000E+00 0. -1.
         21   -1    0    0  502  503 -0.00000000000E+00 -0.00000000000E+00 -0.21279871063E+03  0.21279871063E+03  0.00000000000E+00 0. -1.
         25    2    1    2    0    0 -0.16696224674E+02 -0.42914325820E+02 -0.16743294663E+03  0.21396102914E+03  0.12500050838E+03 0.  0.
          5    1    3    3  501    0  0.65373165344E+01 -0.36419928387E+02 -0.18203768523E+03  0.18576026630E+03  0.10000000000E+00 0.  1.
         -5    1    3    3    0  501 -0.23233541208E+02 -0.64943974324E+01  0.14604738605E+02  0.28200762841E+02  0.10000000000E+00 0.  1.
         21    1    1    2  504  503  0.16696224674E+02  0.42914325820E+02  0.18828700345E+01  0.46086315523E+02  0.00000000000E+00 0. -1.
<mgrwt>
<rscale>  1 0.13321235E+03</rscale>
<asrwt>0</asrwt>
<pdfrwt beam="1">  1       21 0.72690206E-02 0.13321235E+03</pdfrwt>
<pdfrwt beam="2">  1       21 0.32738263E-01 0.13321235E+03</pdfrwt>
<totfact> 0.12720101E+06</totfact>
</mgrwt>
</event>
<event>
 6    1  0.4241465E-002  0.1454698E+03  0.7546771E-02  0.1206153E+00
         21   -1    0    0  503  502  0.00000000000E+00  0.00000000000E+00  0.79953788068E+03  0.79953788068E+03  0.00000000000E+00 0.  1.
         21   -1    0    0  504  503 -0.00000000000E+00 -0.00000000000E+00 -0.19567306568E+02  0.19567306568E+02  0.00000000000E+00 0.  1.
         25    2    1    2    0    0  0.29671677876E+02 -0.68244135838E+02  0.67460243854E+03  0.69010861932E+03  0.12499514320E+03 0.  0.
          5    1    3    3  501    0 -0.32243453627E+02 -0.38848312041E+02  0.49989493175E+03  0.50243784137E+03  0.10000000000E+00 0.  1.
         -5    1    3    3    0  501  0.61915131503E+02 -0.29395823797E+02  0.17470750679E+03  0.18767077795E+03  0.10000000000E+00 0.  1.
         21    1    1    2  504  502 -0.29671677876E+02  0.68244135838E+02  0.10536813557E+03  0.12899656793E+03  0.00000000000E+00 0.  1.
<mgrwt>
<rscale>  1 0.14546978E+03</rscale>
<asrwt>0</asrwt>
<pdfrwt beam="1">  1       21 0.12300580E+00 0.14546978E+03</pdfrwt>
<pdfrwt beam="2">  1       21 0.30103555E-02 0.14546978E+03</pdfrwt>
<totfact> 0.31674258E+05</totfact>
</mgrwt>
</event>
<event>
 6    1  0.4241465E-002  0.1259609E+03  0.7546771E-02  0.1233575E+00
         21   -1    0    0  504  502  0.00000000000E+00  0.00000000000E+00  0.67399511023E+03  0.67399511023E+03  0.00000000000E+00 0. -1.
         21   -1    0    0  502  503 -0.00000000000E+00 -0.00000000000E+00 -0.13045205340E+02  0.13045205340E+02  0.00000000000E+00 0. -1.
         25    2    1    2    0    0  0.11340364373E+01  0.15526985314E+02  0.29508955902E+03  0.32084888203E+03  0.12499513571E+03 0.  0.
          5    1    3    3  501    0  0.58752654452E+02  0.30074458245E+02  0.16991576567E+03  0.18228473569E+03  0.10000000000E+00 0. -1.
         -5    1    3    3    0  501 -0.57618618015E+02 -0.14547472931E+02  0.12517379335E+03  0.13856414634E+03  0.10000000000E+00 0. -1.
         21    1    1    2  504  503 -0.11340364373E+01 -0.15526985314E+02  0.36586034588E+03  0.36619143354E+03  0.00000000000E+00 0. -1.
<mgrwt>
<rscale>  1 0.12596094E+03</rscale>
<asrwt>0</asrwt>
<pdfrwt beam="1">  1       21 0.10369153E+00 0.12596094E+03</pdfrwt>
<pdfrwt beam="2">  1       21 0.20069552E-02 0.12596094E+03</pdfrwt>
<totfact> 0.92777487E+05</totfact>
</mgrwt>
</event>
<event>
 6    1  0.4241465E-002  0.1286064E+03  0.7546771E-02  0.1229538E+00
         21   -1    0    0  504  502  0.00000000000E+00  0.00000000000E+00  0.17987581424E+03  0.17987581424E+03  0.00000000000E+00 0. -1.
         21   -1    0    0  502  503 -0.00000000000E+00 -0.00000000000E+00 -0.17464509661E+03  0.17464509661E+03  0.00000000000E+00 0.  1.
         25    2    1    2    0    0  0.26815116003E+01 -0.30101430078E+02 -0.14930539217E+03  0.19705759503E+03  0.12500523601E+03 0.  0.
          5    1    3    3  501    0  0.31789341320E+02 -0.53527929120E+02 -0.24710349244E+02  0.66980689584E+02  0.10000000000E+00 0.  1.
         -5    1    3    3    0  501 -0.29107829719E+02  0.23426499043E+02 -0.12459504293E+03  0.13007690545E+03  0.10000000000E+00 0.  1.
         21    1    1    2  504  503 -0.26815116003E+01  0.30101430078E+02  0.15453610980E+03  0.15746331582E+03  0.00000000000E+00 0. -1.
<mgrwt>
<rscale>  1 0.12860636E+03</rscale>
<asrwt>0</asrwt>
<pdfrwt beam="1">  1       21 0.27673202E-01 0.12860636E+03</pdfrwt>
<pdfrwt beam="2">  1       21 0.26868476E-01 0.12860636E+03</pdfrwt>
<totfact> 0.16762177E+05</totfact>
</mgrwt>
</event>
<event>
 6    1  0.4241465E-002  0.1259615E+03  0.7546771E-02  0.1233574E+00
         21   -1    0    0  504  502  0.00000000000E+00  0.00000000000E+00  0.30247076588E+02  0.30247076588E+02  0.00000000000E+00 0. -1.
         21   -1    0    0  502  503 -0.00000000000E+00 -0.00000000000E+00 -0.19990654984E+03  0.19990654984E+03  0.00000000000E+00 0. -1.
         25    2    1    2    0    0 -0.49469541478E+01  0.14680832145E+02 -0.17329881590E+03  0.21423998440E+03  0.12500516843E+03 0.  0.
          5    1    3    3  501    0 -0.30580644275E+02 -0.11254611492E+02  0.43608166716E+01  0.32876569257E+02  0.10000000000E+00 0. -1.
         -5    1    3    3    0  501  0.25633690127E+02  0.25935443637E+02 -0.17765963257E+03  0.18136341514E+03  0.10000000000E+00 0. -1.
         21    1    1    2  504  503  0.49469541478E+01 -0.14680832145E+02  0.36393426463E+01  0.15913642031E+02  0.00000000000E+00 0. -1.
<mgrwt>
<rscale>  1 0.12596147E+03</rscale>
<asrwt>0</asrwt>
<pdfrwt beam="1">  1       21 0.46533964E-02 0.12596147E+03</pdfrwt>
<pdfrwt beam="2">  1       21 0.30754854E-01 0.12596147E+03</pdfrwt>
<totfact> 0.30519856E+06</totfact>
</mgrwt>
</event>
<event>
 6    1  0.4241465E-002  0.1348396E+03  0.7546771E-02  0.1220446E+00
         21   -1    0    0  503  502  0.00000000000E+00  0.00000000000E+00  0.84809726856E+03  0.84809726856E+03  0.00000000000E+00 0.  1.
         21   -1    0    0  504  503 -0.00000000000E+00 -0.00000000000E+00 -0.83865314821E+02  0.83865314821E+02  0.00000000000E+00 0. -1.
         25    2    1    2    0    0  0.16332019678E+02 -0.47845655029E+02 -0.28335239358E+02  0.13778458246E+03  0.12500305517E+03 0.  0.
          5    1    3    3  501    0  0.25823502552E+02 -0.85532859343E+01  0.45843393319E+02  0.53307022945E+02  0.10000000000E+00 0.  1.
         -5    1    3    3    0  501 -0.94914828735E+01 -0.39292369095E+02 -0.74178632676E+02  0.84477559517E+02  0.10000000000E+00 0.  1.
         21    1    1    2  504  502 -0.16332019678E+02  0.47845655029E+02  0.79256719310E+03  0.79417800092E+03  0.00000000000E+00 0.  1.
<mgrwt>
<rscale>  1 0.13483955E+03</rscale>
<asrwt>0</asrwt>
<pdfrwt beam="1">  1       21 0.13047650E+00 0.13483955E+03</pdfrwt>
<pdfrwt beam="2">  1       21 0.12902357E-01 0.13483955E+03</pdfrwt>
<totfact> 0.22954629E+04</totfact>
</mgrwt>
</event>
<event>
 6    1  0.4241465E-002  0.1269023E+03  0.7546771E-02  0.1232126E+00
         21   -1    0    0  503  502  0.00000000000E+00  0.00000000000E+00  0.84297270910E+03  0.84297270910E+03  0.00000000000E+00 0. -1.
         21   -1    0    0  504  503 -0.00000000000E+00 -0.00000000000E+00 -0.15826048026E+03  0.15826048026E+03  0.00000000000E+00 0. -1.
         25    2    1    2    0    0 -0.20985968971E+02  0.62832976499E+01 -0.13265075183E+03  0.18357670103E+03  0.12499716987E+03 0.  0.
          5    1    3    3  501    0 -0.30670820930E+02 -0.40185286295E+02 -0.92905053245E+01  0.51399221593E+02  0.10000000000E+00 0.  1.
         -5    1    3    3    0  501  0.96848519590E+01  0.46468583945E+02 -0.12336024651E+03  0.13217747944E+03  0.10000000000E+00 0.  1.
         21    1    1    2  504  502  0.20985968971E+02 -0.62832976499E+01  0.81736298068E+03  0.81765648833E+03  0.00000000000E+00 0. -1.
<mgrwt>
<rscale>  1 0.12690226E+03</rscale>
<asrwt>0</asrwt>
<pdfrwt beam="1">  1       21 0.12968811E+00 0.12690226E+03</pdfrwt>
<pdfrwt beam="2">  1       21 0.24347767E-01 0.12690226E+03</pdfrwt>
<totfact> 0.73390221E+03</totfact>
</mgrwt>
</event>
<event>
 6    1  0.4241465E-002  0.1295244E+03  0.7546771E-02  0.1228163E+00
         21   -1    0    0  504  502  0.00000000000E+00  0.00000000000E+00  0.35320925207E+02  0.35320925207E+02  0.00000000000E+00 0. -1.
         21   -1    0    0  502  503 -0.00000000000E+00 -0.00000000000E+00 -0.20802684376E+03  0.20802684376E+03  0.00000000000E+00 0. -1.
         25    2    1    2    0    0  0.31898950103E+02 -0.11573314445E+02 -0.16271710338E+03  0.20797460041E+03  0.12500037623E+03 0.  0.
          5    1    3    3  501    0  0.41768428820E+02  0.44643585872E+02 -0.12616411236E+03  0.14019645021E+03  0.10000000000E+00 0.  1.
         -5    1    3    3    0  501 -0.98694787177E+01 -0.56216900317E+02 -0.36552991023E+02  0.67778150197E+02  0.10000000000E+00 0.  1.
         21    1    1    2  504  503 -0.31898950103E+02  0.11573314445E+02 -0.99888151676E+01  0.35373168551E+02  0.00000000000E+00 0. -1.
<mgrwt>
<rscale>  1 0.12952443E+03</rscale>
<asrwt>0</asrwt>
<pdfrwt beam="1">  1       21 0.54339885E-02 0.12952443E+03</pdfrwt>
<pdfrwt beam="2">  1       21 0.32004130E-01 0.12952443E+03</pdfrwt>
<totfact> 0.21794367E+06</totfact>
</mgrwt>
</event>
<event>
 6    1  0.4241465E-002  0.1264202E+03  0.7546771E-02  0.1232866E+00
         21   -1    0    0  503  502  0.00000000000E+00  0.00000000000E+00  0.90983103211E+03  0.90983103211E+03  0.00000000000E+00 0.  1.
         21   -1    0    0  504  503 -0.00000000000E+00 -0.00000000000E+00 -0.58348046632E+01  0.58348046632E+01  0.00000000000E+00 0.  1.
         25    2    1    2    0    0  0.20979141288E+01 -0.18825063815E+02  0.76284380073E+03  0.77324816989E+03  0.12499313445E+03 0.  0.
          5    1    3    3  501    0  0.42364170626E+01 -0.71259230913E+02  0.36081310351E+03  0.36780692066E+03  0.10000000000E+00 0.  1.
         -5    1    3    3    0  501 -0.21385029337E+01  0.52434167098E+02  0.40203069722E+03  0.40544124923E+03  0.10000000000E+00 0.  1.
         21    1    1    2  504  502 -0.20979141288E+01  0.18825063815E+02  0.14115242671E+03  0.14241766688E+03  0.00000000000E+00 0.  1.
<mgrwt>
<rscale>  1 0.12642020E+03</rscale>
<asrwt>0</asrwt>
<pdfrwt beam="1">  1       21 0.13997389E+00 0.12642020E+03</pdfrwt>
<pdfrwt beam="2">  1       21 0.89766298E-03 0.12642020E+03</pdfrwt>
<totfact> 0.16035647E+06</totfact>
</mgrwt>
</event>
