<event>
 6    1  0.4244577E-002  0.1706163E+03  0.7546771E-02  0.1177207E+00
         21   -1    0    0  503  502  0.00000000000E+00  0.00000000000E+00  0.37562033641E+02  0.37562033641E+02  0.00000000000E+00 0.  1.
         21   -1    0    0  504  503 -0.00000000000E+00 -0.00000000000E+00 -0.59329658457E+03  0.59329658457E+03  0.00000000000E+00 0.  1.
         25    2    1    2    0    0  0.66452012660E+02 -0.95229679016E+02 -0.24015097163E+03  0.29458855223E+03  0.12500145670E+03 0.  0.
          5    1    3    3  501    0  0.16765163359E+02  0.16085033698E+02 -0.12418304565E+03  0.12633779260E+03  0.10000000000E+00 0. -1.
         -5    1    3    3    0  501  0.49686849302E+02 -0.11131471271E+03 -0.11596792598E+03  0.16825075963E+03  0.10000000000E+00 0. -1.
         21    1    1    2  504  502 -0.66452012660E+02  0.95229679016E+02 -0.31558357930E+03  0.33627006598E+03  0.00000000000E+00 0.  1.
<mgrwt>
<rscale>  1 0.17061631E+03</rscale>
<asrwt>0</asrwt>
<pdfrwt beam="1">  1       21 0.57787748E-02 0.17061631E+03</pdfrwt>
<pdfrwt beam="2">  1       21 0.91276392E-01 0.17061631E+03</pdfrwt>
<totfact> 0.21527894E+05</totfact>
</mgrwt>
</event>
<event>
 6    1  0.4244577E-002  0.1309340E+03  0.7546771E-02  0.1226076E+00
         21   -1    0    0  503  502  0.00000000000E+00  0.00000000000E+00  0.21560208966E+03  0.21560208966E+03  0.00000000000E+00 0.  1.
         21   -1    0    0  504  503 -0.00000000000E+00 -0.00000000000E+00 -0.36722364158E+02  0.36722364158E+02  0.00000000000E+00 0.  1.
         25    2    1    2    0    0 -0.36268000623E+02 -0.14308084857E+02  0.16565931879E+03  0.21115567542E+03  0.12499448067E+03 0.  0.
          5    1    3    3  501    0 -0.40795827010E+01 -0.51506580796E+02  0.15134803560E+03  0.15992438444E+03  0.10000000000E+00 0.  1.
         -5    1    3    3    0  501 -0.32188417922E+02  0.37198495938E+02  0.14311283195E+02  0.51231290976E+02  0.10000000000E+00 0.  1.
         21    1    1    2  504  502  0.36268000623E+02  0.14308084857E+02  0.13220406713E+02  0.41168778402E+02  0.00000000000E+00 0. -1.
<mgrwt>
<rscale>  1 0.13093399E+03</rscale>
<asrwt>0</asrwt>
<pdfrwt beam="1">  1       21 0.33169552E-01 0.13093399E+03</pdfrwt>
<pdfrwt beam="2">  1       21 0.56495946E-02 0.13093399E+03</pdfrwt>
<totfact> 0.19040366E+06</totfact>
</mgrwt>
</event>
<event>
 6    1  0.4244577E-002  0.1273587E+03  0.7546771E-02  0.1231428E+00
         21   -1    0    0  503  502  0.00000000000E+00  0.00000000000E+00  0.50354733795E+03  0.50354733795E+03  0.00000000000E+00 0.  1.
         21   -1    0    0  504  503 -0.00000000000E+00 -0.00000000000E+00 -0.16086303525E+03  0.16086303525E+03  0.00000000000E+00 0.  1.
         25    2    1    2    0    0 -0.53890603027E+01 -0.23658509286E+02  0.49451559058E+03  0.51065242378E+03  0.12502584354E+03 0.  0.
          5    1    3    3  501    0  0.36119234803E+02  0.34826228945E+02  0.28016433423E+03  0.28462173059E+03  0.10000000000E+00 0.  1.
         -5    1    3    3    0  501 -0.41508295106E+02 -0.58484738231E+02  0.21435125635E+03  0.22603069319E+03  0.10000000000E+00 0.  1.
         21    1    1    2  504  502  0.53890603027E+01  0.23658509286E+02 -0.15183128787E+03  0.15375794942E+03  0.00000000000E+00 0.  1.
<mgrwt>
<rscale>  1 0.12735866E+03</rscale>
<asrwt>0</asrwt>
<pdfrwt beam="1">  1       21 0.77468820E-01 0.12735866E+03</pdfrwt>
<pdfrwt beam="2">  1       21 0.24748160E-01 0.12735866E+03</pdfrwt>
<totfact> 0.23800288E+04</totfact>
</mgrwt>
</event>
<event>
 6    1  0.4244577E-002  0.1260410E+03  0.7546771E-02  0.1233451E+00
         21   -1    0    0  504  502  0.00000000000E+00  0.00000000000E+00  0.37136670910E+02  0.37136670910E+02  0.00000000000E+00 0. -1.
         21   -1    0    0  502  503 -0.00000000000E+00 -0.00000000000E+00 -0.26675131652E+03  0.26675131652E+03  0.00000000000E+00 0. -1.
         25    2    1    2    0    0  0.24264872539E+00  0.16176332493E+02 -0.71422391045E+02  0.14487062355E+03  0.12499842804E+03 0.  0.
          5    1    3    3  501    0 -0.57995676602E+02 -0.13274668164E+02 -0.23792595480E+02  0.64076617569E+02  0.10000000000E+00 0. -1.
         -5    1    3    3    0  501  0.58238325328E+02  0.29451000657E+02 -0.47629795566E+02  0.80794005980E+02  0.10000000000E+00 0. -1.
         21    1    1    2  504  503 -0.24264872539E+00 -0.16176332493E+02 -0.15819225457E+03  0.15901736388E+03  0.00000000000E+00 0. -1.
<mgrwt>
<rscale>  1 0.12604102E+03</rscale>
<asrwt>0</asrwt>
<pdfrwt beam="1">  1       21 0.57133339E-02 0.12604102E+03</pdfrwt>
<pdfrwt beam="2">  1       21 0.41038665E-01 0.12604102E+03</pdfrwt>
<totfact> 0.12253972E+06</totfact>
</mgrwt>
</event>
<event>
 6    1  0.4244577E-002  0.1418597E+03  0.7546771E-02  0.1210848E+00
         21   -1    0    0  504  502  0.00000000000E+00  0.00000000000E+00  0.18087821861E+02  0.18087821861E+02  0.00000000000E+00 0. -1.
         21   -1    0    0  502  503 -0.00000000000E+00 -0.00000000000E+00 -0.62705342301E+03  0.62705342301E+03  0.00000000000E+00 0. -1.
         25    2    1    2    0    0 -0.11644229274E+01  0.67064369132E+02 -0.46806678434E+03  0.48909169484E+03  0.12500074347E+03 0.  0.
          5    1    3    3  501    0 -0.43041814327E+02  0.22273573902E+02 -0.37186411334E+03  0.37500885145E+03  0.10000000000E+00 0. -1.
         -5    1    3    3    0  501  0.41877391400E+02  0.44790795230E+02 -0.96202671004E+02  0.11408284339E+03  0.10000000000E+00 0. -1.
         21    1    1    2  504  503  0.11644229274E+01 -0.67064369132E+02 -0.14089881680E+03  0.15604955003E+03  0.00000000000E+00 0. -1.
<mgrwt>
<rscale>  1 0.14185969E+03</rscale>
<asrwt>0</asrwt>
<pdfrwt beam="1">  1       21 0.27827417E-02 0.14185969E+03</pdfrwt>
<pdfrwt beam="2">  1       21 0.96469762E-01 0.14185969E+03</pdfrwt>
<totfact> 0.64529153E+05</totfact>
</mgrwt>
</event>
<event>
 6    1  0.4244577E-002  0.1310011E+03  0.7546771E-02  0.1225978E+00
         21   -1    0    0  503  502  0.00000000000E+00  0.00000000000E+00  0.10514634424E+03  0.10514634424E+03  0.00000000000E+00 0.  1.
         21   -1    0    0  504  503 -0.00000000000E+00 -0.00000000000E+00 -0.73631059941E+02  0.73631059941E+02  0.00000000000E+00 0.  1.
         25    2    1    2    0    0 -0.39161592438E+02  0.14501769755E+01  0.43105801656E+02  0.13791087229E+03  0.12500226088E+03 0.  0.
          5    1    3    3  501    0  0.35429629295E+02 -0.31697931880E+02  0.27132433491E+02  0.54737523370E+02  0.10000000000E+00 0.  1.
         -5    1    3    3    0  501 -0.74591221733E+02  0.33148108856E+02  0.15973368165E+02  0.83173348922E+02  0.10000000000E+00 0.  1.
         21    1    1    2  504  502  0.39161592438E+02 -0.14501769755E+01 -0.11590517363E+02  0.40866531885E+02  0.00000000000E+00 0.  1.
<mgrwt>
<rscale>  1 0.13100114E+03</rscale>
<asrwt>0</asrwt>
<pdfrwt beam="1">  1       21 0.16176361E-01 0.13100114E+03</pdfrwt>
<pdfrwt beam="2">  1       21 0.11327855E-01 0.13100114E+03</pdfrwt>
<totfact> 0.22083600E+06</totfact>
</mgrwt>
</event>
<event>
 6    1  0.4244577E-002  0.1264365E+03  0.7546771E-02  0.1232841E+00
         21   -1    0    0  503  502  0.00000000000E+00  0.00000000000E+00  0.12673715416E+04  0.12673715416E+04  0.00000000000E+00 0.  1.
         21   -1    0    0  504  503 -0.00000000000E+00 -0.00000000000E+00 -0.51842729825E+01  0.51842729825E+01  0.00000000000E+00 0.  1.
         25    2    1    2    0    0  0.44874439762E+01  0.18383502789E+02  0.12172202117E+04  0.12237692741E+04  0.12501240755E+03 0.  0.
          5    1    3    3  501    0  0.14661641257E+02  0.58252077224E+02  0.31895203855E+03  0.32455921050E+03  0.10000000000E+00 0.  1.
         -5    1    3    3    0  501 -0.10174197280E+02 -0.39868574436E+02  0.89826817315E+03  0.89921006356E+03  0.10000000000E+00 0.  1.
         21    1    1    2  504  502 -0.44874439762E+01 -0.18383502789E+02  0.44967056936E+02  0.48786540538E+02  0.00000000000E+00 0.  1.
<mgrwt>
<rscale>  1 0.12643652E+03</rscale>
<asrwt>0</asrwt>
<pdfrwt beam="1">  1       21 0.19497999E+00 0.12643652E+03</pdfrwt>
<pdfrwt beam="2">  1       21 0.79758147E-03 0.12643652E+03</pdfrwt>
<totfact> 0.79326811E+05</totfact>
</mgrwt>
</event>
<event>
 6    1  0.4244577E-002  0.1378966E+03  0.7546771E-02  0.1216188E+00
         21   -1    0    0  503  502  0.00000000000E+00  0.00000000000E+00  0.11835606605E+03  0.11835606605E+03  0.00000000000E+00 0.  1.
         21   -1    0    0  504  503 -0.00000000000E+00 -0.00000000000E+00 -0.13479547937E+03  0.13479547937E+03  0.00000000000E+00 0.  1.
         25    2    1    2    0    0  0.36006791776E+02 -0.45724447832E+02  0.65487403005E+02  0.15265668279E+03  0.12501299398E+03 0.  0.
          5    1    3    3  501    0  0.55907378596E+02  0.26209699884E+02  0.18485856332E+02  0.64454016429E+02  0.10000000000E+00 0. -1.
         -5    1    3    3    0  501 -0.19900586820E+02 -0.71934147716E+02  0.47001546673E+02  0.88202666360E+02  0.10000000000E+00 0. -1.
         21    1    1    2  504  502 -0.36006791776E+02  0.45724447832E+02 -0.81926816321E+02  0.10049486264E+03  0.00000000000E+00 0.  1.
<mgrwt>
<rscale>  1 0.13789657E+03</rscale>
<asrwt>0</asrwt>
<pdfrwt beam="1">  1       21 0.18208626E-01 0.13789657E+03</pdfrwt>
<pdfrwt beam="2">  1       21 0.20737766E-01 0.13789657E+03</pdfrwt>
<totfact> 0.59625550E+05</totfact>
</mgrwt>
</event>
<event>
 6    1  0.4244577E-002  0.1267485E+03  0.7546771E-02  0.1232362E+00
         21   -1    0    0  503  502  0.00000000000E+00  0.00000000000E+00  0.80239665143E+03  0.80239665143E+03  0.00000000000E+00 0.  1.
         21   -1    0    0  504  503 -0.00000000000E+00 -0.00000000000E+00 -0.11479395759E+03  0.11479395759E+03  0.00000000000E+00 0.  1.
         25    2    1    2    0    0 -0.12498847511E+02  0.16875040689E+02  0.79638076952E+03  0.80640406681E+03  0.12499680285E+03 0.  0.
          5    1    3    3  501    0  0.23186726660E+02 -0.19983540444E+02  0.65973693071E+03  0.66044666244E+03  0.10000000000E+00 0.  1.
         -5    1    3    3    0  501 -0.35685574172E+02  0.36858581133E+02  0.13664383881E+03  0.14595740437E+03  0.10000000000E+00 0.  1.
         21    1    1    2  504  502  0.12498847511E+02 -0.16875040689E+02 -0.10877807568E+03  0.11078654222E+03  0.00000000000E+00 0.  1.
<mgrwt>
<rscale>  1 0.12674853E+03</rscale>
<asrwt>0</asrwt>
<pdfrwt beam="1">  1       21 0.12344564E+00 0.12674853E+03</pdfrwt>
<pdfrwt beam="2">  1       21 0.17660609E-01 0.12674853E+03</pdfrwt>
<totfact> 0.15041286E+04</totfact>
</mgrwt>
</event>
<event>
 6    1  0.4244577E-002  0.1307294E+03  0.7546771E-02  0.1226377E+00
         21   -1    0    0  503  502  0.00000000000E+00  0.00000000000E+00  0.56228908644E+02  0.56228908644E+02  0.00000000000E+00 0. -1.
         21   -1    0    0  504  503 -0.00000000000E+00 -0.00000000000E+00 -0.16087915855E+03  0.16087915855E+03  0.00000000000E+00 0. -1.
         25    2    1    2    0    0  0.13222591171E+02  0.35969132373E+02 -0.31413457501E+02  0.13445068299E+03  0.12498626102E+03 0.  0.
          5    1    3    3  501    0 -0.25574743915E+01 -0.46378297351E+02 -0.16477558566E+02  0.49284957915E+02  0.10000000000E+00 0.  1.
         -5    1    3    3    0  501  0.15780065562E+02  0.82347429724E+02 -0.14935898935E+02  0.85165725079E+02  0.10000000000E+00 0.  1.
         21    1    1    2  504  502 -0.13222591171E+02 -0.35969132373E+02 -0.73236792408E+02  0.82657384202E+02  0.00000000000E+00 0. -1.
<mgrwt>
<rscale>  1 0.13072942E+03</rscale>
<asrwt>0</asrwt>
<pdfrwt beam="1">  1       21 0.86506014E-02 0.13072942E+03</pdfrwt>
<pdfrwt beam="2">  1       21 0.24750640E-01 0.13072942E+03</pdfrwt>
<totfact> 0.16110633E+06</totfact>
</mgrwt>
</event>
<event>
 6    1  0.4244577E-002  0.1312776E+03  0.7546771E-02  0.1225572E+00
         21   -1    0    0  504  502  0.00000000000E+00  0.00000000000E+00  0.64209075311E+02  0.64209075311E+02  0.00000000000E+00 0.  1.
         21   -1    0    0  502  503 -0.00000000000E+00 -0.00000000000E+00 -0.27583824176E+03  0.27583824176E+03  0.00000000000E+00 0.  1.
         25    2    1    2    0    0 -0.39702368228E+02  0.57821427005E+01 -0.69376362873E+01  0.13146080328E+03  0.12499640308E+03 0.  0.
          5    1    3    3  501    0 -0.25718897348E+02 -0.12457103155E+02 -0.63920446539E+02  0.70017673380E+02  0.10000000000E+00 0. -1.
         -5    1    3    3    0  501 -0.13983470880E+02  0.18239245856E+02  0.56982810252E+02  0.61443129896E+02  0.10000000000E+00 0. -1.
         21    1    1    2  504  503  0.39702368228E+02 -0.57821427005E+01 -0.20469153016E+03  0.20858651379E+03  0.00000000000E+00 0.  1.
<mgrwt>
<rscale>  1 0.13127761E+03</rscale>
<asrwt>0</asrwt>
<pdfrwt beam="1">  1       21 0.98783194E-02 0.13127761E+03</pdfrwt>
<pdfrwt beam="2">  1       21 0.42436652E-01 0.13127761E+03</pdfrwt>
<totfact> 0.44715962E+05</totfact>
</mgrwt>
</event>
<event>
 6    1  0.4244577E-002  0.1290117E+03  0.7546771E-02  0.1228930E+00
         21   -1    0    0  503  502  0.00000000000E+00  0.00000000000E+00  0.10396855657E+02  0.10396855657E+02  0.00000000000E+00 0.  1.
         21   -1    0    0  504  503 -0.00000000000E+00 -0.00000000000E+00 -0.66836695671E+03  0.66836695671E+03  0.00000000000E+00 0.  1.
         25    2    1    2    0    0 -0.11350153749E+02  0.29818308098E+02 -0.44178098426E+03  0.46023305548E+03  0.12500427917E+03 0.  0.
          5    1    3    3  501    0  0.46292566493E+02 -0.21318897900E+02 -0.14870333842E+03  0.15719475174E+03  0.10000000000E+00 0.  1.
         -5    1    3    3    0  501 -0.57642720242E+02  0.51137205998E+02 -0.29307764585E+03  0.30303830373E+03  0.10000000000E+00 0.  1.
         21    1    1    2  504  502  0.11350153749E+02 -0.29818308098E+02 -0.21618911679E+03  0.21853075689E+03  0.00000000000E+00 0.  1.
<mgrwt>
<rscale>  1 0.12901173E+03</rscale>
<asrwt>0</asrwt>
<pdfrwt beam="1">  1       21 0.15995162E-02 0.12901173E+03</pdfrwt>
<pdfrwt beam="2">  1       21 0.10282569E+00 0.12901173E+03</pdfrwt>
<totfact> 0.13625738E+06</totfact>
</mgrwt>
</event>
<event>
 6    1  0.4244577E-002  0.1311132E+03  0.7546771E-02  0.1225813E+00
         21   -1    0    0  503  502  0.00000000000E+00  0.00000000000E+00  0.13183282080E+04  0.13183282080E+04  0.00000000000E+00 0. -1.
         21   -1    0    0  504  503 -0.00000000000E+00 -0.00000000000E+00 -0.77381546156E+01  0.77381546156E+01  0.00000000000E+00 0. -1.
         25    2    1    2    0    0  0.33215050734E+02 -0.21448953713E+02  0.12224881337E+04  0.12294990521E+04  0.12500953902E+03 0.  0.
          5    1    3    3  501    0 -0.18160516510E+02 -0.19389303930E+02  0.57103458229E+02  0.62980666942E+02  0.10000000000E+00 0. -1.
         -5    1    3    3    0  501  0.51375567245E+02 -0.20596497829E+01  0.11653846755E+04  0.11665183851E+04  0.10000000000E+00 0. -1.
         21    1    1    2  504  502 -0.33215050734E+02  0.21448953713E+02  0.88101919733E+02  0.96567310573E+02  0.00000000000E+00 0. -1.
<mgrwt>
<rscale>  1 0.13111324E+03</rscale>
<asrwt>0</asrwt>
<pdfrwt beam="1">  1       21 0.20281955E+00 0.13111324E+03</pdfrwt>
<pdfrwt beam="2">  1       21 0.11904864E-02 0.13111324E+03</pdfrwt>
<totfact> 0.37606889E+05</totfact>
</mgrwt>
</event>
<event>
 6    1  0.4244577E-002  0.1262266E+03  0.7546771E-02  0.1233165E+00
         21   -1    0    0  504  502  0.00000000000E+00  0.00000000000E+00  0.83504458980E+03  0.83504458980E+03  0.00000000000E+00 0.  1.
         21   -1    0    0  502  503 -0.00000000000E+00 -0.00000000000E+00 -0.25570108622E+03  0.25570108622E+03  0.00000000000E+00 0. -1.
         25    2    1    2    0    0  0.17190974425E+02  0.26953258017E+01  0.82997104473E+03  0.83951478865E+03  0.12502140172E+03 0.  0.
          5    1    3    3  501    0  0.40735367686E+02 -0.19224879245E+02  0.11054517142E+03  0.11937005942E+03  0.10000000000E+00 0. -1.
         -5    1    3    3    0  501 -0.23544393261E+02  0.21920205047E+02  0.71942587332E+03  0.72014472923E+03  0.10000000000E+00 0. -1.
         21    1    1    2  504  503 -0.17190974425E+02 -0.26953258017E+01 -0.25062754116E+03  0.25123088737E+03  0.00000000000E+00 0. -1.
<mgrwt>
<rscale>  1 0.12622656E+03</rscale>
<asrwt>0</asrwt>
<pdfrwt beam="1">  1       21 0.12846840E+00 0.12622656E+03</pdfrwt>
<pdfrwt beam="2">  1       21 0.39338629E-01 0.12622656E+03</pdfrwt>
<totfact> 0.29704082E+03</totfact>
</mgrwt>
</event>
<event>
 6    1  0.4244577E-002  0.1262912E+03  0.7546771E-02  0.1233065E+00
         21   -1    0    0  504  502  0.00000000000E+00  0.00000000000E+00  0.78582454166E+02  0.78582454166E+02  0.00000000000E+00 0. -1.
         21   -1    0    0  502  503 -0.00000000000E+00 -0.00000000000E+00 -0.47334043715E+03  0.47334043715E+03  0.00000000000E+00 0. -1.
         25    2    1    2    0    0  0.16835609092E+02  0.64361806952E+01  0.27524619708E+02  0.12925581347E+03  0.12499839387E+03 0.  0.
          5    1    3    3  501    0  0.42447135376E+00 -0.47460158024E+02 -0.23753620715E+02  0.53074393757E+02  0.10000000000E+00 0.  1.
         -5    1    3    3    0  501  0.16411137738E+02  0.53896338719E+02  0.51278240424E+02  0.76181419717E+02  0.10000000000E+00 0.  1.
         21    1    1    2  504  503 -0.16835609092E+02 -0.64361806952E+01 -0.42228260270E+03  0.42266707785E+03  0.00000000000E+00 0. -1.
<mgrwt>
<rscale>  1 0.12629117E+03</rscale>
<asrwt>0</asrwt>
<pdfrwt beam="1">  1       21 0.12089608E-01 0.12629117E+03</pdfrwt>
<pdfrwt beam="2">  1       21 0.72821607E-01 0.12629117E+03</pdfrwt>
<totfact> 0.10096002E+05</totfact>
</mgrwt>
</event>
<event>
 6    1  0.4244577E-002  0.1263208E+03  0.7546771E-02  0.1233019E+00
         21   -1    0    0  504  502  0.00000000000E+00  0.00000000000E+00  0.69771425418E+02  0.69771425418E+02  0.00000000000E+00 0.  1.
         21   -1    0    0  502  503 -0.00000000000E+00 -0.00000000000E+00 -0.75626137418E+02  0.75626137418E+02  0.00000000000E+00 0.  1.
         25    2    1    2    0    0 -0.47880259630E+01  0.17538660366E+02 -0.76035795534E-01  0.12632079952E+03  0.12500563511E+03 0.  0.
          5    1    3    3  501    0 -0.19549653671E+01  0.88922884267E+01  0.62463067723E+02  0.63123208984E+02  0.10000000000E+00 0. -1.
         -5    1    3    3    0  501 -0.28330605959E+01  0.86463719398E+01 -0.62539103519E+02  0.63197590532E+02  0.10000000000E+00 0. -1.
         21    1    1    2  504  503  0.47880259630E+01 -0.17538660366E+02 -0.57786762045E+01  0.19076763320E+02  0.00000000000E+00 0.  1.
<mgrwt>
<rscale>  1 0.12632078E+03</rscale>
<asrwt>0</asrwt>
<pdfrwt beam="1">  1       21 0.10734065E-01 0.12632078E+03</pdfrwt>
<pdfrwt beam="2">  1       21 0.11634790E-01 0.12632078E+03</pdfrwt>
<totfact> 0.43732738E+06</totfact>
</mgrwt>
</event>
<event>
 6    1  0.4244577E-002  0.1505934E+03  0.7546771E-02  0.1199746E+00
         21   -1    0    0  503  502  0.00000000000E+00  0.00000000000E+00  0.71223348722E+03  0.71223348722E+03  0.00000000000E+00 0. -1.
         21   -1    0    0  504  503 -0.00000000000E+00 -0.00000000000E+00 -0.25565866673E+02  0.25565866673E+02  0.00000000000E+00 0. -1.
         25    2    1    2    0    0 -0.37999683313E+02  0.74894950928E+02  0.59375882785E+03  0.61255849248E+03  0.12500052583E+03 0.  0.
          5    1    3    3  501    0 -0.50355552540E+01  0.17496026446E+02  0.48430238189E+03  0.48464448296E+03  0.10000000000E+00 0.  1.
         -5    1    3    3    0  501 -0.32964128059E+02  0.57398924482E+02  0.10945644595E+03  0.12791400952E+03  0.10000000000E+00 0.  1.
         21    1    1    2  504  502  0.37999683313E+02 -0.74894950928E+02  0.92908792699E+02  0.12524086141E+03  0.00000000000E+00 0. -1.
<mgrwt>
<rscale>  1 0.15059336E+03</rscale>
<asrwt>0</asrwt>
<pdfrwt beam="1">  1       21 0.10957437E+00 0.15059336E+03</pdfrwt>
<pdfrwt beam="2">  1       21 0.39332108E-02 0.15059336E+03</pdfrwt>
<totfact> 0.26908284E+05</totfact>
</mgrwt>
</event>
<event>
 6    1  0.4244577E-002  0.1270116E+03  0.7546771E-02  0.1231959E+00
         21   -1    0    0  504  502  0.00000000000E+00  0.00000000000E+00  0.50270023527E+02  0.50270023527E+02  0.00000000000E+00 0.  1.
         21   -1    0    0  502  503 -0.00000000000E+00 -0.00000000000E+00 -0.12573156406E+03  0.12573156406E+03  0.00000000000E+00 0.  1.
         25    2    1    2    0    0  0.22010537201E+02  0.46728344526E+01 -0.38480127299E+02  0.13271274313E+03  0.12500261142E+03 0.  0.
          5    1    3    3  501    0  0.57793877603E+02 -0.23167549014E+02 -0.56352560689E+02  0.83979096875E+02  0.10000000000E+00 0.  1.
         -5    1    3    3    0  501 -0.35783340402E+02  0.27840383467E+02  0.17872433390E+02  0.48733646253E+02  0.10000000000E+00 0.  1.
         21    1    1    2  504  503 -0.22010537201E+02 -0.46728344526E+01 -0.36981413231E+02  0.43288844455E+02  0.00000000000E+00 0.  1.
<mgrwt>
<rscale>  1 0.12701162E+03</rscale>
<asrwt>0</asrwt>
<pdfrwt beam="1">  1       21 0.77338499E-02 0.12701162E+03</pdfrwt>
<pdfrwt beam="2">  1       21 0.19343317E-01 0.12701162E+03</pdfrwt>
<totfact> 0.30929151E+06</totfact>
</mgrwt>
</event>
<event>
 6    1  0.4244577E-002  0.1261744E+03  0.7546771E-02  0.1233245E+00
         21   -1    0    0  503  502  0.00000000000E+00  0.00000000000E+00  0.17876269728E+03  0.17876269728E+03  0.00000000000E+00 0.  1.
         21   -1    0    0  504  503 -0.00000000000E+00 -0.00000000000E+00 -0.68177885431E+02  0.68177885431E+02  0.00000000000E+00 0. -1.
         25    2    1    2    0    0 -0.15996787269E+02  0.64032247969E+01  0.15467063501E+03  0.19960710307E+03  0.12499236685E+03 0.  0.
          5    1    3    3  501    0  0.43388199531E+01  0.22974737113E+01  0.17230739307E+03  0.17237735191E+03  0.10000000000E+00 0.  1.
         -5    1    3    3    0  501 -0.20335607223E+02  0.41057510856E+01 -0.17636758064E+02  0.27229751157E+02  0.10000000000E+00 0.  1.
         21    1    1    2  504  502  0.15996787269E+02 -0.64032247969E+01 -0.44085823164E+02  0.47333479640E+02  0.00000000000E+00 0. -1.
<mgrwt>
<rscale>  1 0.12617444E+03</rscale>
<asrwt>0</asrwt>
<pdfrwt beam="1">  1       21 0.27501953E-01 0.12617444E+03</pdfrwt>
<pdfrwt beam="2">  1       21 0.10488905E-01 0.12617444E+03</pdfrwt>
<totfact> 0.94205729E+05</totfact>
</mgrwt>
</event>
<event>
 6    1  0.4244577E-002  0.1269442E+03  0.7546771E-02  0.1232062E+00
         21   -1    0    0  503  502  0.00000000000E+00  0.00000000000E+00  0.17960609966E+03  0.17960609966E+03  0.00000000000E+00 0.  1.
         21   -1    0    0  504  503 -0.00000000000E+00 -0.00000000000E+00 -0.50871099180E+03  0.50871099180E+03  0.00000000000E+00 0.  1.
         25    2    1    2    0    0  0.18615791569E+02  0.12038982580E+02  0.15689102600E+03  0.20181578905E+03  0.12499333532E+03 0.  0.
          5    1    3    3  501    0  0.60507586936E+02 -0.25470411265E+02  0.55896473203E+02  0.86222593578E+02  0.10000000000E+00 0. -1.
         -5    1    3    3    0  501 -0.41891795367E+02  0.37509393845E+02  0.10099455280E+03  0.11559319547E+03  0.10000000000E+00 0. -1.
         21    1    1    2  504  502 -0.18615791569E+02 -0.12038982580E+02 -0.48599591813E+03  0.48650130240E+03  0.00000000000E+00 0.  1.
<mgrwt>
<rscale>  1 0.12694416E+03</rscale>
<asrwt>0</asrwt>
<pdfrwt beam="1">  1       21 0.27631708E-01 0.12694416E+03</pdfrwt>
<pdfrwt beam="2">  1       21 0.78263228E-01 0.12694416E+03</pdfrwt>
<totfact> 0.18880784E+04</totfact>
</mgrwt>
</event>
<event>
 6    1  0.4244577E-002  0.1287060E+03  0.7546771E-02  0.1229388E+00
         21   -1    0    0  503  502  0.00000000000E+00  0.00000000000E+00  0.16980216657E+03  0.16980216657E+03  0.00000000000E+00 0.  1.
         21   -1    0    0  504  503 -0.00000000000E+00 -0.00000000000E+00 -0.48252278783E+02  0.48252278783E+02  0.00000000000E+00 0.  1.
         25    2    1    2    0    0 -0.54132295862E+01  0.30178484747E+02  0.13323046030E+03  0.18524469420E+03  0.12500078873E+03 0.  0.
          5    1    3    3  501    0 -0.52658740391E+02  0.23742285212E+01  0.14813798870E+02  0.54754347203E+02  0.10000000000E+00 0.  1.
         -5    1    3    3    0  501  0.47245510805E+02  0.27804256226E+02  0.11841666143E+03  0.13049034700E+03  0.10000000000E+00 0.  1.
         21    1    1    2  504  502  0.54132295862E+01 -0.30178484747E+02 -0.11680572516E+02  0.32809751149E+02  0.00000000000E+00 0.  1.
<mgrwt>
<rscale>  1 0.12870603E+03</rscale>
<asrwt>0</asrwt>
<pdfrwt beam="1">  1       21 0.26123410E-01 0.12870603E+03</pdfrwt>
<pdfrwt beam="2">  1       21 0.74234276E-02 0.12870603E+03</pdfrwt>
<totfact> 0.18929611E+06</totfact>
</mgrwt>
</event>
<event>
 6    1  0.4244577E-002  0.1284909E+03  0.7546771E-02  0.1229712E+00
         21   -1    0    0  503  502  0.00000000000E+00  0.00000000000E+00  0.64081724669E+02  0.64081724669E+02  0.00000000000E+00 0. -1.
         21   -1    0    0  504  503 -0.00000000000E+00 -0.00000000000E+00 -0.10636797599E+03  0.10636797599E+03  0.00000000000E+00 0. -1.
         25    2    1    2    0    0 -0.15860009096E+01 -0.29643585359E+02 -0.13668637193E+02  0.12921591124E+03  0.12501464923E+03 0.  0.
          5    1    3    3  501    0  0.52097761530E+02 -0.45681133394E+02  0.66726832454E+01  0.69609463482E+02  0.10000000000E+00 0. -1.
         -5    1    3    3    0  501 -0.53683762439E+02  0.16037548035E+02 -0.20341320439E+02  0.59606447754E+02  0.10000000000E+00 0. -1.
         21    1    1    2  504  502  0.15860009096E+01  0.29643585359E+02 -0.28617614129E+02  0.41233789424E+02  0.00000000000E+00 0. -1.
<mgrwt>
<rscale>  1 0.12849093E+03</rscale>
<asrwt>0</asrwt>
<pdfrwt beam="1">  1       21 0.98587271E-02 0.12849093E+03</pdfrwt>
<pdfrwt beam="2">  1       21 0.16364304E-01 0.12849093E+03</pdfrwt>
<totfact> 0.27581729E+06</totfact>
</mgrwt>
</event>
<event>
 6    1  0.4244577E-002  0.1947723E+03  0.7546771E-02  0.1154226E+00
         21   -1    0    0  504  502  0.00000000000E+00  0.00000000000E+00  0.77024680484E+03  0.77024680484E+03  0.00000000000E+00 0.  1.
         21   -1    0    0  502  503 -0.00000000000E+00 -0.00000000000E+00 -0.38453291534E+02  0.38453291534E+02  0.00000000000E+00 0.  1.
         25    2    1    2    0    0  0.14920434006E+03 -0.68822650161E+01  0.40634753945E+03  0.45061577312E+03  0.12500780574E+03 0.  0.
          5    1    3    3  501    0  0.16753778282E+03 -0.24093355711E+02  0.36249115050E+03  0.40006154858E+03  0.10000000000E+00 0. -1.
         -5    1    3    3    0  501 -0.18333442761E+02  0.17211090695E+02  0.43856388957E+02  0.50554224539E+02  0.10000000000E+00 0. -1.
         21    1    1    2  504  503 -0.14920434006E+03  0.68822650161E+01  0.32544597385E+03  0.35808432326E+03  0.00000000000E+00 0.  1.
<mgrwt>
<rscale>  1 0.19477231E+03</rscale>
<asrwt>0</asrwt>
<pdfrwt beam="1">  1       21 0.11849950E+00 0.19477231E+03</pdfrwt>
<pdfrwt beam="2">  1       21 0.59158916E-02 0.19477231E+03</pdfrwt>
<totfact> 0.10995458E+05</totfact>
</mgrwt>
</event>
<event>
 6    1  0.4244577E-002  0.2289132E+03  0.7546771E-02  0.1127407E+00
         21   -1    0    0  503  502  0.00000000000E+00  0.00000000000E+00  0.68647230552E+02  0.68647230552E+02  0.00000000000E+00 0.  1.
         21   -1    0    0  504  503 -0.00000000000E+00 -0.00000000000E+00 -0.65285276663E+03  0.65285276663E+03  0.00000000000E+00 0. -1.
         25    2    1    2    0    0  0.75130232496E+02  0.17643494029E+03 -0.27689842657E+03  0.35926871810E+03  0.12500973235E+03 0.  0.
          5    1    3    3  501    0  0.10450596287E+03  0.16775894955E+03 -0.24832885201E+03  0.31738271877E+03  0.10000000000E+00 0.  1.
         -5    1    3    3    0  501 -0.29375730372E+02  0.86759907396E+01 -0.28569574557E+02  0.41885999338E+02  0.10000000000E+00 0.  1.
         21    1    1    2  504  502 -0.75130232496E+02 -0.17643494029E+03 -0.30730710951E+03  0.36223127908E+03  0.00000000000E+00 0. -1.
<mgrwt>
<rscale>  1 0.22891324E+03</rscale>
<asrwt>0</asrwt>
<pdfrwt beam="1">  1       21 0.10561113E-01 0.22891324E+03</pdfrwt>
<pdfrwt beam="2">  1       21 0.10043888E+00 0.22891324E+03</pdfrwt>
<totfact> 0.58838802E+04</totfact>
</mgrwt>
</event>
<event>
 6    1  0.4244577E-002  0.1268272E+03  0.7546771E-02  0.1232241E+00
         21   -1    0    0  503  502  0.00000000000E+00  0.00000000000E+00  0.14876652572E+02  0.14876652572E+02  0.00000000000E+00 0. -1.
         21   -1    0    0  504  503 -0.00000000000E+00 -0.00000000000E+00 -0.38212850160E+03  0.38212850160E+03  0.00000000000E+00 0. -1.
         25    2    1    2    0    0 -0.15361868377E+01  0.21390164874E+02 -0.33566689064E+03  0.35882782294E+03  0.12500098409E+03 0.  0.
          5    1    3    3  501    0  0.20473696224E+02  0.69987148609E+02 -0.21022699167E+03  0.22251465397E+03  0.10000000000E+00 0. -1.
         -5    1    3    3    0  501 -0.22009883062E+02 -0.48596983736E+02 -0.12543989897E+03  0.13631316897E+03  0.10000000000E+00 0. -1.
         21    1    1    2  504  502  0.15361868377E+01 -0.21390164874E+02 -0.31584958389E+02  0.38177331229E+02  0.00000000000E+00 0. -1.
<mgrwt>
<rscale>  1 0.12682723E+03</rscale>
<asrwt>0</asrwt>
<pdfrwt beam="1">  1       21 0.22887154E-02 0.12682723E+03</pdfrwt>
<pdfrwt beam="2">  1       21 0.58789009E-01 0.12682723E+03</pdfrwt>
<totfact> 0.26555293E+06</totfact>
</mgrwt>
</event>
<event>
 6    1  0.4244577E-002  0.1541102E+03  0.7546771E-02  0.1195511E+00
         21   -1    0    0  503  502  0.00000000000E+00  0.00000000000E+00  0.38965049172E+02  0.38965049172E+02  0.00000000000E+00 0.  1.
         21   -1    0    0  504  503 -0.00000000000E+00 -0.00000000000E+00 -0.40582505382E+03  0.40582505382E+03  0.00000000000E+00 0. -1.
         25    2    1    2    0    0 -0.77142449014E+02  0.46623454548E+02 -0.17746575170E+03  0.23504052134E+03  0.12500099876E+03 0.  0.
          5    1    3    3  501    0 -0.25687638361E+02 -0.29008316511E+02 -0.40257045218E+01  0.38955788893E+02  0.10000000000E+00 0.  1.
         -5    1    3    3    0  501 -0.51454810652E+02  0.75631771060E+02 -0.17344004718E+03  0.19608473245E+03  0.10000000000E+00 0.  1.
         21    1    1    2  504  502  0.77142449014E+02 -0.46623454548E+02 -0.18939425294E+03  0.20974958164E+03  0.00000000000E+00 0. -1.
<mgrwt>
<rscale>  1 0.15411020E+03</rscale>
<asrwt>0</asrwt>
<pdfrwt beam="1">  1       21 0.59946227E-02 0.15411020E+03</pdfrwt>
<pdfrwt beam="2">  1       21 0.62434626E-01 0.15411020E+03</pdfrwt>
<totfact> 0.47297200E+05</totfact>
</mgrwt>
</event>
<event>
 6    1  0.4244577E-002  0.1263351E+03  0.7546771E-02  0.1232997E+00
         21   -1    0    0  503  502  0.00000000000E+00  0.00000000000E+00  0.15579567929E+03  0.15579567929E+03  0.00000000000E+00 0.  1.
         21   -1    0    0  504  503 -0.00000000000E+00 -0.00000000000E+00 -0.10651823356E+03  0.10651823356E+03  0.00000000000E+00 0.  1.
         25    2    1    2    0    0 -0.13618762539E+02  0.12252489714E+02  0.12897316030E+03  0.18053982699E+03  0.12499983542E+03 0.  0.
          5    1    3    3  501    0 -0.48941549327E+02  0.29140615244E+02  0.12940343020E+03  0.14138496545E+03  0.10000000000E+00 0.  1.
         -5    1    3    3    0  501  0.35322786788E+02 -0.16888125529E+02 -0.43026989888E+00  0.39154861545E+02  0.10000000000E+00 0.  1.
         21    1    1    2  504  502  0.13618762539E+02 -0.12252489714E+02 -0.79695714569E+02  0.81774085858E+02  0.00000000000E+00 0. -1.
<mgrwt>
<rscale>  1 0.12633508E+03</rscale>
<asrwt>0</asrwt>
<pdfrwt beam="1">  1       21 0.23968566E-01 0.12633508E+03</pdfrwt>
<pdfrwt beam="2">  1       21 0.16387420E-01 0.12633508E+03</pdfrwt>
<totfact> 0.55163141E+05</totfact>
</mgrwt>
</event>
<event>
 6    1  0.4244577E-002  0.2123162E+03  0.7546771E-02  0.1139745E+00
         21   -1    0    0  503  502  0.00000000000E+00  0.00000000000E+00  0.10501447917E+03  0.10501447917E+03  0.00000000000E+00 0. -1.
         21   -1    0    0  504  503 -0.00000000000E+00 -0.00000000000E+00 -0.39296784343E+03  0.39296784343E+03  0.00000000000E+00 0. -1.
         25    2    1    2    0    0 -0.15057193106E+03  0.82293286514E+02 -0.76528529572E+02  0.22568734992E+03  0.12503628533E+03 0.  0.
          5    1    3    3  501    0 -0.85792139487E+02  0.21913466031E+01  0.15902665704E+02  0.87281143291E+02  0.10000000000E+00 0.  1.
         -5    1    3    3    0  501 -0.64779791570E+02  0.80101939911E+02 -0.92431195276E+02  0.13840620663E+03  0.10000000000E+00 0.  1.
         21    1    1    2  504  502  0.15057193106E+03 -0.82293286514E+02 -0.21142483469E+03  0.27229497269E+03  0.00000000000E+00 0. -1.
<mgrwt>
<rscale>  1 0.21231619E+03</rscale>
<asrwt>0</asrwt>
<pdfrwt beam="1">  1       21 0.16156074E-01 0.21231619E+03</pdfrwt>
<pdfrwt beam="2">  1       21 0.60456592E-01 0.21231619E+03</pdfrwt>
<totfact> 0.86605411E+04</totfact>
</mgrwt>
</event>
<event>
 6    1  0.4244577E-002  0.1324313E+03  0.7546771E-02  0.1223892E+00
         21   -1    0    0  503  502  0.00000000000E+00  0.00000000000E+00  0.37776336113E+03  0.37776336113E+03  0.00000000000E+00 0.  1.
         21   -1    0    0  504  503 -0.00000000000E+00 -0.00000000000E+00 -0.58963733840E+03  0.58963733840E+03  0.00000000000E+00 0. -1.
         25    2    1    2    0    0  0.42445091426E+02 -0.10597786004E+02  0.36530355630E+03  0.38856755940E+03  0.12499664444E+03 0.  0.
          5    1    3    3  501    0  0.25600224288E+02  0.79664618298E+01  0.36233393901E+03  0.36332455099E+03  0.10000000000E+00 0. -1.
         -5    1    3    3    0  501  0.16844867138E+02 -0.18564247834E+02  0.29696172868E+01  0.25243008406E+02  0.10000000000E+00 0. -1.
         21    1    1    2  504  502 -0.42445091426E+02  0.10597786004E+02 -0.57717753356E+03  0.57883314012E+03  0.00000000000E+00 0. -1.
<mgrwt>
<rscale>  1 0.13243134E+03</rscale>
<asrwt>0</asrwt>
<pdfrwt beam="1">  1       21 0.58117441E-01 0.13243134E+03</pdfrwt>
<pdfrwt beam="2">  1       21 0.90713436E-01 0.13243134E+03</pdfrwt>
<totfact> 0.30339167E+03</totfact>
</mgrwt>
</event>
<event>
 6    1  0.4244577E-002  0.1268042E+03  0.7546771E-02  0.1232276E+00
         21   -1    0    0  504  502  0.00000000000E+00  0.00000000000E+00  0.19460086245E+02  0.19460086245E+02  0.00000000000E+00 0. -1.
         21   -1    0    0  502  503 -0.00000000000E+00 -0.00000000000E+00 -0.34144643427E+03  0.34144643427E+03  0.00000000000E+00 0. -1.
         25    2    1    2    0    0 -0.99502774201E+01 -0.18840861369E+02 -0.19814889617E+03  0.23524944527E+03  0.12500132146E+03 0.  0.
          5    1    3    3  501    0  0.55600975154E+02 -0.15757142414E+02 -0.66154408494E+02  0.87841742573E+02  0.10000000000E+00 0. -1.
         -5    1    3    3    0  501 -0.65551252574E+02 -0.30837189547E+01 -0.13199448768E+03  0.14740770270E+03  0.10000000000E+00 0. -1.
         21    1    1    2  504  503  0.99502774201E+01  0.18840861369E+02 -0.12383745185E+03  0.12565707525E+03  0.00000000000E+00 0. -1.
<mgrwt>
<rscale>  1 0.12680424E+03</rscale>
<asrwt>0</asrwt>
<pdfrwt beam="1">  1       21 0.29938596E-02 0.12680424E+03</pdfrwt>
<pdfrwt beam="2">  1       21 0.52530217E-01 0.12680424E+03</pdfrwt>
<totfact> 0.21701340E+06</totfact>
</mgrwt>
</event>
<event>
 6    1  0.4244577E-002  0.1259078E+03  0.7546771E-02  0.1233657E+00
         21   -1    0    0  503  502  0.00000000000E+00  0.00000000000E+00  0.10839234430E+03  0.10839234430E+03  0.00000000000E+00 0. -1.
         21   -1    0    0  504  503 -0.00000000000E+00 -0.00000000000E+00 -0.68997846949E+02  0.68997846949E+02  0.00000000000E+00 0. -1.
         25    2    1    2    0    0  0.88774787008E+01 -0.12186252146E+02  0.69430598950E+02  0.14378242773E+03  0.12500185633E+03 0.  0.
          5    1    3    3  501    0  0.46101307561E+02  0.35999128359E+02  0.11245869400E+02  0.59562969873E+02  0.10000000000E+00 0. -1.
         -5    1    3    3    0  501 -0.37223828861E+02 -0.48185380505E+02  0.58184729550E+02  0.84219457860E+02  0.10000000000E+00 0. -1.
         21    1    1    2  504  502 -0.88774787008E+01  0.12186252146E+02 -0.30036101598E+02  0.33607763518E+02  0.00000000000E+00 0. -1.
<mgrwt>
<rscale>  1 0.12590782E+03</rscale>
<asrwt>0</asrwt>
<pdfrwt beam="1">  1       21 0.16675745E-01 0.12590782E+03</pdfrwt>
<pdfrwt beam="2">  1       21 0.10615053E-01 0.12590782E+03</pdfrwt>
<totfact> 0.23400169E+06</totfact>
</mgrwt>
</event>
<event>
 6    1  0.4244577E-002  0.1284652E+03  0.7546771E-02  0.1229751E+00
         21   -1    0    0  503  502  0.00000000000E+00  0.00000000000E+00  0.14561734532E+03  0.14561734532E+03  0.00000000000E+00 0. -1.
         21   -1    0    0  504  503 -0.00000000000E+00 -0.00000000000E+00 -0.11475824327E+03  0.11475824327E+03  0.00000000000E+00 0. -1.
         25    2    1    2    0    0  0.26309884909E+02 -0.13634527643E+02  0.11422290950E+03  0.17190166712E+03  0.12500079885E+03 0.  0.
          5    1    3    3  501    0  0.57692496311E+02 -0.26995183408E+02  0.12896391954E+02  0.64988391142E+02  0.10000000000E+00 0.  1.
         -5    1    3    3    0  501 -0.31382611402E+02  0.13360655764E+02  0.10132651755E+03  0.10691327598E+03  0.10000000000E+00 0.  1.
         21    1    1    2  504  502 -0.26309884909E+02  0.13634527643E+02 -0.83363807448E+02  0.88473921470E+02  0.00000000000E+00 0. -1.
<mgrwt>
<rscale>  1 0.12846521E+03</rscale>
<asrwt>0</asrwt>
<pdfrwt beam="1">  1       21 0.22402669E-01 0.12846521E+03</pdfrwt>
<pdfrwt beam="2">  1       21 0.17655114E-01 0.12846521E+03</pdfrwt>
<totfact> 0.54662782E+05</totfact>
</mgrwt>
</event>
<event>
 6    1  0.4244577E-002  0.1259131E+03  0.7546771E-02  0.1233649E+00
         21   -1    0    0  503  502  0.00000000000E+00  0.00000000000E+00  0.32621019651E+02  0.32621019651E+02  0.00000000000E+00 0. -1.
         21   -1    0    0  504  503 -0.00000000000E+00 -0.00000000000E+00 -0.16477925395E+03  0.16477925395E+03  0.00000000000E+00 0. -1.
         25    2    1    2    0    0 -0.14753384956E+02  0.33201883329E+01 -0.96407739271E+02  0.15858295900E+03  0.12500166669E+03 0.  0.
          5    1    3    3  501    0  0.15793691859E+02 -0.40037750650E+02  0.58037290074E+01  0.43429891204E+02  0.10000000000E+00 0.  1.
         -5    1    3    3    0  501 -0.30547076815E+02  0.43357938983E+02 -0.10221146828E+03  0.11515306779E+03  0.10000000000E+00 0.  1.
         21    1    1    2  504  502  0.14753384956E+02 -0.33201883329E+01 -0.35750495028E+02  0.38817314603E+02  0.00000000000E+00 0. -1.
<mgrwt>
<rscale>  1 0.12591308E+03</rscale>
<asrwt>0</asrwt>
<pdfrwt beam="1">  1       21 0.50186184E-02 0.12591308E+03</pdfrwt>
<pdfrwt beam="2">  1       21 0.25350654E-01 0.12591308E+03</pdfrwt>
<totfact> 0.38908599E+06</totfact>
</mgrwt>
</event>
<event>
 6    1  0.4244577E-002  0.1268154E+03  0.7546771E-02  0.1232259E+00
         21   -1    0    0  503  502  0.00000000000E+00  0.00000000000E+00  0.24071682959E+03  0.24071682959E+03  0.00000000000E+00 0.  1.
         21   -1    0    0  504  503 -0.00000000000E+00 -0.00000000000E+00 -0.48216330036E+03  0.48216330036E+03  0.00000000000E+00 0. -1.
         25    2    1    2    0    0  0.18996050965E+02  0.98656455056E+01  0.22375127645E+03  0.25719018490E+03  0.12499590627E+03 0.  0.
          5    1    3    3  501    0 -0.28984628815E+02 -0.45231848982E+02  0.91932531258E+02  0.10647830377E+03  0.10000000000E+00 0.  1.
         -5    1    3    3    0  501  0.47980679781E+02  0.55097494488E+02  0.13181874519E+03  0.15071188113E+03  0.10000000000E+00 0.  1.
         21    1    1    2  504  502 -0.18996050965E+02 -0.98656455056E+01 -0.46519774721E+03  0.46568994506E+03  0.00000000000E+00 0. -1.
<mgrwt>
<rscale>  1 0.12681545E+03</rscale>
<asrwt>0</asrwt>
<pdfrwt beam="1">  1       21 0.37033359E-01 0.12681545E+03</pdfrwt>
<pdfrwt beam="2">  1       21 0.74178968E-01 0.12681545E+03</pdfrwt>
<totfact> 0.12035598E+04</totfact>
</mgrwt>
</event>
<event>
 6    1  0.4244577E-002  0.1278487E+03  0.7546771E-02  0.1230683E+00
         21   -1    0    0  503  502  0.00000000000E+00  0.00000000000E+00  0.11887962424E+03  0.11887962424E+03  0.00000000000E+00 0.  1.
         21   -1    0    0  504  503 -0.00000000000E+00 -0.00000000000E+00 -0.12844915879E+03  0.12844915879E+03  0.00000000000E+00 0.  1.
         25    2    1    2    0    0 -0.70913199044E+01 -0.25857785275E+02  0.82019122283E+02  0.15189611599E+03  0.12500552689E+03 0.  0.
          5    1    3    3  501    0 -0.58084621642E+02  0.89372066520E+01  0.65481394393E+02  0.87985907654E+02  0.10000000000E+00 0. -1.
         -5    1    3    3    0  501  0.50993301737E+02 -0.34794991927E+02  0.16537727891E+02  0.63910208332E+02  0.10000000000E+00 0. -1.
         21    1    1    2  504  502  0.70913199044E+01  0.25857785275E+02 -0.91588656837E+02  0.95432667041E+02  0.00000000000E+00 0.  1.
<mgrwt>
<rscale>  1 0.12784871E+03</rscale>
<asrwt>0</asrwt>
<pdfrwt beam="1">  1       21 0.18289173E-01 0.12784871E+03</pdfrwt>
<pdfrwt beam="2">  1       21 0.19761409E-01 0.12784871E+03</pdfrwt>
<totfact> 0.64693893E+05</totfact>
</mgrwt>
</event>
<event>
 6    1  0.4244577E-002  0.1270183E+03  0.7546771E-02  0.1231948E+00
         21   -1    0    0  503  502  0.00000000000E+00  0.00000000000E+00  0.35262554098E+03  0.35262554098E+03  0.00000000000E+00 0. -1.
         21   -1    0    0  504  503 -0.00000000000E+00 -0.00000000000E+00 -0.46934321096E+02  0.46934321096E+02  0.00000000000E+00 0. -1.
         25    2    1    2    0    0  0.22034235979E+02  0.50893121973E+01  0.33745494239E+03  0.36056828963E+03  0.12498897829E+03 0.  0.
          5    1    3    3  501    0 -0.84143927944E+01  0.40025268205E+02  0.29467115146E+03  0.29749608670E+03  0.10000000000E+00 0.  1.
         -5    1    3    3    0  501  0.30448628773E+02 -0.34935956008E+02  0.42783790928E+02  0.63072202931E+02  0.10000000000E+00 0.  1.
         21    1    1    2  504  502 -0.22034235979E+02 -0.50893121973E+01 -0.31763722507E+02  0.38991572439E+02  0.00000000000E+00 0. -1.
<mgrwt>
<rscale>  1 0.12701832E+03</rscale>
<asrwt>0</asrwt>
<pdfrwt beam="1">  1       21 0.54250082E-01 0.12701832E+03</pdfrwt>
<pdfrwt beam="2">  1       21 0.72206650E-02 0.12701832E+03</pdfrwt>
<totfact> 0.46490986E+05</totfact>
</mgrwt>
</event>
<event>
 6    1  0.4244577E-002  0.1386420E+03  0.7546771E-02  0.1215168E+00
         21   -1    0    0  504  502  0.00000000000E+00  0.00000000000E+00  0.38638940323E+02  0.38638940323E+02  0.00000000000E+00 0.  1.
         21   -1    0    0  502  503 -0.00000000000E+00 -0.00000000000E+00 -0.79635480026E+03  0.79635480026E+03  0.00000000000E+00 0.  1.
         25    2    1    2    0    0 -0.45772192229E+02  0.38715542825E+02 -0.91562886893E+02  0.16614863868E+03  0.12501048373E+03 0.  0.
          5    1    3    3  501    0  0.46816827662E+01  0.75842601948E+02 -0.49056680336E+02  0.90446593686E+02  0.10000000000E+00 0. -1.
         -5    1    3    3    0  501 -0.50453874995E+02 -0.37127059123E+02 -0.42506206557E+02  0.75702044999E+02  0.10000000000E+00 0. -1.
         21    1    1    2  504  503  0.45772192229E+02 -0.38715542825E+02 -0.66615297304E+03  0.66884510190E+03  0.00000000000E+00 0.  1.
<mgrwt>
<rscale>  1 0.13864201E+03</rscale>
<asrwt>0</asrwt>
<pdfrwt beam="1">  1       21 0.59444531E-02 0.13864201E+03</pdfrwt>
<pdfrwt beam="2">  1       21 0.12251611E+00 0.13864201E+03</pdfrwt>
<totfact> 0.10292526E+05</totfact>
</mgrwt>
</event>
<event>
 6    1  0.4244577E-002  0.1259150E+03  0.7546771E-02  0.1233646E+00
         21   -1    0    0  504  502  0.00000000000E+00  0.00000000000E+00  0.16136900463E+03  0.16136900463E+03  0.00000000000E+00 0.  1.
         21   -1    0    0  502  503 -0.00000000000E+00 -0.00000000000E+00 -0.12257583007E+03  0.12257583007E+03  0.00000000000E+00 0.  1.
         25    2    1    2    0    0  0.15116177059E+02 -0.21050049821E+00  0.13613378499E+03  0.18543728394E+03  0.12500414290E+03 0.  0.
          5    1    3    3  501    0  0.20123245468E+02 -0.58665337863E+02  0.43380226720E+02  0.75686332617E+02  0.10000000000E+00 0.  1.
         -5    1    3    3    0  501 -0.50070684096E+01  0.58454837365E+02  0.92753558267E+02  0.10975095132E+03  0.10000000000E+00 0.  1.
         21    1    1    2  504  503 -0.15116177059E+02  0.21050049821E+00 -0.97340610427E+02  0.98507550764E+02  0.00000000000E+00 0.  1.
<mgrwt>
<rscale>  1 0.12591497E+03</rscale>
<asrwt>0</asrwt>
<pdfrwt beam="1">  1       21 0.24826001E-01 0.12591497E+03</pdfrwt>
<pdfrwt beam="2">  1       21 0.18857820E-01 0.12591497E+03</pdfrwt>
<totfact> 0.39955530E+05</totfact>
</mgrwt>
</event>
<event>
 6    1  0.4244577E-002  0.1262267E+03  0.7546771E-02  0.1233164E+00
         21   -1    0    0  503  502  0.00000000000E+00  0.00000000000E+00  0.62644798063E+02  0.62644798063E+02  0.00000000000E+00 0. -1.
         21   -1    0    0  504  503 -0.00000000000E+00 -0.00000000000E+00 -0.18884339300E+03  0.18884339300E+03  0.00000000000E+00 0.  1.
         25    2    1    2    0    0  0.14057680735E+02 -0.10765512785E+02 -0.22145291783E+01  0.12624617249E+03  0.12497870729E+03 0.  0.
          5    1    3    3  501    0  0.26635320687E+01 -0.62068464036E+02  0.25116739312E+02  0.67010814235E+02  0.10000000000E+00 0. -1.
         -5    1    3    3    0  501  0.11394148666E+02  0.51302951250E+02 -0.27331268490E+02  0.59235358259E+02  0.10000000000E+00 0. -1.
         21    1    1    2  504  502 -0.14057680735E+02  0.10765512785E+02 -0.12398406576E+03  0.12524201857E+03  0.00000000000E+00 0.  1.
<mgrwt>
<rscale>  1 0.12622675E+03</rscale>
<asrwt>0</asrwt>
<pdfrwt beam="1">  1       21 0.96376614E-02 0.12622675E+03</pdfrwt>
<pdfrwt beam="2">  1       21 0.29052829E-01 0.12622675E+03</pdfrwt>
<totfact> 0.98344070E+05</totfact>
</mgrwt>
</event>
<event>
 6    1  0.4244577E-002  0.1409971E+03  0.7546771E-02  0.1211994E+00
         21   -1    0    0  504  502  0.00000000000E+00  0.00000000000E+00  0.46606130581E+01  0.46606130581E+01  0.00000000000E+00 0.  1.
         21   -1    0    0  502  503 -0.00000000000E+00 -0.00000000000E+00 -0.24657937249E+04  0.24657937249E+04  0.00000000000E+00 0.  1.
         25    2    1    2    0    0  0.18168803479E+02  0.62656519467E+02 -0.13329134633E+04  0.13403501303E+04  0.12499690495E+03 0.  0.
          5    1    3    3  501    0  0.50333820707E+02 -0.15950286860E+02 -0.65766816537E+03  0.65978430634E+03  0.10000000000E+00 0. -1.
         -5    1    3    3    0  501 -0.32165017228E+02  0.78606806327E+02 -0.67524529790E+03  0.68056582391E+03  0.10000000000E+00 0. -1.
         21    1    1    2  504  503 -0.18168803479E+02 -0.62656519467E+02 -0.11282196485E+04  0.11301042077E+04  0.00000000000E+00 0.  1.
<mgrwt>
<rscale>  1 0.14099706E+03</rscale>
<asrwt>0</asrwt>
<pdfrwt beam="1">  1       21 0.71701540E-03 0.14099706E+03</pdfrwt>
<pdfrwt beam="2">  1       21 0.37935394E+00 0.14099706E+03</pdfrwt>
<totfact> 0.78674387E+04</totfact>
</mgrwt>
</event>
<event>
 6    1  0.4244577E-002  0.1282075E+03  0.7546771E-02  0.1230140E+00
         21   -1    0    0  503  502  0.00000000000E+00  0.00000000000E+00  0.12942508442E+02  0.12942508442E+02  0.00000000000E+00 0. -1.
         21   -1    0    0  504  503 -0.00000000000E+00 -0.00000000000E+00 -0.59857795562E+03  0.59857795562E+03  0.00000000000E+00 0.  1.
         25    2    1    2    0    0 -0.23251330180E+02 -0.16467252817E+02 -0.32565364926E+03  0.34998207297E+03  0.12500142939E+03 0.  0.
          5    1    3    3  501    0  0.13985731983E+02  0.46343421967E+02 -0.18833314154E+03  0.19445486793E+03  0.10000000000E+00 0. -1.
         -5    1    3    3    0  501 -0.37237062163E+02 -0.62810674784E+02 -0.13732050772E+03  0.15552720504E+03  0.10000000000E+00 0. -1.
         21    1    1    2  504  502  0.23251330180E+02  0.16467252817E+02 -0.25998179791E+03  0.26153839110E+03  0.00000000000E+00 0.  1.
<mgrwt>
<rscale>  1 0.12820746E+03</rscale>
<asrwt>0</asrwt>
<pdfrwt beam="1">  1       21 0.19911554E-02 0.12820746E+03</pdfrwt>
<pdfrwt beam="2">  1       21 0.92088906E-01 0.12820746E+03</pdfrwt>
<totfact> 0.12386923E+06</totfact>
</mgrwt>
</event>
<event>
 6    1  0.4244577E-002  0.1279234E+03  0.7546771E-02  0.1230570E+00
         21   -1    0    0  503  502  0.00000000000E+00  0.00000000000E+00  0.10052603074E+02  0.10052603074E+02  0.00000000000E+00 0. -1.
         21   -1    0    0  504  503 -0.00000000000E+00 -0.00000000000E+00 -0.62654530442E+03  0.62654530442E+03  0.00000000000E+00 0. -1.
         25    2    1    2    0    0  0.19905799375E+02 -0.18547667109E+02 -0.44735358070E+03  0.46528445520E+03  0.12499656508E+03 0.  0.
          5    1    3    3  501    0  0.31716677887E+02  0.27097059226E+02 -0.38427476106E+03  0.38653240519E+03  0.10000000000E+00 0. -1.
         -5    1    3    3    0  501 -0.11810878511E+02 -0.45644726335E+02 -0.63078819641E+02  0.78752050010E+02  0.10000000000E+00 0. -1.
         21    1    1    2  504  502 -0.19905799375E+02  0.18547667109E+02 -0.16913912065E+03  0.17131345230E+03  0.00000000000E+00 0. -1.
<mgrwt>
<rscale>  1 0.12792341E+03</rscale>
<asrwt>0</asrwt>
<pdfrwt beam="1">  1       21 0.15465541E-02 0.12792341E+03</pdfrwt>
<pdfrwt beam="2">  1       21 0.96391596E-01 0.12792341E+03</pdfrwt>
<totfact> 0.16725455E+06</totfact>
</mgrwt>
</event>
<event>
 6    1  0.4244577E-002  0.1553857E+03  0.7546771E-02  0.1194007E+00
         21   -1    0    0  503  502  0.00000000000E+00  0.00000000000E+00  0.95423671394E+03  0.95423671394E+03  0.00000000000E+00 0.  1.
         21   -1    0    0  504  503 -0.00000000000E+00 -0.00000000000E+00 -0.57872584747E+02  0.57872584747E+02  0.00000000000E+00 0. -1.
         25    2    1    2    0    0 -0.39951923185E+02  0.83212258833E+02  0.90606715767E+03  0.91929451027E+03  0.12499706487E+03 0.  0.
          5    1    3    3  501    0 -0.21708021754E+02 -0.25685786384E+02  0.39535267002E+03  0.39678047018E+03  0.10000000000E+00 0.  1.
         -5    1    3    3    0  501 -0.18243901431E+02  0.10889804522E+03  0.51071448765E+03  0.52251404009E+03  0.10000000000E+00 0.  1.
         21    1    1    2  504  502  0.39951923185E+02 -0.83212258833E+02 -0.97030284786E+01  0.92814788412E+02  0.00000000000E+00 0. -1.
<mgrwt>
<rscale>  1 0.15538566E+03</rscale>
<asrwt>0</asrwt>
<pdfrwt beam="1">  1       21 0.14680564E+00 0.15538566E+03</pdfrwt>
<pdfrwt beam="2">  1       21 0.89034752E-02 0.15538566E+03</pdfrwt>
<totfact> 0.32245358E+04</totfact>
</mgrwt>
</event>
<event>
 6    1  0.4244577E-002  0.1280343E+03  0.7546771E-02  0.1230402E+00
         21   -1    0    0  503  502  0.00000000000E+00  0.00000000000E+00  0.30040574211E+02  0.30040574211E+02  0.00000000000E+00 0. -1.
         21   -1    0    0  504  503 -0.00000000000E+00 -0.00000000000E+00 -0.34406915395E+03  0.34406915395E+03  0.00000000000E+00 0. -1.
         25    2    1    2    0    0  0.19309750206E+02 -0.19760339628E+02 -0.11172189227E+03  0.16992517127E+03  0.12501777932E+03 0.  0.
          5    1    3    3  501    0 -0.53139105617E+02 -0.15737942359E+02 -0.50810027026E+02  0.75187207833E+02  0.10000000000E+00 0.  1.
         -5    1    3    3    0  501  0.72448855823E+02 -0.40223972694E+01 -0.60911865242E+02  0.94737963442E+02  0.10000000000E+00 0.  1.
         21    1    1    2  504  502 -0.19309750206E+02  0.19760339628E+02 -0.20230668747E+03  0.20418455689E+03  0.00000000000E+00 0. -1.
<mgrwt>
<rscale>  1 0.12803430E+03</rscale>
<asrwt>0</asrwt>
<pdfrwt beam="1">  1       21 0.46216266E-02 0.12803430E+03</pdfrwt>
<pdfrwt beam="2">  1       21 0.52933718E-01 0.12803430E+03</pdfrwt>
<totfact> 0.10411117E+06</totfact>
</mgrwt>
</event>
<event>
 6    1  0.4244577E-002  0.1302055E+03  0.7546771E-02  0.1227151E+00
         21   -1    0    0  503  502  0.00000000000E+00  0.00000000000E+00  0.31968030118E+03  0.31968030118E+03  0.00000000000E+00 0. -1.
         21   -1    0    0  504  503 -0.00000000000E+00 -0.00000000000E+00 -0.21991346707E+02  0.21991346707E+02  0.00000000000E+00 0. -1.
         25    2    1    2    0    0  0.20207190117E+02  0.30274544794E+02  0.21546094743E+03  0.25174765922E+03  0.12501434103E+03 0.  0.
          5    1    3    3  501    0 -0.35634147191E+02  0.32791936917E+02  0.17797055621E+03  0.18444140655E+03  0.10000000000E+00 0.  1.
         -5    1    3    3    0  501  0.55841337307E+02 -0.25173921227E+01  0.37490391224E+02  0.67306252678E+02  0.10000000000E+00 0.  1.
         21    1    1    2  504  502 -0.20207190117E+02 -0.30274544794E+02  0.82228007046E+02  0.89923988666E+02  0.00000000000E+00 0. -1.
<mgrwt>
<rscale>  1 0.13020547E+03</rscale>
<asrwt>0</asrwt>
<pdfrwt beam="1">  1       21 0.49181581E-01 0.13020547E+03</pdfrwt>
<pdfrwt beam="2">  1       21 0.33832843E-02 0.13020547E+03</pdfrwt>
<totfact> 0.20352140E+06</totfact>
</mgrwt>
</event>
<event>
 6    1  0.4244577E-002  0.1271378E+03  0.7546771E-02  0.1231766E+00
         21   -1    0    0  504  502  0.00000000000E+00  0.00000000000E+00  0.40859543269E+03  0.40859543269E+03  0.00000000000E+00 0. -1.
         21   -1    0    0  502  503 -0.00000000000E+00 -0.00000000000E+00 -0.28998890258E+02  0.28998890258E+02  0.00000000000E+00 0. -1.
         25    2    1    2    0    0  0.65614714434E+01 -0.22257398188E+02  0.39142072244E+03  0.41155097611E+03  0.12500231720E+03 0.  0.
          5    1    3    3  501    0 -0.56359066924E+02 -0.99655105953E+01  0.12428301920E+03  0.13682812096E+03  0.10000000000E+00 0. -1.
         -5    1    3    3    0  501  0.62920538368E+02 -0.12291887593E+02  0.26713770324E+03  0.27472285515E+03  0.10000000000E+00 0. -1.
         21    1    1    2  504  503 -0.65614714434E+01  0.22257398188E+02 -0.11824180003E+02  0.26043346835E+02  0.00000000000E+00 0. -1.
<mgrwt>
<rscale>  1 0.12713781E+03</rscale>
<asrwt>0</asrwt>
<pdfrwt beam="1">  1       21 0.62860831E-01 0.12713781E+03</pdfrwt>
<pdfrwt beam="2">  1       21 0.44613680E-02 0.12713781E+03</pdfrwt>
<totfact> 0.76850205E+05</totfact>
</mgrwt>
</event>
<event>
 6    1  0.4244577E-002  0.1322833E+03  0.7546771E-02  0.1224107E+00
         21   -1    0    0  504  502  0.00000000000E+00  0.00000000000E+00  0.23160484306E+04  0.23160484306E+04  0.00000000000E+00 0.  1.
         21   -1    0    0  502  503 -0.00000000000E+00 -0.00000000000E+00 -0.55932108066E+02  0.55932108066E+02  0.00000000000E+00 0. -1.
         25    2    1    2    0    0 -0.60181548537E+01 -0.42866238989E+02  0.23054835777E+04  0.23092755112E+04  0.12500050692E+03 0.  0.
          5    1    3    3  501    0  0.51275602145E+02 -0.10642992651E+02  0.53130913362E+03  0.53388375714E+03  0.10000000000E+00 0. -1.
         -5    1    3    3    0  501 -0.57293756998E+02 -0.32223246338E+02  0.17741744441E+04  0.17753917540E+04  0.10000000000E+00 0. -1.
         21    1    1    2  504  503  0.60181548537E+01  0.42866238989E+02 -0.45367255173E+02  0.62705027508E+02  0.00000000000E+00 0. -1.
<mgrwt>
<rscale>  1 0.13228325E+03</rscale>
<asrwt>0</asrwt>
<pdfrwt beam="1">  1       21 0.35631507E+00 0.13228325E+03</pdfrwt>
<pdfrwt beam="2">  1       21 0.86049415E-02 0.13228325E+03</pdfrwt>
<totfact> 0.18735058E+03</totfact>
</mgrwt>
</event>
<event>
 6    1  0.4244577E-002  0.1259773E+03  0.7546771E-02  0.1233550E+00
         21   -1    0    0  504  502  0.00000000000E+00  0.00000000000E+00  0.15419210210E+03  0.15419210210E+03  0.00000000000E+00 0. -1.
         21   -1    0    0  502  503 -0.00000000000E+00 -0.00000000000E+00 -0.35356628760E+02  0.35356628760E+02  0.00000000000E+00 0. -1.
         25    2    1    2    0    0  0.85873645791E+01 -0.13076435784E+02  0.11983901412E+03  0.17387253562E+03  0.12500213332E+03 0.  0.
          5    1    3    3  501    0 -0.34513483375E+02 -0.55492409701E+02  0.66557376469E+02  0.93276376600E+02  0.10000000000E+00 0. -1.
         -5    1    3    3    0  501  0.43100847954E+02  0.42415973917E+02  0.53281637654E+02  0.80596159020E+02  0.10000000000E+00 0. -1.
         21    1    1    2  504  503 -0.85873645791E+01  0.13076435784E+02 -0.10035407787E+01  0.15676195244E+02  0.00000000000E+00 0. -1.
<mgrwt>
<rscale>  1 0.12597726E+03</rscale>
<asrwt>0</asrwt>
<pdfrwt beam="1">  1       21 0.23721862E-01 0.12597726E+03</pdfrwt>
<pdfrwt beam="2">  1       21 0.54394814E-02 0.12597726E+03</pdfrwt>
<totfact> 0.38510438E+06</totfact>
</mgrwt>
</event>
<event>
 6    1  0.4244577E-002  0.1313197E+03  0.7546771E-02  0.1225511E+00
         21   -1    0    0  504  502  0.00000000000E+00  0.00000000000E+00  0.37449559593E+02  0.37449559593E+02  0.00000000000E+00 0.  1.
         21   -1    0    0  502  503 -0.00000000000E+00 -0.00000000000E+00 -0.65544880616E+03  0.65544880616E+03  0.00000000000E+00 0.  1.
         25    2    1    2    0    0  0.35358960741E+02  0.19333916410E+02 -0.80793616412E+02  0.15418327825E+03  0.12498327253E+03 0.  0.
          5    1    3    3  501    0  0.56137962188E+02  0.49435859596E+02 -0.89440695919E+02  0.11659769766E+03  0.10000000000E+00 0.  1.
         -5    1    3    3    0  501 -0.20779001447E+02 -0.30101943186E+02  0.86470795073E+01  0.37585580596E+02  0.10000000000E+00 0.  1.
         21    1    1    2  504  503 -0.35358960741E+02 -0.19333916410E+02 -0.53720563015E+03  0.53871508750E+03  0.00000000000E+00 0.  1.
<mgrwt>
<rscale>  1 0.13131974E+03</rscale>
<asrwt>0</asrwt>
<pdfrwt beam="1">  1       21 0.57614708E-02 0.13131974E+03</pdfrwt>
<pdfrwt beam="2">  1       21 0.10083828E+00 0.13131974E+03</pdfrwt>
<totfact> 0.17370395E+05</totfact>
</mgrwt>
</event>
<event>
 6    1  0.4244577E-002  0.1277728E+03  0.7546771E-02  0.1230798E+00
         21   -1    0    0  503  502  0.00000000000E+00  0.00000000000E+00  0.13179390479E+03  0.13179390479E+03  0.00000000000E+00 0. -1.
         21   -1    0    0  504  503 -0.00000000000E+00 -0.00000000000E+00 -0.10288389371E+03  0.10288389371E+03  0.00000000000E+00 0.  1.
         25    2    1    2    0    0  0.25664631747E+02  0.60894365286E+01  0.97803094241E+02  0.16090780821E+03  0.12502049008E+03 0.  0.
          5    1    3    3  501    0  0.41424274486E+02  0.19053406071E+02  0.12141802174E+03  0.12969714262E+03  0.10000000000E+00 0. -1.
         -5    1    3    3    0  501 -0.15759642738E+02 -0.12963969542E+02 -0.23614927504E+02  0.31210665589E+02  0.10000000000E+00 0. -1.
         21    1    1    2  504  502 -0.25664631747E+02 -0.60894365286E+01 -0.68893083158E+02  0.73769990288E+02  0.00000000000E+00 0.  1.
<mgrwt>
<rscale>  1 0.12777276E+03</rscale>
<asrwt>0</asrwt>
<pdfrwt beam="1">  1       21 0.20275985E-01 0.12777276E+03</pdfrwt>
<pdfrwt beam="2">  1       21 0.15828291E-01 0.12777276E+03</pdfrwt>
<totfact> 0.80263775E+05</totfact>
</mgrwt>
</event>
<event>
 6    1  0.4244577E-002  0.1311043E+03  0.7546771E-02  0.1225826E+00
         21   -1    0    0  504  502  0.00000000000E+00  0.00000000000E+00  0.53854121096E+02  0.53854121096E+02  0.00000000000E+00 0. -1.
         21   -1    0    0  502  503 -0.00000000000E+00 -0.00000000000E+00 -0.18992277901E+03  0.18992277901E+03  0.00000000000E+00 0. -1.
         25    2    1    2    0    0 -0.33410991671E+02 -0.21136525520E+02 -0.35663424509E+02  0.13586833710E+03  0.12500111241E+03 0.  0.
          5    1    3    3  501    0  0.19989549698E+02 -0.60928546828E+02 -0.12299888925E+02  0.65292933640E+02  0.10000000000E+00 0. -1.
         -5    1    3    3    0  501 -0.53400541369E+02  0.39792021309E+02 -0.23363535585E+02  0.70575403459E+02  0.10000000000E+00 0. -1.
         21    1    1    2  504  503  0.33410991671E+02  0.21136525520E+02 -0.10040523341E+03  0.10790856301E+03  0.00000000000E+00 0. -1.
<mgrwt>
<rscale>  1 0.13110425E+03</rscale>
<asrwt>0</asrwt>
<pdfrwt beam="1">  1       21 0.82852493E-02 0.13110425E+03</pdfrwt>
<pdfrwt beam="2">  1       21 0.29218889E-01 0.13110425E+03</pdfrwt>
<totfact> 0.12653330E+06</totfact>
</mgrwt>
</event>
<event>
 6    1  0.4244577E-002  0.1309563E+03  0.7546771E-02  0.1226044E+00
         21   -1    0    0  504  502  0.00000000000E+00  0.00000000000E+00  0.11629050170E+03  0.11629050170E+03  0.00000000000E+00 0. -1.
         21   -1    0    0  502  503 -0.00000000000E+00 -0.00000000000E+00 -0.17821233157E+03  0.17821233157E+03  0.00000000000E+00 0. -1.
         25    2    1    2    0    0 -0.31803403394E+02  0.22848370030E+02  0.75806991560E+02  0.15131507984E+03  0.12496419062E+03 0.  0.
          5    1    3    3  501    0 -0.44660341118E+01  0.73129345597E+02  0.48805827099E+02  0.88033319868E+02  0.10000000000E+00 0.  1.
         -5    1    3    3    0  501 -0.27337369283E+02 -0.50280975567E+02  0.27001164461E+02  0.63281759975E+02  0.10000000000E+00 0.  1.
         21    1    1    2  504  503  0.31803403394E+02 -0.22848370030E+02 -0.13772882143E+03  0.14318775343E+03  0.00000000000E+00 0. -1.
<mgrwt>
<rscale>  1 0.13095630E+03</rscale>
<asrwt>0</asrwt>
<pdfrwt beam="1">  1       21 0.17890846E-01 0.13095630E+03</pdfrwt>
<pdfrwt beam="2">  1       21 0.27417282E-01 0.13095630E+03</pdfrwt>
<totfact> 0.36424324E+05</totfact>
</mgrwt>
</event>
<event>
 6    1  0.4244577E-002  0.1280903E+03  0.7546771E-02  0.1230317E+00
         21   -1    0    0  504  502  0.00000000000E+00  0.00000000000E+00  0.60936572080E+02  0.60936572080E+02  0.00000000000E+00 0.  1.
         21   -1    0    0  502  503 -0.00000000000E+00 -0.00000000000E+00 -0.17005020409E+03  0.17005020409E+03  0.00000000000E+00 0. -1.
         25    2    1    2    0    0 -0.26598537998E+02  0.86625948337E+01 -0.10542771690E+02  0.12852343015E+03  0.12499839715E+03 0.  0.
          5    1    3    3  501    0 -0.42375552491E+02  0.56830740921E+02 -0.26039043029E+02  0.75521270676E+02  0.10000000000E+00 0. -1.
         -5    1    3    3    0  501  0.15777014493E+02 -0.48168146087E+02  0.15496271339E+02  0.53002159477E+02  0.10000000000E+00 0. -1.
         21    1    1    2  504  503  0.26598537998E+02 -0.86625948337E+01 -0.98570860320E+02  0.10246334602E+03  0.00000000000E+00 0. -1.
<mgrwt>
<rscale>  1 0.12809029E+03</rscale>
<asrwt>0</asrwt>
<pdfrwt beam="1">  1       21 0.93748573E-02 0.12809029E+03</pdfrwt>
<pdfrwt beam="2">  1       21 0.26161570E-01 0.12809029E+03</pdfrwt>
<totfact> 0.12609265E+06</totfact>
</mgrwt>
</event>
<event>
 6    1  0.4244577E-002  0.1665944E+03  0.7546771E-02  0.1181447E+00
         21   -1    0    0  503  502  0.00000000000E+00  0.00000000000E+00  0.64494327090E+03  0.64494327090E+03  0.00000000000E+00 0.  1.
         21   -1    0    0  504  503 -0.00000000000E+00 -0.00000000000E+00 -0.83575343009E+02  0.83575343009E+02  0.00000000000E+00 0.  1.
         25    2    1    2    0    0 -0.11014697381E+03  0.12722047900E+01  0.59134061445E+03  0.61435935548E+03  0.12497888234E+03 0.  0.
          5    1    3    3  501    0 -0.52228187571E+02  0.31873622940E+02  0.90436598980E+02  0.10919020034E+03  0.10000000000E+00 0.  1.
         -5    1    3    3    0  501 -0.57918786238E+02 -0.30601418150E+02  0.50090401547E+03  0.50516915514E+03  0.10000000000E+00 0.  1.
         21    1    1    2  504  502  0.11014697381E+03 -0.12722047900E+01 -0.29972686558E+02  0.11415925842E+03  0.00000000000E+00 0.  1.
<mgrwt>
<rscale>  1 0.16659440E+03</rscale>
<asrwt>0</asrwt>
<pdfrwt beam="1">  1       21 0.99222038E-01 0.16659440E+03</pdfrwt>
<pdfrwt beam="2">  1       21 0.12857746E-01 0.16659440E+03</pdfrwt>
<totfact> 0.43963892E+04</totfact>
</mgrwt>
</event>
<event>
 6    1  0.4244577E-002  0.1269472E+03  0.7546771E-02  0.1232057E+00
         21   -1    0    0  504  502  0.00000000000E+00  0.00000000000E+00  0.10779686058E+04  0.10779686058E+04  0.00000000000E+00 0. -1.
         21   -1    0    0  502  503 -0.00000000000E+00 -0.00000000000E+00 -0.14267743230E+02  0.14267743230E+02  0.00000000000E+00 0. -1.
         25    2    1    2    0    0 -0.99744355278E+01 -0.19786535079E+02  0.10624877075E+04  0.10700447272E+04  0.12499837290E+03 0.  0.
          5    1    3    3  501    0  0.47102615884E+02  0.24721849516E+02  0.52936431863E+03  0.53203046727E+03  0.10000000000E+00 0. -1.
         -5    1    3    3    0  501 -0.57077051411E+02 -0.44508384595E+02  0.53312338887E+03  0.53801425991E+03  0.10000000000E+00 0. -1.
         21    1    1    2  504  503  0.99744355278E+01  0.19786535079E+02  0.12131550480E+01  0.22191621836E+02  0.00000000000E+00 0. -1.
<mgrwt>
<rscale>  1 0.12694719E+03</rscale>
<asrwt>0</asrwt>
<pdfrwt beam="1">  1       21 0.16584126E+00 0.12694719E+03</pdfrwt>
<pdfrwt beam="2">  1       21 0.21950383E-02 0.12694719E+03</pdfrwt>
<totfact> 0.24802413E+05</totfact>
</mgrwt>
</event>
<event>
 6    1  0.4244577E-002  0.1282791E+03  0.7546771E-02  0.1230032E+00
         21   -1    0    0  504  502  0.00000000000E+00  0.00000000000E+00  0.80075587667E+02  0.80075587667E+02  0.00000000000E+00 0.  1.
         21   -1    0    0  502  503 -0.00000000000E+00 -0.00000000000E+00 -0.11925745721E+03  0.11925745721E+03  0.00000000000E+00 0.  1.
         25    2    1    2    0    0  0.27898658982E+02  0.71845173964E+01  0.23439284389E+02  0.13040292532E+03  0.12500228164E+03 0.  0.
          5    1    3    3  501    0  0.12913632196E+02 -0.61736019702E+01 -0.51173000547E+02  0.53137192651E+02  0.10000000000E+00 0. -1.
         -5    1    3    3    0  501  0.14985026786E+02  0.13358119367E+02  0.74612284936E+02  0.77265732664E+02  0.10000000000E+00 0. -1.
         21    1    1    2  504  503 -0.27898658982E+02 -0.71845173964E+01 -0.62621153935E+02  0.68930119566E+02  0.00000000000E+00 0.  1.
<mgrwt>
<rscale>  1 0.12827908E+03</rscale>
<asrwt>0</asrwt>
<pdfrwt beam="1">  1       21 0.12319321E-01 0.12827908E+03</pdfrwt>
<pdfrwt beam="2">  1       21 0.18347301E-01 0.12827908E+03</pdfrwt>
<totfact> 0.15121615E+06</totfact>
</mgrwt>
</event>
<event>
 6    1  0.4244577E-002  0.1270220E+03  0.7546771E-02  0.1231943E+00
         21   -1    0    0  504  502  0.00000000000E+00  0.00000000000E+00  0.53569354131E+02  0.53569354131E+02  0.00000000000E+00 0.  1.
         21   -1    0    0  502  503 -0.00000000000E+00 -0.00000000000E+00 -0.38980147696E+03  0.38980147696E+03  0.00000000000E+00 0.  1.
         25    2    1    2    0    0 -0.46344316678E+01  0.22094754115E+02 -0.22709038134E+02  0.12903600841E+03  0.12499973974E+03 0.  0.
          5    1    3    3  501    0 -0.41661704978E+02  0.46454491051E+02 -0.47344504415E+02  0.78327705818E+02  0.10000000000E+00 0. -1.
         -5    1    3    3    0  501  0.37027273310E+02 -0.24359736936E+02  0.24635466281E+02  0.50708302587E+02  0.10000000000E+00 0. -1.
         21    1    1    2  504  503  0.46344316678E+01 -0.22094754115E+02 -0.31352308470E+03  0.31433482269E+03  0.00000000000E+00 0.  1.
<mgrwt>
<rscale>  1 0.12702201E+03</rscale>
<asrwt>0</asrwt>
<pdfrwt beam="1">  1       21 0.82414391E-02 0.12702201E+03</pdfrwt>
<pdfrwt beam="2">  1       21 0.59969458E-01 0.12702201E+03</pdfrwt>
<totfact> 0.29990709E+05</totfact>
</mgrwt>
</event>
<event>
 6    1  0.4244577E-002  0.1312529E+03  0.7546771E-02  0.1225608E+00
         21   -1    0    0  504  502  0.00000000000E+00  0.00000000000E+00  0.91880832271E+02  0.91880832271E+02  0.00000000000E+00 0. -1.
         21   -1    0    0  502  503 -0.00000000000E+00 -0.00000000000E+00 -0.82744852876E+02  0.82744852876E+02  0.00000000000E+00 0. -1.
         25    2    1    2    0    0 -0.33211857678E+02 -0.22358226813E+02  0.20877542946E+02  0.13290300413E+03  0.12499767562E+03 0.  0.
          5    1    3    3  501    0 -0.23671156473E+02  0.44524770697E+02  0.38077630056E+02  0.63187773857E+02  0.10000000000E+00 0. -1.
         -5    1    3    3    0  501 -0.95407012055E+01 -0.66882997510E+02 -0.17200087110E+02  0.69715230272E+02  0.10000000000E+00 0. -1.
         21    1    1    2  504  503  0.33211857678E+02  0.22358226813E+02 -0.11741563551E+02  0.41722681017E+02  0.00000000000E+00 0. -1.
<mgrwt>
<rscale>  1 0.13125295E+03</rscale>
<asrwt>0</asrwt>
<pdfrwt beam="1">  1       21 0.14135513E-01 0.13125295E+03</pdfrwt>
<pdfrwt beam="2">  1       21 0.12729977E-01 0.13125295E+03</pdfrwt>
<totfact> 0.22907402E+06</totfact>
</mgrwt>
</event>
<event>
 6    1  0.4244577E-002  0.1523413E+03  0.7546771E-02  0.1197625E+00
         21   -1    0    0  503  502  0.00000000000E+00  0.00000000000E+00  0.14377696149E+03  0.14377696149E+03  0.00000000000E+00 0. -1.
         21   -1    0    0  504  503 -0.00000000000E+00 -0.00000000000E+00 -0.10893206597E+03  0.10893206597E+03  0.00000000000E+00 0.  1.
         25    2    1    2    0    0  0.65240665353E+02 -0.57763917509E+02  0.57238881005E+02  0.16273955949E+03  0.12495943399E+03 0.  0.
          5    1    3    3  501    0  0.18958747195E+02 -0.54381087974E+02 -0.29245682983E+02  0.64591460718E+02  0.10000000000E+00 0.  1.
         -5    1    3    3    0  501  0.46281918158E+02 -0.33828295341E+01  0.86484563988E+02  0.98148098770E+02  0.10000000000E+00 0.  1.
         21    1    1    2  504  502 -0.65240665353E+02  0.57763917509E+02 -0.22393985485E+02  0.89969467974E+02  0.00000000000E+00 0.  1.
<mgrwt>
<rscale>  1 0.15234131E+03</rscale>
<asrwt>0</asrwt>
<pdfrwt beam="1">  1       21 0.22119533E-01 0.15234131E+03</pdfrwt>
<pdfrwt beam="2">  1       21 0.16758779E-01 0.15234131E+03</pdfrwt>
<totfact> 0.61490649E+05</totfact>
</mgrwt>
</event>
<event>
 6    1  0.4244577E-002  0.1259689E+03  0.7546771E-02  0.1233563E+00
         21   -1    0    0  504  502  0.00000000000E+00  0.00000000000E+00  0.30353406518E+03  0.30353406518E+03  0.00000000000E+00 0.  1.
         21   -1    0    0  502  503 -0.00000000000E+00 -0.00000000000E+00 -0.17015373964E+02  0.17015373964E+02  0.00000000000E+00 0.  1.
         25    2    1    2    0    0  0.13327146947E+02  0.82733906304E+01  0.23417916091E+03  0.26590981734E+03  0.12498835832E+03 0.  0.
          5    1    3    3  501    0  0.55941396265E+02 -0.24858564101E+02  0.17695297415E+03  0.18724249807E+03  0.10000000000E+00 0. -1.
         -5    1    3    3    0  501 -0.42614249318E+02  0.33131954732E+02  0.57226186765E+02  0.78667319269E+02  0.10000000000E+00 0. -1.
         21    1    1    2  504  503 -0.13327146947E+02 -0.82733906304E+01  0.52339530302E+02  0.54639621800E+02  0.00000000000E+00 0.  1.
<mgrwt>
<rscale>  1 0.12596885E+03</rscale>
<asrwt>0</asrwt>
<pdfrwt beam="1">  1       21 0.46697545E-01 0.12596885E+03</pdfrwt>
<pdfrwt beam="2">  1       21 0.26177501E-02 0.12596885E+03</pdfrwt>
<totfact> 0.34429410E+06</totfact>
</mgrwt>
</event>
<event>
 6    1  0.4244577E-002  0.1384923E+03  0.7546771E-02  0.1215372E+00
         21   -1    0    0  503  502  0.00000000000E+00  0.00000000000E+00  0.97484469707E+02  0.97484469707E+02  0.00000000000E+00 0.  1.
         21   -1    0    0  504  503 -0.00000000000E+00 -0.00000000000E+00 -0.11269333960E+03  0.11269333960E+03  0.00000000000E+00 0.  1.
         25    2    1    2    0    0 -0.14328074361E+02 -0.57841787201E+02  0.21554919831E+02  0.14015965240E+03  0.12501658903E+03 0.  0.
          5    1    3    3  501    0 -0.36868903660E+02 -0.66235163463E+02  0.58721634080E+02  0.95888754529E+02  0.10000000000E+00 0.  1.
         -5    1    3    3    0  501  0.22540829299E+02  0.83933762615E+01 -0.37166714250E+02  0.44270897875E+02  0.10000000000E+00 0.  1.
         21    1    1    2  504  502  0.14328074361E+02  0.57841787201E+02 -0.36763789726E+02  0.70018156906E+02  0.00000000000E+00 0.  1.
<mgrwt>
<rscale>  1 0.13849229E+03</rscale>
<asrwt>0</asrwt>
<pdfrwt beam="1">  1       21 0.14997611E-01 0.13849229E+03</pdfrwt>
<pdfrwt beam="2">  1       21 0.17337437E-01 0.13849229E+03</pdfrwt>
<totfact> 0.11807428E+06</totfact>
</mgrwt>
</event>
<event>
 6    1  0.4244577E-002  0.1279610E+03  0.7546771E-02  0.1230513E+00
         21   -1    0    0  504  502  0.00000000000E+00  0.00000000000E+00  0.93008126197E+01  0.93008126197E+01  0.00000000000E+00 0. -1.
         21   -1    0    0  502  503 -0.00000000000E+00 -0.00000000000E+00 -0.12857354527E+04  0.12857354527E+04  0.00000000000E+00 0. -1.
         25    2    1    2    0    0 -0.21095739610E+02  0.17435646634E+02 -0.44192514651E+03  0.46007810657E+03  0.12499998810E+03 0.  0.
          5    1    3    3  501    0 -0.48253542935E+02  0.35347078545E+02 -0.41053832128E+03  0.41487292465E+03  0.10000000000E+00 0.  1.
         -5    1    3    3    0  501  0.27157803325E+02 -0.17911431910E+02 -0.31386825230E+02  0.45205181921E+02  0.10000000000E+00 0.  1.
         21    1    1    2  504  503  0.21095739610E+02 -0.17435646634E+02 -0.83450949354E+03  0.83495815872E+03  0.00000000000E+00 0. -1.
<mgrwt>
<rscale>  1 0.12796104E+03</rscale>
<asrwt>0</asrwt>
<pdfrwt beam="1">  1       21 0.14308956E-02 0.12796104E+03</pdfrwt>
<pdfrwt beam="2">  1       21 0.19780526E+00 0.12796104E+03</pdfrwt>
<totfact> 0.30232686E+05</totfact>
</mgrwt>
</event>
<event>
 6    1  0.4244577E-002  0.1273308E+03  0.7546771E-02  0.1231471E+00
         21   -1    0    0  504  502  0.00000000000E+00  0.00000000000E+00  0.81181793398E+03  0.81181793398E+03  0.00000000000E+00 0.  1.
         21   -1    0    0  502  503 -0.00000000000E+00 -0.00000000000E+00 -0.32742909697E+02  0.32742909697E+02  0.00000000000E+00 0.  1.
         25    2    1    2    0    0  0.54586115281E+01  0.23640746629E+02  0.80148250522E+03  0.81153393732E+03  0.12499777560E+03 0.  0.
          5    1    3    3  501    0 -0.42619043903E+02  0.54871753836E+02  0.47531693469E+03  0.48036807832E+03  0.10000000000E+00 0.  1.
         -5    1    3    3    0  501  0.48077655431E+02 -0.31231007208E+02  0.32616557054E+03  0.33116585900E+03  0.10000000000E+00 0.  1.
         21    1    1    2  504  503 -0.54586115281E+01 -0.23640746629E+02 -0.22407480943E+02  0.33026906352E+02  0.00000000000E+00 0.  1.
<mgrwt>
<rscale>  1 0.12733077E+03</rscale>
<asrwt>0</asrwt>
<pdfrwt beam="1">  1       21 0.12489505E+00 0.12733077E+03</pdfrwt>
<pdfrwt beam="2">  1       21 0.50373713E-02 0.12733077E+03</pdfrwt>
<totfact> 0.13049266E+05</totfact>
</mgrwt>
</event>
<event>
 6    1  0.4244577E-002  0.1490958E+03  0.7546771E-02  0.1201589E+00
         21   -1    0    0  504  502  0.00000000000E+00  0.00000000000E+00  0.18904416723E+03  0.18904416723E+03  0.00000000000E+00 0.  1.
         21   -1    0    0  502  503 -0.00000000000E+00 -0.00000000000E+00 -0.16623086114E+03  0.16623086114E+03  0.00000000000E+00 0.  1.
         25    2    1    2    0    0 -0.76327768618E+02  0.28183522013E+02  0.14532619121E+03  0.20820481997E+03  0.12493720836E+03 0.  0.
          5    1    3    3  501    0  0.10956730437E+02 -0.42725993875E+01  0.10676885471E+03  0.10741463300E+03  0.10000000000E+00 0.  1.
         -5    1    3    3    0  501 -0.87284499055E+02  0.32456121400E+02  0.38557336503E+02  0.10079018697E+03  0.10000000000E+00 0.  1.
         21    1    1    2  504  503  0.76327768618E+02 -0.28183522013E+02 -0.12251288512E+03  0.14707020839E+03  0.00000000000E+00 0.  1.
<mgrwt>
<rscale>  1 0.14909576E+03</rscale>
<asrwt>0</asrwt>
<pdfrwt beam="1">  1       21 0.29083718E-01 0.14909576E+03</pdfrwt>
<pdfrwt beam="2">  1       21 0.25573979E-01 0.14909576E+03</pdfrwt>
<totfact> 0.16638102E+05</totfact>
</mgrwt>
</event>
<event>
 6    1  0.4244577E-002  0.1263883E+03  0.7546771E-02  0.1232915E+00
         21   -1    0    0  503  502  0.00000000000E+00  0.00000000000E+00  0.11989345429E+03  0.11989345429E+03  0.00000000000E+00 0.  1.
         21   -1    0    0  504  503 -0.00000000000E+00 -0.00000000000E+00 -0.59654645516E+02  0.59654645516E+02  0.00000000000E+00 0.  1.
         25    2    1    2    0    0 -0.96161948287E+00 -0.18669833598E+02  0.82154049412E+02  0.15074245504E+03  0.12499805005E+03 0.  0.
          5    1    3    3  501    0 -0.52187047111E+02 -0.14146814420E+02  0.29576824747E+00  0.54071413180E+02  0.10000000000E+00 0.  1.
         -5    1    3    3    0  501  0.51225427629E+02 -0.45230191781E+01  0.81858281165E+02  0.96671041856E+02  0.10000000000E+00 0.  1.
         21    1    1    2  504  502  0.96161948287E+00  0.18669833598E+02 -0.21915240636E+02  0.28805644772E+02  0.00000000000E+00 0. -1.
<mgrwt>
<rscale>  1 0.12638829E+03</rscale>
<asrwt>0</asrwt>
<pdfrwt beam="1">  1       21 0.18445147E-01 0.12638829E+03</pdfrwt>
<pdfrwt beam="2">  1       21 0.91776378E-02 0.12638829E+03</pdfrwt>
<totfact> 0.25102991E+06</totfact>
</mgrwt>
</event>
<event>
 6    1  0.4244577E-002  0.1678353E+03  0.7546771E-02  0.1180124E+00
         21   -1    0    0  503  502  0.00000000000E+00  0.00000000000E+00  0.41882457911E+02  0.41882457911E+02  0.00000000000E+00 0.  1.
         21   -1    0    0  504  503 -0.00000000000E+00 -0.00000000000E+00 -0.52968345828E+03  0.52968345828E+03  0.00000000000E+00 0. -1.
         25    2    1    2    0    0 -0.81528077545E+01 -0.11170198784E+03 -0.19060350284E+03  0.25396529450E+03  0.12499949261E+03 0.  0.
          5    1    3    3  501    0 -0.36016117267E+01 -0.10673140324E+03 -0.20881942264E+03  0.23454237425E+03  0.10000000000E+00 0. -1.
         -5    1    3    3    0  501 -0.45511960278E+01 -0.49705846002E+01  0.18215919806E+02  0.19422920248E+02  0.10000000000E+00 0. -1.
         21    1    1    2  504  502  0.81528077545E+01  0.11170198784E+03 -0.29719749753E+03  0.31760062170E+03  0.00000000000E+00 0. -1.
<mgrwt>
<rscale>  1 0.16783526E+03</rscale>
<asrwt>0</asrwt>
<pdfrwt beam="1">  1       21 0.64434554E-02 0.16783526E+03</pdfrwt>
<pdfrwt beam="2">  1       21 0.81489758E-01 0.16783526E+03</pdfrwt>
<totfact> 0.23184482E+05</totfact>
</mgrwt>
</event>
<event>
 6    1  0.4244577E-002  0.1259326E+03  0.7546771E-02  0.1233619E+00
         21   -1    0    0  503  502  0.00000000000E+00  0.00000000000E+00  0.72745124957E+03  0.72745124957E+03  0.00000000000E+00 0. -1.
         21   -1    0    0  504  503 -0.00000000000E+00 -0.00000000000E+00 -0.73253099884E+03  0.73253099884E+03  0.00000000000E+00 0.  1.
         25    2    1    2    0    0 -0.14391966222E+02  0.51952275225E+01  0.72191995001E+03  0.73282154963E+03  0.12499956121E+03 0.  0.
          5    1    3    3  501    0  0.29648803761E+01  0.52648968015E+02  0.57584358752E+03  0.57825301698E+03  0.10000000000E+00 0. -1.
         -5    1    3    3    0  501 -0.17356846598E+02 -0.47453740492E+02  0.14607636249E+03  0.15456853266E+03  0.10000000000E+00 0. -1.
         21    1    1    2  504  502  0.14391966222E+02 -0.51952275225E+01 -0.72699969928E+03  0.72716069877E+03  0.00000000000E+00 0.  1.
<mgrwt>
<rscale>  1 0.12593256E+03</rscale>
<asrwt>0</asrwt>
<pdfrwt beam="1">  1       21 0.11191558E+00 0.12593256E+03</pdfrwt>
<pdfrwt beam="2">  1       21 0.11269708E+00 0.12593256E+03</pdfrwt>
<totfact> 0.42272443E+02</totfact>
</mgrwt>
</event>
<event>
 6    1  0.4244577E-002  0.1268104E+03  0.7546771E-02  0.1232267E+00
         21   -1    0    0  504  502  0.00000000000E+00  0.00000000000E+00  0.79730403409E+01  0.79730403409E+01  0.00000000000E+00 0. -1.
         21   -1    0    0  502  503 -0.00000000000E+00 -0.00000000000E+00 -0.70090950139E+03  0.70090950139E+03  0.00000000000E+00 0. -1.
         25    2    1    2    0    0 -0.18135488455E+02  0.11306041707E+02 -0.62207148681E+03  0.63486519853E+03  0.12499665228E+03 0.  0.
          5    1    3    3  501    0  0.52034902346E+02  0.16278262360E+02 -0.32772792596E+03  0.33223217235E+03  0.10000000000E+00 0.  1.
         -5    1    3    3    0  501 -0.70170390802E+02 -0.49722206535E+01 -0.29434356085E+03  0.30263302618E+03  0.10000000000E+00 0.  1.
         21    1    1    2  504  503  0.18135488455E+02 -0.11306041707E+02 -0.70864974238E+02  0.74017343200E+02  0.00000000000E+00 0. -1.
<mgrwt>
<rscale>  1 0.12681043E+03</rscale>
<asrwt>0</asrwt>
<pdfrwt beam="1">  1       21 0.12266217E-02 0.12681043E+03</pdfrwt>
<pdfrwt beam="2">  1       21 0.10783222E+00 0.12681043E+03</pdfrwt>
<totfact> 0.18577761E+06</totfact>
</mgrwt>
</event>
<event>
 6    1  0.4244577E-002  0.1272726E+03  0.7546771E-02  0.1231560E+00
         21   -1    0    0  503  502  0.00000000000E+00  0.00000000000E+00  0.35758875987E+03  0.35758875987E+03  0.00000000000E+00 0. -1.
         21   -1    0    0  504  503 -0.00000000000E+00 -0.00000000000E+00 -0.39372106047E+02  0.39372106047E+02  0.00000000000E+00 0. -1.
         25    2    1    2    0    0 -0.76882082552E+01  0.22710586421E+02  0.34094383675E+03  0.36392445986E+03  0.12499373336E+03 0.  0.
          5    1    3    3  501    0  0.20271390349E+02 -0.43828267980E+02  0.19786603165E+03  0.20367332378E+03  0.10000000000E+00 0.  1.
         -5    1    3    3    0  501 -0.27959598604E+02  0.66538854400E+02  0.14307780511E+03  0.16025113608E+03  0.10000000000E+00 0.  1.
         21    1    1    2  504  502  0.76882082552E+01 -0.22710586421E+02 -0.22727182927E+02  0.33036406063E+02  0.00000000000E+00 0. -1.
<mgrwt>
<rscale>  1 0.12727259E+03</rscale>
<asrwt>0</asrwt>
<pdfrwt beam="1">  1       21 0.55013653E-01 0.12727259E+03</pdfrwt>
<pdfrwt beam="2">  1       21 0.60572473E-02 0.12727259E+03</pdfrwt>
<totfact> 0.60916725E+05</totfact>
</mgrwt>
</event>
<event>
 6    1  0.4244577E-002  0.1264827E+03  0.7546771E-02  0.1232770E+00
         21   -1    0    0  504  502  0.00000000000E+00  0.00000000000E+00  0.34969430578E+03  0.34969430578E+03  0.00000000000E+00 0.  1.
         21   -1    0    0  502  503 -0.00000000000E+00 -0.00000000000E+00 -0.24503737729E+02  0.24503737729E+02  0.00000000000E+00 0.  1.
         25    2    1    2    0    0 -0.13373316667E+02  0.13715536259E+02  0.33086685886E+03  0.35421850871E+03  0.12502364611E+03 0.  0.
          5    1    3    3  501    0  0.33401688880E+02  0.42809990791E+02  0.25346657852E+03  0.25921744647E+03  0.10000000000E+00 0. -1.
         -5    1    3    3    0  501 -0.46775005547E+02 -0.29094454533E+02  0.77400280349E+02  0.95001062239E+02  0.10000000000E+00 0. -1.
         21    1    1    2  504  503  0.13373316667E+02 -0.13715536259E+02 -0.56762908084E+01  0.19979534801E+02  0.00000000000E+00 0.  1.
<mgrwt>
<rscale>  1 0.12648270E+03</rscale>
<asrwt>0</asrwt>
<pdfrwt beam="1">  1       21 0.53799120E-01 0.12648270E+03</pdfrwt>
<pdfrwt beam="2">  1       21 0.37698061E-02 0.12648270E+03</pdfrwt>
<totfact> 0.14125443E+06</totfact>
</mgrwt>
</event>
<event>
 6    1  0.4244577E-002  0.1282705E+03  0.7546771E-02  0.1230045E+00
         21   -1    0    0  504  502  0.00000000000E+00  0.00000000000E+00  0.23627464592E+03  0.23627464592E+03  0.00000000000E+00 0. -1.
         21   -1    0    0  502  503 -0.00000000000E+00 -0.00000000000E+00 -0.26552737127E+02  0.26552737127E+02  0.00000000000E+00 0. -1.
         25    2    1    2    0    0  0.21102052112E+02 -0.19552518204E+02  0.18359937849E+03  0.22396886840E+03  0.12500289859E+03 0.  0.
          5    1    3    3  501    0 -0.15414505067E+02  0.42857202313E+02  0.11743553175E+03  0.12595817113E+03  0.10000000000E+00 0. -1.
         -5    1    3    3    0  501  0.36516557180E+02 -0.62409720517E+02  0.66163846743E+02  0.98010697268E+02  0.10000000000E+00 0. -1.
         21    1    1    2  504  503 -0.21102052112E+02  0.19552518204E+02  0.26122530300E+02  0.38858514649E+02  0.00000000000E+00 0. -1.
<mgrwt>
<rscale>  1 0.12827050E+03</rscale>
<asrwt>0</asrwt>
<pdfrwt beam="1">  1       21 0.36349944E-01 0.12827050E+03</pdfrwt>
<pdfrwt beam="2">  1       21 0.40850367E-02 0.12827050E+03</pdfrwt>
<totfact> 0.27380948E+06</totfact>
</mgrwt>
</event>
<event>
 6    1  0.4244577E-002  0.1922166E+03  0.7546771E-02  0.1156477E+00
         21   -1    0    0  503  502  0.00000000000E+00  0.00000000000E+00  0.54357942648E+03  0.54357942648E+03  0.00000000000E+00 0. -1.
         21   -1    0    0  504  503 -0.00000000000E+00 -0.00000000000E+00 -0.68075598155E+02  0.68075598155E+02  0.00000000000E+00 0. -1.
         25    2    1    2    0    0 -0.12609701148E+03 -0.73630986650E+02  0.40753479722E+03  0.45059054162E+03  0.12500098701E+03 0.  0.
          5    1    3    3  501    0 -0.16241368976E+02  0.20903315296E+02  0.17208975362E+03  0.17411382471E+03  0.10000000000E+00 0.  1.
         -5    1    3    3    0  501 -0.10985564250E+03 -0.94534301945E+02  0.23544504360E+03  0.27647671691E+03  0.10000000000E+00 0.  1.
         21    1    1    2  504  502  0.12609701148E+03  0.73630986650E+02  0.67969031104E+02  0.16106448301E+03  0.00000000000E+00 0. -1.
<mgrwt>
<rscale>  1 0.19221661E+03</rscale>
<asrwt>0</asrwt>
<pdfrwt beam="1">  1       21 0.83627601E-01 0.19221661E+03</pdfrwt>
<pdfrwt beam="2">  1       21 0.10473169E-01 0.19221661E+03</pdfrwt>
<totfact> 0.93010169E+04</totfact>
</mgrwt>
</event>
<event>
 6    1  0.4244577E-002  0.1320135E+03  0.7546771E-02  0.1224498E+00
         21   -1    0    0  504  502  0.00000000000E+00  0.00000000000E+00  0.20143776361E+03  0.20143776361E+03  0.00000000000E+00 0. -1.
         21   -1    0    0  502  503 -0.00000000000E+00 -0.00000000000E+00 -0.37980873343E+02  0.37980873343E+02  0.00000000000E+00 0. -1.
         25    2    1    2    0    0  0.42318306849E+02  0.33087380198E+01  0.13104349477E+03  0.18601063148E+03  0.12500308259E+03 0.  0.
          5    1    3    3  501    0  0.30496236726E+02 -0.36595648504E+02  0.13599627414E+03  0.14409808647E+03  0.10000000000E+00 0.  1.
         -5    1    3    3    0  501  0.11822070123E+02  0.39904386524E+02 -0.49527793623E+01  0.41912545010E+02  0.10000000000E+00 0.  1.
         21    1    1    2  504  503 -0.42318306849E+02 -0.33087380198E+01  0.32413395497E+02  0.53408005481E+02  0.00000000000E+00 0. -1.
<mgrwt>
<rscale>  1 0.13201347E+03</rscale>
<asrwt>0</asrwt>
<pdfrwt beam="1">  1       21 0.30990425E-01 0.13201347E+03</pdfrwt>
<pdfrwt beam="2">  1       21 0.58432114E-02 0.13201347E+03</pdfrwt>
<totfact> 0.20530526E+06</totfact>
</mgrwt>
</event>
<event>
 6    1  0.4244577E-002  0.1261790E+03  0.7546771E-02  0.1233238E+00
         21   -1    0    0  503  502  0.00000000000E+00  0.00000000000E+00  0.87939661000E+01  0.87939661000E+01  0.00000000000E+00 0.  1.
         21   -1    0    0  504  503 -0.00000000000E+00 -0.00000000000E+00 -0.62186932139E+03  0.62186932139E+03  0.00000000000E+00 0.  1.
         25    2    1    2    0    0  0.60715859109E+01 -0.16045652585E+02 -0.57806020741E+03  0.59167113824E+03  0.12500722103E+03 0.  0.
          5    1    3    3  501    0  0.30056723029E+02 -0.43901730068E+02 -0.52155156601E+03  0.52425834710E+03  0.10000000000E+00 0.  1.
         -5    1    3    3    0  501 -0.23985137118E+02  0.27856077483E+02 -0.56508641404E+02  0.67412791136E+02  0.10000000000E+00 0.  1.
         21    1    1    2  504  502 -0.60715859109E+01  0.16045652585E+02 -0.35015147883E+02  0.38992149257E+02  0.00000000000E+00 0.  1.
<mgrwt>
<rscale>  1 0.12617897E+03</rscale>
<asrwt>0</asrwt>
<pdfrwt beam="1">  1       21 0.13529178E-02 0.12617897E+03</pdfrwt>
<pdfrwt beam="2">  1       21 0.95672208E-01 0.12617897E+03</pdfrwt>
<totfact> 0.21060273E+06</totfact>
</mgrwt>
</event>
<event>
 6    1  0.4244577E-002  0.1263492E+03  0.7546771E-02  0.1232976E+00
         21   -1    0    0  504  502  0.00000000000E+00  0.00000000000E+00  0.11645808774E+03  0.11645808774E+03  0.00000000000E+00 0. -1.
         21   -1    0    0  502  503 -0.00000000000E+00 -0.00000000000E+00 -0.45916341429E+02  0.45916341429E+02  0.00000000000E+00 0. -1.
         25    2    1    2    0    0  0.16566704039E+02  0.79835687764E+01  0.68892141994E+02  0.14391056588E+03  0.12500372270E+03 0.  0.
          5    1    3    3  501    0  0.48620581466E+02  0.24360530891E+01 -0.17394116521E+02  0.51695846896E+02  0.10000000000E+00 0. -1.
         -5    1    3    3    0  501 -0.32053877427E+02  0.55475156874E+01  0.86286258515E+02  0.92214718982E+02  0.10000000000E+00 0. -1.
         21    1    1    2  504  503 -0.16566704039E+02 -0.79835687764E+01  0.16496043136E+01  0.18463863288E+02  0.00000000000E+00 0. -1.
<mgrwt>
<rscale>  1 0.12634921E+03</rscale>
<asrwt>0</asrwt>
<pdfrwt beam="1">  1       21 0.17916629E-01 0.12634921E+03</pdfrwt>
<pdfrwt beam="2">  1       21 0.70640526E-02 0.12634921E+03</pdfrwt>
<totfact> 0.41574177E+06</totfact>
</mgrwt>
</event>
<event>
 6    1  0.4244577E-002  0.1273489E+03  0.7546771E-02  0.1231443E+00
         21   -1    0    0  503  502  0.00000000000E+00  0.00000000000E+00  0.87616376956E+02  0.87616376956E+02  0.00000000000E+00 0. -1.
         21   -1    0    0  504  503 -0.00000000000E+00 -0.00000000000E+00 -0.87901741665E+02  0.87901741665E+02  0.00000000000E+00 0.  1.
         25    2    1    2    0    0 -0.31151812022E+01 -0.24105125941E+02  0.35549814978E+02  0.13221775426E+03  0.12500793473E+03 0.  0.
          5    1    3    3  501    0 -0.51962154096E+02 -0.36861336583E+02 -0.96737423019E+01  0.64439234036E+02  0.10000000000E+00 0. -1.
         -5    1    3    3    0  501  0.48846972894E+02  0.12756210643E+02  0.45223557279E+02  0.67778520225E+02  0.10000000000E+00 0. -1.
         21    1    1    2  504  502  0.31151812022E+01  0.24105125941E+02 -0.35835179687E+02  0.43300364360E+02  0.00000000000E+00 0.  1.
<mgrwt>
<rscale>  1 0.12734891E+03</rscale>
<asrwt>0</asrwt>
<pdfrwt beam="1">  1       21 0.13479443E-01 0.12734891E+03</pdfrwt>
<pdfrwt beam="2">  1       21 0.13523345E-01 0.12734891E+03</pdfrwt>
<totfact> 0.22370843E+06</totfact>
</mgrwt>
</event>
<event>
 6    1  0.4244577E-002  0.1525530E+03  0.7546771E-02  0.1197371E+00
         21   -1    0    0  504  502  0.00000000000E+00  0.00000000000E+00  0.23671502982E+03  0.23671502982E+03  0.00000000000E+00 0. -1.
         21   -1    0    0  502  503 -0.00000000000E+00 -0.00000000000E+00 -0.18775857194E+03  0.18775857194E+03  0.00000000000E+00 0.  1.
         25    2    1    2    0    0  0.82944523298E+02 -0.27728325808E+02  0.19903414619E+03  0.25077280577E+03  0.12499501897E+03 0.  0.
          5    1    3    3  501    0  0.39203365842E+02 -0.33883259549E+02  0.19998646337E+03  0.20659035481E+03  0.10000000000E+00 0. -1.
         -5    1    3    3    0  501  0.43741157455E+02  0.61549337420E+01 -0.95231717485E+00  0.44182450961E+02  0.10000000000E+00 0. -1.
         21    1    1    2  504  503 -0.82944523298E+02  0.27728325808E+02 -0.15007768831E+03  0.17370079599E+03  0.00000000000E+00 0.  1.
<mgrwt>
<rscale>  1 0.15255297E+03</rscale>
<asrwt>0</asrwt>
<pdfrwt beam="1">  1       21 0.36417697E-01 0.15255297E+03</pdfrwt>
<pdfrwt beam="2">  1       21 0.28885934E-01 0.15255297E+03</pdfrwt>
<totfact> 0.84788911E+04</totfact>
</mgrwt>
</event>
<event>
 6    1  0.4244577E-002  0.1345547E+03  0.7546771E-02  0.1220850E+00
         21   -1    0    0  504  502  0.00000000000E+00  0.00000000000E+00  0.87799586968E+02  0.87799586968E+02  0.00000000000E+00 0. -1.
         21   -1    0    0  502  503 -0.00000000000E+00 -0.00000000000E+00 -0.14109770571E+03  0.14109770571E+03  0.00000000000E+00 0. -1.
         25    2    1    2    0    0  0.48222139974E+02 -0.12568999806E+02  0.24245385344E+02  0.13672164749E+03  0.12498646183E+03 0.  0.
          5    1    3    3  501    0  0.67765434034E+02  0.30777990732E+02 -0.13959833293E+02  0.75725330695E+02  0.10000000000E+00 0. -1.
         -5    1    3    3    0  501 -0.19543294060E+02 -0.43346990538E+02  0.38205218636E+02  0.60996316794E+02  0.10000000000E+00 0. -1.
         21    1    1    2  504  503 -0.48222139974E+02  0.12568999806E+02 -0.77543504083E+02  0.92175645185E+02  0.00000000000E+00 0. -1.
<mgrwt>
<rscale>  1 0.13455471E+03</rscale>
<asrwt>0</asrwt>
<pdfrwt beam="1">  1       21 0.13507629E-01 0.13455471E+03</pdfrwt>
<pdfrwt beam="2">  1       21 0.21707339E-01 0.13455471E+03</pdfrwt>
<totfact> 0.94086358E+05</totfact>
</mgrwt>
</event>
<event>
 6    1  0.4244577E-002  0.1272427E+03  0.7546771E-02  0.1231605E+00
         21   -1    0    0  503  502  0.00000000000E+00  0.00000000000E+00  0.29476698473E+03  0.29476698473E+03  0.00000000000E+00 0. -1.
         21   -1    0    0  504  503 -0.00000000000E+00 -0.00000000000E+00 -0.19475763585E+02  0.19475763585E+02  0.00000000000E+00 0. -1.
         25    2    1    2    0    0 -0.42147037065E+01 -0.23602606784E+02  0.22380904753E+03  0.25745136715E+03  0.12496347433E+03 0.  0.
          5    1    3    3  501    0  0.55918455079E+02 -0.34156879141E+02  0.10268318498E+03  0.12180891793E+03  0.10000000000E+00 0. -1.
         -5    1    3    3    0  501 -0.60133158785E+02  0.10554272357E+02  0.12112586255E+03  0.13564244922E+03  0.10000000000E+00 0. -1.
         21    1    1    2  504  502  0.42147037065E+01  0.23602606784E+02  0.51482173609E+02  0.56791381158E+02  0.00000000000E+00 0. -1.
<mgrwt>
<rscale>  1 0.12724275E+03</rscale>
<asrwt>0</asrwt>
<pdfrwt beam="1">  1       21 0.45348764E-01 0.12724275E+03</pdfrwt>
<pdfrwt beam="2">  1       21 0.29962715E-02 0.12724275E+03</pdfrwt>
<totfact> 0.29319509E+06</totfact>
</mgrwt>
</event>
<event>
 6    1  0.4244577E-002  0.1263588E+03  0.7546771E-02  0.1232961E+00
         21   -1    0    0  504  502  0.00000000000E+00  0.00000000000E+00  0.12440222124E+03  0.12440222124E+03  0.00000000000E+00 0. -1.
         21   -1    0    0  502  503 -0.00000000000E+00 -0.00000000000E+00 -0.43243217392E+02  0.43243217392E+02  0.00000000000E+00 0. -1.
         25    2    1    2    0    0 -0.13513043249E+02 -0.12629627183E+02  0.61084757772E+02  0.14034919024E+03  0.12499775098E+03 0.  0.
          5    1    3    3  501    0 -0.64895049712E+02 -0.26559931648E+02  0.19457277857E+02  0.72769451749E+02  0.10000000000E+00 0. -1.
         -5    1    3    3    0  501  0.51382006464E+02  0.13930304465E+02  0.41627479915E+02  0.67579738493E+02  0.10000000000E+00 0. -1.
         21    1    1    2  504  503  0.13513043249E+02  0.12629627183E+02  0.20074246078E+02  0.27296248391E+02  0.00000000000E+00 0. -1.
<mgrwt>
<rscale>  1 0.12635880E+03</rscale>
<asrwt>0</asrwt>
<pdfrwt beam="1">  1       21 0.19138803E-01 0.12635880E+03</pdfrwt>
<pdfrwt beam="2">  1       21 0.66528027E-02 0.12635880E+03</pdfrwt>
<totfact> 0.40807713E+06</totfact>
</mgrwt>
</event>
<event>
 6    1  0.4244577E-002  0.1268777E+03  0.7546771E-02  0.1232164E+00
         21   -1    0    0  503  502  0.00000000000E+00  0.00000000000E+00  0.14192565849E+03  0.14192565849E+03  0.00000000000E+00 0.  1.
         21   -1    0    0  504  503 -0.00000000000E+00 -0.00000000000E+00 -0.77106752516E+02  0.77106752516E+02  0.00000000000E+00 0. -1.
         25    2    1    2    0    0 -0.13221492493E+02 -0.17281912595E+02  0.11061747491E+03  0.16832756623E+03  0.12499788571E+03 0.  0.
          5    1    3    3  501    0  0.47174514092E+02  0.19661712077E+02  0.70105269048E+02  0.86756996547E+02  0.10000000000E+00 0.  1.
         -5    1    3    3    0  501 -0.60396006585E+02 -0.36943624671E+02  0.40512205857E+02  0.81570569685E+02  0.10000000000E+00 0.  1.
         21    1    1    2  504  502  0.13221492493E+02  0.17281912595E+02 -0.45798568935E+02  0.50704844770E+02  0.00000000000E+00 0. -1.
<mgrwt>
<rscale>  1 0.12687767E+03</rscale>
<asrwt>0</asrwt>
<pdfrwt beam="1">  1       21 0.21834717E-01 0.12687767E+03</pdfrwt>
<pdfrwt beam="2">  1       21 0.11862577E-01 0.12687767E+03</pdfrwt>
<totfact> 0.11718701E+06</totfact>
</mgrwt>
</event>
<event>
 6    1  0.4244577E-002  0.1656106E+03  0.7546771E-02  0.1182504E+00
         21   -1    0    0  503  502  0.00000000000E+00  0.00000000000E+00  0.25380746609E+03  0.25380746609E+03  0.00000000000E+00 0. -1.
         21   -1    0    0  504  503 -0.00000000000E+00 -0.00000000000E+00 -0.77118481906E+02  0.77118481906E+02  0.00000000000E+00 0. -1.
         25    2    1    2    0    0 -0.55139287555E+02 -0.93606317930E+02  0.13810563563E+03  0.21563866086E+03  0.12499752668E+03 0.  0.
          5    1    3    3  501    0  0.30803603852E+02 -0.63849208577E+02  0.83587511590E+02  0.10960139388E+03  0.10000000000E+00 0. -1.
         -5    1    3    3    0  501 -0.85942891407E+02 -0.29757109353E+02  0.54518124043E+02  0.10603726698E+03  0.10000000000E+00 0. -1.
         21    1    1    2  504  502  0.55139287555E+02  0.93606317930E+02  0.38583348547E+02  0.11528728713E+03  0.00000000000E+00 0. -1.
<mgrwt>
<rscale>  1 0.16561058E+03</rscale>
<asrwt>0</asrwt>
<pdfrwt beam="1">  1       21 0.39047302E-01 0.16561058E+03</pdfrwt>
<pdfrwt beam="2">  1       21 0.11864382E-01 0.16561058E+03</pdfrwt>
<totfact> 0.38081178E+05</totfact>
</mgrwt>
</event>
<event>
 6    1  0.4244577E-002  0.1308354E+03  0.7546771E-02  0.1226221E+00
         21   -1    0    0  504  502  0.00000000000E+00  0.00000000000E+00  0.43983732757E+03  0.43983732757E+03  0.00000000000E+00 0. -1.
         21   -1    0    0  502  503 -0.00000000000E+00 -0.00000000000E+00 -0.48219379586E+03  0.48219379586E+03  0.00000000000E+00 0. -1.
         25    2    1    2    0    0  0.33516779991E+02  0.19080790738E+02  0.42930310004E+03  0.44879735508E+03  0.12502185051E+03 0.  0.
          5    1    3    3  501    0  0.44974645375E+02  0.45219122973E+01  0.44105133367E+02  0.63154090974E+02  0.10000000000E+00 0. -1.
         -5    1    3    3    0  501 -0.11457865385E+02  0.14558878441E+02  0.38519796667E+03  0.38564326410E+03  0.10000000000E+00 0. -1.
         21    1    1    2  504  503 -0.33516779991E+02 -0.19080790738E+02 -0.47165956833E+03  0.47323376836E+03  0.00000000000E+00 0. -1.
<mgrwt>
<rscale>  1 0.13083545E+03</rscale>
<asrwt>0</asrwt>
<pdfrwt beam="1">  1       21 0.67667281E-01 0.13083545E+03</pdfrwt>
<pdfrwt beam="2">  1       21 0.74183661E-01 0.13083545E+03</pdfrwt>
<totfact> 0.34484817E+03</totfact>
</mgrwt>
</event>
<event>
 6    1  0.4244577E-002  0.1748662E+03  0.7546771E-02  0.1172866E+00
         21   -1    0    0  504  502  0.00000000000E+00  0.00000000000E+00  0.36618436253E+03  0.36618436253E+03  0.00000000000E+00 0.  1.
         21   -1    0    0  502  503 -0.00000000000E+00 -0.00000000000E+00 -0.23954236951E+03  0.23954236951E+03  0.00000000000E+00 0.  1.
         25    2    1    2    0    0  0.12222546550E+03 -0.37713618964E+01  0.32710395029E+03  0.37091130685E+03  0.12499966267E+03 0.  0.
          5    1    3    3  501    0  0.11716973298E+03 -0.50577634709E+02  0.24601644858E+03  0.27714787827E+03  0.10000000000E+00 0. -1.
         -5    1    3    3    0  501  0.50557325277E+01  0.46806272812E+02  0.81087501714E+02  0.93763428586E+02  0.10000000000E+00 0. -1.
         21    1    1    2  504  503 -0.12222546550E+03  0.37713618964E+01 -0.20046195727E+03  0.23481542518E+03  0.00000000000E+00 0.  1.
<mgrwt>
<rscale>  1 0.17486624E+03</rscale>
<asrwt>0</asrwt>
<pdfrwt beam="1">  1       21 0.56336056E-01 0.17486624E+03</pdfrwt>
<pdfrwt beam="2">  1       21 0.36852672E-01 0.17486624E+03</pdfrwt>
<totfact> 0.21275537E+04</totfact>
</mgrwt>
</event>
<event>
 6    1  0.4244577E-002  0.1262993E+03  0.7546771E-02  0.1233053E+00
         21   -1    0    0  503  502  0.00000000000E+00  0.00000000000E+00  0.40706381612E+02  0.40706381612E+02  0.00000000000E+00 0.  1.
         21   -1    0    0  504  503 -0.00000000000E+00 -0.00000000000E+00 -0.18461790941E+03  0.18461790941E+03  0.00000000000E+00 0.  1.
         25    2    1    2    0    0 -0.12347462392E+02  0.13283542999E+02 -0.60643358162E+02  0.14010398583E+03  0.12499039009E+03 0.  0.
          5    1    3    3  501    0 -0.34601184304E+02 -0.39356677406E+02  0.54978427649E+01  0.52691804740E+02  0.10000000000E+00 0.  1.
         -5    1    3    3    0  501  0.22253721912E+02  0.52640220405E+02 -0.66141200927E+02  0.87412181092E+02  0.10000000000E+00 0.  1.
         21    1    1    2  504  502  0.12347462392E+02 -0.13283542999E+02 -0.83268169632E+02  0.85220305186E+02  0.00000000000E+00 0.  1.
<mgrwt>
<rscale>  1 0.12629929E+03</rscale>
<asrwt>0</asrwt>
<pdfrwt beam="1">  1       21 0.62625202E-02 0.12629929E+03</pdfrwt>
<pdfrwt beam="2">  1       21 0.28402756E-01 0.12629929E+03</pdfrwt>
<totfact> 0.21564962E+06</totfact>
</mgrwt>
</event>
<event>
 6    1  0.4244577E-002  0.1262987E+03  0.7546771E-02  0.1233053E+00
         21   -1    0    0  503  502  0.00000000000E+00  0.00000000000E+00  0.86159350372E+02  0.86159350372E+02  0.00000000000E+00 0. -1.
         21   -1    0    0  504  503 -0.00000000000E+00 -0.00000000000E+00 -0.99251536686E+02  0.99251536686E+02  0.00000000000E+00 0. -1.
         25    2    1    2    0    0  0.23733026490E+01  0.17929781805E+02  0.37446771003E+02  0.13173318361E+03  0.12499704542E+03 0.  0.
          5    1    3    3  501    0  0.46064607120E+02 -0.25896781079E+02 -0.99623684636E+01  0.53775924769E+02  0.10000000000E+00 0. -1.
         -5    1    3    3    0  501 -0.43691304471E+02  0.43826562884E+02  0.47409139467E+02  0.77957258839E+02  0.10000000000E+00 0. -1.
         21    1    1    2  504  502 -0.23733026490E+01 -0.17929781805E+02 -0.50538957317E+02  0.53677703450E+02  0.00000000000E+00 0. -1.
<mgrwt>
<rscale>  1 0.12629874E+03</rscale>
<asrwt>0</asrwt>
<pdfrwt beam="1">  1       21 0.13255285E-01 0.12629874E+03</pdfrwt>
<pdfrwt beam="2">  1       21 0.15269467E-01 0.12629874E+03</pdfrwt>
<totfact> 0.18529720E+06</totfact>
</mgrwt>
</event>
<event>
 6    1  0.4244577E-002  0.1408558E+03  0.7546771E-02  0.1212182E+00
         21   -1    0    0  503  502  0.00000000000E+00  0.00000000000E+00  0.50858085543E+03  0.50858085543E+03  0.00000000000E+00 0. -1.
         21   -1    0    0  504  503 -0.00000000000E+00 -0.00000000000E+00 -0.12741211937E+03  0.12741211937E+03  0.00000000000E+00 0. -1.
         25    2    1    2    0    0  0.11315126950E+02 -0.63936669237E+02  0.48968166176E+03  0.50953750906E+03  0.12499765400E+03 0.  0.
          5    1    3    3  501    0 -0.38645458993E+02 -0.80675421370E+01  0.50976558056E+02  0.64476167754E+02  0.10000000000E+00 0. -1.
         -5    1    3    3    0  501  0.49960585943E+02 -0.55869127100E+02  0.43870510370E+03  0.44506134131E+03  0.10000000000E+00 0. -1.
         21    1    1    2  504  502 -0.11315126950E+02  0.63936669237E+02 -0.10851292570E+03  0.12645546574E+03  0.00000000000E+00 0. -1.
<mgrwt>
<rscale>  1 0.14085575E+03</rscale>
<asrwt>0</asrwt>
<pdfrwt beam="1">  1       21 0.78243208E-01 0.14085575E+03</pdfrwt>
<pdfrwt beam="2">  1       21 0.19601865E-01 0.14085575E+03</pdfrwt>
<totfact> 0.35666076E+04</totfact>
</mgrwt>
</event>
<event>
 6    1  0.4244577E-002  0.1306841E+03  0.7546771E-02  0.1226444E+00
         21   -1    0    0  503  502  0.00000000000E+00  0.00000000000E+00  0.11688292013E+03  0.11688292013E+03  0.00000000000E+00 0. -1.
         21   -1    0    0  504  503 -0.00000000000E+00 -0.00000000000E+00 -0.62384181609E+02  0.62384181609E+02  0.00000000000E+00 0. -1.
         25    2    1    2    0    0  0.36487440257E+02 -0.11144392304E+02  0.53187923732E+02  0.14109317069E+03  0.12499118692E+03 0.  0.
          5    1    3    3  501    0  0.40159648546E+02  0.39588394653E+02  0.67784393847E+02  0.88174669898E+02  0.10000000000E+00 0.  1.
         -5    1    3    3    0  501 -0.36722082882E+01 -0.50732786957E+02 -0.14596470115E+02  0.52918500790E+02  0.10000000000E+00 0.  1.
         21    1    1    2  504  502 -0.36487440257E+02  0.11144392304E+02  0.13108147881E+01  0.38173931049E+02  0.00000000000E+00 0. -1.
<mgrwt>
<rscale>  1 0.13068408E+03</rscale>
<asrwt>0</asrwt>
<pdfrwt beam="1">  1       21 0.17981988E-01 0.13068408E+03</pdfrwt>
<pdfrwt beam="2">  1       21 0.95975664E-02 0.13068408E+03</pdfrwt>
<totfact> 0.24356151E+06</totfact>
</mgrwt>
</event>
<event>
 6    1  0.4244577E-002  0.1275438E+03  0.7546771E-02  0.1231147E+00
         21   -1    0    0  504  502  0.00000000000E+00  0.00000000000E+00  0.38752731973E+03  0.38752731973E+03  0.00000000000E+00 0. -1.
         21   -1    0    0  502  503 -0.00000000000E+00 -0.00000000000E+00 -0.23378079589E+02  0.23378079589E+02  0.00000000000E+00 0. -1.
         25    2    1    2    0    0  0.24433494604E+02  0.68059262410E+01  0.36383164882E+03  0.38553973050E+03  0.12499639524E+03 0.  0.
          5    1    3    3  501    0  0.64248538484E+02 -0.10398627474E+02  0.10829324103E+03  0.12634651639E+03  0.10000000000E+00 0. -1.
         -5    1    3    3    0  501 -0.39815043879E+02  0.17204553715E+02  0.25553840779E+03  0.25919321411E+03  0.10000000000E+00 0. -1.
         21    1    1    2  504  503 -0.24433494604E+02 -0.68059262410E+01  0.31759132782E+00  0.25365668823E+02  0.00000000000E+00 0. -1.
<mgrwt>
<rscale>  1 0.12754378E+03</rscale>
<asrwt>0</asrwt>
<pdfrwt beam="1">  1       21 0.59619583E-01 0.12754378E+03</pdfrwt>
<pdfrwt beam="2">  1       21 0.35966279E-02 0.12754378E+03</pdfrwt>
<totfact> 0.12303651E+06</totfact>
</mgrwt>
</event>
<event>
 6    1  0.4244577E-002  0.1264956E+03  0.7546771E-02  0.1232750E+00
         21   -1    0    0  504  502  0.00000000000E+00  0.00000000000E+00  0.24065147290E+03  0.24065147290E+03  0.00000000000E+00 0.  1.
         21   -1    0    0  502  503 -0.00000000000E+00 -0.00000000000E+00 -0.24542658852E+02  0.24542658852E+02  0.00000000000E+00 0.  1.
         25    2    1    2    0    0 -0.12045391063E+02  0.15426956543E+02  0.20913804116E+03  0.24441736327E+03  0.12497217600E+03 0.  0.
          5    1    3    3  501    0  0.27389411514E+02 -0.38507205103E+02  0.14217866813E+03  0.14982579343E+03  0.10000000000E+00 0. -1.
         -5    1    3    3    0  501 -0.39434802577E+02  0.53934161646E+02  0.66959373033E+02  0.94591569834E+02  0.10000000000E+00 0. -1.
         21    1    1    2  504  503  0.12045391063E+02 -0.15426956543E+02  0.69707728919E+01  0.20776768487E+02  0.00000000000E+00 0.  1.
<mgrwt>
<rscale>  1 0.12649556E+03</rscale>
<asrwt>0</asrwt>
<pdfrwt beam="1">  1       21 0.37023302E-01 0.12649556E+03</pdfrwt>
<pdfrwt beam="2">  1       21 0.37757938E-02 0.12649556E+03</pdfrwt>
<totfact> 0.30075517E+06</totfact>
</mgrwt>
</event>
<event>
 6    1  0.4244577E-002  0.1315088E+03  0.7546771E-02  0.1225234E+00
         21   -1    0    0  503  502  0.00000000000E+00  0.00000000000E+00  0.11828680994E+03  0.11828680994E+03  0.00000000000E+00 0.  1.
         21   -1    0    0  504  503 -0.00000000000E+00 -0.00000000000E+00 -0.26977221295E+03  0.26977221295E+03  0.00000000000E+00 0. -1.
         25    2    1    2    0    0  0.30950615914E+02 -0.26684209566E+02  0.79377104597E+02  0.15360756718E+03  0.12499828917E+03 0.  0.
          5    1    3    3  501    0  0.29480564436E+02 -0.65247789588E+02  0.74550599360E+01  0.71985871144E+02  0.10000000000E+00 0. -1.
         -5    1    3    3    0  501  0.14700514776E+01  0.38563580023E+02  0.71922044661E+02  0.81621696036E+02  0.10000000000E+00 0. -1.
         21    1    1    2  504  502 -0.30950615914E+02  0.26684209566E+02 -0.23086250761E+03  0.23445145571E+03  0.00000000000E+00 0. -1.
<mgrwt>
<rscale>  1 0.13150878E+03</rscale>
<asrwt>0</asrwt>
<pdfrwt beam="1">  1       21 0.18197971E-01 0.13150878E+03</pdfrwt>
<pdfrwt beam="2">  1       21 0.41503417E-01 0.13150878E+03</pdfrwt>
<totfact> 0.15677987E+05</totfact>
</mgrwt>
</event>
<event>
 6    1  0.4244577E-002  0.1317624E+03  0.7546771E-02  0.1224864E+00
         21   -1    0    0  503  502  0.00000000000E+00  0.00000000000E+00  0.56217403269E+02  0.56217403269E+02  0.00000000000E+00 0. -1.
         21   -1    0    0  504  503 -0.00000000000E+00 -0.00000000000E+00 -0.49159781236E+03  0.49159781236E+03  0.00000000000E+00 0.  1.
         25    2    1    2    0    0 -0.30543273116E+02 -0.28353134541E+02 -0.23511999584E+02  0.13384374497E+03  0.12499816867E+03 0.  0.
          5    1    3    3  501    0  0.55709949226E+01 -0.69063480631E+02 -0.35892866412E+02  0.78032738005E+02  0.10000000000E+00 0.  1.
         -5    1    3    3    0  501 -0.36114268039E+02  0.40710346091E+02  0.12380866829E+02  0.55811006963E+02  0.10000000000E+00 0.  1.
         21    1    1    2  504  502  0.30543273116E+02  0.28353134541E+02 -0.41186840951E+03  0.41397147066E+03  0.00000000000E+00 0.  1.
<mgrwt>
<rscale>  1 0.13176241E+03</rscale>
<asrwt>0</asrwt>
<pdfrwt beam="1">  1       21 0.86488312E-02 0.13176241E+03</pdfrwt>
<pdfrwt beam="2">  1       21 0.75630433E-01 0.13176241E+03</pdfrwt>
<totfact> 0.16669230E+05</totfact>
</mgrwt>
</event>
<event>
 6    1  0.4244577E-002  0.1305958E+03  0.7546771E-02  0.1226574E+00
         21   -1    0    0  503  502  0.00000000000E+00  0.00000000000E+00  0.46509927548E+01  0.46509927548E+01  0.00000000000E+00 0. -1.
         21   -1    0    0  504  503 -0.00000000000E+00 -0.00000000000E+00 -0.16064679585E+04  0.16064679585E+04  0.00000000000E+00 0. -1.
         25    2    1    2    0    0  0.36417715474E+02  0.10211732376E+02 -0.10662285395E+04  0.10741967113E+04  0.12499898619E+03 0.  0.
          5    1    3    3  501    0  0.11249549038E+02  0.57769544438E+02 -0.82232977109E+03  0.82443322048E+03  0.10000000000E+00 0.  1.
         -5    1    3    3    0  501  0.25168166436E+02 -0.47557812062E+02 -0.24389876842E+03  0.24976349078E+03  0.10000000000E+00 0.  1.
         21    1    1    2  504  502 -0.36417715474E+02 -0.10211732376E+02 -0.53558842625E+03  0.53692224000E+03  0.00000000000E+00 0. -1.
<mgrwt>
<rscale>  1 0.13059585E+03</rscale>
<asrwt>0</asrwt>
<pdfrwt beam="1">  1       21 0.71553683E-03 0.13059585E+03</pdfrwt>
<pdfrwt beam="2">  1       21 0.24714910E+00 0.13059585E+03</pdfrwt>
<totfact> 0.45555513E+05</totfact>
</mgrwt>
</event>
<event>
 6    1  0.4244577E-002  0.1292336E+03  0.7546771E-02  0.1228597E+00
         21   -1    0    0  503  502  0.00000000000E+00  0.00000000000E+00  0.39351112349E+02  0.39351112349E+02  0.00000000000E+00 0.  1.
         21   -1    0    0  504  503 -0.00000000000E+00 -0.00000000000E+00 -0.21229758903E+03  0.21229758903E+03  0.00000000000E+00 0.  1.
         25    2    1    2    0    0  0.31968020265E+02  0.73070032193E+01 -0.77417184739E+02  0.15064774973E+03  0.12500390950E+03 0.  0.
          5    1    3    3  501    0 -0.21820458665E+02 -0.47373983791E+02 -0.25758755713E+02  0.58171730699E+02  0.10000000000E+00 0.  1.
         -5    1    3    3    0  501  0.53788478929E+02  0.54680987011E+02 -0.51658429026E+02  0.92476019029E+02  0.10000000000E+00 0.  1.
         21    1    1    2  504  502 -0.31968020265E+02 -0.73070032193E+01 -0.95529291939E+02  0.10100095165E+03  0.00000000000E+00 0.  1.
<mgrwt>
<rscale>  1 0.12923360E+03</rscale>
<asrwt>0</asrwt>
<pdfrwt beam="1">  1       21 0.60540174E-02 0.12923360E+03</pdfrwt>
<pdfrwt beam="2">  1       21 0.32661167E-01 0.12923360E+03</pdfrwt>
<totfact> 0.17448999E+06</totfact>
</mgrwt>
</event>
<event>
 6    1  0.4244577E-002  0.1266825E+03  0.7546771E-02  0.1232463E+00
         21   -1    0    0  503  502  0.00000000000E+00  0.00000000000E+00  0.90232182662E+02  0.90232182662E+02  0.00000000000E+00 0. -1.
         21   -1    0    0  504  503 -0.00000000000E+00 -0.00000000000E+00 -0.22432172493E+03  0.22432172493E+03  0.00000000000E+00 0. -1.
         25    2    1    2    0    0  0.20031654635E+02 -0.45773740631E+01  0.44888420153E+02  0.13440027712E+03  0.12500497864E+03 0.  0.
          5    1    3    3  501    0  0.67583924779E+02 -0.41983321466E+00 -0.18280109564E+01  0.67610019764E+02  0.10000000000E+00 0. -1.
         -5    1    3    3    0  501 -0.47552270144E+02 -0.41575408484E+01  0.46716431110E+02  0.66790257354E+02  0.10000000000E+00 0. -1.
         21    1    1    2  504  502 -0.20031654635E+02  0.45773740631E+01 -0.17897796243E+03  0.18015363048E+03  0.00000000000E+00 0. -1.
<mgrwt>
<rscale>  1 0.12668253E+03</rscale>
<asrwt>0</asrwt>
<pdfrwt beam="1">  1       21 0.13881874E-01 0.12668253E+03</pdfrwt>
<pdfrwt beam="2">  1       21 0.34511034E-01 0.12668253E+03</pdfrwt>
<totfact> 0.36960230E+05</totfact>
</mgrwt>
</event>
<event>
 6    1  0.4244577E-002  0.1834533E+03  0.7546771E-02  0.1164502E+00
         21   -1    0    0  503  502  0.00000000000E+00  0.00000000000E+00  0.18147440418E+03  0.18147440418E+03  0.00000000000E+00 0.  1.
         21   -1    0    0  504  503 -0.00000000000E+00 -0.00000000000E+00 -0.15344795366E+03  0.15344795366E+03  0.00000000000E+00 0.  1.
         25    2    1    2    0    0  0.11844830137E+03 -0.63247576685E+02  0.66675320454E+02  0.19519408153E+03  0.12499950020E+03 0.  0.
          5    1    3    3  501    0  0.68101687796E+02  0.20265087506E+02  0.67026668873E+02  0.97678544177E+02  0.10000000000E+00 0. -1.
         -5    1    3    3    0  501  0.50346613573E+02 -0.83512664191E+02 -0.35134841877E+00  0.97515537348E+02  0.10000000000E+00 0. -1.
         21    1    1    2  504  502 -0.11844830137E+03  0.63247576685E+02 -0.38648869937E+02  0.13972827631E+03  0.00000000000E+00 0.  1.
<mgrwt>
<rscale>  1 0.18345335E+03</rscale>
<asrwt>0</asrwt>
<pdfrwt beam="1">  1       21 0.27919139E-01 0.18345335E+03</pdfrwt>
<pdfrwt beam="2">  1       21 0.23607378E-01 0.18345335E+03</pdfrwt>
<totfact> 0.20749505E+05</totfact>
</mgrwt>
</event>
<event>
 6    1  0.4244577E-002  0.1395614E+03  0.7546771E-02  0.1213920E+00
         21   -1    0    0  503  502  0.00000000000E+00  0.00000000000E+00  0.25230312538E+03  0.25230312538E+03  0.00000000000E+00 0.  1.
         21   -1    0    0  504  503 -0.00000000000E+00 -0.00000000000E+00 -0.10287361758E+03  0.10287361758E+03  0.00000000000E+00 0.  1.
         25    2    1    2    0    0 -0.55620084037E+02  0.27556047718E+02  0.22041288807E+03  0.26088162225E+03  0.12499780034E+03 0.  0.
          5    1    3    3  501    0 -0.50544887887E+02  0.75507066341E+02  0.13348092372E+03  0.16147219499E+03  0.10000000000E+00 0.  1.
         -5    1    3    3    0  501 -0.50751961505E+01 -0.47951018622E+02  0.86931964347E+02  0.99409427260E+02  0.10000000000E+00 0.  1.
         21    1    1    2  504  502  0.55620084037E+02 -0.27556047718E+02 -0.70983380269E+02  0.94295120704E+02  0.00000000000E+00 0.  1.
<mgrwt>
<rscale>  1 0.13956138E+03</rscale>
<asrwt>0</asrwt>
<pdfrwt beam="1">  1       21 0.38815865E-01 0.13956138E+03</pdfrwt>
<pdfrwt beam="2">  1       21 0.15826710E-01 0.13956138E+03</pdfrwt>
<totfact> 0.23074156E+05</totfact>
</mgrwt>
</event>
<event>
 6    1  0.4244577E-002  0.1261082E+03  0.7546771E-02  0.1233348E+00
         21   -1    0    0  503  502  0.00000000000E+00  0.00000000000E+00  0.19934392003E+03  0.19934392003E+03  0.00000000000E+00 0. -1.
         21   -1    0    0  504  503 -0.00000000000E+00 -0.00000000000E+00 -0.20048875286E+03  0.20048875286E+03  0.00000000000E+00 0. -1.
         25    2    1    2    0    0  0.22598811430E+00 -0.16683652076E+02  0.17897518099E+03  0.21894150479E+03  0.12499948716E+03 0.  0.
          5    1    3    3  501    0  0.39555774960E+02 -0.54268882024E+02  0.12720835148E+03  0.14384625673E+03  0.10000000000E+00 0. -1.
         -5    1    3    3    0  501 -0.39329786845E+02  0.37585229948E+02  0.51766829516E+02  0.75095248063E+02  0.10000000000E+00 0. -1.
         21    1    1    2  504  502 -0.22598811430E+00  0.16683652076E+02 -0.18012001382E+03  0.18089116810E+03  0.00000000000E+00 0. -1.
<mgrwt>
<rscale>  1 0.12610816E+03</rscale>
<asrwt>0</asrwt>
<pdfrwt beam="1">  1       21 0.30668295E-01 0.12610816E+03</pdfrwt>
<pdfrwt beam="2">  1       21 0.30844424E-01 0.12610816E+03</pdfrwt>
<totfact> 0.10565755E+05</totfact>
</mgrwt>
</event>
<event>
 6    1  0.4244577E-002  0.1321586E+03  0.7546771E-02  0.1224287E+00
         21   -1    0    0  504  502  0.00000000000E+00  0.00000000000E+00  0.43805206160E+02  0.43805206160E+02  0.00000000000E+00 0.  1.
         21   -1    0    0  502  503 -0.00000000000E+00 -0.00000000000E+00 -0.91108125717E+03  0.91108125717E+03  0.00000000000E+00 0.  1.
         25    2    1    2    0    0 -0.36217584659E+02 -0.23004234020E+02 -0.57752013353E+02  0.14422619184E+03  0.12499996458E+03 0.  0.
          5    1    3    3  501    0 -0.69889730267E+02 -0.42612393365E+02 -0.65084081222E+02  0.10457694819E+03  0.10000000000E+00 0. -1.
         -5    1    3    3    0  501  0.33672145608E+02  0.19608159346E+02  0.73320678688E+01  0.39649243650E+02  0.10000000000E+00 0. -1.
         21    1    1    2  504  503  0.36217584659E+02  0.23004234020E+02 -0.80952403765E+03  0.81066027148E+03  0.00000000000E+00 0.  1.
<mgrwt>
<rscale>  1 0.13215861E+03</rscale>
<asrwt>0</asrwt>
<pdfrwt beam="1">  1       21 0.67392623E-02 0.13215861E+03</pdfrwt>
<pdfrwt beam="2">  1       21 0.14016635E+00 0.13215861E+03</pdfrwt>
<totfact> 0.59586598E+04</totfact>
</mgrwt>
</event>
<event>
 6    1  0.4244577E-002  0.1302699E+03  0.7546771E-02  0.1227056E+00
         21   -1    0    0  503  502  0.00000000000E+00  0.00000000000E+00  0.24596405778E+03  0.24596405778E+03  0.00000000000E+00 0.  1.
         21   -1    0    0  504  503 -0.00000000000E+00 -0.00000000000E+00 -0.93545720294E+02  0.93545720294E+02  0.00000000000E+00 0.  1.
         25    2    1    2    0    0 -0.22122153500E+02 -0.29245006507E+02  0.22397508626E+03  0.25910437790E+03  0.12500231718E+03 0.  0.
          5    1    3    3  501    0  0.44792572978E+02 -0.11907248156E+02  0.15367755228E+03  0.16051466359E+03  0.10000000000E+00 0. -1.
         -5    1    3    3    0  501 -0.66914726478E+02 -0.17337758351E+02  0.70297533978E+02  0.98589714309E+02  0.10000000000E+00 0. -1.
         21    1    1    2  504  502  0.22122153500E+02  0.29245006507E+02 -0.71556748776E+02  0.80405400170E+02  0.00000000000E+00 0.  1.
<mgrwt>
<rscale>  1 0.13026987E+03</rscale>
<asrwt>0</asrwt>
<pdfrwt beam="1">  1       21 0.37840624E-01 0.13026987E+03</pdfrwt>
<pdfrwt beam="2">  1       21 0.14391649E-01 0.13026987E+03</pdfrwt>
<totfact> 0.28874358E+05</totfact>
</mgrwt>
</event>
<event>
 6    1  0.4244577E-002  0.2022889E+03  0.7546771E-02  0.1147822E+00
         21   -1    0    0  504  502  0.00000000000E+00  0.00000000000E+00  0.94152515810E+02  0.94152515810E+02  0.00000000000E+00 0.  1.
         21   -1    0    0  502  503 -0.00000000000E+00 -0.00000000000E+00 -0.38420042357E+03  0.38420042357E+03  0.00000000000E+00 0.  1.
         25    2    1    2    0    0  0.15881610783E+03  0.83537838003E+01 -0.86408971156E+02  0.21997113214E+03  0.12501378672E+03 0.  0.
          5    1    3    3  501    0  0.13174993448E+03  0.59153351592E+02 -0.56244049041E+02  0.15498570028E+03  0.10000000000E+00 0.  1.
         -5    1    3    3    0  501  0.27066173354E+02 -0.50799567792E+02 -0.30164922115E+02  0.64985431860E+02  0.10000000000E+00 0.  1.
         21    1    1    2  504  503 -0.15881610783E+03 -0.83537838003E+01 -0.20363893660E+03  0.25838180724E+03  0.00000000000E+00 0.  1.
<mgrwt>
<rscale>  1 0.20228887E+03</rscale>
<asrwt>0</asrwt>
<pdfrwt beam="1">  1       21 0.14485003E-01 0.20228887E+03</pdfrwt>
<pdfrwt beam="2">  1       21 0.59107756E-01 0.20228887E+03</pdfrwt>
<totfact> 0.11142632E+05</totfact>
</mgrwt>
</event>
<event>
 6    1  0.4244577E-002  0.1290390E+03  0.7546771E-02  0.1228889E+00
         21   -1    0    0  503  502  0.00000000000E+00  0.00000000000E+00  0.64684370863E+03  0.64684370863E+03  0.00000000000E+00 0.  1.
         21   -1    0    0  504  503 -0.00000000000E+00 -0.00000000000E+00 -0.15727500163E+02  0.15727500163E+02  0.00000000000E+00 0.  1.
         25    2    1    2    0    0 -0.20444496710E+02 -0.24644701466E+02  0.61161548150E+03  0.62507964830E+03  0.12500292296E+03 0.  0.
          5    1    3    3  501    0 -0.24679210726E+02 -0.54579424756E+02  0.57258452908E+03  0.57570915399E+03  0.10000000000E+00 0. -1.
         -5    1    3    3    0  501  0.42347140157E+01  0.29934723290E+02  0.39030952428E+02  0.49370494312E+02  0.10000000000E+00 0. -1.
         21    1    1    2  504  502  0.20444496710E+02  0.24644701466E+02  0.19500726962E+02  0.37491560492E+02  0.00000000000E+00 0.  1.
<mgrwt>
<rscale>  1 0.12903902E+03</rscale>
<asrwt>0</asrwt>
<pdfrwt beam="1">  1       21 0.99514396E-01 0.12903902E+03</pdfrwt>
<pdfrwt beam="2">  1       21 0.24196159E-02 0.12903902E+03</pdfrwt>
<totfact> 0.75491316E+05</totfact>
</mgrwt>
</event>
<event>
 6    1  0.4244577E-002  0.1268617E+03  0.7546771E-02  0.1232188E+00
         21   -1    0    0  504  502  0.00000000000E+00  0.00000000000E+00  0.45916745359E+03  0.45916745359E+03  0.00000000000E+00 0. -1.
         21   -1    0    0  502  503 -0.00000000000E+00 -0.00000000000E+00 -0.18467211652E+03  0.18467211652E+03  0.00000000000E+00 0.  1.
         25    2    1    2    0    0 -0.44126270518E+01  0.21185656782E+02  0.44972660730E+03  0.46727711261E+03  0.12500230128E+03 0.  0.
          5    1    3    3  501    0  0.14657663997E+02 -0.50223938910E+02  0.20969954318E+03  0.21612773899E+03  0.10000000000E+00 0.  1.
         -5    1    3    3    0  501 -0.19070291049E+02  0.71409595692E+02  0.24002706412E+03  0.25114937362E+03  0.10000000000E+00 0.  1.
         21    1    1    2  504  503  0.44126270518E+01 -0.21185656782E+02 -0.17523127023E+03  0.17656245750E+03  0.00000000000E+00 0.  1.
<mgrwt>
<rscale>  1 0.12686165E+03</rscale>
<asrwt>0</asrwt>
<pdfrwt beam="1">  1       21 0.70641146E-01 0.12686165E+03</pdfrwt>
<pdfrwt beam="2">  1       21 0.28411095E-01 0.12686165E+03</pdfrwt>
<totfact> 0.22437242E+04</totfact>
</mgrwt>
</event>
<event>
 6    1  0.4244577E-002  0.1258749E+03  0.7546771E-02  0.1233708E+00
         21   -1    0    0  503  502  0.00000000000E+00  0.00000000000E+00  0.17526413388E+02  0.17526413388E+02  0.00000000000E+00 0.  1.
         21   -1    0    0  504  503 -0.00000000000E+00 -0.00000000000E+00 -0.28518513640E+03  0.28518513640E+03  0.00000000000E+00 0.  1.
         25    2    1    2    0    0  0.11745788317E+02  0.99958293853E+01 -0.23476640881E+03  0.26638271163E+03  0.12492638713E+03 0.  0.
          5    1    3    3  501    0 -0.62747581245E+01  0.33567545482E+02 -0.23423048376E+03  0.23670674308E+03  0.10000000000E+00 0.  1.
         -5    1    3    3    0  501  0.18020546442E+02 -0.23571716097E+02 -0.53592505584E+00  0.29675968551E+02  0.10000000000E+00 0.  1.
         21    1    1    2  504  502 -0.11745788317E+02 -0.99958293853E+01 -0.32892314198E+02  0.36328838153E+02  0.00000000000E+00 0.  1.
<mgrwt>
<rscale>  1 0.12587487E+03</rscale>
<asrwt>0</asrwt>
<pdfrwt beam="1">  1       21 0.26963714E-02 0.12587487E+03</pdfrwt>
<pdfrwt beam="2">  1       21 0.43874634E-01 0.12587487E+03</pdfrwt>
<totfact> 0.37238961E+06</totfact>
</mgrwt>
</event>
<event>
 6    1  0.4244577E-002  0.1274649E+03  0.7546771E-02  0.1231267E+00
         21   -1    0    0  504  502  0.00000000000E+00  0.00000000000E+00  0.49948535766E+02  0.49948535766E+02  0.00000000000E+00 0. -1.
         21   -1    0    0  502  503 -0.00000000000E+00 -0.00000000000E+00 -0.11778172936E+03  0.11778172936E+03  0.00000000000E+00 0. -1.
         25    2    1    2    0    0 -0.22421449686E+02 -0.10905896772E+02 -0.63562136737E+02  0.14243398245E+03  0.12500253653E+03 0.  0.
          5    1    3    3  501    0  0.16444817729E+02 -0.45923327144E+02  0.12278150510E+02  0.50300566458E+02  0.10000000000E+00 0. -1.
         -5    1    3    3    0  501 -0.38866267416E+02  0.35017430372E+02 -0.75840287247E+02  0.92133415992E+02  0.10000000000E+00 0. -1.
         21    1    1    2  504  503  0.22421449686E+02  0.10905896772E+02 -0.42710568557E+01  0.25296282674E+02  0.00000000000E+00 0. -1.
<mgrwt>
<rscale>  1 0.12746487E+03</rscale>
<asrwt>0</asrwt>
<pdfrwt beam="1">  1       21 0.76843901E-02 0.12746487E+03</pdfrwt>
<pdfrwt beam="2">  1       21 0.18120266E-01 0.12746487E+03</pdfrwt>
<totfact> 0.35263282E+06</totfact>
</mgrwt>
</event>
<event>
 6    1  0.4244577E-002  0.1263329E+03  0.7546771E-02  0.1233001E+00
         21   -1    0    0  504  502  0.00000000000E+00  0.00000000000E+00  0.10333845507E+03  0.10333845507E+03  0.00000000000E+00 0. -1.
         21   -1    0    0  502  503 -0.00000000000E+00 -0.00000000000E+00 -0.56336181184E+02  0.56336181184E+02  0.00000000000E+00 0. -1.
         25    2    1    2    0    0  0.17264749036E+02 -0.59099366607E+01  0.57301210493E+02  0.13872071046E+03  0.12500803125E+03 0.  0.
          5    1    3    3  501    0  0.47940062455E+02 -0.43555216528E+02  0.15552874669E+01  0.64789932815E+02  0.10000000000E+00 0.  1.
         -5    1    3    3    0  501 -0.30675313419E+02  0.37645279868E+02  0.55745923026E+02  0.73930777649E+02  0.10000000000E+00 0.  1.
         21    1    1    2  504  503 -0.17264749036E+02  0.59099366607E+01 -0.10298936610E+02  0.20953925787E+02  0.00000000000E+00 0. -1.
<mgrwt>
<rscale>  1 0.12633292E+03</rscale>
<asrwt>0</asrwt>
<pdfrwt beam="1">  1       21 0.15898224E-01 0.12633292E+03</pdfrwt>
<pdfrwt beam="2">  1       21 0.86671048E-02 0.12633292E+03</pdfrwt>
<totfact> 0.36341493E+06</totfact>
</mgrwt>
</event>
<event>
 6    1  0.4244577E-002  0.1650768E+03  0.7546771E-02  0.1183081E+00
         21   -1    0    0  504  502  0.00000000000E+00  0.00000000000E+00  0.15323186908E+03  0.15323186908E+03  0.00000000000E+00 0.  1.
         21   -1    0    0  502  503 -0.00000000000E+00 -0.00000000000E+00 -0.12708090333E+03  0.12708090333E+03  0.00000000000E+00 0.  1.
         25    2    1    2    0    0  0.10469797653E+03 -0.25813514109E+02  0.44406350864E+02  0.17094521375E+03  0.12498935277E+03 0.  0.
          5    1    3    3  501    0  0.90402947944E+02  0.39130412438E+02  0.28944574697E+02  0.10267268663E+03  0.10000000000E+00 0.  1.
         -5    1    3    3    0  501  0.14295028589E+02 -0.64943926547E+02  0.15461776167E+02  0.68272527124E+02  0.10000000000E+00 0.  1.
         21    1    1    2  504  503 -0.10469797653E+03  0.25813514109E+02 -0.18255385117E+02  0.10936755866E+03  0.00000000000E+00 0.  1.
<mgrwt>
<rscale>  1 0.16507678E+03</rscale>
<asrwt>0</asrwt>
<pdfrwt beam="1">  1       21 0.23574134E-01 0.16507678E+03</pdfrwt>
<pdfrwt beam="2">  1       21 0.19550908E-01 0.16507678E+03</pdfrwt>
<totfact> 0.41006541E+05</totfact>
</mgrwt>
</event>
<event>
 6    1  0.4244577E-002  0.1579466E+03  0.7546771E-02  0.1191035E+00
         21   -1    0    0  503  502  0.00000000000E+00  0.00000000000E+00  0.12313896765E+03  0.12313896765E+03  0.00000000000E+00 0. -1.
         21   -1    0    0  504  503 -0.00000000000E+00 -0.00000000000E+00 -0.13684225128E+03  0.13684225128E+03  0.00000000000E+00 0. -1.
         25    2    1    2    0    0  0.66861980391E+01  0.96330350315E+02  0.16499173980E+02  0.15880597452E+03  0.12499149237E+03 0.  0.
          5    1    3    3  501    0 -0.35540683566E+01  0.65596930684E+02 -0.51507235707E+02  0.83478105197E+02  0.10000000000E+00 0.  1.
         -5    1    3    3    0  501  0.10240266396E+02  0.30733419631E+02  0.68006409687E+02  0.75327869322E+02  0.10000000000E+00 0.  1.
         21    1    1    2  504  502 -0.66861980391E+01 -0.96330350315E+02 -0.30202457611E+02  0.10117524441E+03  0.00000000000E+00 0. -1.
<mgrwt>
<rscale>  1 0.15794656E+03</rscale>
<asrwt>0</asrwt>
<pdfrwt beam="1">  1       21 0.18944457E-01 0.15794656E+03</pdfrwt>
<pdfrwt beam="2">  1       21 0.21052654E-01 0.15794656E+03</pdfrwt>
<totfact> 0.53828871E+05</totfact>
</mgrwt>
</event>
<event>
 6    1  0.4244577E-002  0.1260019E+03  0.7546771E-02  0.1233512E+00
         21   -1    0    0  504  502  0.00000000000E+00  0.00000000000E+00  0.12228263125E+04  0.12228263125E+04  0.00000000000E+00 0.  1.
         21   -1    0    0  502  503 -0.00000000000E+00 -0.00000000000E+00 -0.13808658994E+02  0.13808658994E+02  0.00000000000E+00 0.  1.
         25    2    1    2    0    0 -0.15494553738E+02 -0.32497922637E+01  0.12136234977E+04  0.12201469108E+04  0.12500338989E+03 0.  0.
          5    1    3    3  501    0  0.21603086621E+02 -0.15718336796E+02  0.57961976239E+02  0.63822881107E+02  0.10000000000E+00 0.  1.
         -5    1    3    3    0  501 -0.37097640359E+02  0.12468544532E+02  0.11556615214E+04  0.11563240297E+04  0.10000000000E+00 0.  1.
         21    1    1    2  504  503  0.15494553738E+02  0.32497922637E+01 -0.46058441596E+01  0.16488060702E+02  0.00000000000E+00 0.  1.
<mgrwt>
<rscale>  1 0.12600194E+03</rscale>
<asrwt>0</asrwt>
<pdfrwt beam="1">  1       21 0.18812704E+00 0.12600194E+03</pdfrwt>
<pdfrwt beam="2">  1       21 0.21244100E-02 0.12600194E+03</pdfrwt>
<totfact> 0.18512301E+05</totfact>
</mgrwt>
</event>
<event>
 6    1  0.4244577E-002  0.1316638E+03  0.7546771E-02  0.1225008E+00
         21   -1    0    0  504  502  0.00000000000E+00  0.00000000000E+00  0.74919909636E+02  0.74919909636E+02  0.00000000000E+00 0. -1.
         21   -1    0    0  502  503 -0.00000000000E+00 -0.00000000000E+00 -0.31076947292E+03  0.31076947292E+03  0.00000000000E+00 0. -1.
         25    2    1    2    0    0  0.14480518931E+02 -0.38785920890E+02  0.14024628963E+02  0.13240861929E+03  0.12498527576E+03 0.  0.
          5    1    3    3  501    0 -0.17307996642E+02 -0.75646363303E+02 -0.97974586310E+01  0.78217256563E+02  0.10000000000E+00 0. -1.
         -5    1    3    3    0  501  0.31788515573E+02  0.36860442413E+02  0.23822087594E+02  0.54191362730E+02  0.10000000000E+00 0. -1.
         21    1    1    2  504  503 -0.14480518931E+02  0.38785920890E+02 -0.24987419224E+03  0.25328076326E+03  0.00000000000E+00 0. -1.
<mgrwt>
<rscale>  1 0.13166378E+03</rscale>
<asrwt>0</asrwt>
<pdfrwt beam="1">  1       21 0.11526140E-01 0.13166378E+03</pdfrwt>
<pdfrwt beam="2">  1       21 0.47810688E-01 0.13166378E+03</pdfrwt>
<totfact> 0.26751929E+05</totfact>
</mgrwt>
</event>
<event>
 6    1  0.4244577E-002  0.1275317E+03  0.7546771E-02  0.1231165E+00
         21   -1    0    0  504  502  0.00000000000E+00  0.00000000000E+00  0.62545446224E+02  0.62545446224E+02  0.00000000000E+00 0.  1.
         21   -1    0    0  502  503 -0.00000000000E+00 -0.00000000000E+00 -0.93819454367E+02  0.93819454367E+02  0.00000000000E+00 0.  1.
         25    2    1    2    0    0 -0.22635152270E+02 -0.11265201886E+02 -0.30199885837E+02  0.13105860433E+03  0.12500027909E+03 0.  0.
          5    1    3    3  501    0  0.30942320115E+02 -0.51481273057E+02 -0.19926955973E+02  0.63283822767E+02  0.10000000000E+00 0. -1.
         -5    1    3    3    0  501 -0.53577472385E+02  0.40216071171E+02 -0.10272929864E+02  0.67774781561E+02  0.10000000000E+00 0. -1.
         21    1    1    2  504  503  0.22635152270E+02  0.11265201886E+02 -0.10741223053E+01  0.25306296263E+02  0.00000000000E+00 0.  1.
<mgrwt>
<rscale>  1 0.12753166E+03</rscale>
<asrwt>0</asrwt>
<pdfrwt beam="1">  1       21 0.96223764E-02 0.12753166E+03</pdfrwt>
<pdfrwt beam="2">  1       21 0.14433762E-01 0.12753166E+03</pdfrwt>
<totfact> 0.36086615E+06</totfact>
</mgrwt>
</event>
<event>
 6    1  0.4244577E-002  0.1263439E+03  0.7546771E-02  0.1232984E+00
         21   -1    0    0  503  502  0.00000000000E+00  0.00000000000E+00  0.31379402797E+02  0.31379402797E+02  0.00000000000E+00 0. -1.
         21   -1    0    0  504  503 -0.00000000000E+00 -0.00000000000E+00 -0.17294963751E+03  0.17294963751E+03  0.00000000000E+00 0. -1.
         25    2    1    2    0    0  0.82825534787E+01 -0.16424271613E+02 -0.10873085024E+03  0.16668886811E+03  0.12499769425E+03 0.  0.
          5    1    3    3  501    0  0.24713869139E+01  0.24226017987E+01  0.28166304810E+02  0.28378292397E+02  0.10000000000E+00 0.  1.
         -5    1    3    3    0  501  0.58111665648E+01 -0.18846873412E+02 -0.13689715505E+03  0.13831057572E+03  0.10000000000E+00 0.  1.
         21    1    1    2  504  502 -0.82825534787E+01  0.16424271613E+02 -0.32839384472E+02  0.37640172192E+02  0.00000000000E+00 0. -1.
<mgrwt>
<rscale>  1 0.12634390E+03</rscale>
<asrwt>0</asrwt>
<pdfrwt beam="1">  1       21 0.48276004E-02 0.12634390E+03</pdfrwt>
<pdfrwt beam="2">  1       21 0.26607636E-01 0.12634390E+03</pdfrwt>
<totfact> 0.37890316E+06</totfact>
</mgrwt>
</event>
<event>
 6    1  0.4244577E-002  0.1358797E+03  0.7546771E-02  0.1218983E+00
         21   -1    0    0  504  502  0.00000000000E+00  0.00000000000E+00  0.74369177831E+02  0.74369177831E+02  0.00000000000E+00 0.  1.
         21   -1    0    0  502  503 -0.00000000000E+00 -0.00000000000E+00 -0.22857875879E+03  0.22857875879E+03  0.00000000000E+00 0. -1.
         25    2    1    2    0    0  0.14362710532E+02 -0.51298870323E+02  0.40734807295E+01  0.13594078358E+03  0.12500176736E+03 0.  0.
          5    1    3    3  501    0 -0.28852935933E+02 -0.37868933032E+02 -0.47551859301E+02  0.67288463527E+02  0.10000000000E+00 0.  1.
         -5    1    3    3    0  501  0.43215646465E+02 -0.13429937290E+02  0.51625340030E+02  0.68652320050E+02  0.10000000000E+00 0.  1.
         21    1    1    2  504  503 -0.14362710532E+02  0.51298870323E+02 -0.15828306169E+03  0.16700715304E+03  0.00000000000E+00 0. -1.
<mgrwt>
<rscale>  1 0.13587974E+03</rscale>
<asrwt>0</asrwt>
<pdfrwt beam="1">  1       21 0.11441412E-01 0.13587974E+03</pdfrwt>
<pdfrwt beam="2">  1       21 0.35165962E-01 0.13587974E+03</pdfrwt>
<totfact> 0.50194413E+05</totfact>
</mgrwt>
</event>
<event>
 6    1  0.4244577E-002  0.1341049E+03  0.7546771E-02  0.1221489E+00
         21   -1    0    0  503  502  0.00000000000E+00  0.00000000000E+00  0.15480399542E+02  0.15480399542E+02  0.00000000000E+00 0.  1.
         21   -1    0    0  504  503 -0.00000000000E+00 -0.00000000000E+00 -0.53903813481E+03  0.53903813481E+03  0.00000000000E+00 0.  1.
         25    2    1    2    0    0  0.27368905241E+01  0.48500877250E+02 -0.38732750093E+03  0.40988623363E+03  0.12499722349E+03 0.  0.
          5    1    3    3  501    0  0.14020483774E+02  0.89664451538E+02 -0.24365693162E+03  0.26000961167E+03  0.10000000000E+00 0.  1.
         -5    1    3    3    0  501 -0.11283593250E+02 -0.41163574288E+02 -0.14367056931E+03  0.14987662196E+03  0.10000000000E+00 0.  1.
         21    1    1    2  504  502 -0.27368905241E+01 -0.48500877250E+02 -0.13623023434E+03  0.14463230072E+03  0.00000000000E+00 0.  1.
<mgrwt>
<rscale>  1 0.13410493E+03</rscale>
<asrwt>0</asrwt>
<pdfrwt beam="1">  1       21 0.23816003E-02 0.13410493E+03</pdfrwt>
<pdfrwt beam="2">  1       21 0.82928931E-01 0.13410493E+03</pdfrwt>
<totfact> 0.11764732E+06</totfact>
</mgrwt>
</event>
<event>
 6    1  0.4244577E-002  0.1347816E+03  0.7546771E-02  0.1220528E+00
         21   -1    0    0  503  502  0.00000000000E+00  0.00000000000E+00  0.13355456370E+03  0.13355456370E+03  0.00000000000E+00 0.  1.
         21   -1    0    0  504  503 -0.00000000000E+00 -0.00000000000E+00 -0.72979240195E+02  0.72979240195E+02  0.00000000000E+00 0.  1.
         25    2    1    2    0    0 -0.20481250428E+02  0.46045702207E+02  0.74830369180E+02  0.15416115228E+03  0.12500555351E+03 0.  0.
          5    1    3    3  501    0 -0.15284665528E+02  0.61129598327E+02 -0.13466480085E+02  0.64434500680E+02  0.10000000000E+00 0.  1.
         -5    1    3    3    0  501 -0.51965849001E+01 -0.15083896120E+02  0.88296849265E+02  0.89726651597E+02  0.10000000000E+00 0.  1.
         21    1    1    2  504  502  0.20481250428E+02 -0.46045702207E+02 -0.14255045670E+02  0.52372651622E+02  0.00000000000E+00 0.  1.
<mgrwt>
<rscale>  1 0.13478159E+03</rscale>
<asrwt>0</asrwt>
<pdfrwt beam="1">  1       21 0.20546856E-01 0.13478159E+03</pdfrwt>
<pdfrwt beam="2">  1       21 0.11227575E-01 0.13478159E+03</pdfrwt>
<totfact> 0.14475023E+06</totfact>
</mgrwt>
</event>
<event>
 6    1  0.4244577E-002  0.1313314E+03  0.7546771E-02  0.1225493E+00
         21   -1    0    0  504  502  0.00000000000E+00  0.00000000000E+00  0.85227446380E+03  0.85227446380E+03  0.00000000000E+00 0.  1.
         21   -1    0    0  502  503 -0.00000000000E+00 -0.00000000000E+00 -0.17360185593E+02  0.17360185593E+02  0.00000000000E+00 0.  1.
         25    2    1    2    0    0  0.29774897623E+02 -0.27121428286E+02  0.81347530073E+03  0.82400849290E+03  0.12500326029E+03 0.  0.
          5    1    3    3  501    0  0.45974480913E+02  0.42872956077E+01  0.74950018828E+03  0.75092115168E+03  0.10000000000E+00 0.  1.
         -5    1    3    3    0  501 -0.16199583290E+02 -0.31408723894E+02  0.63975112443E+02  0.73087341226E+02  0.10000000000E+00 0.  1.
         21    1    1    2  504  503 -0.29774897623E+02  0.27121428286E+02  0.21438977482E+02  0.45626156492E+02  0.00000000000E+00 0.  1.
<mgrwt>
<rscale>  1 0.13133138E+03</rscale>
<asrwt>0</asrwt>
<pdfrwt beam="1">  1       21 0.13111912E+00 0.13133138E+03</pdfrwt>
<pdfrwt beam="2">  1       21 0.26707985E-02 0.13133138E+03</pdfrwt>
<totfact> 0.33014599E+05</totfact>
</mgrwt>
</event>
<event>
 6    1  0.4244577E-002  0.2280826E+03  0.7546771E-02  0.1127997E+00
         21   -1    0    0  503  502  0.00000000000E+00  0.00000000000E+00  0.10212454133E+03  0.10212454133E+03  0.00000000000E+00 0. -1.
         21   -1    0    0  504  503 -0.00000000000E+00 -0.00000000000E+00 -0.87442737390E+03  0.87442737390E+03  0.00000000000E+00 0. -1.
         25    2    1    2    0    0 -0.11423115022E+03  0.15279762389E+03 -0.55420838629E+02  0.23471927724E+03  0.12500320079E+03 0.  0.
          5    1    3    3  501    0 -0.11900620355E+03  0.98820363666E+02  0.34247565568E+01  0.15472452849E+03  0.10000000000E+00 0.  1.
         -5    1    3    3    0  501  0.47750533291E+01  0.53977260219E+02 -0.58845595185E+02  0.79994748752E+02  0.10000000000E+00 0.  1.
         21    1    1    2  504  502  0.11423115022E+03 -0.15279762389E+03 -0.71688199395E+03  0.74183263799E+03  0.00000000000E+00 0. -1.
<mgrwt>
<rscale>  1 0.22808259E+03</rscale>
<asrwt>0</asrwt>
<pdfrwt beam="1">  1       21 0.15711467E-01 0.22808259E+03</pdfrwt>
<pdfrwt beam="2">  1       21 0.13452729E+00 0.22808259E+03</pdfrwt>
<totfact> 0.13956030E+04</totfact>
</mgrwt>
</event>
<event>
 6    1  0.4244577E-002  0.1268508E+03  0.7546771E-02  0.1232205E+00
         21   -1    0    0  504  502  0.00000000000E+00  0.00000000000E+00  0.12295192798E+03  0.12295192798E+03  0.00000000000E+00 0. -1.
         21   -1    0    0  502  503 -0.00000000000E+00 -0.00000000000E+00 -0.62876238298E+02  0.62876238298E+02  0.00000000000E+00 0. -1.
         25    2    1    2    0    0 -0.94673648754E+01  0.19415850396E+02  0.85114044713E+02  0.15275966969E+03  0.12499803931E+03 0.  0.
          5    1    3    3  501    0 -0.28689375193E+02  0.48809569422E+02  0.99760764186E+02  0.11470690645E+03  0.10000000000E+00 0.  1.
         -5    1    3    3    0  501  0.19222010318E+02 -0.29393719026E+02 -0.14646719473E+02  0.38052763240E+02  0.10000000000E+00 0.  1.
         21    1    1    2  504  503  0.94673648754E+01 -0.19415850396E+02 -0.25038355029E+02  0.33068496591E+02  0.00000000000E+00 0. -1.
<mgrwt>
<rscale>  1 0.12685076E+03</rscale>
<asrwt>0</asrwt>
<pdfrwt beam="1">  1       21 0.18915681E-01 0.12685076E+03</pdfrwt>
<pdfrwt beam="2">  1       21 0.96732675E-02 0.12685076E+03</pdfrwt>
<totfact> 0.21872983E+06</totfact>
</mgrwt>
</event>
<event>
 6    1  0.4244577E-002  0.1397587E+03  0.7546771E-02  0.1213654E+00
         21   -1    0    0  503  502  0.00000000000E+00  0.00000000000E+00  0.82080169597E+02  0.82080169597E+02  0.00000000000E+00 0. -1.
         21   -1    0    0  504  503 -0.00000000000E+00 -0.00000000000E+00 -0.20369496063E+03  0.20369496063E+03  0.00000000000E+00 0. -1.
         25    2    1    2    0    0 -0.60659119633E+02  0.15278802104E+02  0.99336362897E+01  0.14011127294E+03  0.12497808243E+03 0.  0.
          5    1    3    3  501    0  0.14372854122E+02 -0.42396445970E+02  0.78584488846E+01  0.45451103236E+02  0.10000000000E+00 0. -1.
         -5    1    3    3    0  501 -0.75031973755E+02  0.57675248074E+02  0.20751874051E+01  0.94660169706E+02  0.10000000000E+00 0. -1.
         21    1    1    2  504  502  0.60659119633E+02 -0.15278802104E+02 -0.13154842733E+03  0.14566385729E+03  0.00000000000E+00 0. -1.
<mgrwt>
<rscale>  1 0.13975869E+03</rscale>
<asrwt>0</asrwt>
<pdfrwt beam="1">  1       21 0.12627719E-01 0.13975869E+03</pdfrwt>
<pdfrwt beam="2">  1       21 0.31337686E-01 0.13975869E+03</pdfrwt>
<totfact> 0.52765236E+05</totfact>
</mgrwt>
</event>
<event>
 6    1  0.4244577E-002  0.1371922E+03  0.7546771E-02  0.1217158E+00
         21   -1    0    0  503  502  0.00000000000E+00  0.00000000000E+00  0.78693184162E+02  0.78693184162E+02  0.00000000000E+00 0.  1.
         21   -1    0    0  504  503 -0.00000000000E+00 -0.00000000000E+00 -0.12003003683E+03  0.12003003683E+03  0.00000000000E+00 0.  1.
         25    2    1    2    0    0  0.44964563338E+02  0.34267750450E+02 -0.21828214438E+02  0.13891788977E+03  0.12500247388E+03 0.  0.
          5    1    3    3  501    0  0.37834961461E+02 -0.31265806964E+02 -0.47379133672E+02  0.68218965848E+02  0.10000000000E+00 0. -1.
         -5    1    3    3    0  501  0.71296018770E+01  0.65533557414E+02  0.25550919233E+02  0.70698923923E+02  0.10000000000E+00 0. -1.
         21    1    1    2  504  502 -0.44964563338E+02 -0.34267750450E+02 -0.19508638232E+02  0.59805331224E+02  0.00000000000E+00 0.  1.
<mgrwt>
<rscale>  1 0.13719223E+03</rscale>
<asrwt>0</asrwt>
<pdfrwt beam="1">  1       21 0.12106644E-01 0.13719223E+03</pdfrwt>
<pdfrwt beam="2">  1       21 0.18466159E-01 0.13719223E+03</pdfrwt>
<totfact> 0.15432177E+06</totfact>
</mgrwt>
</event>
<event>
 6    1  0.4244577E-002  0.1314695E+03  0.7546771E-02  0.1225291E+00
         21   -1    0    0  503  502  0.00000000000E+00  0.00000000000E+00  0.14232444726E+03  0.14232444726E+03  0.00000000000E+00 0. -1.
         21   -1    0    0  504  503 -0.00000000000E+00 -0.00000000000E+00 -0.60156959461E+02  0.60156959461E+02  0.00000000000E+00 0.  1.
         25    2    1    2    0    0 -0.40404451614E+02  0.47148664873E+01  0.92208154976E+02  0.16058194761E+03  0.12501787223E+03 0.  0.
          5    1    3    3  501    0 -0.61340008316E+02  0.24417892334E+02  0.10889136168E+03  0.12734272156E+03  0.10000000000E+00 0. -1.
         -5    1    3    3    0  501  0.20935556702E+02 -0.19703025847E+02 -0.16683206708E+02  0.33239226044E+02  0.10000000000E+00 0. -1.
         21    1    1    2  504  502  0.40404451614E+02 -0.47148664873E+01 -0.10040667180E+02  0.41899459109E+02  0.00000000000E+00 0.  1.
<mgrwt>
<rscale>  1 0.13146946E+03</rscale>
<asrwt>0</asrwt>
<pdfrwt beam="1">  1       21 0.21896069E-01 0.13146946E+03</pdfrwt>
<pdfrwt beam="2">  1       21 0.92549169E-02 0.13146946E+03</pdfrwt>
<totfact> 0.18035260E+06</totfact>
</mgrwt>
</event>
<event>
 6    1  0.4244577E-002  0.1292162E+03  0.7546771E-02  0.1228623E+00
         21   -1    0    0  503  502  0.00000000000E+00  0.00000000000E+00  0.73775314607E+02  0.73775314607E+02  0.00000000000E+00 0.  1.
         21   -1    0    0  504  503 -0.00000000000E+00 -0.00000000000E+00 -0.93842699778E+02  0.93842699778E+02  0.00000000000E+00 0.  1.
         25    2    1    2    0    0  0.31770464673E+02 -0.78891409496E+01  0.10010470420E-01  0.12921615523E+03  0.12500085481E+03 0.  0.
          5    1    3    3  501    0  0.70133176526E+02  0.11010982675E+01 -0.33277225474E+02  0.77635421054E+02  0.10000000000E+00 0.  1.
         -5    1    3    3    0  501 -0.38362711852E+02 -0.89902392171E+01  0.33287235944E+02  0.51580734181E+02  0.10000000000E+00 0.  1.
         21    1    1    2  504  502 -0.31770464673E+02  0.78891409496E+01 -0.20077395642E+02  0.38401859151E+02  0.00000000000E+00 0.  1.
<mgrwt>
<rscale>  1 0.12921615E+03</rscale>
<asrwt>0</asrwt>
<pdfrwt beam="1">  1       21 0.11350048E-01 0.12921615E+03</pdfrwt>
<pdfrwt beam="2">  1       21 0.14437338E-01 0.12921615E+03</pdfrwt>
<totfact> 0.27012632E+06</totfact>
</mgrwt>
</event>
<event>
 6    1  0.4244577E-002  0.1269116E+03  0.7546771E-02  0.1232112E+00
         21   -1    0    0  504  502  0.00000000000E+00  0.00000000000E+00  0.70219022028E+02  0.70219022028E+02  0.00000000000E+00 0.  1.
         21   -1    0    0  502  503 -0.00000000000E+00 -0.00000000000E+00 -0.93052155738E+02  0.93052155738E+02  0.00000000000E+00 0.  1.
         25    2    1    2    0    0  0.21148213772E+02  0.57826539279E+01  0.59949586605E+01  0.12705315819E+03  0.12500351773E+03 0.  0.
          5    1    3    3  501    0 -0.31453110911E+02  0.87532504506E+01 -0.43753330253E+02  0.54591954422E+02  0.10000000000E+00 0.  1.
         -5    1    3    3    0  501  0.52601324682E+02 -0.29705965227E+01  0.49748288913E+02  0.72461203770E+02  0.10000000000E+00 0.  1.
         21    1    1    2  504  503 -0.21148213772E+02 -0.57826539279E+01 -0.28828092370E+02  0.36218019574E+02  0.00000000000E+00 0.  1.
<mgrwt>
<rscale>  1 0.12691164E+03</rscale>
<asrwt>0</asrwt>
<pdfrwt beam="1">  1       21 0.10802926E-01 0.12691164E+03</pdfrwt>
<pdfrwt beam="2">  1       21 0.14315716E-01 0.12691164E+03</pdfrwt>
<totfact> 0.29899065E+06</totfact>
</mgrwt>
</event>
<event>
 6    1  0.4244577E-002  0.1287634E+03  0.7546771E-02  0.1229302E+00
         21   -1    0    0  503  502  0.00000000000E+00  0.00000000000E+00  0.14328554115E+04  0.14328554115E+04  0.00000000000E+00 0. -1.
         21   -1    0    0  504  503 -0.00000000000E+00 -0.00000000000E+00 -0.12440836998E+02  0.12440836998E+02  0.00000000000E+00 0. -1.
         25    2    1    2    0    0 -0.30655420476E+02  0.39186462465E+01  0.14047667396E+04  0.14106557328E+04  0.12499957202E+03 0.  0.
          5    1    3    3  501    0 -0.74191573202E+02  0.82948082336E+01  0.58836383332E+03  0.59308111059E+03  0.10000000000E+00 0. -1.
         -5    1    3    3    0  501  0.43536152726E+02 -0.43761619871E+01  0.81640290631E+03  0.81757462217E+03  0.10000000000E+00 0. -1.
         21    1    1    2  504  502  0.30655420476E+02 -0.39186462465E+01  0.15647834833E+02  0.34640515699E+02  0.00000000000E+00 0. -1.
<mgrwt>
<rscale>  1 0.12876336E+03</rscale>
<asrwt>0</asrwt>
<pdfrwt beam="1">  1       21 0.22043916E+00 0.12876336E+03</pdfrwt>
<pdfrwt beam="2">  1       21 0.19139761E-02 0.12876336E+03</pdfrwt>
<totfact> 0.13762733E+05</totfact>
</mgrwt>
</event>
<event>
 6    1  0.4244577E-002  0.1259884E+03  0.7546771E-02  0.1233533E+00
         21   -1    0    0  503  502  0.00000000000E+00  0.00000000000E+00  0.17844197498E+03  0.17844197498E+03  0.00000000000E+00 0.  1.
         21   -1    0    0  504  503 -0.00000000000E+00 -0.00000000000E+00 -0.38568471167E+02  0.38568471167E+02  0.00000000000E+00 0.  1.
         25    2    1    2    0    0 -0.47424141292E+01 -0.15044166349E+02  0.15177306543E+03  0.19725147350E+03  0.12499705187E+03 0.  0.
          5    1    3    3  501    0  0.30337230248E+02  0.37024008204E+02  0.21163302940E+02  0.52335648595E+02  0.10000000000E+00 0.  1.
         -5    1    3    3    0  501 -0.35079644377E+02 -0.52068174553E+02  0.13060976249E+03  0.14491582491E+03  0.10000000000E+00 0.  1.
         21    1    1    2  504  502  0.47424141292E+01  0.15044166349E+02 -0.11899561622E+02  0.19758972638E+02  0.00000000000E+00 0.  1.
<mgrwt>
<rscale>  1 0.12598841E+03</rscale>
<asrwt>0</asrwt>
<pdfrwt beam="1">  1       21 0.27452611E-01 0.12598841E+03</pdfrwt>
<pdfrwt beam="2">  1       21 0.59336111E-02 0.12598841E+03</pdfrwt>
<totfact> 0.25218218E+06</totfact>
</mgrwt>
</event>
<event>
 6    1  0.4244577E-002  0.1347012E+03  0.7546771E-02  0.1220642E+00
         21   -1    0    0  504  502  0.00000000000E+00  0.00000000000E+00  0.10090024228E+03  0.10090024228E+03  0.00000000000E+00 0. -1.
         21   -1    0    0  502  503 -0.00000000000E+00 -0.00000000000E+00 -0.84913434605E+02  0.84913434605E+02  0.00000000000E+00 0. -1.
         25    2    1    2    0    0  0.44172782494E+02 -0.23925680017E+02  0.79187372684E+01  0.13493375317E+03  0.12498295270E+03 0.  0.
          5    1    3    3  501    0 -0.21824119308E+02  0.22505651571E+02  0.37599706450E+02  0.48954514208E+02  0.10000000000E+00 0.  1.
         -5    1    3    3    0  501  0.65996901802E+02 -0.46431331589E+02 -0.29680969182E+02  0.85979238960E+02  0.10000000000E+00 0.  1.
         21    1    1    2  504  503 -0.44172782494E+02  0.23925680017E+02  0.80680704089E+01  0.50879923719E+02  0.00000000000E+00 0. -1.
<mgrwt>
<rscale>  1 0.13470119E+03</rscale>
<asrwt>0</asrwt>
<pdfrwt beam="1">  1       21 0.15523114E-01 0.13470119E+03</pdfrwt>
<pdfrwt beam="2">  1       21 0.13063605E-01 0.13470119E+03</pdfrwt>
<totfact> 0.18490227E+06</totfact>
</mgrwt>
</event>
<event>
 6    1  0.4244577E-002  0.1316929E+03  0.7546771E-02  0.1224965E+00
         21   -1    0    0  503  502  0.00000000000E+00  0.00000000000E+00  0.42344049198E+02  0.42344049198E+02  0.00000000000E+00 0. -1.
         21   -1    0    0  504  503 -0.00000000000E+00 -0.00000000000E+00 -0.24083186768E+03  0.24083186768E+03  0.00000000000E+00 0. -1.
         25    2    1    2    0    0 -0.58168143634E+01  0.41055011847E+02 -0.72053152392E+02  0.15011550159E+03  0.12499463077E+03 0.  0.
          5    1    3    3  501    0  0.30835896969E+01 -0.31364733285E+02  0.16338168029E+02  0.35499306387E+02  0.10000000000E+00 0. -1.
         -5    1    3    3    0  501 -0.89004040603E+01  0.72419745132E+02 -0.88391320421E+02  0.11461619520E+03  0.10000000000E+00 0. -1.
         21    1    1    2  504  502  0.58168143634E+01 -0.41055011847E+02 -0.12643466609E+03  0.13306041529E+03  0.00000000000E+00 0. -1.
<mgrwt>
<rscale>  1 0.13169285E+03</rscale>
<asrwt>0</asrwt>
<pdfrwt beam="1">  1       21 0.65144691E-02 0.13169285E+03</pdfrwt>
<pdfrwt beam="2">  1       21 0.37051057E-01 0.13169285E+03</pdfrwt>
<totfact> 0.12029151E+06</totfact>
</mgrwt>
</event>
<event>
 6    1  0.4244577E-002  0.1262708E+03  0.7546771E-02  0.1233097E+00
         21   -1    0    0  504  502  0.00000000000E+00  0.00000000000E+00  0.92736662478E+03  0.92736662478E+03  0.00000000000E+00 0. -1.
         21   -1    0    0  502  503 -0.00000000000E+00 -0.00000000000E+00 -0.25363915658E+02  0.25363915658E+02  0.00000000000E+00 0. -1.
         25    2    1    2    0    0  0.16121966067E+02  0.78385503328E+01  0.91923356587E+03  0.92786564379E+03  0.12499177426E+03 0.  0.
          5    1    3    3  501    0  0.42544561888E+02 -0.47705941167E+02  0.41490249438E+03  0.41979755408E+03  0.10000000000E+00 0. -1.
         -5    1    3    3    0  501 -0.26422595821E+02  0.55544491500E+02  0.50433107149E+03  0.50806808971E+03  0.10000000000E+00 0. -1.
         21    1    1    2  504  503 -0.16121966067E+02 -0.78385503328E+01 -0.17230856749E+02  0.24864896651E+02  0.00000000000E+00 0. -1.
<mgrwt>
<rscale>  1 0.12627076E+03</rscale>
<asrwt>0</asrwt>
<pdfrwt beam="1">  1       21 0.14267176E+00 0.12627076E+03</pdfrwt>
<pdfrwt beam="2">  1       21 0.39021416E-02 0.12627076E+03</pdfrwt>
<totfact> 0.14325893E+05</totfact>
</mgrwt>
</event>
<event>
 6    1  0.4244577E-002  0.1446497E+03  0.7546771E-02  0.1207206E+00
         21   -1    0    0  504  502  0.00000000000E+00  0.00000000000E+00  0.64061020969E+02  0.64061020969E+02  0.00000000000E+00 0.  1.
         21   -1    0    0  502  503 -0.00000000000E+00 -0.00000000000E+00 -0.18855125043E+03  0.18855125043E+03  0.00000000000E+00 0.  1.
         25    2    1    2    0    0 -0.72156690780E+02  0.95799525285E+01 -0.64902922800E+02  0.15854309138E+03  0.12500063568E+03 0.  0.
          5    1    3    3  501    0 -0.34889795498E+02  0.67353359773E+02 -0.36034701598E+02  0.83977869834E+02  0.10000000000E+00 0. -1.
         -5    1    3    3    0  501 -0.37266895282E+02 -0.57773407244E+02 -0.28868221202E+02  0.74565221544E+02  0.10000000000E+00 0. -1.
         21    1    1    2  504  503  0.72156690780E+02 -0.95799525285E+01 -0.59587306659E+02  0.94069180020E+02  0.00000000000E+00 0.  1.
<mgrwt>
<rscale>  1 0.14464965E+03</rscale>
<asrwt>0</asrwt>
<pdfrwt beam="1">  1       21 0.98555419E-02 0.14464965E+03</pdfrwt>
<pdfrwt beam="2">  1       21 0.29007884E-01 0.14464965E+03</pdfrwt>
<totfact> 0.94931346E+05</totfact>
</mgrwt>
</event>
<event>
 6    1  0.4244577E-002  0.1259632E+03  0.7546771E-02  0.1233572E+00
         21   -1    0    0  504  502  0.00000000000E+00  0.00000000000E+00  0.42064985545E+02  0.42064985545E+02  0.00000000000E+00 0.  1.
         21   -1    0    0  502  503 -0.00000000000E+00 -0.00000000000E+00 -0.14561258398E+03  0.14561258398E+03  0.00000000000E+00 0.  1.
         25    2    1    2    0    0  0.19725574692E+01 -0.15446702482E+02 -0.56378654018E+02  0.13800463003E+03  0.12499693469E+03 0.  0.
          5    1    3    3  501    0 -0.43352213741E+02  0.24762432587E+02  0.68945024571E+01  0.50399768531E+02  0.10000000000E+00 0. -1.
         -5    1    3    3    0  501  0.45324771210E+02 -0.40209135070E+02 -0.63273156475E+02  0.87604861501E+02  0.10000000000E+00 0. -1.
         21    1    1    2  504  503 -0.19725574692E+01  0.15446702482E+02 -0.47168944421E+02  0.49672939498E+02  0.00000000000E+00 0. -1.
<mgrwt>
<rscale>  1 0.12596319E+03</rscale>
<asrwt>0</asrwt>
<pdfrwt beam="1">  1       21 0.64715361E-02 0.12596319E+03</pdfrwt>
<pdfrwt beam="2">  1       21 0.22401936E-01 0.12596319E+03</pdfrwt>
<totfact> 0.31941907E+06</totfact>
</mgrwt>
</event>
<event>
 6    1  0.4244577E-002  0.1266048E+03  0.7546771E-02  0.1232582E+00
         21   -1    0    0  504  502  0.00000000000E+00  0.00000000000E+00  0.15959393444E+03  0.15959393444E+03  0.00000000000E+00 0.  1.
         21   -1    0    0  502  503 -0.00000000000E+00 -0.00000000000E+00 -0.99924932005E+02  0.99924932005E+02  0.00000000000E+00 0.  1.
         25    2    1    2    0    0 -0.20015657648E+02  0.16796304259E+01  0.13291871021E+03  0.18356514764E+03  0.12500132878E+03 0.  0.
          5    1    3    3  501    0  0.42502564149E+01 -0.90676658006E+01  0.15107672723E+03  0.15140830477E+03  0.10000000000E+00 0.  1.
         -5    1    3    3    0  501 -0.24265914063E+02  0.10747296226E+02 -0.18158017020E+02  0.32156842874E+02  0.10000000000E+00 0.  1.
         21    1    1    2  504  503  0.20015657648E+02 -0.16796304259E+01 -0.73249707779E+02  0.75953718797E+02  0.00000000000E+00 0.  1.
<mgrwt>
<rscale>  1 0.12660482E+03</rscale>
<asrwt>0</asrwt>
<pdfrwt beam="1">  1       21 0.24552913E-01 0.12660482E+03</pdfrwt>
<pdfrwt beam="2">  1       21 0.15373066E-01 0.12660482E+03</pdfrwt>
<totfact> 0.59180340E+05</totfact>
</mgrwt>
</event>
<event>
 6    1  0.4244577E-002  0.1262317E+03  0.7546771E-02  0.1233157E+00
         21   -1    0    0  504  502  0.00000000000E+00  0.00000000000E+00  0.20555041089E+03  0.20555041089E+03  0.00000000000E+00 0. -1.
         21   -1    0    0  502  503 -0.00000000000E+00 -0.00000000000E+00 -0.16991848104E+03  0.16991848104E+03  0.00000000000E+00 0.  1.
         25    2    1    2    0    0  0.14013233384E+02 -0.10581573649E+02  0.18560957052E+03  0.22446679554E+03  0.12500435681E+03 0.  0.
          5    1    3    3  501    0  0.54013204291E+00  0.16660950773E+02 -0.14480881121E+02  0.22081325624E+02  0.10000000000E+00 0. -1.
         -5    1    3    3    0  501  0.13473101341E+02 -0.27242524422E+02  0.20009045164E+03  0.20238546992E+03  0.10000000000E+00 0. -1.
         21    1    1    2  504  503 -0.14013233384E+02  0.10581573649E+02 -0.14997764067E+03  0.15100209638E+03  0.00000000000E+00 0.  1.
<mgrwt>
<rscale>  1 0.12623165E+03</rscale>
<asrwt>0</asrwt>
<pdfrwt beam="1">  1       21 0.31623140E-01 0.12623165E+03</pdfrwt>
<pdfrwt beam="2">  1       21 0.26141305E-01 0.12623165E+03</pdfrwt>
<totfact> 0.13669184E+05</totfact>
</mgrwt>
</event>
<event>
 6    1  0.4244577E-002  0.1280110E+03  0.7546771E-02  0.1230437E+00
         21   -1    0    0  503  502  0.00000000000E+00  0.00000000000E+00  0.19077139839E+03  0.19077139839E+03  0.00000000000E+00 0. -1.
         21   -1    0    0  504  503 -0.00000000000E+00 -0.00000000000E+00 -0.62705291130E+02  0.62705291130E+02  0.00000000000E+00 0. -1.
         25    2    1    2    0    0  0.91356728338E+01 -0.26043925444E+02  0.16407683588E+03  0.20810578314E+03  0.12500024933E+03 0.  0.
          5    1    3    3  501    0  0.40177964204E+02 -0.46193922501E+02  0.15946153876E+03  0.17081024450E+03  0.10000000000E+00 0. -1.
         -5    1    3    3    0  501 -0.31042291371E+02  0.20149997057E+02  0.46152971236E+01  0.37295538640E+02  0.10000000000E+00 0. -1.
         21    1    1    2  504  502 -0.91356728338E+01  0.26043925444E+02 -0.36010728616E+02  0.45370906384E+02  0.00000000000E+00 0. -1.
<mgrwt>
<rscale>  1 0.12801097E+03</rscale>
<asrwt>0</asrwt>
<pdfrwt beam="1">  1       21 0.29349446E-01 0.12801097E+03</pdfrwt>
<pdfrwt beam="2">  1       21 0.96469679E-02 0.12801097E+03</pdfrwt>
<totfact> 0.96292392E+05</totfact>
</mgrwt>
</event>
<event>
 6    1  0.4244577E-002  0.1275791E+03  0.7546771E-02  0.1231093E+00
         21   -1    0    0  504  502  0.00000000000E+00  0.00000000000E+00  0.14985476144E+02  0.14985476144E+02  0.00000000000E+00 0. -1.
         21   -1    0    0  502  503 -0.00000000000E+00 -0.00000000000E+00 -0.41842815771E+03  0.41842815771E+03  0.00000000000E+00 0. -1.
         25    2    1    2    0    0  0.10688411345E+02  0.23196611489E+02 -0.28505724056E+03  0.31230443699E+03  0.12499642414E+03 0.  0.
          5    1    3    3  501    0  0.34288987649E+02  0.54568484484E+02 -0.76244161952E+02  0.99833042649E+02  0.10000000000E+00 0.  1.
         -5    1    3    3    0  501 -0.23600576304E+02 -0.31371872995E+02 -0.20881307861E+03  0.21247139434E+03  0.10000000000E+00 0.  1.
         21    1    1    2  504  503 -0.10688411345E+02 -0.23196611489E+02 -0.11838544101E+03  0.12110919686E+03  0.00000000000E+00 0. -1.
<mgrwt>
<rscale>  1 0.12757912E+03</rscale>
<asrwt>0</asrwt>
<pdfrwt beam="1">  1       21 0.23054575E-02 0.12757912E+03</pdfrwt>
<pdfrwt beam="2">  1       21 0.64373572E-01 0.12757912E+03</pdfrwt>
<totfact> 0.21630367E+06</totfact>
</mgrwt>
</event>
<event>
 6    1  0.4244577E-002  0.1290769E+03  0.7546771E-02  0.1228832E+00
         21   -1    0    0  503  502  0.00000000000E+00  0.00000000000E+00  0.59361696983E+03  0.59361696983E+03  0.00000000000E+00 0. -1.
         21   -1    0    0  504  503 -0.00000000000E+00 -0.00000000000E+00 -0.13747848986E+02  0.13747848986E+02  0.00000000000E+00 0. -1.
         25    2    1    2    0    0 -0.22766472764E+02 -0.22725485962E+02  0.54435093549E+03  0.55944507878E+03  0.12500438075E+03 0.  0.
          5    1    3    3  501    0 -0.33078532643E+02 -0.62725415516E+02  0.19192691434E+03  0.20460844930E+03  0.10000000000E+00 0.  1.
         -5    1    3    3    0  501  0.10312059879E+02  0.39999929554E+02  0.35242402114E+03  0.35483662948E+03  0.10000000000E+00 0.  1.
         21    1    1    2  504  502  0.22766472764E+02  0.22725485962E+02  0.35518185357E+02  0.47919740039E+02  0.00000000000E+00 0.  1.
<mgrwt>
<rscale>  1 0.12907694E+03</rscale>
<asrwt>0</asrwt>
<pdfrwt beam="1">  1       21 0.91325668E-01 0.12907694E+03</pdfrwt>
<pdfrwt beam="2">  1       21 0.21150541E-02 0.12907694E+03</pdfrwt>
<totfact> 0.11453174E+06</totfact>
</mgrwt>
</event>
<event>
 6    1  0.4244577E-002  0.1305692E+03  0.7546771E-02  0.1226614E+00
         21   -1    0    0  504  502  0.00000000000E+00  0.00000000000E+00  0.15121477028E+03  0.15121477028E+03  0.00000000000E+00 0. -1.
         21   -1    0    0  502  503 -0.00000000000E+00 -0.00000000000E+00 -0.11096728377E+03  0.11096728377E+03  0.00000000000E+00 0. -1.
         25    2    1    2    0    0  0.22175549532E+02  0.30511621126E+02  0.11785600957E+03  0.17589302303E+03  0.12500241014E+03 0.  0.
          5    1    3    3  501    0 -0.14284257704E+02  0.59458056614E+02  0.11376774466E+03  0.12916040508E+03  0.10000000000E+00 0.  1.
         -5    1    3    3    0  501  0.36459807236E+02 -0.28946435487E+02  0.40882649083E+01  0.46732617957E+02  0.10000000000E+00 0.  1.
         21    1    1    2  504  503 -0.22175549532E+02 -0.30511621126E+02 -0.77608523068E+02  0.86289031015E+02  0.00000000000E+00 0. -1.
<mgrwt>
<rscale>  1 0.13056920E+03</rscale>
<asrwt>0</asrwt>
<pdfrwt beam="1">  1       21 0.23263811E-01 0.13056920E+03</pdfrwt>
<pdfrwt beam="2">  1       21 0.17071890E-01 0.13056920E+03</pdfrwt>
<totfact> 0.54149748E+05</totfact>
</mgrwt>
</event>
<event>
 6    1  0.4244577E-002  0.1262538E+03  0.7546771E-02  0.1233123E+00
         21   -1    0    0  503  502  0.00000000000E+00  0.00000000000E+00  0.34769828691E+03  0.34769828691E+03  0.00000000000E+00 0.  1.
         21   -1    0    0  504  503 -0.00000000000E+00 -0.00000000000E+00 -0.25888492577E+02  0.25888492577E+02  0.00000000000E+00 0.  1.
         25    2    1    2    0    0  0.12484837178E+01 -0.17731770472E+02  0.33050470045E+03  0.35379850548E+03  0.12499620421E+03 0.  0.
          5    1    3    3  501    0  0.59619633294E+02 -0.14615170485E+01  0.21802792297E+03  0.22603721353E+03  0.10000000000E+00 0.  1.
         -5    1    3    3    0  501 -0.58371149576E+02 -0.16270253424E+02  0.11247677748E+03  0.12776129195E+03  0.10000000000E+00 0.  1.
         21    1    1    2  504  502 -0.12484837178E+01  0.17731770472E+02 -0.86949061155E+01  0.19788274003E+02  0.00000000000E+00 0.  1.
<mgrwt>
<rscale>  1 0.12625381E+03</rscale>
<asrwt>0</asrwt>
<pdfrwt beam="1">  1       21 0.53492041E-01 0.12625381E+03</pdfrwt>
<pdfrwt beam="2">  1       21 0.39828453E-02 0.12625381E+03</pdfrwt>
<totfact> 0.13049470E+06</totfact>
</mgrwt>
</event>
<event>
 6    1  0.4244577E-002  0.1271865E+03  0.7546771E-02  0.1231691E+00
         21   -1    0    0  504  502  0.00000000000E+00  0.00000000000E+00  0.81047471841E+01  0.81047471841E+01  0.00000000000E+00 0.  1.
         21   -1    0    0  502  503 -0.00000000000E+00 -0.00000000000E+00 -0.78807369542E+03  0.78807369542E+03  0.00000000000E+00 0.  1.
         25    2    1    2    0    0  0.16180149097E+02  0.17030711263E+02 -0.52739527596E+03  0.54251468430E+03  0.12499825288E+03 0.  0.
          5    1    3    3  501    0 -0.47883232671E+02  0.29821652009E+02 -0.32434882273E+03  0.32921771475E+03  0.10000000000E+00 0.  1.
         -5    1    3    3    0  501  0.64063381768E+02 -0.12790940746E+02 -0.20304645323E+03  0.21329696955E+03  0.10000000000E+00 0.  1.
         21    1    1    2  504  503 -0.16180149097E+02 -0.17030711263E+02 -0.25257367228E+03  0.25366375831E+03  0.00000000000E+00 0.  1.
<mgrwt>
<rscale>  1 0.12718650E+03</rscale>
<asrwt>0</asrwt>
<pdfrwt beam="1">  1       21 0.12468841E-02 0.12718650E+03</pdfrwt>
<pdfrwt beam="2">  1       21 0.12124212E+00 0.12718650E+03</pdfrwt>
<totfact> 0.13651585E+06</totfact>
</mgrwt>
</event>
<event>
 6    1  0.4244577E-002  0.1271364E+03  0.7546771E-02  0.1231768E+00
         21   -1    0    0  504  502  0.00000000000E+00  0.00000000000E+00  0.98474358425E+03  0.98474358425E+03  0.00000000000E+00 0. -1.
         21   -1    0    0  502  503 -0.00000000000E+00 -0.00000000000E+00 -0.57888284146E+01  0.57888284146E+01  0.00000000000E+00 0. -1.
         25    2    1    2    0    0 -0.22931858027E+02 -0.34739510754E+01  0.85879934758E+03  0.86815896545E+03  0.12500292576E+03 0.  0.
          5    1    3    3  501    0 -0.42113802188E+02 -0.35431841279E+02  0.17740332410E+03  0.18574427882E+03  0.10000000000E+00 0.  1.
         -5    1    3    3    0  501  0.19181944161E+02  0.31957890204E+02  0.68139602348E+03  0.68241468664E+03  0.10000000000E+00 0.  1.
         21    1    1    2  504  503  0.22931858027E+02  0.34739510754E+01  0.12015540826E+03  0.12237344721E+03  0.00000000000E+00 0. -1.
<mgrwt>
<rscale>  1 0.12713642E+03</rscale>
<asrwt>0</asrwt>
<pdfrwt beam="1">  1       21 0.15149888E+00 0.12713642E+03</pdfrwt>
<pdfrwt beam="2">  1       21 0.89058977E-03 0.12713642E+03</pdfrwt>
<totfact> 0.13250221E+06</totfact>
</mgrwt>
</event>
<event>
 6    1  0.4244577E-002  0.1286059E+03  0.7546771E-02  0.1229539E+00
         21   -1    0    0  504  502  0.00000000000E+00  0.00000000000E+00  0.67424028082E+02  0.67424028082E+02  0.00000000000E+00 0. -1.
         21   -1    0    0  502  503 -0.00000000000E+00 -0.00000000000E+00 -0.94226470540E+02  0.94226470540E+02  0.00000000000E+00 0. -1.
         25    2    1    2    0    0  0.26294898137E+02  0.14930727124E+02 -0.27009816844E+02  0.13141159513E+03  0.12500051539E+03 0.  0.
          5    1    3    3  501    0 -0.31411494932E+02  0.38929171869E+02 -0.44028193405E+02  0.66638234151E+02  0.10000000000E+00 0. -1.
         -5    1    3    3    0  501  0.57706393069E+02 -0.23998444745E+02  0.17018376561E+02  0.64773360975E+02  0.10000000000E+00 0. -1.
         21    1    1    2  504  503 -0.26294898137E+02 -0.14930727124E+02  0.20737438554E+00  0.30238903496E+02  0.00000000000E+00 0. -1.
<mgrwt>
<rscale>  1 0.12860590E+03</rscale>
<asrwt>0</asrwt>
<pdfrwt beam="1">  1       21 0.10372927E-01 0.12860590E+03</pdfrwt>
<pdfrwt beam="2">  1       21 0.14496380E-01 0.12860590E+03</pdfrwt>
<totfact> 0.31410334E+06</totfact>
</mgrwt>
</event>
<event>
 6    1  0.4244577E-002  0.1274200E+03  0.7546771E-02  0.1231335E+00
         21   -1    0    0  503  502  0.00000000000E+00  0.00000000000E+00  0.54240143065E+01  0.54240143065E+01  0.00000000000E+00 0.  1.
         21   -1    0    0  504  503 -0.00000000000E+00 -0.00000000000E+00 -0.14492639820E+04  0.14492639820E+04  0.00000000000E+00 0.  1.
         25    2    1    2    0    0 -0.24121745753E+02 -0.53930975313E+01 -0.77607113895E+03  0.78646187233E+03  0.12499967921E+03 0.  0.
          5    1    3    3  501    0 -0.22414794168E+02  0.37862172791E+02 -0.10305460635E+03  0.11205458052E+03  0.10000000000E+00 0. -1.
         -5    1    3    3    0  501 -0.17069515857E+01 -0.43255270322E+02 -0.67301653260E+03  0.67440729181E+03  0.10000000000E+00 0. -1.
         21    1    1    2  504  502  0.24121745753E+02  0.53930975313E+01 -0.66776882873E+03  0.66822612396E+03  0.00000000000E+00 0.  1.
<mgrwt>
<rscale>  1 0.12742003E+03</rscale>
<asrwt>0</asrwt>
<pdfrwt beam="1">  1       21 0.83446275E-03 0.12742003E+03</pdfrwt>
<pdfrwt beam="2">  1       21 0.22296395E+00 0.12742003E+03</pdfrwt>
<totfact> 0.49710362E+05</totfact>
</mgrwt>
</event>
<event>
 6    1  0.4244577E-002  0.1280433E+03  0.7546771E-02  0.1230388E+00
         21   -1    0    0  503  502  0.00000000000E+00  0.00000000000E+00  0.96046375962E+01  0.96046375962E+01  0.00000000000E+00 0.  1.
         21   -1    0    0  504  503 -0.00000000000E+00 -0.00000000000E+00 -0.84032774756E+03  0.84032774756E+03  0.00000000000E+00 0.  1.
         25    2    1    2    0    0  0.14682387980E+02 -0.23544309540E+02 -0.44072277286E+03  0.45894623454E+03  0.12500070663E+03 0.  0.
          5    1    3    3  501    0  0.35877724406E+02  0.41222847890E+02 -0.26273749323E+03  0.26836082920E+03  0.10000000000E+00 0.  1.
         -5    1    3    3    0  501 -0.21195336426E+02 -0.64767157431E+02 -0.17798527962E+03  0.19058540534E+03  0.10000000000E+00 0.  1.
         21    1    1    2  504  502 -0.14682387980E+02  0.23544309540E+02 -0.39000033711E+03  0.39098615062E+03  0.00000000000E+00 0.  1.
<mgrwt>
<rscale>  1 0.12804329E+03</rscale>
<asrwt>0</asrwt>
<pdfrwt beam="1">  1       21 0.14776367E-02 0.12804329E+03</pdfrwt>
<pdfrwt beam="2">  1       21 0.12928118E+00 0.12804329E+03</pdfrwt>
<totfact> 0.88932351E+05</totfact>
</mgrwt>
</event>
<event>
 6    1  0.4244577E-002  0.1310874E+03  0.7546771E-02  0.1225851E+00
         21   -1    0    0  503  502  0.00000000000E+00  0.00000000000E+00  0.54651385393E+02  0.54651385393E+02  0.00000000000E+00 0.  1.
         21   -1    0    0  504  503 -0.00000000000E+00 -0.00000000000E+00 -0.13841630767E+03  0.13841630767E+03  0.00000000000E+00 0.  1.
         25    2    1    2    0    0 -0.39477002971E+02 -0.34687217191E+00 -0.47402424673E+02  0.13939474535E+03  0.12500140432E+03 0.  0.
          5    1    3    3  501    0  0.36740994149E+02  0.31134707703E+02 -0.23179540361E+02  0.53446906049E+02  0.10000000000E+00 0. -1.
         -5    1    3    3    0  501 -0.76217997121E+02 -0.31481579875E+02 -0.24222884312E+02  0.85947839303E+02  0.10000000000E+00 0. -1.
         21    1    1    2  504  502  0.39477002971E+02  0.34687217191E+00 -0.36362497603E+02  0.53672947710E+02  0.00000000000E+00 0.  1.
<mgrwt>
<rscale>  1 0.13108740E+03</rscale>
<asrwt>0</asrwt>
<pdfrwt beam="1">  1       21 0.84079055E-02 0.13108740E+03</pdfrwt>
<pdfrwt beam="2">  1       21 0.21294816E-01 0.13108740E+03</pdfrwt>
<totfact> 0.22436949E+06</totfact>
</mgrwt>
</event>
<event>
 6    1  0.4244577E-002  0.1845413E+03  0.7546771E-02  0.1163479E+00
         21   -1    0    0  504  502  0.00000000000E+00  0.00000000000E+00  0.15274944981E+03  0.15274944981E+03  0.00000000000E+00 0. -1.
         21   -1    0    0  502  503 -0.00000000000E+00 -0.00000000000E+00 -0.16810177982E+03  0.16810177982E+03  0.00000000000E+00 0. -1.
         25    2    1    2    0    0  0.12862701326E+03 -0.43420601950E+02 -0.34674964911E+01  0.18457391500E+03  0.12500099741E+03 0.  0.
          5    1    3    3  501    0  0.12840884006E+03 -0.10914270702E+02 -0.40701310127E+02  0.13514643228E+03  0.10000000000E+00 0. -1.
         -5    1    3    3    0  501  0.21817319418E+00 -0.32506331248E+02  0.37233813636E+02  0.49427482726E+02  0.10000000000E+00 0. -1.
         21    1    1    2  504  503 -0.12862701326E+03  0.43420601950E+02 -0.11884833518E+02  0.13627731462E+03  0.00000000000E+00 0. -1.
<mgrwt>
<rscale>  1 0.18454134E+03</rscale>
<asrwt>0</asrwt>
<pdfrwt beam="1">  1       21 0.23499916E-01 0.18454134E+03</pdfrwt>
<pdfrwt beam="2">  1       21 0.25861812E-01 0.18454134E+03</pdfrwt>
<totfact> 0.24240046E+05</totfact>
</mgrwt>
</event>
<event>
 6    1  0.4244577E-002  0.1259560E+03  0.7546771E-02  0.1233583E+00
         21   -1    0    0  504  502  0.00000000000E+00  0.00000000000E+00  0.11938709262E+04  0.11938709262E+04  0.00000000000E+00 0. -1.
         21   -1    0    0  502  503 -0.00000000000E+00 -0.00000000000E+00 -0.24502809827E+03  0.24502809827E+03  0.00000000000E+00 0.  1.
         25    2    1    2    0    0  0.11039423029E+02  0.10861561911E+02  0.11903000058E+04  0.11969457002E+04  0.12500025205E+03 0.  0.
          5    1    3    3  501    0 -0.44164103618E+02  0.43303061859E+02  0.60535325924E+03  0.60850489044E+03  0.10000000000E+00 0.  1.
         -5    1    3    3    0  501  0.55203526646E+02 -0.32441499948E+02  0.58494674658E+03  0.58844080977E+03  0.10000000000E+00 0.  1.
         21    1    1    2  504  503 -0.11039423029E+02 -0.10861561911E+02 -0.24145717786E+03  0.24195332428E+03  0.00000000000E+00 0.  1.
<mgrwt>
<rscale>  1 0.12595597E+03</rscale>
<asrwt>0</asrwt>
<pdfrwt beam="1">  1       21 0.18367245E+00 0.12595597E+03</pdfrwt>
<pdfrwt beam="2">  1       21 0.37696631E-01 0.12595597E+03</pdfrwt>
<totfact> 0.12692472E+03</totfact>
</mgrwt>
</event>
<event>
 6    1  0.4244577E-002  0.1263963E+03  0.7546771E-02  0.1232903E+00
         21   -1    0    0  503  502  0.00000000000E+00  0.00000000000E+00  0.13059996505E+03  0.13059996505E+03  0.00000000000E+00 0. -1.
         21   -1    0    0  504  503 -0.00000000000E+00 -0.00000000000E+00 -0.17525510675E+03  0.17525510675E+03  0.00000000000E+00 0. -1.
         25    2    1    2    0    0 -0.65849371607E+01 -0.17503339882E+02  0.99270751032E+02  0.16071930467E+03  0.12500513821E+03 0.  0.
          5    1    3    3  501    0  0.52358425315E+02 -0.27293775104E+02  0.21930677005E+02  0.62986660928E+02  0.10000000000E+00 0. -1.
         -5    1    3    3    0  501 -0.58943362476E+02  0.97904352217E+01  0.77340074026E+02  0.97732643739E+02  0.10000000000E+00 0. -1.
         21    1    1    2  504  502  0.65849371607E+01  0.17503339882E+02 -0.14392589273E+03  0.14513576714E+03  0.00000000000E+00 0. -1.
<mgrwt>
<rscale>  1 0.12639625E+03</rscale>
<asrwt>0</asrwt>
<pdfrwt beam="1">  1       21 0.20092302E-01 0.12639625E+03</pdfrwt>
<pdfrwt beam="2">  1       21 0.26962324E-01 0.12639625E+03</pdfrwt>
<totfact> 0.30397405E+05</totfact>
</mgrwt>
</event>
<event>
 6    1  0.4244577E-002  0.1689768E+03  0.7546771E-02  0.1178919E+00
         21   -1    0    0  503  502  0.00000000000E+00  0.00000000000E+00  0.11658452888E+03  0.11658452888E+03  0.00000000000E+00 0.  1.
         21   -1    0    0  504  503 -0.00000000000E+00 -0.00000000000E+00 -0.21209943230E+03  0.21209943230E+03  0.00000000000E+00 0.  1.
         25    2    1    2    0    0  0.23580348361E+02  0.11123039162E+03  0.15610354568E+02  0.16969636477E+03  0.12499976080E+03 0.  0.
          5    1    3    3  501    0  0.17111069117E+02  0.43053309454E+02 -0.54607157683E+02  0.71612343989E+02  0.10000000000E+00 0.  1.
         -5    1    3    3    0  501  0.64692792442E+01  0.68177082164E+02  0.70217512251E+02  0.98084020784E+02  0.10000000000E+00 0.  1.
         21    1    1    2  504  502 -0.23580348361E+02 -0.11123039162E+03 -0.11112525798E+03  0.15898759640E+03  0.00000000000E+00 0.  1.
<mgrwt>
<rscale>  1 0.16897684E+03</rscale>
<asrwt>0</asrwt>
<pdfrwt beam="1">  1       21 0.17936082E-01 0.16897684E+03</pdfrwt>
<pdfrwt beam="2">  1       21 0.32630682E-01 0.16897684E+03</pdfrwt>
<totfact> 0.25698887E+05</totfact>
</mgrwt>
</event>
<event>
 6    1  0.4244577E-002  0.1308656E+03  0.7546771E-02  0.1226177E+00
         21   -1    0    0  504  502  0.00000000000E+00  0.00000000000E+00  0.20125055669E+03  0.20125055669E+03  0.00000000000E+00 0. -1.
         21   -1    0    0  502  503 -0.00000000000E+00 -0.00000000000E+00 -0.37577768428E+02  0.37577768428E+02  0.00000000000E+00 0. -1.
         25    2    1    2    0    0 -0.21259386712E+02  0.32399541627E+02  0.10169867281E+03  0.16573603547E+03  0.12499648627E+03 0.  0.
          5    1    3    3  501    0  0.46167001582E+00  0.32214705108E+02  0.12778836681E+03  0.13178724163E+03  0.10000000000E+00 0.  1.
         -5    1    3    3    0  501 -0.21721056728E+02  0.18483651936E+00 -0.26089693998E+02  0.33948793835E+02  0.10000000000E+00 0.  1.
         21    1    1    2  504  503  0.21259386712E+02 -0.32399541627E+02  0.61974115452E+02  0.73092289656E+02  0.00000000000E+00 0. -1.
<mgrwt>
<rscale>  1 0.13086563E+03</rscale>
<asrwt>0</asrwt>
<pdfrwt beam="1">  1       21 0.30961623E-01 0.13086563E+03</pdfrwt>
<pdfrwt beam="2">  1       21 0.57811953E-02 0.13086563E+03</pdfrwt>
<totfact> 0.20937441E+06</totfact>
</mgrwt>
</event>
<event>
 6    1  0.4244577E-002  0.1272857E+03  0.7546771E-02  0.1231540E+00
         21   -1    0    0  504  502  0.00000000000E+00  0.00000000000E+00  0.45564984441E+03  0.45564984441E+03  0.00000000000E+00 0.  1.
         21   -1    0    0  502  503 -0.00000000000E+00 -0.00000000000E+00 -0.12584466268E+02  0.12584466268E+02  0.00000000000E+00 0.  1.
         25    2    1    2    0    0 -0.22382660140E+02  0.86896872106E+01  0.38011543419E+03  0.40086080266E+03  0.12500058265E+03 0.  0.
          5    1    3    3  501    0 -0.34373330118E+02  0.41271107382E+02  0.35231017438E+03  0.35638083436E+03  0.10000000000E+00 0.  1.
         -5    1    3    3    0  501  0.11990669979E+02 -0.32581420171E+02  0.27805259808E+02  0.44479968299E+02  0.10000000000E+00 0.  1.
         21    1    1    2  504  503  0.22382660140E+02 -0.86896872106E+01  0.62949943957E+02  0.67373508020E+02  0.00000000000E+00 0.  1.
<mgrwt>
<rscale>  1 0.12728566E+03</rscale>
<asrwt>0</asrwt>
<pdfrwt beam="1">  1       21 0.70099963E-01 0.12728566E+03</pdfrwt>
<pdfrwt beam="2">  1       21 0.19360721E-02 0.12728566E+03</pdfrwt>
<totfact> 0.23853024E+06</totfact>
</mgrwt>
</event>
<event>
 6    1  0.4244577E-002  0.1671920E+03  0.7546771E-02  0.1180808E+00
         21   -1    0    0  504  502  0.00000000000E+00  0.00000000000E+00  0.80678675662E+02  0.80678675662E+02  0.00000000000E+00 0.  1.
         21   -1    0    0  502  503 -0.00000000000E+00 -0.00000000000E+00 -0.24876257860E+03  0.24876257860E+03  0.00000000000E+00 0.  1.
         25    2    1    2    0    0 -0.66926882432E+02  0.88595044112E+02 -0.69870484454E+02  0.18120439986E+03  0.12499944199E+03 0.  0.
          5    1    3    3  501    0  0.27246943273E+02 -0.47324114352E+01 -0.34050451211E+02  0.43866101529E+02  0.10000000000E+00 0. -1.
         -5    1    3    3    0  501 -0.94173825705E+02  0.93327455547E+02 -0.35820033244E+02  0.13733829833E+03  0.10000000000E+00 0. -1.
         21    1    1    2  504  503  0.66926882432E+02 -0.88595044112E+02 -0.98213418485E+02  0.14823685440E+03  0.00000000000E+00 0.  1.
<mgrwt>
<rscale>  1 0.16719196E+03</rscale>
<asrwt>0</asrwt>
<pdfrwt beam="1">  1       21 0.12412104E-01 0.16719196E+03</pdfrwt>
<pdfrwt beam="2">  1       21 0.38271165E-01 0.16719196E+03</pdfrwt>
<totfact> 0.36563544E+05</totfact>
</mgrwt>
</event>
<event>
 6    1  0.4244577E-002  0.1264481E+03  0.7546771E-02  0.1232823E+00
         21   -1    0    0  504  502  0.00000000000E+00  0.00000000000E+00  0.14704516861E+02  0.14704516861E+02  0.00000000000E+00 0.  1.
         21   -1    0    0  502  503 -0.00000000000E+00 -0.00000000000E+00 -0.52360634373E+03  0.52360634373E+03  0.00000000000E+00 0.  1.
         25    2    1    2    0    0 -0.63291349540E+01  0.17991127544E+02 -0.26455518531E+03  0.29322104061E+03  0.12500157583E+03 0.  0.
          5    1    3    3  501    0 -0.39748457993E+02 -0.36365955016E+02 -0.69136709730E+02  0.87648829024E+02  0.10000000000E+00 0.  1.
         -5    1    3    3    0  501  0.33419323039E+02  0.54357082560E+02 -0.19541847558E+03  0.20557221158E+03  0.10000000000E+00 0.  1.
         21    1    1    2  504  503  0.63291349540E+01 -0.17991127544E+02 -0.24434664156E+03  0.24508981998E+03  0.00000000000E+00 0.  1.
<mgrwt>
<rscale>  1 0.12644814E+03</rscale>
<asrwt>0</asrwt>
<pdfrwt beam="1">  1       21 0.22622333E-02 0.12644814E+03</pdfrwt>
<pdfrwt beam="2">  1       21 0.80554825E-01 0.12644814E+03</pdfrwt>
<totfact> 0.13644976E+06</totfact>
</mgrwt>
</event>
<event>
 6    1  0.4244577E-002  0.1276819E+03  0.7546771E-02  0.1230936E+00
         21   -1    0    0  503  502  0.00000000000E+00  0.00000000000E+00  0.30148994383E+02  0.30148994383E+02  0.00000000000E+00 0.  1.
         21   -1    0    0  504  503 -0.00000000000E+00 -0.00000000000E+00 -0.20375547812E+03  0.20375547812E+03  0.00000000000E+00 0.  1.
         25    2    1    2    0    0  0.75391581390E+01  0.24948802688E+02 -0.12462773968E+03  0.17842295278E+03  0.12499357952E+03 0.  0.
          5    1    3    3  501    0 -0.48283175605E+02 -0.32010042497E+01 -0.12394013693E+02  0.49951306791E+02  0.10000000000E+00 0. -1.
         -5    1    3    3    0  501  0.55822333744E+02  0.28149806938E+02 -0.11223372599E+03  0.12847164599E+03  0.10000000000E+00 0. -1.
         21    1    1    2  504  502 -0.75391581390E+01 -0.24948802688E+02 -0.48978744061E+02  0.55481519724E+02  0.00000000000E+00 0.  1.
<mgrwt>
<rscale>  1 0.12768194E+03</rscale>
<asrwt>0</asrwt>
<pdfrwt beam="1">  1       21 0.46383069E-02 0.12768194E+03</pdfrwt>
<pdfrwt beam="2">  1       21 0.31346996E-01 0.12768194E+03</pdfrwt>
<totfact> 0.29588935E+06</totfact>
</mgrwt>
</event>
<event>
 6    1  0.4244577E-002  0.1353140E+03  0.7546771E-02  0.1219777E+00
         21   -1    0    0  503  502  0.00000000000E+00  0.00000000000E+00  0.75593676017E+02  0.75593676017E+02  0.00000000000E+00 0. -1.
         21   -1    0    0  504  503 -0.00000000000E+00 -0.00000000000E+00 -0.41303084524E+03  0.41303084524E+03  0.00000000000E+00 0. -1.
         25    2    1    2    0    0  0.51328291711E+02 -0.70657740528E+01  0.11555667937E+02  0.13580655249E+03  0.12500147017E+03 0.  0.
          5    1    3    3  501    0  0.87734319401E+02 -0.54689983254E+01  0.32565138320E+02  0.93742834271E+02  0.10000000000E+00 0. -1.
         -5    1    3    3    0  501 -0.36406027690E+02 -0.15967757273E+01 -0.21009470383E+02  0.42063718222E+02  0.10000000000E+00 0. -1.
         21    1    1    2  504  502 -0.51328291711E+02  0.70657740528E+01 -0.34899283716E+03  0.35281796876E+03  0.00000000000E+00 0. -1.
<mgrwt>
<rscale>  1 0.13531403E+03</rscale>
<asrwt>0</asrwt>
<pdfrwt beam="1">  1       21 0.11629796E-01 0.13531403E+03</pdfrwt>
<pdfrwt beam="2">  1       21 0.63543207E-01 0.13531403E+03</pdfrwt>
<totfact> 0.14486122E+05</totfact>
</mgrwt>
</event>
<event>
 6    1  0.4244577E-002  0.2032580E+03  0.7546771E-02  0.1147019E+00
         21   -1    0    0  504  502  0.00000000000E+00  0.00000000000E+00  0.49225201757E+03  0.49225201757E+03  0.00000000000E+00 0.  1.
         21   -1    0    0  502  503 -0.00000000000E+00 -0.00000000000E+00 -0.15844544484E+03  0.15844544484E+03  0.00000000000E+00 0.  1.
         25    2    1    2    0    0  0.11260265374E+03  0.11404655269E+03  0.42154155114E+03  0.46798621412E+03  0.12501137333E+03 0.  0.
          5    1    3    3  501    0  0.10166193227E+03  0.15862296581E+02  0.18593161767E+03  0.21250255852E+03  0.10000000000E+00 0. -1.
         -5    1    3    3    0  501  0.10940721475E+02  0.98184256111E+02  0.23560993347E+03  0.25548365561E+03  0.10000000000E+00 0. -1.
         21    1    1    2  504  503 -0.11260265374E+03 -0.11404655269E+03 -0.87734978412E+02  0.18271124828E+03  0.00000000000E+00 0.  1.
<mgrwt>
<rscale>  1 0.20325801E+03</rscale>
<asrwt>0</asrwt>
<pdfrwt beam="1">  1       21 0.75731079E-01 0.20325801E+03</pdfrwt>
<pdfrwt beam="2">  1       21 0.24376223E-01 0.20325801E+03</pdfrwt>
<totfact> 0.24576556E+04</totfact>
</mgrwt>
</event>
<event>
 6    1  0.4244577E-002  0.1336914E+03  0.7546771E-02  0.1222079E+00
         21   -1    0    0  503  502  0.00000000000E+00  0.00000000000E+00  0.35073177199E+03  0.35073177199E+03  0.00000000000E+00 0.  1.
         21   -1    0    0  504  503 -0.00000000000E+00 -0.00000000000E+00 -0.30360100608E+02  0.30360100608E+02  0.00000000000E+00 0.  1.
         25    2    1    2    0    0  0.39518895162E+02 -0.26159847816E+02  0.30198928369E+03  0.33025888242E+03  0.12500928464E+03 0.  0.
          5    1    3    3  501    0  0.22972967371E+02 -0.58071008955E+02  0.63454154263E+02  0.89030550959E+02  0.10000000000E+00 0. -1.
         -5    1    3    3    0  501  0.16545927791E+02  0.31911161139E+02  0.23853512943E+03  0.24122833147E+03  0.10000000000E+00 0. -1.
         21    1    1    2  504  502 -0.39518895162E+02  0.26159847816E+02  0.18382387694E+02  0.50832990173E+02  0.00000000000E+00 0.  1.
<mgrwt>
<rscale>  1 0.13369144E+03</rscale>
<asrwt>0</asrwt>
<pdfrwt beam="1">  1       21 0.53958731E-01 0.13369144E+03</pdfrwt>
<pdfrwt beam="2">  1       21 0.46707849E-02 0.13369144E+03</pdfrwt>
<totfact> 0.98299842E+05</totfact>
</mgrwt>
</event>
<event>
 6    1  0.4244577E-002  0.1260804E+03  0.7546771E-02  0.1233390E+00
         21   -1    0    0  504  502  0.00000000000E+00  0.00000000000E+00  0.26125467812E+02  0.26125467812E+02  0.00000000000E+00 0. -1.
         21   -1    0    0  502  503 -0.00000000000E+00 -0.00000000000E+00 -0.19433619408E+03  0.19433619408E+03  0.00000000000E+00 0. -1.
         25    2    1    2    0    0  0.30042431060E+01 -0.16149377529E+02 -0.14908547141E+03  0.19525048888E+03  0.12500579087E+03 0.  0.
          5    1    3    3  501    0  0.37641478297E+02 -0.57984047874E+02 -0.63395905546E+02  0.93798089193E+02  0.10000000000E+00 0. -1.
         -5    1    3    3    0  501 -0.34637235191E+02  0.41834670346E+02 -0.85689565868E+02  0.10145239969E+03  0.10000000000E+00 0. -1.
         21    1    1    2  504  503 -0.30042431060E+01  0.16149377529E+02 -0.19125254859E+02  0.25211173012E+02  0.00000000000E+00 0. -1.
<mgrwt>
<rscale>  1 0.12608043E+03</rscale>
<asrwt>0</asrwt>
<pdfrwt beam="1">  1       21 0.40193028E-02 0.12608043E+03</pdfrwt>
<pdfrwt beam="2">  1       21 0.29897875E-01 0.12608043E+03</pdfrwt>
<totfact> 0.41144708E+06</totfact>
</mgrwt>
</event>
<event>
 6    1  0.4244577E-002  0.1263512E+03  0.7546771E-02  0.1232973E+00
         21   -1    0    0  503  502  0.00000000000E+00  0.00000000000E+00  0.26026996494E+03  0.26026996494E+03  0.00000000000E+00 0.  1.
         21   -1    0    0  504  503 -0.00000000000E+00 -0.00000000000E+00 -0.60226032704E+02  0.60226032704E+02  0.00000000000E+00 0.  1.
         25    2    1    2    0    0 -0.17258772537E+02 -0.64966993596E+01  0.24292396418E+03  0.27381870691E+03  0.12499823818E+03 0.  0.
          5    1    3    3  501    0  0.12334768527E+02 -0.57381792698E+01 -0.11417211948E+02  0.17760516451E+02  0.10000000000E+00 0. -1.
         -5    1    3    3    0  501 -0.29593541064E+02 -0.75852008979E+00  0.25434117613E+03  0.25605819045E+03  0.10000000000E+00 0. -1.
         21    1    1    2  504  502  0.17258772537E+02  0.64966993596E+01 -0.42880031938E+02  0.46677290742E+02  0.00000000000E+00 0.  1.
<mgrwt>
<rscale>  1 0.12635122E+03</rscale>
<asrwt>0</asrwt>
<pdfrwt beam="1">  1       21 0.40041532E-01 0.12635122E+03</pdfrwt>
<pdfrwt beam="2">  1       21 0.92655437E-02 0.12635122E+03</pdfrwt>
<totfact> 0.56205465E+05</totfact>
</mgrwt>
</event>
<event>
 6    1  0.4244577E-002  0.1264292E+03  0.7546771E-02  0.1232852E+00
         21   -1    0    0  503  502  0.00000000000E+00  0.00000000000E+00  0.11673027092E+03  0.11673027092E+03  0.00000000000E+00 0. -1.
         21   -1    0    0  504  503 -0.00000000000E+00 -0.00000000000E+00 -0.63973028869E+02  0.63973028869E+02  0.00000000000E+00 0. -1.
         25    2    1    2    0    0 -0.67075274953E+01 -0.17650616040E+02  0.78470511988E+02  0.14880177282E+03  0.12501124418E+03 0.  0.
          5    1    3    3  501    0  0.52831066147E+02 -0.21908724752E+02  0.10165070409E+02  0.58090037243E+02  0.10000000000E+00 0.  1.
         -5    1    3    3    0  501 -0.59538593642E+02  0.42581087124E+01  0.68305441579E+02  0.90711735580E+02  0.10000000000E+00 0.  1.
         21    1    1    2  504  502  0.67075274953E+01  0.17650616040E+02 -0.25713269939E+02  0.31901526964E+02  0.00000000000E+00 0. -1.
<mgrwt>
<rscale>  1 0.12642921E+03</rscale>
<asrwt>0</asrwt>
<pdfrwt beam="1">  1       21 0.17958503E-01 0.12642921E+03</pdfrwt>
<pdfrwt beam="2">  1       21 0.98420045E-02 0.12642921E+03</pdfrwt>
<totfact> 0.23339955E+06</totfact>
</mgrwt>
</event>
<event>
 6    1  0.4244577E-002  0.1386067E+03  0.7546771E-02  0.1215216E+00
         21   -1    0    0  504  502  0.00000000000E+00  0.00000000000E+00  0.15804549625E+03  0.15804549625E+03  0.00000000000E+00 0. -1.
         21   -1    0    0  502  503 -0.00000000000E+00 -0.00000000000E+00 -0.84635761395E+02  0.84635761395E+02  0.00000000000E+00 0.  1.
         25    2    1    2    0    0  0.52906408897E+02 -0.28057156627E+02  0.10600824005E+03  0.17449801424E+03  0.12500207148E+03 0.  0.
          5    1    3    3  501    0 -0.12850782291E+02  0.41142766438E+02  0.30968279533E+02  0.53074609494E+02  0.10000000000E+00 0. -1.
         -5    1    3    3    0  501  0.65757191188E+02 -0.69199923065E+02  0.75039960521E+02  0.12142340475E+03  0.10000000000E+00 0. -1.
         21    1    1    2  504  503 -0.52906408897E+02  0.28057156627E+02 -0.32598505197E+02  0.68183243407E+02  0.00000000000E+00 0.  1.
<mgrwt>
<rscale>  1 0.13860667E+03</rscale>
<asrwt>0</asrwt>
<pdfrwt beam="1">  1       21 0.24314692E-01 0.13860667E+03</pdfrwt>
<pdfrwt beam="2">  1       21 0.13020886E-01 0.13860667E+03</pdfrwt>
<totfact> 0.81209964E+05</totfact>
</mgrwt>
</event>
<event>
 6    1  0.4244577E-002  0.1501789E+03  0.7546771E-02  0.1200253E+00
         21   -1    0    0  503  502  0.00000000000E+00  0.00000000000E+00  0.34396253136E+03  0.34396253136E+03  0.00000000000E+00 0.  1.
         21   -1    0    0  504  503 -0.00000000000E+00 -0.00000000000E+00 -0.61312151803E+02  0.61312151803E+02  0.00000000000E+00 0. -1.
         25    2    1    2    0    0  0.39829969610E+02  0.73089173138E+02  0.28484337071E+03  0.32200846600E+03  0.12500101052E+03 0.  0.
          5    1    3    3  501    0  0.64642205609E+02  0.68450101027E+02  0.28115271116E+03  0.29649770331E+03  0.10000000000E+00 0. -1.
         -5    1    3    3    0  501 -0.24812235999E+02  0.46390721110E+01  0.36906595555E+01  0.25510762695E+02  0.10000000000E+00 0. -1.
         21    1    1    2  504  502 -0.39829969610E+02 -0.73089173138E+02 -0.21929911588E+01  0.83266217155E+02  0.00000000000E+00 0. -1.
<mgrwt>
<rscale>  1 0.15017891E+03</rscale>
<asrwt>0</asrwt>
<pdfrwt beam="1">  1       21 0.52917311E-01 0.15017891E+03</pdfrwt>
<pdfrwt beam="2">  1       21 0.94326390E-02 0.15017891E+03</pdfrwt>
<totfact> 0.30732499E+05</totfact>
</mgrwt>
</event>
<event>
 6    1  0.4244577E-002  0.1261549E+03  0.7546771E-02  0.1233275E+00
         21   -1    0    0  503  502  0.00000000000E+00  0.00000000000E+00  0.21543518234E+03  0.21543518234E+03  0.00000000000E+00 0.  1.
         21   -1    0    0  504  503 -0.00000000000E+00 -0.00000000000E+00 -0.23923635301E+02  0.23923635301E+02  0.00000000000E+00 0.  1.
         25    2    1    2    0    0 -0.16654823684E+02 -0.35812989489E+01  0.17407449211E+03  0.21498137441E+03  0.12499941473E+03 0.  0.
          5    1    3    3  501    0  0.34060234342E+02  0.44514967076E+02  0.71349144777E+02  0.90732531749E+02  0.10000000000E+00 0.  1.
         -5    1    3    3    0  501 -0.50715058026E+02 -0.48096266025E+02  0.10272534734E+03  0.12424884266E+03  0.10000000000E+00 0.  1.
         21    1    1    2  504  502  0.16654823684E+02  0.35812989489E+01  0.17437054922E+02  0.24377443231E+02  0.00000000000E+00 0. -1.
<mgrwt>
<rscale>  1 0.12615491E+03</rscale>
<asrwt>0</asrwt>
<pdfrwt beam="1">  1       21 0.33143873E-01 0.12615491E+03</pdfrwt>
<pdfrwt beam="2">  1       21 0.36805594E-02 0.12615491E+03</pdfrwt>
<totfact> 0.38986678E+06</totfact>
</mgrwt>
</event>
<event>
 6    1  0.4244577E-002  0.1304064E+03  0.7546771E-02  0.1226854E+00
         21   -1    0    0  503  502  0.00000000000E+00  0.00000000000E+00  0.25350598096E+02  0.25350598096E+02  0.00000000000E+00 0. -1.
         21   -1    0    0  504  503 -0.00000000000E+00 -0.00000000000E+00 -0.27894700973E+03  0.27894700973E+03  0.00000000000E+00 0. -1.
         25    2    1    2    0    0 -0.37289715426E+01  0.36964501157E+02 -0.18593272225E+03  0.22710528673E+03  0.12500221792E+03 0.  0.
          5    1    3    3  501    0  0.28176797594E+02  0.73199769377E+02 -0.87759322861E+02  0.11770236577E+03  0.10000000000E+00 0. -1.
         -5    1    3    3    0  501 -0.31905769136E+02 -0.36235268220E+02 -0.98173399386E+02  0.10940292096E+03  0.10000000000E+00 0. -1.
         21    1    1    2  504  502  0.37289715426E+01 -0.36964501157E+02 -0.67663689382E+02  0.77192321090E+02  0.00000000000E+00 0. -1.
<mgrwt>
<rscale>  1 0.13040642E+03</rscale>
<asrwt>0</asrwt>
<pdfrwt beam="1">  1       21 0.39000919E-02 0.13040642E+03</pdfrwt>
<pdfrwt beam="2">  1       21 0.42914926E-01 0.13040642E+03</pdfrwt>
<totfact> 0.21241084E+06</totfact>
</mgrwt>
</event>
<event>
 6    1  0.4244577E-002  0.1268388E+03  0.7546771E-02  0.1232223E+00
         21   -1    0    0  503  502  0.00000000000E+00  0.00000000000E+00  0.13292513501E+03  0.13292513501E+03  0.00000000000E+00 0.  1.
         21   -1    0    0  504  503 -0.00000000000E+00 -0.00000000000E+00 -0.41403544916E+02  0.41403544916E+02  0.00000000000E+00 0.  1.
         25    2    1    2    0    0  0.15144735049E+02 -0.15282752162E+02  0.77293735429E+02  0.14853415799E+03  0.12500059616E+03 0.  0.
          5    1    3    3  501    0 -0.55377713487E+02 -0.66029587852E+01  0.32892979834E+02  0.64747573994E+02  0.10000000000E+00 0.  1.
         -5    1    3    3    0  501  0.70522448537E+02 -0.86797933770E+01  0.44400755596E+02  0.83786583999E+02  0.10000000000E+00 0.  1.
         21    1    1    2  504  502 -0.15144735049E+02  0.15282752162E+02  0.14227854665E+02  0.25794521933E+02  0.00000000000E+00 0.  1.
<mgrwt>
<rscale>  1 0.12683877E+03</rscale>
<asrwt>0</asrwt>
<pdfrwt beam="1">  1       21 0.20450021E-01 0.12683877E+03</pdfrwt>
<pdfrwt beam="2">  1       21 0.63697762E-02 0.12683877E+03</pdfrwt>
<totfact> 0.38889907E+06</totfact>
</mgrwt>
</event>
<event>
 6    1  0.4244577E-002  0.1448793E+03  0.7546771E-02  0.1206910E+00
         21   -1    0    0  504  502  0.00000000000E+00  0.00000000000E+00  0.20694401273E+03  0.20694401273E+03  0.00000000000E+00 0.  1.
         21   -1    0    0  502  503 -0.00000000000E+00 -0.00000000000E+00 -0.65817337554E+02  0.65817337554E+02  0.00000000000E+00 0.  1.
         25    2    1    2    0    0 -0.66744485675E+02 -0.30199557594E+02  0.13698395354E+03  0.19938559277E+03  0.12499268552E+03 0.  0.
          5    1    3    3  501    0 -0.80629471948E+02 -0.64827769957E+02  0.11985825426E+03  0.15833433809E+03  0.10000000000E+00 0. -1.
         -5    1    3    3    0  501  0.13884986273E+02  0.34628212363E+02  0.17125699272E+02  0.41051254680E+02  0.10000000000E+00 0. -1.
         21    1    1    2  504  503  0.66744485675E+02  0.30199557594E+02  0.41427216356E+01  0.73375757505E+02  0.00000000000E+00 0.  1.
<mgrwt>
<rscale>  1 0.14487930E+03</rscale>
<asrwt>0</asrwt>
<pdfrwt beam="1">  1       21 0.31837540E-01 0.14487930E+03</pdfrwt>
<pdfrwt beam="2">  1       21 0.10125744E-01 0.14487930E+03</pdfrwt>
<totfact> 0.75591581E+05</totfact>
</mgrwt>
</event>
<event>
 6    1  0.4244577E-002  0.1262836E+03  0.7546771E-02  0.1233077E+00
         21   -1    0    0  503  502  0.00000000000E+00  0.00000000000E+00  0.65224791869E+01  0.65224791869E+01  0.00000000000E+00 0.  1.
         21   -1    0    0  504  503 -0.00000000000E+00 -0.00000000000E+00 -0.88840307487E+03  0.88840307487E+03  0.00000000000E+00 0.  1.
         25    2    1    2    0    0  0.79015842125E+01  0.16249458572E+02 -0.63809071506E+03  0.65046699758E+03  0.12498429648E+03 0.  0.
          5    1    3    3  501    0 -0.21086492043E+02  0.47370083113E+02 -0.12115042256E+03  0.13178011917E+03  0.10000000000E+00 0. -1.
         -5    1    3    3    0  501  0.28988076256E+02 -0.31120624542E+02 -0.51694029250E+03  0.51868687842E+03  0.10000000000E+00 0. -1.
         21    1    1    2  504  502 -0.79015842125E+01 -0.16249458572E+02 -0.24378988063E+03  0.24445855648E+03  0.00000000000E+00 0.  1.
<mgrwt>
<rscale>  1 0.12628363E+03</rscale>
<asrwt>0</asrwt>
<pdfrwt beam="1">  1       21 0.10034581E-02 0.12628363E+03</pdfrwt>
<pdfrwt beam="2">  1       21 0.13667743E+00 0.12628363E+03</pdfrwt>
<totfact> 0.14296473E+06</totfact>
</mgrwt>
</event>
<event>
 6    1  0.4244577E-002  0.1288119E+03  0.7546771E-02  0.1229229E+00
         21   -1    0    0  504  502  0.00000000000E+00  0.00000000000E+00  0.35813986097E+03  0.35813986097E+03  0.00000000000E+00 0. -1.
         21   -1    0    0  502  503 -0.00000000000E+00 -0.00000000000E+00 -0.26031968539E+02  0.26031968539E+02  0.00000000000E+00 0. -1.
         25    2    1    2    0    0 -0.14391652467E+02 -0.27560950748E+02  0.32852287851E+03  0.35287361883E+03  0.12500313393E+03 0.  0.
          5    1    3    3  501    0 -0.33993165574E+02 -0.52921003182E+02  0.30901514000E+03  0.31535144622E+03  0.10000000000E+00 0. -1.
         -5    1    3    3    0  501  0.19601513107E+02  0.25360052433E+02  0.19507738511E+02  0.37522172609E+02  0.10000000000E+00 0. -1.
         21    1    1    2  504  503  0.14391652467E+02  0.27560950748E+02  0.35850139195E+01  0.31298210679E+02  0.00000000000E+00 0. -1.
<mgrwt>
<rscale>  1 0.12881191E+03</rscale>
<asrwt>0</asrwt>
<pdfrwt beam="1">  1       21 0.55098437E-01 0.12881191E+03</pdfrwt>
<pdfrwt beam="2">  1       21 0.40049185E-02 0.12881191E+03</pdfrwt>
<totfact> 0.12158491E+06</totfact>
</mgrwt>
</event>
<event>
 6    1  0.4244577E-002  0.1261920E+03  0.7546771E-02  0.1233218E+00
         21   -1    0    0  504  502  0.00000000000E+00  0.00000000000E+00  0.74067206755E+01  0.74067206755E+01  0.00000000000E+00 0. -1.
         21   -1    0    0  502  503 -0.00000000000E+00 -0.00000000000E+00 -0.88931264935E+03  0.88931264935E+03  0.00000000000E+00 0. -1.
         25    2    1    2    0    0  0.51901848587E+00  0.17279338605E+02 -0.54699542793E+03  0.56136300967E+03  0.12500234208E+03 0.  0.
          5    1    3    3  501    0 -0.53660287414E+02 -0.21244810117E+02 -0.30444861095E+03  0.30987051346E+03  0.10000000000E+00 0.  1.
         -5    1    3    3    0  501  0.54179305899E+02  0.38524148722E+02 -0.24254681698E+03  0.25149249621E+03  0.10000000000E+00 0.  1.
         21    1    1    2  504  503 -0.51901848587E+00 -0.17279338605E+02 -0.33491050074E+03  0.33535636036E+03  0.00000000000E+00 0.  1.
<mgrwt>
<rscale>  1 0.12619204E+03</rscale>
<asrwt>0</asrwt>
<pdfrwt beam="1">  1       21 0.11394952E-02 0.12619204E+03</pdfrwt>
<pdfrwt beam="2">  1       21 0.13681737E+00 0.12619204E+03</pdfrwt>
<totfact> 0.11667019E+06</totfact>
</mgrwt>
</event>
<event>
 6    1  0.4244577E-002  0.1273356E+03  0.7546771E-02  0.1231464E+00
         21   -1    0    0  504  502  0.00000000000E+00  0.00000000000E+00  0.22116679255E+03  0.22116679255E+03  0.00000000000E+00 0.  1.
         21   -1    0    0  502  503 -0.00000000000E+00 -0.00000000000E+00 -0.12451520107E+04  0.12451520107E+04  0.00000000000E+00 0.  1.
         25    2    1    2    0    0 -0.97646340005E+01 -0.22244006315E+02  0.20270837359E+03  0.23938469259E+03  0.12499680967E+03 0.  0.
          5    1    3    3  501    0 -0.42468790114E+02  0.20310910484E+02  0.17030407131E+03  0.17669074091E+03  0.10000000000E+00 0. -1.
         -5    1    3    3    0  501  0.32704156113E+02 -0.42554916800E+02  0.32404302279E+02  0.62693951679E+02  0.10000000000E+00 0. -1.
         21    1    1    2  504  503  0.97646340005E+01  0.22244006315E+02 -0.12266935917E+04  0.12269341107E+04  0.00000000000E+00 0.  1.
<mgrwt>
<rscale>  1 0.12733557E+03</rscale>
<asrwt>0</asrwt>
<pdfrwt beam="1">  1       21 0.34025661E-01 0.12733557E+03</pdfrwt>
<pdfrwt beam="2">  1       21 0.19156184E+00 0.12733557E+03</pdfrwt>
<totfact> 0.13769919E+03</totfact>
</mgrwt>
</event>
<event>
 6    1  0.4244577E-002  0.1280023E+03  0.7546771E-02  0.1230450E+00
         21   -1    0    0  504  502  0.00000000000E+00  0.00000000000E+00  0.11065116587E+03  0.11065116587E+03  0.00000000000E+00 0. -1.
         21   -1    0    0  502  503 -0.00000000000E+00 -0.00000000000E+00 -0.62549900427E+02  0.62549900427E+02  0.00000000000E+00 0. -1.
         25    2    1    2    0    0  0.21206585880E+02 -0.17643418141E+02  0.62094617906E+02  0.14226850415E+03  0.12499430471E+03 0.  0.
          5    1    3    3  501    0 -0.49137455566E+02  0.46077715386E+01  0.62710139307E+01  0.49749941847E+02  0.10000000000E+00 0.  1.
         -5    1    3    3    0  501  0.70344041446E+02 -0.22251189680E+02  0.55823603975E+02  0.92518562299E+02  0.10000000000E+00 0.  1.
         21    1    1    2  504  503 -0.21206585880E+02  0.17643418141E+02 -0.13993352460E+02  0.30932562155E+02  0.00000000000E+00 0. -1.
<mgrwt>
<rscale>  1 0.12800229E+03</rscale>
<asrwt>0</asrwt>
<pdfrwt beam="1">  1       21 0.17023256E-01 0.12800229E+03</pdfrwt>
<pdfrwt beam="2">  1       21 0.96230616E-02 0.12800229E+03</pdfrwt>
<totfact> 0.26775218E+06</totfact>
</mgrwt>
</event>
<event>
 6    1  0.4244577E-002  0.1287728E+03  0.7546771E-02  0.1229288E+00
         21   -1    0    0  503  502  0.00000000000E+00  0.00000000000E+00  0.54093219025E+02  0.54093219025E+02  0.00000000000E+00 0.  1.
         21   -1    0    0  504  503 -0.00000000000E+00 -0.00000000000E+00 -0.13236671924E+03  0.13236671924E+03  0.00000000000E+00 0.  1.
         25    2    1    2    0    0 -0.96641975947E+01  0.29413607148E+02 -0.35352054737E+02  0.13353728260E+03  0.12499552420E+03 0.  0.
          5    1    3    3  501    0 -0.33193661537E+02 -0.37191777292E+02 -0.38256787924E+02  0.62838199263E+02  0.10000000000E+00 0.  1.
         -5    1    3    3    0  501  0.23529463942E+02  0.66605384440E+02  0.29047331874E+01  0.70699083337E+02  0.10000000000E+00 0.  1.
         21    1    1    2  504  502  0.96641975947E+01 -0.29413607148E+02 -0.42921445479E+02  0.52922655665E+02  0.00000000000E+00 0.  1.
<mgrwt>
<rscale>  1 0.12877282E+03</rscale>
<asrwt>0</asrwt>
<pdfrwt beam="1">  1       21 0.83220338E-02 0.12877282E+03</pdfrwt>
<pdfrwt beam="2">  1       21 0.20364110E-01 0.12877282E+03</pdfrwt>
<totfact> 0.24799886E+06</totfact>
</mgrwt>
</event>
<event>
 6    1  0.4244577E-002  0.1275045E+03  0.7546771E-02  0.1231206E+00
         21   -1    0    0  504  502  0.00000000000E+00  0.00000000000E+00  0.82082879036E+03  0.82082879036E+03  0.00000000000E+00 0. -1.
         21   -1    0    0  502  503 -0.00000000000E+00 -0.00000000000E+00 -0.31729911361E+03  0.31729911361E+03  0.00000000000E+00 0.  1.
         25    2    1    2    0    0  0.23014329807E+02  0.10133859120E+02  0.81536808155E+03  0.82527722844E+03  0.12500016356E+03 0.  0.
          5    1    3    3  501    0 -0.13262697930E+02 -0.26298213415E+02  0.48888890841E+02  0.57075641327E+02  0.10000000000E+00 0. -1.
         -5    1    3    3    0  501  0.36277027737E+02  0.36432072535E+02  0.76647919071E+03  0.76820158711E+03  0.10000000000E+00 0. -1.
         21    1    1    2  504  503 -0.23014329807E+02 -0.10133859120E+02 -0.31183840479E+03  0.31285067553E+03  0.00000000000E+00 0.  1.
<mgrwt>
<rscale>  1 0.12750449E+03</rscale>
<asrwt>0</asrwt>
<pdfrwt beam="1">  1       21 0.12628135E+00 0.12750449E+03</pdfrwt>
<pdfrwt beam="2">  1       21 0.48815249E-01 0.12750449E+03</pdfrwt>
<totfact> 0.19991811E+03</totfact>
</mgrwt>
</event>
<event>
 6    1  0.4244577E-002  0.1273209E+03  0.7546771E-02  0.1231486E+00
         21   -1    0    0  504  502  0.00000000000E+00  0.00000000000E+00  0.27545140364E+03  0.27545140364E+03  0.00000000000E+00 0.  1.
         21   -1    0    0  502  503 -0.00000000000E+00 -0.00000000000E+00 -0.37320286180E+03  0.37320286180E+03  0.00000000000E+00 0. -1.
         25    2    1    2    0    0 -0.24130278993E+02  0.16524062094E+01  0.26030882793E+03  0.28977800642E+03  0.12500242516E+03 0.  0.
          5    1    3    3  501    0  0.34633366910E+02 -0.51908963424E+01  0.16169771894E+02  0.38573138730E+02  0.10000000000E+00 0.  1.
         -5    1    3    3    0  501 -0.58763645903E+02  0.68433025517E+01  0.24413905604E+03  0.25120486769E+03  0.10000000000E+00 0.  1.
         21    1    1    2  504  503  0.24130278993E+02 -0.16524062094E+01 -0.35806028609E+03  0.35887625902E+03  0.00000000000E+00 0. -1.
<mgrwt>
<rscale>  1 0.12732088E+03</rscale>
<asrwt>0</asrwt>
<pdfrwt beam="1">  1       21 0.42377139E-01 0.12732088E+03</pdfrwt>
<pdfrwt beam="2">  1       21 0.57415825E-01 0.12732088E+03</pdfrwt>
<totfact> 0.15960893E+04</totfact>
</mgrwt>
</event>
<event>
 6    1  0.4244577E-002  0.1300090E+03  0.7546771E-02  0.1227442E+00
         21   -1    0    0  504  502  0.00000000000E+00  0.00000000000E+00  0.26879975522E+02  0.26879975522E+02  0.00000000000E+00 0.  1.
         21   -1    0    0  502  503 -0.00000000000E+00 -0.00000000000E+00 -0.25583739925E+03  0.25583739925E+03  0.00000000000E+00 0.  1.
         25    2    1    2    0    0  0.31323653027E+02 -0.17176100182E+02 -0.18395863354E+03  0.22526234214E+03  0.12500461702E+03 0.  0.
          5    1    3    3  501    0 -0.88247384078E+01  0.46848939158E+02 -0.38246757132E+02  0.61118929468E+02  0.10000000000E+00 0.  1.
         -5    1    3    3    0  501  0.40148391435E+02 -0.64025039339E+02 -0.14571187641E+03  0.16414341267E+03  0.10000000000E+00 0.  1.
         21    1    1    2  504  503 -0.31323653027E+02  0.17176100182E+02 -0.44998790186E+02  0.57455032631E+02  0.00000000000E+00 0.  1.
<mgrwt>
<rscale>  1 0.13000901E+03</rscale>
<asrwt>0</asrwt>
<pdfrwt beam="1">  1       21 0.41353806E-02 0.13000901E+03</pdfrwt>
<pdfrwt beam="2">  1       21 0.39359603E-01 0.13000901E+03</pdfrwt>
<totfact> 0.22922181E+06</totfact>
</mgrwt>
</event>
<event>
 6    1  0.4244577E-002  0.1460921E+03  0.7546771E-02  0.1205359E+00
         21   -1    0    0  504  502  0.00000000000E+00  0.00000000000E+00  0.11376142570E+03  0.11376142570E+03  0.00000000000E+00 0.  1.
         21   -1    0    0  502  503 -0.00000000000E+00 -0.00000000000E+00 -0.11068192500E+03  0.11068192500E+03  0.00000000000E+00 0.  1.
         25    2    1    2    0    0 -0.28182616172E+02 -0.70172931662E+02 -0.14488480269E+02  0.14680873118E+03  0.12499754916E+03 0.  0.
          5    1    3    3  501    0  0.26272810398E+02  0.43647948449E+01  0.33477962404E+02  0.42779620931E+02  0.10000000000E+00 0. -1.
         -5    1    3    3    0  501 -0.54455426570E+02 -0.74537726507E+02 -0.47966442673E+02  0.10402911025E+03  0.10000000000E+00 0. -1.
         21    1    1    2  504  503  0.28182616172E+02  0.70172931662E+02  0.17567980970E+02  0.77634619519E+02  0.00000000000E+00 0.  1.
<mgrwt>
<rscale>  1 0.14609205E+03</rscale>
<asrwt>0</asrwt>
<pdfrwt beam="1">  1       21 0.17501758E-01 0.14609205E+03</pdfrwt>
<pdfrwt beam="2">  1       21 0.17027988E-01 0.14609205E+03</pdfrwt>
<totfact> 0.92180967E+05</totfact>
</mgrwt>
</event>
<event>
 6    1  0.4244577E-002  0.1271930E+03  0.7546771E-02  0.1231681E+00
         21   -1    0    0  503  502  0.00000000000E+00  0.00000000000E+00  0.76859784591E+02  0.76859784591E+02  0.00000000000E+00 0.  1.
         21   -1    0    0  504  503 -0.00000000000E+00 -0.00000000000E+00 -0.91020824283E+02  0.91020824283E+02  0.00000000000E+00 0.  1.
         25    2    1    2    0    0 -0.31306414216E+01  0.23487130854E+02  0.17439795002E+02  0.12838302686E+03  0.12496643111E+03 0.  0.
          5    1    3    3  501    0 -0.62644980237E+02  0.17365031300E+01  0.25429198261E-01  0.62669128274E+02  0.10000000000E+00 0. -1.
         -5    1    3    3    0  501  0.59514338816E+02  0.21750627724E+02  0.17414365804E+02  0.65713898586E+02  0.10000000000E+00 0. -1.
         21    1    1    2  504  502  0.31306414216E+01 -0.23487130854E+02 -0.31600834695E+02  0.39497582013E+02  0.00000000000E+00 0.  1.
<mgrwt>
<rscale>  1 0.12719298E+03</rscale>
<asrwt>0</asrwt>
<pdfrwt beam="1">  1       21 0.11824582E-01 0.12719298E+03</pdfrwt>
<pdfrwt beam="2">  1       21 0.14003204E-01 0.12719298E+03</pdfrwt>
<totfact> 0.26527043E+06</totfact>
</mgrwt>
</event>
<event>
 6    1  0.4244577E-002  0.1278524E+03  0.7546771E-02  0.1230678E+00
         21   -1    0    0  504  502  0.00000000000E+00  0.00000000000E+00  0.23087055618E+03  0.23087055618E+03  0.00000000000E+00 0. -1.
         21   -1    0    0  502  503 -0.00000000000E+00 -0.00000000000E+00 -0.26952606662E+02  0.26952606662E+02  0.00000000000E+00 0. -1.
         25    2    1    2    0    0 -0.26767343980E+02  0.22357083140E+01  0.18535419509E+03  0.22517194427E+03  0.12499895102E+03 0.  0.
          5    1    3    3  501    0  0.49423443658E+02  0.12453512790E+02  0.75349225116E+02  0.90968579682E+02  0.10000000000E+00 0.  1.
         -5    1    3    3    0  501 -0.76190787638E+02 -0.10217804476E+02  0.11000496997E+03  0.13420336459E+03  0.10000000000E+00 0.  1.
         21    1    1    2  504  503  0.26767343980E+02 -0.22357083140E+01  0.18563754431E+02  0.32651218568E+02  0.00000000000E+00 0. -1.
<mgrwt>
<rscale>  1 0.12785236E+03</rscale>
<asrwt>0</asrwt>
<pdfrwt beam="1">  1       21 0.35518546E-01 0.12785236E+03</pdfrwt>
<pdfrwt beam="2">  1       21 0.41465550E-02 0.12785236E+03</pdfrwt>
<totfact> 0.27951453E+06</totfact>
</mgrwt>
</event>
<event>
 6    1  0.4244577E-002  0.1259734E+03  0.7546771E-02  0.1233556E+00
         21   -1    0    0  503  502  0.00000000000E+00  0.00000000000E+00  0.24320963014E+03  0.24320963014E+03  0.00000000000E+00 0.  1.
         21   -1    0    0  504  503 -0.00000000000E+00 -0.00000000000E+00 -0.20630076529E+02  0.20630076529E+02  0.00000000000E+00 0.  1.
         25    2    1    2    0    0  0.11233278980E+02 -0.10794547271E+02  0.20127473433E+03  0.23744644746E+03  0.12500635152E+03 0.  0.
          5    1    3    3  501    0 -0.11794741592E+02  0.17429069181E+02  0.19988903491E+03  0.20099384234E+03  0.10000000000E+00 0. -1.
         -5    1    3    3    0  501  0.23028020572E+02 -0.28223616452E+02  0.13856994278E+01  0.36452605120E+02  0.10000000000E+00 0. -1.
         21    1    1    2  504  502 -0.11233278980E+02  0.10794547271E+02  0.21304819275E+02  0.26393259211E+02  0.00000000000E+00 0.  1.
<mgrwt>
<rscale>  1 0.12597340E+03</rscale>
<asrwt>0</asrwt>
<pdfrwt beam="1">  1       21 0.37416864E-01 0.12597340E+03</pdfrwt>
<pdfrwt beam="2">  1       21 0.31738581E-02 0.12597340E+03</pdfrwt>
<totfact> 0.39215851E+06</totfact>
</mgrwt>
</event>
<event>
 6    1  0.4244577E-002  0.1498200E+03  0.7546771E-02  0.1200694E+00
         21   -1    0    0  503  502  0.00000000000E+00  0.00000000000E+00  0.55920667562E+03  0.55920667562E+03  0.00000000000E+00 0.  1.
         21   -1    0    0  504  503 -0.00000000000E+00 -0.00000000000E+00 -0.87558058280E+02  0.87558058280E+02  0.00000000000E+00 0. -1.
         25    2    1    2    0    0 -0.82410844458E+02  0.55800639727E+01  0.52663866076E+03  0.54753475218E+03  0.12499336559E+03 0.  0.
          5    1    3    3  501    0  0.21108074574E+02  0.12565375198E+02  0.26406779179E+03  0.26520793376E+03  0.10000000000E+00 0.  1.
         -5    1    3    3    0  501 -0.10351891903E+03 -0.69853112252E+01  0.26257086896E+03  0.28232681842E+03  0.10000000000E+00 0.  1.
         21    1    1    2  504  502  0.82410844458E+02 -0.55800639727E+01 -0.54990043415E+02  0.99229981724E+02  0.00000000000E+00 0. -1.
<mgrwt>
<rscale>  1 0.14981998E+03</rscale>
<asrwt>0</asrwt>
<pdfrwt beam="1">  1       21 0.86031794E-01 0.14981998E+03</pdfrwt>
<pdfrwt beam="2">  1       21 0.13470471E-01 0.14981998E+03</pdfrwt>
<totfact> 0.56746608E+04</totfact>
</mgrwt>
</event>
<event>
 6    1  0.4244577E-002  0.1379924E+03  0.7546771E-02  0.1216056E+00
         21   -1    0    0  503  502  0.00000000000E+00  0.00000000000E+00  0.36949920708E+03  0.36949920708E+03  0.00000000000E+00 0. -1.
         21   -1    0    0  504  503 -0.00000000000E+00 -0.00000000000E+00 -0.47786932460E+02  0.47786932460E+02  0.00000000000E+00 0. -1.
         25    2    1    2    0    0 -0.57736153595E+02  0.91489650689E+01  0.33052030922E+03  0.35816974192E+03  0.12499888891E+03 0.  0.
          5    1    3    3  501    0 -0.47065268897E+02 -0.55294512270E+02  0.17919184065E+03  0.19334515349E+03  0.10000000000E+00 0.  1.
         -5    1    3    3    0  501 -0.10670884699E+02  0.64443477339E+02  0.15132846857E+03  0.16482458843E+03  0.10000000000E+00 0.  1.
         21    1    1    2  504  502  0.57736153595E+02 -0.91489650689E+01 -0.88080345991E+01  0.59116397618E+02  0.00000000000E+00 0. -1.
<mgrwt>
<rscale>  1 0.13799235E+03</rscale>
<asrwt>0</asrwt>
<pdfrwt beam="1">  1       21 0.56846030E-01 0.13799235E+03</pdfrwt>
<pdfrwt beam="2">  1       21 0.73518360E-02 0.13799235E+03</pdfrwt>
<totfact> 0.40812216E+05</totfact>
</mgrwt>
</event>
<event>
 6    1  0.4244577E-002  0.1272750E+03  0.7546771E-02  0.1231556E+00
         21   -1    0    0  503  502  0.00000000000E+00  0.00000000000E+00  0.38678509446E+03  0.38678509446E+03  0.00000000000E+00 0.  1.
         21   -1    0    0  504  503 -0.00000000000E+00 -0.00000000000E+00 -0.16065331002E+02  0.16065331002E+02  0.00000000000E+00 0.  1.
         25    2    1    2    0    0 -0.13931427611E+02  0.19448966103E+02  0.34498111049E+03  0.36771034558E+03  0.12500633861E+03 0.  0.
          5    1    3    3  501    0  0.27510587501E+02 -0.33052938793E+02  0.23564970993E+03  0.23954148906E+03  0.10000000000E+00 0.  1.
         -5    1    3    3    0  501 -0.41442015112E+02  0.52501904896E+02  0.10933140056E+03  0.12816885652E+03  0.10000000000E+00 0.  1.
         21    1    1    2  504  502  0.13931427611E+02 -0.19448966103E+02  0.25738652966E+02  0.35140079884E+02  0.00000000000E+00 0.  1.
<mgrwt>
<rscale>  1 0.12727502E+03</rscale>
<asrwt>0</asrwt>
<pdfrwt beam="1">  1       21 0.59505392E-01 0.12727502E+03</pdfrwt>
<pdfrwt beam="2">  1       21 0.24715897E-02 0.12727502E+03</pdfrwt>
<totfact> 0.22847591E+06</totfact>
</mgrwt>
</event>
<event>
 6    1  0.4244577E-002  0.1275788E+03  0.7546771E-02  0.1231093E+00
         21   -1    0    0  504  502  0.00000000000E+00  0.00000000000E+00  0.10052399432E+03  0.10052399432E+03  0.00000000000E+00 0. -1.
         21   -1    0    0  502  503 -0.00000000000E+00 -0.00000000000E+00 -0.61490288416E+02  0.61490288416E+02  0.00000000000E+00 0. -1.
         25    2    1    2    0    0  0.11586563646E+02 -0.22746952190E+02  0.45890922695E+02  0.13558146765E+03  0.12499874117E+03 0.  0.
          5    1    3    3  501    0 -0.23342173507E+02 -0.60754036296E+02 -0.20744448966E+01  0.65116997104E+02  0.10000000000E+00 0. -1.
         -5    1    3    3    0  501  0.34928737153E+02  0.38007084106E+02  0.47965367591E+02  0.70464470547E+02  0.10000000000E+00 0. -1.
         21    1    1    2  504  503 -0.11586563646E+02  0.22746952190E+02 -0.68572167927E+01  0.26432815083E+02  0.00000000000E+00 0. -1.
<mgrwt>
<rscale>  1 0.12757883E+03</rscale>
<asrwt>0</asrwt>
<pdfrwt beam="1">  1       21 0.15465230E-01 0.12757883E+03</pdfrwt>
<pdfrwt beam="2">  1       21 0.94600444E-02 0.12757883E+03</pdfrwt>
<totfact> 0.32826750E+06</totfact>
</mgrwt>
</event>
<event>
 6    1  0.4244577E-002  0.1370154E+03  0.7546771E-02  0.1217402E+00
         21   -1    0    0  504  502  0.00000000000E+00  0.00000000000E+00  0.56752118285E+03  0.56752118285E+03  0.00000000000E+00 0.  1.
         21   -1    0    0  502  503 -0.00000000000E+00 -0.00000000000E+00 -0.18716145893E+02  0.18716145893E+02  0.00000000000E+00 0.  1.
         25    2    1    2    0    0  0.30977686881E+02  0.46783554043E+02  0.46953950053E+03  0.48912222550E+03  0.12499956361E+03 0.  0.
          5    1    3    3  501    0 -0.33882568313E+02 -0.97457775921E+01  0.52097525108E+02  0.62906046917E+02  0.10000000000E+00 0. -1.
         -5    1    3    3    0  501  0.64860255194E+02  0.56529331635E+02  0.41744197542E+03  0.42621617858E+03  0.10000000000E+00 0. -1.
         21    1    1    2  504  503 -0.30977686881E+02 -0.46783554043E+02  0.79265536429E+02  0.97115103247E+02  0.00000000000E+00 0.  1.
<mgrwt>
<rscale>  1 0.13701536E+03</rscale>
<asrwt>0</asrwt>
<pdfrwt beam="1">  1       21 0.87310938E-01 0.13701536E+03</pdfrwt>
<pdfrwt beam="2">  1       21 0.28794075E-02 0.13701536E+03</pdfrwt>
<totfact> 0.76795920E+05</totfact>
</mgrwt>
</event>
<event>
 6    1  0.4244577E-002  0.1279269E+03  0.7546771E-02  0.1230565E+00
         21   -1    0    0  504  502  0.00000000000E+00  0.00000000000E+00  0.19800560619E+02  0.19800560619E+02  0.00000000000E+00 0.  1.
         21   -1    0    0  502  503 -0.00000000000E+00 -0.00000000000E+00 -0.30390215068E+03  0.30390215068E+03  0.00000000000E+00 0.  1.
         25    2    1    2    0    0  0.21908874732E+02  0.16144491188E+02 -0.23496608075E+03  0.26753384392E+03  0.12499862059E+03 0.  0.
          5    1    3    3  501    0  0.40556427739E+02  0.88077124549E+01 -0.24257429081E+03  0.24609895610E+03  0.10000000000E+00 0.  1.
         -5    1    3    3    0  501 -0.18647553007E+02  0.73367787330E+01  0.76082100648E+01  0.21434887817E+02  0.10000000000E+00 0.  1.
         21    1    1    2  504  503 -0.21908874732E+02 -0.16144491188E+02 -0.49135509317E+02  0.56168867387E+02  0.00000000000E+00 0. -1.
<mgrwt>
<rscale>  1 0.12792693E+03</rscale>
<asrwt>0</asrwt>
<pdfrwt beam="1">  1       21 0.30462402E-02 0.12792693E+03</pdfrwt>
<pdfrwt beam="2">  1       21 0.46754175E-01 0.12792693E+03</pdfrwt>
<totfact> 0.26818722E+06</totfact>
</mgrwt>
</event>
<event>
 6    1  0.4244577E-002  0.1322289E+03  0.7546771E-02  0.1224185E+00
         21   -1    0    0  503  502  0.00000000000E+00  0.00000000000E+00  0.12143421013E+04  0.12143421013E+04  0.00000000000E+00 0.  1.
         21   -1    0    0  504  503 -0.00000000000E+00 -0.00000000000E+00 -0.64525514759E+01  0.64525514759E+01  0.00000000000E+00 0.  1.
         25    2    1    2    0    0 -0.34431336959E+01  0.42975318511E+02  0.83221069734E+03  0.84265005957E+03  0.12500297975E+03 0.  0.
          5    1    3    3  501    0 -0.47911562597E+02 -0.14442228034E+02  0.19516969437E+03  0.20148279177E+03  0.10000000000E+00 0.  1.
         -5    1    3    3    0  501  0.44468428901E+02  0.57417546545E+02  0.63704100297E+03  0.64116726779E+03  0.10000000000E+00 0.  1.
         21    1    1    2  504  502  0.34431336959E+01 -0.42975318511E+02  0.37567885251E+03  0.37814459324E+03  0.00000000000E+00 0.  1.
<mgrwt>
<rscale>  1 0.13222889E+03</rscale>
<asrwt>0</asrwt>
<pdfrwt beam="1">  1       21 0.18682168E+00 0.13222889E+03</pdfrwt>
<pdfrwt beam="2">  1       21 0.99270119E-03 0.13222889E+03</pdfrwt>
<totfact> 0.63380378E+05</totfact>
</mgrwt>
</event>
<event>
 6    1  0.4244577E-002  0.1568149E+03  0.7546771E-02  0.1192340E+00
         21   -1    0    0  503  502  0.00000000000E+00  0.00000000000E+00  0.92606287790E+02  0.92606287790E+02  0.00000000000E+00 0. -1.
         21   -1    0    0  504  503 -0.00000000000E+00 -0.00000000000E+00 -0.34253506156E+03  0.34253506156E+03  0.00000000000E+00 0. -1.
         25    2    1    2    0    0  0.92676122130E+02  0.19407349994E+02  0.11359474718E+02  0.15722579087E+03  0.12500161120E+03 0.  0.
          5    1    3    3  501    0 -0.15047249046E+02 -0.28046968159E+02 -0.17086487622E+02  0.36124924720E+02  0.10000000000E+00 0.  1.
         -5    1    3    3    0  501  0.10772337118E+03  0.47454318153E+02  0.28445962340E+02  0.12110086615E+03  0.10000000000E+00 0.  1.
         21    1    1    2  504  502 -0.92676122130E+02 -0.19407349994E+02 -0.26128824849E+03  0.27791555848E+03  0.00000000000E+00 0. -1.
<mgrwt>
<rscale>  1 0.15681490E+03</rscale>
<asrwt>0</asrwt>
<pdfrwt beam="1">  1       21 0.14247121E-01 0.15681490E+03</pdfrwt>
<pdfrwt beam="2">  1       21 0.52697701E-01 0.15681490E+03</pdfrwt>
<totfact> 0.14883473E+05</totfact>
</mgrwt>
</event>
<event>
 6    1  0.4244577E-002  0.1390083E+03  0.7546771E-02  0.1214670E+00
         21   -1    0    0  503  502  0.00000000000E+00  0.00000000000E+00  0.16197672819E+03  0.16197672819E+03  0.00000000000E+00 0.  1.
         21   -1    0    0  504  503 -0.00000000000E+00 -0.00000000000E+00 -0.10407230515E+03  0.10407230515E+03  0.00000000000E+00 0.  1.
         25    2    1    2    0    0  0.48833925510E+02 -0.36311401231E+02  0.11664862401E+03  0.18146681720E+03  0.12498013490E+03 0.  0.
          5    1    3    3  501    0  0.88496434590E+02 -0.12361881681E+02  0.57200765940E+02  0.10609605402E+03  0.10000000000E+00 0.  1.
         -5    1    3    3    0  501 -0.39662509079E+02 -0.23949519550E+02  0.59447858073E+02  0.75370763182E+02  0.10000000000E+00 0.  1.
         21    1    1    2  504  502 -0.48833925510E+02  0.36311401231E+02 -0.58744200975E+02  0.84582216147E+02  0.00000000000E+00 0.  1.
<mgrwt>
<rscale>  1 0.13900829E+03</rscale>
<asrwt>0</asrwt>
<pdfrwt beam="1">  1       21 0.24919497E-01 0.13900829E+03</pdfrwt>
<pdfrwt beam="2">  1       21 0.16011124E-01 0.13900829E+03</pdfrwt>
<totfact> 0.53425833E+05</totfact>
</mgrwt>
</event>
<event>
 6    1  0.4244577E-002  0.1880570E+03  0.7546771E-02  0.1160226E+00
         21   -1    0    0  503  502  0.00000000000E+00  0.00000000000E+00  0.10681345383E+04  0.10681345383E+04  0.00000000000E+00 0.  1.
         21   -1    0    0  504  503 -0.00000000000E+00 -0.00000000000E+00 -0.30032220701E+02  0.30032220701E+02  0.00000000000E+00 0.  1.
         25    2    1    2    0    0 -0.12592841632E+03 -0.62304959670E+02  0.79907043205E+03  0.82090133320E+03  0.12500227772E+03 0.  0.
          5    1    3    3  501    0  0.28828135444E+01 -0.52769795530E+02  0.14826495497E+03  0.15740225159E+03  0.10000000000E+00 0. -1.
         -5    1    3    3    0  501 -0.12881122986E+03 -0.95351641396E+01  0.65080547709E+03  0.66349908161E+03  0.10000000000E+00 0. -1.
         21    1    1    2  504  502  0.12592841632E+03  0.62304959670E+02  0.23903188555E+03  0.27726542580E+03  0.00000000000E+00 0.  1.
<mgrwt>
<rscale>  1 0.18805702E+03</rscale>
<asrwt>0</asrwt>
<pdfrwt beam="1">  1       21 0.16432836E+00 0.18805702E+03</pdfrwt>
<pdfrwt beam="2">  1       21 0.46203425E-02 0.18805702E+03</pdfrwt>
<totfact> 0.72162562E+04</totfact>
</mgrwt>
</event>
<event>
 6    1  0.4244577E-002  0.1283796E+03  0.7546771E-02  0.1229880E+00
         21   -1    0    0  503  502  0.00000000000E+00  0.00000000000E+00  0.21781752631E+04  0.21781752631E+04  0.00000000000E+00 0. -1.
         21   -1    0    0  504  503 -0.00000000000E+00 -0.00000000000E+00 -0.16765978463E+02  0.16765978463E+02  0.00000000000E+00 0. -1.
         25    2    1    2    0    0  0.28354386720E+02 -0.64183975989E+01  0.21620541885E+04  0.21658623321E+04  0.12504463335E+03 0.  0.
          5    1    3    3  501    0  0.55973322900E+02 -0.51078096466E+02  0.12361286718E+04  0.12384490656E+04  0.10000000000E+00 0. -1.
         -5    1    3    3    0  501 -0.27618936179E+02  0.44659698867E+02  0.92592551675E+03  0.92741326652E+03  0.10000000000E+00 0. -1.
         21    1    1    2  504  502 -0.28354386720E+02  0.64183975989E+01 -0.64490391582E+00  0.29078909455E+02  0.00000000000E+00 0. -1.
<mgrwt>
<rscale>  1 0.12837962E+03</rscale>
<asrwt>0</asrwt>
<pdfrwt beam="1">  1       21 0.33510366E+00 0.12837962E+03</pdfrwt>
<pdfrwt beam="2">  1       21 0.25793830E-02 0.12837962E+03</pdfrwt>
<totfact> 0.18849332E+04</totfact>
</mgrwt>
</event>
<event>
 6    1  0.4244577E-002  0.1325081E+03  0.7546771E-02  0.1223781E+00
         21   -1    0    0  504  502  0.00000000000E+00  0.00000000000E+00  0.84407914248E+02  0.84407914248E+02  0.00000000000E+00 0. -1.
         21   -1    0    0  502  503 -0.00000000000E+00 -0.00000000000E+00 -0.94699961475E+02  0.94699961475E+02  0.00000000000E+00 0. -1.
         25    2    1    2    0    0 -0.28407494719E+02 -0.33532508568E+02  0.49264171364E+01  0.13259963404E+03  0.12500791365E+03 0.  0.
          5    1    3    3  501    0  0.19698782877E+02 -0.60294538685E+02  0.32231802869E+02  0.71150351779E+02  0.10000000000E+00 0.  1.
         -5    1    3    3    0  501 -0.48106277595E+02  0.26762030117E+02 -0.27305385733E+02  0.61449282258E+02  0.10000000000E+00 0.  1.
         21    1    1    2  504  503  0.28407494719E+02  0.33532508568E+02 -0.15218464364E+02  0.46508241685E+02  0.00000000000E+00 0. -1.
<mgrwt>
<rscale>  1 0.13250809E+03</rscale>
<asrwt>0</asrwt>
<pdfrwt beam="1">  1       21 0.12985833E-01 0.13250809E+03</pdfrwt>
<pdfrwt beam="2">  1       21 0.14569225E-01 0.13250809E+03</pdfrwt>
<totfact> 0.20946667E+06</totfact>
</mgrwt>
</event>
<event>
 6    1  0.4244577E-002  0.1264238E+03  0.7546771E-02  0.1232861E+00
         21   -1    0    0  503  502  0.00000000000E+00  0.00000000000E+00  0.43760227902E+02  0.43760227902E+02  0.00000000000E+00 0.  1.
         21   -1    0    0  504  503 -0.00000000000E+00 -0.00000000000E+00 -0.17663213474E+03  0.17663213474E+03  0.00000000000E+00 0.  1.
         25    2    1    2    0    0 -0.18436291991E+02  0.40314119390E+01 -0.50915923773E+02  0.13629163551E+03  0.12500731767E+03 0.  0.
          5    1    3    3  501    0 -0.29510034900E+02  0.22937193047E+02  0.32817600970E+02  0.49738937645E+02  0.10000000000E+00 0.  1.
         -5    1    3    3    0  501  0.11073742909E+02 -0.18905781108E+02 -0.83733524743E+02  0.86552697862E+02  0.10000000000E+00 0.  1.
         21    1    1    2  504  502  0.18436291991E+02 -0.40314119390E+01 -0.81955983068E+02  0.84100727138E+02  0.00000000000E+00 0.  1.
<mgrwt>
<rscale>  1 0.12642381E+03</rscale>
<asrwt>0</asrwt>
<pdfrwt beam="1">  1       21 0.67323429E-02 0.12642381E+03</pdfrwt>
<pdfrwt beam="2">  1       21 0.27174174E-01 0.12642381E+03</pdfrwt>
<totfact> 0.20747979E+06</totfact>
</mgrwt>
</event>
<event>
 6    1  0.4244577E-002  0.1271760E+03  0.7546771E-02  0.1231707E+00
         21   -1    0    0  503  502  0.00000000000E+00  0.00000000000E+00  0.72319089203E+03  0.72319089203E+03  0.00000000000E+00 0.  1.
         21   -1    0    0  504  503 -0.00000000000E+00 -0.00000000000E+00 -0.15996237741E+02  0.15996237741E+02  0.00000000000E+00 0. -1.
         25    2    1    2    0    0  0.30736443761E+01 -0.23238607911E+02  0.70415797002E+03  0.71555025945E+03  0.12499698744E+03 0.  0.
          5    1    3    3  501    0  0.51587894666E+02 -0.44470984530E+02  0.50078542354E+03  0.50539591388E+03  0.10000000000E+00 0. -1.
         -5    1    3    3    0  501 -0.48514250290E+02  0.21232376619E+02  0.20337254648E+03  0.21015434556E+03  0.10000000000E+00 0. -1.
         21    1    1    2  504  502 -0.30736443761E+01  0.23238607911E+02  0.30366842720E+01  0.23636870325E+02  0.00000000000E+00 0. -1.
<mgrwt>
<rscale>  1 0.12717597E+03</rscale>
<asrwt>0</asrwt>
<pdfrwt beam="1">  1       21 0.11126011E+00 0.12717597E+03</pdfrwt>
<pdfrwt beam="2">  1       21 0.24609602E-02 0.12717597E+03</pdfrwt>
<totfact> 0.56392005E+05</totfact>
</mgrwt>
</event>
<event>
 6    1  0.4244577E-002  0.1260895E+03  0.7546771E-02  0.1233376E+00
         21   -1    0    0  504  502  0.00000000000E+00  0.00000000000E+00  0.46965190889E+03  0.46965190889E+03  0.00000000000E+00 0. -1.
         21   -1    0    0  502  503 -0.00000000000E+00 -0.00000000000E+00 -0.40584533778E+02  0.40584533778E+02  0.00000000000E+00 0. -1.
         25    2    1    2    0    0  0.72141831656E+01  0.14871008480E+02  0.45902163503E+03  0.47602461695E+03  0.12500153274E+03 0.  0.
          5    1    3    3  501    0  0.17640451926E+01 -0.35501892844E+02  0.38312122726E+03  0.38476665790E+03  0.10000000000E+00 0. -1.
         -5    1    3    3    0  501  0.54501379730E+01  0.50372901324E+02  0.75900407767E+02  0.91257959055E+02  0.10000000000E+00 0. -1.
         21    1    1    2  504  503 -0.72141831656E+01 -0.14871008480E+02 -0.29954259914E+02  0.34211825718E+02  0.00000000000E+00 0. -1.
<mgrwt>
<rscale>  1 0.12608955E+03</rscale>
<asrwt>0</asrwt>
<pdfrwt beam="1">  1       21 0.72254136E-01 0.12608955E+03</pdfrwt>
<pdfrwt beam="2">  1       21 0.62437747E-02 0.12608955E+03</pdfrwt>
<totfact> 0.32283998E+05</totfact>
</mgrwt>
</event>
<event>
 6    1  0.4244577E-002  0.1268100E+03  0.7546771E-02  0.1232267E+00
         21   -1    0    0  504  502  0.00000000000E+00  0.00000000000E+00  0.63491076159E+03  0.63491076159E+03  0.00000000000E+00 0. -1.
         21   -1    0    0  502  503 -0.00000000000E+00 -0.00000000000E+00 -0.28965407169E+02  0.28965407169E+02  0.00000000000E+00 0. -1.
         25    2    1    2    0    0 -0.76288947170E+01  0.19941007562E+02  0.62348176668E+03  0.63624702523E+03  0.12499967968E+03 0.  0.
          5    1    3    3  501    0  0.44481869509E+01  0.59728420976E+02  0.53655413687E+03  0.53988667555E+03  0.10000000000E+00 0.  1.
         -5    1    3    3    0  501 -0.12077081668E+02 -0.39787413414E+02  0.86927629801E+02  0.96360349680E+02  0.10000000000E+00 0.  1.
         21    1    1    2  504  503  0.76288947170E+01 -0.19941007562E+02 -0.17536412256E+02  0.27629143527E+02  0.00000000000E+00 0. -1.
<mgrwt>
<rscale>  1 0.12680995E+03</rscale>
<asrwt>0</asrwt>
<pdfrwt beam="1">  1       21 0.97678568E-01 0.12680995E+03</pdfrwt>
<pdfrwt beam="2">  1       21 0.44562170E-02 0.12680995E+03</pdfrwt>
<totfact> 0.28854727E+05</totfact>
</mgrwt>
</event>
<event>
 6    1  0.4244577E-002  0.1277105E+03  0.7546771E-02  0.1230893E+00
         21   -1    0    0  503  502  0.00000000000E+00  0.00000000000E+00  0.20423500411E+04  0.20423500411E+04  0.00000000000E+00 0. -1.
         21   -1    0    0  504  503 -0.00000000000E+00 -0.00000000000E+00 -0.55428601531E+01  0.55428601531E+01  0.00000000000E+00 0. -1.
         25    2    1    2    0    0 -0.23592882984E+02  0.11227282404E+02  0.19915075605E+04  0.19955982399E+04  0.12500918130E+03 0.  0.
          5    1    3    3  501    0  0.91242752716E+01  0.40446947309E+02  0.24097744465E+03  0.24451860211E+03  0.10000000000E+00 0. -1.
         -5    1    3    3    0  501 -0.32717158256E+02 -0.29219664906E+02  0.17505301159E+04  0.17510796378E+04  0.10000000000E+00 0. -1.
         21    1    1    2  504  502  0.23592882984E+02 -0.11227282404E+02  0.45299620461E+02  0.52294661406E+02  0.00000000000E+00 0. -1.
<mgrwt>
<rscale>  1 0.12771050E+03</rscale>
<asrwt>0</asrwt>
<pdfrwt beam="1">  1       21 0.31420710E+00 0.12771050E+03</pdfrwt>
<pdfrwt beam="2">  1       21 0.85274934E-03 0.12771050E+03</pdfrwt>
<totfact> 0.14508175E+05</totfact>
</mgrwt>
</event>
<event>
 6    1  0.4244577E-002  0.1303776E+03  0.7546771E-02  0.1226897E+00
         21   -1    0    0  503  502  0.00000000000E+00  0.00000000000E+00  0.33624754766E+03  0.33624754766E+03  0.00000000000E+00 0.  1.
         21   -1    0    0  504  503 -0.00000000000E+00 -0.00000000000E+00 -0.22554424002E+02  0.22554424002E+02  0.00000000000E+00 0.  1.
         25    2    1    2    0    0 -0.20014711697E+02  0.31180061918E+02  0.27937332648E+03  0.30829817553E+03  0.12500209814E+03 0.  0.
          5    1    3    3  501    0 -0.41785195312E+01  0.47693577518E+02  0.27149167084E+02  0.55038392375E+02  0.10000000000E+00 0.  1.
         -5    1    3    3    0  501 -0.15836192166E+02 -0.16513515599E+02  0.25222415939E+03  0.25325978315E+03  0.10000000000E+00 0.  1.
         21    1    1    2  504  502  0.20014711697E+02 -0.31180061918E+02  0.34319797178E+02  0.50503796133E+02  0.00000000000E+00 0.  1.
<mgrwt>
<rscale>  1 0.13037757E+03</rscale>
<asrwt>0</asrwt>
<pdfrwt beam="1">  1       21 0.51730388E-01 0.13037757E+03</pdfrwt>
<pdfrwt beam="2">  1       21 0.34699116E-02 0.13037757E+03</pdfrwt>
<totfact> 0.17585931E+06</totfact>
</mgrwt>
</event>
<event>
 6    1  0.4244577E-002  0.1286260E+03  0.7546771E-02  0.1229509E+00
         21   -1    0    0  504  502  0.00000000000E+00  0.00000000000E+00  0.51496195951E+01  0.51496195951E+01  0.00000000000E+00 0. -1.
         21   -1    0    0  502  503 -0.00000000000E+00 -0.00000000000E+00 -0.26868057046E+04  0.26868057046E+04  0.00000000000E+00 0. -1.
         25    2    1    2    0    0 -0.11975717794E+02  0.27883648474E+02 -0.81791061538E+03  0.82796281047E+03  0.12499490031E+03 0.  0.
          5    1    3    3  501    0  0.54573355071E+02  0.81651492101E+01 -0.46739745026E+03  0.47064350336E+03  0.10000000000E+00 0. -1.
         -5    1    3    3    0  501 -0.66549072866E+02  0.19718499264E+02 -0.35051316511E+03  0.35731930711E+03  0.10000000000E+00 0. -1.
         21    1    1    2  504  503  0.11975717794E+02 -0.27883648474E+02 -0.18637454696E+04  0.18639925137E+04  0.00000000000E+00 0. -1.
<mgrwt>
<rscale>  1 0.12862597E+03</rscale>
<asrwt>0</asrwt>
<pdfrwt beam="1">  1       21 0.79225133E-03 0.12862597E+03</pdfrwt>
<pdfrwt beam="2">  1       21 0.41335360E+00 0.12862597E+03</pdfrwt>
<totfact> 0.42531239E+04</totfact>
</mgrwt>
</event>
<event>
 6    1  0.4244577E-002  0.1269568E+03  0.7546771E-02  0.1232042E+00
         21   -1    0    0  503  502  0.00000000000E+00  0.00000000000E+00  0.39160450989E+02  0.39160450989E+02  0.00000000000E+00 0.  1.
         21   -1    0    0  504  503 -0.00000000000E+00 -0.00000000000E+00 -0.14228650995E+03  0.14228650995E+03  0.00000000000E+00 0.  1.
         25    2    1    2    0    0 -0.92447394935E+01  0.20206246140E+02 -0.90238792134E+02  0.15575962481E+03  0.12499705406E+03 0.  0.
          5    1    3    3  501    0  0.82706200768E+01  0.51704953264E+02 -0.10459076895E+03  0.11696599634E+03  0.10000000000E+00 0.  1.
         -5    1    3    3    0  501 -0.17515359570E+02 -0.31498707124E+02  0.14351976819E+02  0.38793628471E+02  0.10000000000E+00 0.  1.
         21    1    1    2  504  502  0.92447394935E+01 -0.20206246140E+02 -0.12887266829E+02  0.25687336134E+02  0.00000000000E+00 0.  1.
<mgrwt>
<rscale>  1 0.12695677E+03</rscale>
<asrwt>0</asrwt>
<pdfrwt beam="1">  1       21 0.60246847E-02 0.12695677E+03</pdfrwt>
<pdfrwt beam="2">  1       21 0.21890233E-01 0.12695677E+03</pdfrwt>
<totfact> 0.37671763E+06</totfact>
</mgrwt>
</event>
<event>
 6    1  0.4244577E-002  0.2026639E+03  0.7546771E-02  0.1147511E+00
         21   -1    0    0  503  502  0.00000000000E+00  0.00000000000E+00  0.21309654155E+03  0.21309654155E+03  0.00000000000E+00 0.  1.
         21   -1    0    0  504  503 -0.00000000000E+00 -0.00000000000E+00 -0.26331181612E+03  0.26331181612E+03  0.00000000000E+00 0. -1.
         25    2    1    2    0    0  0.15722987305E+03 -0.26864734650E+02  0.12606529887E+03  0.23867365780E+03  0.12501883219E+03 0.  0.
          5    1    3    3  501    0  0.58921032556E+02  0.45399438752E+02  0.77306467431E+02  0.10728045965E+03  0.10000000000E+00 0. -1.
         -5    1    3    3    0  501  0.98308840490E+02 -0.72264173402E+02  0.48758831439E+02  0.13139319815E+03  0.10000000000E+00 0. -1.
         21    1    1    2  504  502 -0.15722987305E+03  0.26864734650E+02 -0.17628057344E+03  0.23773469986E+03  0.00000000000E+00 0. -1.
<mgrwt>
<rscale>  1 0.20266390E+03</rscale>
<asrwt>0</asrwt>
<pdfrwt beam="1">  1       21 0.32784083E-01 0.20266390E+03</pdfrwt>
<pdfrwt beam="2">  1       21 0.40509510E-01 0.20266390E+03</pdfrwt>
<totfact> 0.52328192E+04</totfact>
</mgrwt>
</event>
<event>
 6    1  0.4244577E-002  0.1259460E+03  0.7546771E-02  0.1233598E+00
         21   -1    0    0  503  502  0.00000000000E+00  0.00000000000E+00  0.76177306744E+03  0.76177306744E+03  0.00000000000E+00 0. -1.
         21   -1    0    0  504  503 -0.00000000000E+00 -0.00000000000E+00 -0.95555393601E+01  0.95555393601E+01  0.00000000000E+00 0. -1.
         25    2    1    2    0    0  0.15407739293E+02 -0.15715689524E+01  0.74236446413E+03  0.75297237821E+03  0.12499014551E+03 0.  0.
          5    1    3    3  501    0  0.49463016215E+01 -0.50926887505E+02  0.15046960527E+03  0.15893119858E+03  0.10000000000E+00 0.  1.
         -5    1    3    3    0  501  0.10461437671E+02  0.49355318553E+02  0.59189485887E+03  0.59404117963E+03  0.10000000000E+00 0.  1.
         21    1    1    2  504  502 -0.15407739293E+02  0.15715689524E+01  0.98530639486E+01  0.18356228596E+02  0.00000000000E+00 0. -1.
<mgrwt>
<rscale>  1 0.12594604E+03</rscale>
<asrwt>0</asrwt>
<pdfrwt beam="1">  1       21 0.11719581E+00 0.12594604E+03</pdfrwt>
<pdfrwt beam="2">  1       21 0.14700836E-02 0.12594604E+03</pdfrwt>
<totfact> 0.11411180E+06</totfact>
</mgrwt>
</event>
<event>
 6    1  0.4244577E-002  0.1262199E+03  0.7546771E-02  0.1233175E+00
         21   -1    0    0  503  502  0.00000000000E+00  0.00000000000E+00  0.17906534243E+03  0.17906534243E+03  0.00000000000E+00 0.  1.
         21   -1    0    0  504  503 -0.00000000000E+00 -0.00000000000E+00 -0.70832963763E+02  0.70832963763E+02  0.00000000000E+00 0.  1.
         25    2    1    2    0    0  0.65649428347E+01 -0.16268820411E+02  0.15503352625E+03  0.19991710566E+03  0.12499472741E+03 0.  0.
          5    1    3    3  501    0  0.93434388417E+01  0.51766171034E+02  0.97450994368E+02  0.11074178352E+03  0.10000000000E+00 0. -1.
         -5    1    3    3    0  501 -0.27784960070E+01 -0.68034991445E+02  0.57582531884E+02  0.89175322143E+02  0.10000000000E+00 0. -1.
         21    1    1    2  504  502 -0.65649428347E+01  0.16268820411E+02 -0.46801147583E+02  0.49981200537E+02  0.00000000000E+00 0.  1.
<mgrwt>
<rscale>  1 0.12621987E+03</rscale>
<asrwt>0</asrwt>
<pdfrwt beam="1">  1       21 0.27548514E-01 0.12621987E+03</pdfrwt>
<pdfrwt beam="2">  1       21 0.10897379E-01 0.12621987E+03</pdfrwt>
<totfact> 0.87808440E+05</totfact>
</mgrwt>
</event>
<event>
 6    1  0.4244577E-002  0.1318650E+03  0.7546771E-02  0.1224714E+00
         21   -1    0    0  503  502  0.00000000000E+00  0.00000000000E+00  0.22551220643E+03  0.22551220643E+03  0.00000000000E+00 0. -1.
         21   -1    0    0  504  503 -0.00000000000E+00 -0.00000000000E+00 -0.26948129820E+03  0.26948129820E+03  0.00000000000E+00 0. -1.
         25    2    1    2    0    0  0.41962703658E+02 -0.17159031150E+01  0.20432031185E+03  0.24317722086E+03  0.12499823235E+03 0.  0.
          5    1    3    3  501    0  0.23435978768E+02  0.92395606936E+01  0.21682575529E+03  0.21828429339E+03  0.10000000000E+00 0. -1.
         -5    1    3    3    0  501  0.18526724891E+02 -0.10955463809E+02 -0.12505443442E+02  0.24892927472E+02  0.10000000000E+00 0. -1.
         21    1    1    2  504  502 -0.41962703658E+02  0.17159031150E+01 -0.24828940362E+03  0.25181628377E+03  0.00000000000E+00 0. -1.
<mgrwt>
<rscale>  1 0.13186497E+03</rscale>
<asrwt>0</asrwt>
<pdfrwt beam="1">  1       21 0.34694186E-01 0.13186497E+03</pdfrwt>
<pdfrwt beam="2">  1       21 0.41458661E-01 0.13186497E+03</pdfrwt>
<totfact> 0.46269432E+04</totfact>
</mgrwt>
</event>
<event>
 6    1  0.4244577E-002  0.1284554E+03  0.7546771E-02  0.1229766E+00
         21   -1    0    0  504  502  0.00000000000E+00  0.00000000000E+00  0.95680871655E+02  0.95680871655E+02  0.00000000000E+00 0.  1.
         21   -1    0    0  502  503 -0.00000000000E+00 -0.00000000000E+00 -0.66137387281E+02  0.66137387281E+02  0.00000000000E+00 0.  1.
         25    2    1    2    0    0 -0.69046196547E+01  0.28780909775E+02  0.31145896406E+02  0.13217737055E+03  0.12499910353E+03 0.  0.
          5    1    3    3  501    0 -0.31102190775E+02  0.65459429630E+02  0.45946742418E+02  0.85810234456E+02  0.10000000000E+00 0.  1.
         -5    1    3    3    0  501  0.24197571120E+02 -0.36678519855E+02 -0.14800846013E+02  0.46367136094E+02  0.10000000000E+00 0.  1.
         21    1    1    2  504  503  0.69046196547E+01 -0.28780909775E+02 -0.16024120323E+01  0.29640888387E+02  0.00000000000E+00 0. -1.
<mgrwt>
<rscale>  1 0.12845540E+03</rscale>
<asrwt>0</asrwt>
<pdfrwt beam="1">  1       21 0.14720134E-01 0.12845540E+03</pdfrwt>
<pdfrwt beam="2">  1       21 0.10174983E-01 0.12845540E+03</pdfrwt>
<totfact> 0.31604518E+06</totfact>
</mgrwt>
</event>
<event>
 6    1  0.4244577E-002  0.1263372E+03  0.7546771E-02  0.1232994E+00
         21   -1    0    0  504  502  0.00000000000E+00  0.00000000000E+00  0.12554901108E+03  0.12554901108E+03  0.00000000000E+00 0. -1.
         21   -1    0    0  502  503 -0.00000000000E+00 -0.00000000000E+00 -0.20712883234E+03  0.20712883234E+03  0.00000000000E+00 0.  1.
         25    2    1    2    0    0  0.10384410293E+02 -0.14698480046E+02  0.93186919308E+02  0.15698693613E+03  0.12504885003E+03 0.  0.
          5    1    3    3  501    0 -0.29069382403E+02  0.27008233378E+01 -0.20316901486E+02  0.35568383798E+02  0.10000000000E+00 0. -1.
         -5    1    3    3    0  501  0.39453792697E+02 -0.17399303383E+02  0.11350382079E+03  0.12141855234E+03  0.10000000000E+00 0. -1.
         21    1    1    2  504  503 -0.10384410293E+02  0.14698480046E+02 -0.17476674057E+03  0.17569090728E+03  0.00000000000E+00 0.  1.
<mgrwt>
<rscale>  1 0.12633723E+03</rscale>
<asrwt>0</asrwt>
<pdfrwt beam="1">  1       21 0.19315233E-01 0.12633723E+03</pdfrwt>
<pdfrwt beam="2">  1       21 0.31865974E-01 0.12633723E+03</pdfrwt>
<totfact> 0.23708969E+05</totfact>
</mgrwt>
</event>
<event>
 6    1  0.4244577E-002  0.1332657E+03  0.7546771E-02  0.1222689E+00
         21   -1    0    0  504  502  0.00000000000E+00  0.00000000000E+00  0.28743392900E+03  0.28743392900E+03  0.00000000000E+00 0.  1.
         21   -1    0    0  502  503 -0.00000000000E+00 -0.00000000000E+00 -0.66532654420E+02  0.66532654420E+02  0.00000000000E+00 0.  1.
         25    2    1    2    0    0 -0.45411326515E+02 -0.86005834494E+01  0.26082111943E+03  0.29289488273E+03  0.12499438937E+03 0.  0.
          5    1    3    3  501    0 -0.35420193928E+02  0.42205709872E+02  0.45565833596E+02  0.71499421501E+02  0.10000000000E+00 0.  1.
         -5    1    3    3    0  501 -0.99911325874E+01 -0.50806293322E+02  0.21525528584E+03  0.22139546123E+03  0.10000000000E+00 0.  1.
         21    1    1    2  504  503  0.45411326515E+02  0.86005834494E+01 -0.39919844856E+02  0.61071700687E+02  0.00000000000E+00 0.  1.
<mgrwt>
<rscale>  1 0.13326573E+03</rscale>
<asrwt>0</asrwt>
<pdfrwt beam="1">  1       21 0.44220604E-01 0.13326573E+03</pdfrwt>
<pdfrwt beam="2">  1       21 0.10235793E-01 0.13326573E+03</pdfrwt>
<totfact> 0.38650305E+05</totfact>
</mgrwt>
</event>
<event>
 6    1  0.4244577E-002  0.1334176E+03  0.7546771E-02  0.1222471E+00
         21   -1    0    0  504  502  0.00000000000E+00  0.00000000000E+00  0.21161197923E+02  0.21161197923E+02  0.00000000000E+00 0.  1.
         21   -1    0    0  502  503 -0.00000000000E+00 -0.00000000000E+00 -0.77877352988E+03  0.77877352988E+03  0.00000000000E+00 0. -1.
         25    2    1    2    0    0  0.12436149688E+02  0.44931728516E+02 -0.20024312232E+03  0.24061911574E+03  0.12500693091E+03 0.  0.
          5    1    3    3  501    0  0.55907417196E+02 -0.15197040601E+02 -0.10456422663E+03  0.11954194590E+03  0.10000000000E+00 0. -1.
         -5    1    3    3    0  501 -0.43471267508E+02  0.60128769117E+02 -0.95678895694E+02  0.12107716984E+03  0.10000000000E+00 0. -1.
         21    1    1    2  504  503 -0.12436149688E+02 -0.44931728516E+02 -0.55736920964E+03  0.55931561206E+03  0.00000000000E+00 0. -1.
<mgrwt>
<rscale>  1 0.13341758E+03</rscale>
<asrwt>0</asrwt>
<pdfrwt beam="1">  1       21 0.32555688E-02 0.13341758E+03</pdfrwt>
<pdfrwt beam="2">  1       21 0.11981132E+00 0.13341758E+03</pdfrwt>
<totfact> 0.29800424E+05</totfact>
</mgrwt>
</event>
<event>
 6    1  0.4244577E-002  0.1277534E+03  0.7546771E-02  0.1230828E+00
         21   -1    0    0  504  502  0.00000000000E+00  0.00000000000E+00  0.77704922135E+01  0.77704922135E+01  0.00000000000E+00 0. -1.
         21   -1    0    0  502  503 -0.00000000000E+00 -0.00000000000E+00 -0.10154645737E+04  0.10154645737E+04  0.00000000000E+00 0. -1.
         25    2    1    2    0    0  0.26301631274E+02  0.12217212690E+01 -0.54422134099E+03  0.55901502155E+03  0.12501063120E+03 0.  0.
          5    1    3    3  501    0 -0.40767195566E+02  0.28511948551E+02 -0.14543531567E+03  0.15370860902E+03  0.10000000000E+00 0.  1.
         -5    1    3    3    0  501  0.67068826840E+02 -0.27290227282E+02 -0.39878602533E+03  0.40530641252E+03  0.10000000000E+00 0.  1.
         21    1    1    2  504  503 -0.26301631274E+02 -0.12217212690E+01 -0.46347274048E+03  0.46422004436E+03  0.00000000000E+00 0. -1.
<mgrwt>
<rscale>  1 0.12775338E+03</rscale>
<asrwt>0</asrwt>
<pdfrwt beam="1">  1       21 0.11954596E-02 0.12775338E+03</pdfrwt>
<pdfrwt beam="2">  1       21 0.15622542E+00 0.12775338E+03</pdfrwt>
<totfact> 0.76868904E+05</totfact>
</mgrwt>
</event>
<event>
 6    1  0.4244577E-002  0.1398239E+03  0.7546771E-02  0.1213566E+00
         21   -1    0    0  503  502  0.00000000000E+00  0.00000000000E+00  0.32067491856E+03  0.32067491856E+03  0.00000000000E+00 0.  1.
         21   -1    0    0  504  503 -0.00000000000E+00 -0.00000000000E+00 -0.32321080423E+03  0.32321080423E+03  0.00000000000E+00 0.  1.
         25    2    1    2    0    0  0.58044315532E+02 -0.23646463113E+02  0.30208942657E+03  0.33287948711E+03  0.12498973361E+03 0.  0.
          5    1    3    3  501    0  0.60260570675E+02 -0.35849946147E+02  0.65458876879E+02  0.95924082373E+02  0.10000000000E+00 0. -1.
         -5    1    3    3    0  501 -0.22162551430E+01  0.12203483033E+02  0.23663054969E+03  0.23695540473E+03  0.10000000000E+00 0. -1.
         21    1    1    2  504  502 -0.58044315532E+02  0.23646463113E+02 -0.30462531224E+03  0.31100623569E+03  0.00000000000E+00 0.  1.
<mgrwt>
<rscale>  1 0.13982393E+03</rscale>
<asrwt>0</asrwt>
<pdfrwt beam="1">  1       21 0.49334603E-01 0.13982393E+03</pdfrwt>
<pdfrwt beam="2">  1       21 0.49724739E-01 0.13982393E+03</pdfrwt>
<totfact> 0.15651854E+04</totfact>
</mgrwt>
</event>
<event>
 6    1  0.4244577E-002  0.1261293E+03  0.7546771E-02  0.1233315E+00
         21   -1    0    0  503  502  0.00000000000E+00  0.00000000000E+00  0.37036429544E+03  0.37036429544E+03  0.00000000000E+00 0. -1.
         21   -1    0    0  504  503 -0.00000000000E+00 -0.00000000000E+00 -0.14163183108E+02  0.14163183108E+02  0.00000000000E+00 0. -1.
         25    2    1    2    0    0  0.47184179083E+01  0.16239892979E+02  0.33061864698E+03  0.35386055622E+03  0.12499042334E+03 0.  0.
          5    1    3    3  501    0  0.43126544849E+02  0.21073057119E+02  0.30181768228E+03  0.30561069344E+03  0.10000000000E+00 0.  1.
         -5    1    3    3    0  501 -0.38408126941E+02 -0.48331641394E+01  0.28800964693E+02  0.48249862777E+02  0.10000000000E+00 0.  1.
         21    1    1    2  504  502 -0.47184179083E+01 -0.16239892979E+02  0.25582465359E+02  0.30666922333E+02  0.00000000000E+00 0. -1.
<mgrwt>
<rscale>  1 0.12612931E+03</rscale>
<asrwt>0</asrwt>
<pdfrwt beam="1">  1       21 0.56979115E-01 0.12612931E+03</pdfrwt>
<pdfrwt beam="2">  1       21 0.21789515E-02 0.12612931E+03</pdfrwt>
<totfact> 0.30711791E+06</totfact>
</mgrwt>
</event>
<event>
 6    1  0.4244577E-002  0.1261471E+03  0.7546771E-02  0.1233287E+00
         21   -1    0    0  503  502  0.00000000000E+00  0.00000000000E+00  0.12933328077E+02  0.12933328077E+02  0.00000000000E+00 0.  1.
         21   -1    0    0  504  503 -0.00000000000E+00 -0.00000000000E+00 -0.40148967380E+03  0.40148967380E+03  0.00000000000E+00 0.  1.
         25    2    1    2    0    0 -0.13234331266E+02  0.10693511367E+02 -0.35599094097E+03  0.37768059727E+03  0.12499433905E+03 0.  0.
          5    1    3    3  501    0  0.94643041859E+01 -0.48095367634E+02 -0.24669828892E+03  0.25152095976E+03  0.10000000000E+00 0. -1.
         -5    1    3    3    0  501 -0.22698635452E+02  0.58788879001E+02 -0.10929265205E+03  0.12615963751E+03  0.10000000000E+00 0. -1.
         21    1    1    2  504  502  0.13234331266E+02 -0.10693511367E+02 -0.32565404751E+02  0.36742404603E+02  0.00000000000E+00 0. -1.
<mgrwt>
<rscale>  1 0.12614707E+03</rscale>
<asrwt>0</asrwt>
<pdfrwt beam="1">  1       21 0.19897429E-02 0.12614707E+03</pdfrwt>
<pdfrwt beam="2">  1       21 0.61767639E-01 0.12614707E+03</pdfrwt>
<totfact> 0.29976845E+06</totfact>
</mgrwt>
</event>
<event>
 6    1  0.4244577E-002  0.1260492E+03  0.7546771E-02  0.1233439E+00
         21   -1    0    0  503  502  0.00000000000E+00  0.00000000000E+00  0.22459158763E+03  0.22459158763E+03  0.00000000000E+00 0.  1.
         21   -1    0    0  504  503 -0.00000000000E+00 -0.00000000000E+00 -0.32544803985E+02  0.32544803985E+02  0.00000000000E+00 0.  1.
         25    2    1    2    0    0  0.77936925559E+01 -0.14248535373E+02  0.20199028804E+03  0.23809339596E+03  0.12499850533E+03 0.  0.
          5    1    3    3  501    0 -0.18096593898E+02 -0.24263564189E+02  0.20758077840E+03  0.20977606351E+03  0.10000000000E+00 0.  1.
         -5    1    3    3    0  501  0.25890286454E+02  0.10015028816E+02 -0.55904903647E+01  0.28317332455E+02  0.10000000000E+00 0.  1.
         21    1    1    2  504  502 -0.77936925559E+01  0.14248535373E+02 -0.99435043920E+01  0.19042995655E+02  0.00000000000E+00 0.  1.
<mgrwt>
<rscale>  1 0.12604915E+03</rscale>
<asrwt>0</asrwt>
<pdfrwt beam="1">  1       21 0.34552551E-01 0.12604915E+03</pdfrwt>
<pdfrwt beam="2">  1       21 0.50068931E-02 0.12604915E+03</pdfrwt>
<totfact> 0.21522110E+06</totfact>
</mgrwt>
</event>
<event>
 6    1  0.4244577E-002  0.1267711E+03  0.7546771E-02  0.1232327E+00
         21   -1    0    0  503  502  0.00000000000E+00  0.00000000000E+00  0.96382197393E+02  0.96382197393E+02  0.00000000000E+00 0. -1.
         21   -1    0    0  504  503 -0.00000000000E+00 -0.00000000000E+00 -0.56938689977E+02  0.56938689977E+02  0.00000000000E+00 0. -1.
         25    2    1    2    0    0 -0.14273880791E+01  0.21022841832E+02  0.37279264836E+02  0.13213878971E+03  0.12500767514E+03 0.  0.
          5    1    3    3  501    0  0.10533458263E+02  0.21193364021E+01 -0.45313595825E+02  0.46570133093E+02  0.10000000000E+00 0. -1.
         -5    1    3    3    0  501 -0.11960846342E+02  0.18903505430E+02  0.82592860661E+02  0.85568656615E+02  0.10000000000E+00 0. -1.
         21    1    1    2  504  502  0.14273880791E+01 -0.21022841832E+02  0.21642425797E+01  0.21182097662E+02  0.00000000000E+00 0. -1.
<mgrwt>
<rscale>  1 0.12677112E+03</rscale>
<asrwt>0</asrwt>
<pdfrwt beam="1">  1       21 0.14828030E-01 0.12677112E+03</pdfrwt>
<pdfrwt beam="2">  1       21 0.87597985E-02 0.12677112E+03</pdfrwt>
<totfact> 0.40467263E+06</totfact>
</mgrwt>
</event>
<event>
 6    1  0.4244577E-002  0.1273476E+03  0.7546771E-02  0.1231445E+00
         21   -1    0    0  503  502  0.00000000000E+00  0.00000000000E+00  0.41848816967E+03  0.41848816967E+03  0.00000000000E+00 0.  1.
         21   -1    0    0  504  503 -0.00000000000E+00 -0.00000000000E+00 -0.15601987909E+02  0.15601987909E+02  0.00000000000E+00 0.  1.
         25    2    1    2    0    0  0.65139828816E+01 -0.23430694385E+02  0.37970989657E+03  0.40049596750E+03  0.12500393998E+03 0.  0.
          5    1    3    3  501    0  0.32059767008E+02 -0.67319434177E+02  0.25949637371E+03  0.26999650525E+03  0.10000000000E+00 0. -1.
         -5    1    3    3    0  501 -0.25545784126E+02  0.43888739791E+02  0.12021352287E+03  0.13049946225E+03  0.10000000000E+00 0. -1.
         21    1    1    2  504  502 -0.65139828816E+01  0.23430694385E+02  0.23176285189E+02  0.33594190086E+02  0.00000000000E+00 0.  1.
<mgrwt>
<rscale>  1 0.12734761E+03</rscale>
<asrwt>0</asrwt>
<pdfrwt beam="1">  1       21 0.64382787E-01 0.12734761E+03</pdfrwt>
<pdfrwt beam="2">  1       21 0.24003061E-02 0.12734761E+03</pdfrwt>
<totfact> 0.20253027E+06</totfact>
</mgrwt>
</event>
<event>
 6    1  0.4244577E-002  0.1272887E+03  0.7546771E-02  0.1231535E+00
         21   -1    0    0  504  502  0.00000000000E+00  0.00000000000E+00  0.86328777976E+03  0.86328777976E+03  0.00000000000E+00 0.  1.
         21   -1    0    0  502  503 -0.00000000000E+00 -0.00000000000E+00 -0.11504594946E+02  0.11504594946E+02  0.00000000000E+00 0.  1.
         25    2    1    2    0    0 -0.21993613955E+02  0.96041410603E+01  0.83696105291E+03  0.84658503214E+03  0.12500581580E+03 0.  0.
          5    1    3    3  501    0  0.10547595805E+02  0.56885152717E+02  0.59952049436E+03  0.60230557488E+03  0.10000000000E+00 0. -1.
         -5    1    3    3    0  501 -0.32541209760E+02 -0.47281011657E+02  0.23744055855E+03  0.24427945726E+03  0.10000000000E+00 0. -1.
         21    1    1    2  504  503  0.21993613955E+02 -0.96041410603E+01  0.14822131906E+02  0.28207342564E+02  0.00000000000E+00 0.  1.
<mgrwt>
<rscale>  1 0.12728870E+03</rscale>
<asrwt>0</asrwt>
<pdfrwt beam="1">  1       21 0.13281345E+00 0.12728870E+03</pdfrwt>
<pdfrwt beam="2">  1       21 0.17699384E-02 0.12728870E+03</pdfrwt>
<totfact> 0.62297876E+05</totfact>
</mgrwt>
</event>
<event>
 6    1  0.4244577E-002  0.1317232E+03  0.7546771E-02  0.1224921E+00
         21   -1    0    0  503  502  0.00000000000E+00  0.00000000000E+00  0.11755400663E+03  0.11755400663E+03  0.00000000000E+00 0.  1.
         21   -1    0    0  504  503 -0.00000000000E+00 -0.00000000000E+00 -0.11940629740E+03  0.11940629740E+03  0.00000000000E+00 0. -1.
         25    2    1    2    0    0  0.23066809682E+02 -0.34555958277E+02  0.73552116036E+02  0.15086723504E+03  0.12499926750E+03 0.  0.
          5    1    3    3  501    0 -0.11510637169E+02 -0.15073562624E+02 -0.32501463051E+02  0.37630601359E+02  0.10000000000E+00 0. -1.
         -5    1    3    3    0  501  0.34577446852E+02 -0.19482395653E+02  0.10605357909E+03  0.11323663368E+03  0.10000000000E+00 0. -1.
         21    1    1    2  504  502 -0.23066809682E+02  0.34555958277E+02 -0.75404406809E+02  0.86093068987E+02  0.00000000000E+00 0. -1.
<mgrwt>
<rscale>  1 0.13172323E+03</rscale>
<asrwt>0</asrwt>
<pdfrwt beam="1">  1       21 0.18085232E-01 0.13172323E+03</pdfrwt>
<pdfrwt beam="2">  1       21 0.18370200E-01 0.13172323E+03</pdfrwt>
<totfact> 0.75537121E+05</totfact>
</mgrwt>
</event>
<event>
 6    1  0.4244577E-002  0.1586345E+03  0.7546771E-02  0.1190247E+00
         21   -1    0    0  504  502  0.00000000000E+00  0.00000000000E+00  0.20506096664E+03  0.20506096664E+03  0.00000000000E+00 0. -1.
         21   -1    0    0  502  503 -0.00000000000E+00 -0.00000000000E+00 -0.82624099722E+02  0.82624099722E+02  0.00000000000E+00 0. -1.
         25    2    1    2    0    0 -0.96408864192E+02  0.15844801595E+02  0.50925508572E+02  0.16660822628E+03  0.12497666505E+03 0.  0.
          5    1    3    3  501    0 -0.10369749534E+03  0.53453596588E+02  0.53222660693E+02  0.12823072619E+03  0.10000000000E+00 0.  1.
         -5    1    3    3    0  501  0.72886311509E+01 -0.37608794993E+02 -0.22971521204E+01  0.38377500085E+02  0.10000000000E+00 0.  1.
         21    1    1    2  504  503  0.96408864192E+02 -0.15844801595E+02  0.71511358346E+02  0.12107684008E+03  0.00000000000E+00 0. -1.
<mgrwt>
<rscale>  1 0.15863447E+03</rscale>
<asrwt>0</asrwt>
<pdfrwt beam="1">  1       21 0.31547841E-01 0.15863447E+03</pdfrwt>
<pdfrwt beam="2">  1       21 0.12711400E-01 0.15863447E+03</pdfrwt>
<totfact> 0.51397056E+05</totfact>
</mgrwt>
</event>
<event>
 6    1  0.4244577E-002  0.1349688E+03  0.7546771E-02  0.1220264E+00
         21   -1    0    0  504  502  0.00000000000E+00  0.00000000000E+00  0.18808864466E+04  0.18808864466E+04  0.00000000000E+00 0.  1.
         21   -1    0    0  502  503 -0.00000000000E+00 -0.00000000000E+00 -0.19643874542E+02  0.19643874542E+02  0.00000000000E+00 0.  1.
         25    2    1    2    0    0  0.47849416559E+02  0.17457726455E+02  0.18406478172E+04  0.18455896003E+04  0.12498898690E+03 0.  0.
          5    1    3    3  501    0 -0.33866887573E+02  0.37432526371E+02  0.75741675775E+03  0.75909703927E+03  0.10000000000E+00 0. -1.
         -5    1    3    3    0  501  0.81716304132E+02 -0.19974799916E+02  0.10832310595E+04  0.10864925611E+04  0.10000000000E+00 0. -1.
         21    1    1    2  504  503 -0.47849416559E+02 -0.17457726455E+02  0.20594754823E+02  0.54940720820E+02  0.00000000000E+00 0.  1.
<mgrwt>
<rscale>  1 0.13496883E+03</rscale>
<asrwt>0</asrwt>
<pdfrwt beam="1">  1       21 0.28936700E+00 0.13496883E+03</pdfrwt>
<pdfrwt beam="2">  1       21 0.30221360E-02 0.13496883E+03</pdfrwt>
<totfact> 0.26125265E+04</totfact>
</mgrwt>
</event>
<event>
 6    1  0.4244577E-002  0.1267352E+03  0.7546771E-02  0.1232382E+00
         21   -1    0    0  503  502  0.00000000000E+00  0.00000000000E+00  0.19036220390E+03  0.19036220390E+03  0.00000000000E+00 0. -1.
         21   -1    0    0  504  503 -0.00000000000E+00 -0.00000000000E+00 -0.31637586888E+02  0.31637586888E+02  0.00000000000E+00 0. -1.
         25    2    1    2    0    0 -0.18954100451E+02  0.87828441685E+01  0.15590800801E+03  0.20092066457E+03  0.12500164086E+03 0.  0.
          5    1    3    3  501    0 -0.25114445139E+02 -0.87104164114E+01 -0.13972486455E+02  0.30030768995E+02  0.10000000000E+00 0.  1.
         -5    1    3    3    0  501  0.61603446873E+01  0.17493260580E+02  0.16988049446E+03  0.17088989558E+03  0.10000000000E+00 0.  1.
         21    1    1    2  504  502  0.18954100451E+02 -0.87828441685E+01  0.28166090044E+01  0.21079126213E+02  0.00000000000E+00 0. -1.
<mgrwt>
<rscale>  1 0.12673518E+03</rscale>
<asrwt>0</asrwt>
<pdfrwt beam="1">  1       21 0.29286492E-01 0.12673518E+03</pdfrwt>
<pdfrwt beam="2">  1       21 0.48673212E-02 0.12673518E+03</pdfrwt>
<totfact> 0.31114052E+06</totfact>
</mgrwt>
</event>
<event>
 6    1  0.4244577E-002  0.1275609E+03  0.7546771E-02  0.1231120E+00
         21   -1    0    0  503  502  0.00000000000E+00  0.00000000000E+00  0.16949567695E+03  0.16949567695E+03  0.00000000000E+00 0.  1.
         21   -1    0    0  504  503 -0.00000000000E+00 -0.00000000000E+00 -0.66075020123E+02  0.66075020123E+02  0.00000000000E+00 0. -1.
         25    2    1    2    0    0 -0.22445948390E+02  0.12163633280E+02  0.14100050087E+03  0.19013921842E+03  0.12498002465E+03 0.  0.
          5    1    3    3  501    0 -0.14543835067E+02  0.64027637848E+02  0.41555327728E+02  0.77704033418E+02  0.10000000000E+00 0.  1.
         -5    1    3    3    0  501 -0.79021133229E+01 -0.51864004568E+02  0.99445173143E+02  0.11243518500E+03  0.10000000000E+00 0.  1.
         21    1    1    2  504  502  0.22445948390E+02 -0.12163633280E+02 -0.37579844047E+02  0.45431478650E+02  0.00000000000E+00 0. -1.
<mgrwt>
<rscale>  1 0.12756089E+03</rscale>
<asrwt>0</asrwt>
<pdfrwt beam="1">  1       21 0.26076258E-01 0.12756089E+03</pdfrwt>
<pdfrwt beam="2">  1       21 0.10165388E-01 0.12756089E+03</pdfrwt>
<totfact> 0.11014407E+06</totfact>
</mgrwt>
</event>
<event>
 6    1  0.4244577E-002  0.1341610E+03  0.7546771E-02  0.1221409E+00
         21   -1    0    0  503  502  0.00000000000E+00  0.00000000000E+00  0.78567226609E+03  0.78567226609E+03  0.00000000000E+00 0.  1.
         21   -1    0    0  504  503 -0.00000000000E+00 -0.00000000000E+00 -0.13635858369E+02  0.13635858369E+02  0.00000000000E+00 0.  1.
         25    2    1    2    0    0  0.48214187543E+02  0.71293965595E+01  0.69726406446E+03  0.71005377167E+03  0.12499498747E+03 0.  0.
          5    1    3    3  501    0 -0.39034438552E+02 -0.12782100826E+02  0.15004932622E+03  0.15556953363E+03  0.10000000000E+00 0.  1.
         -5    1    3    3    0  501  0.87248626095E+02  0.19911497385E+02  0.54721473824E+03  0.55448423804E+03  0.10000000000E+00 0.  1.
         21    1    1    2  504  502 -0.48214187543E+02 -0.71293965595E+01  0.74772343260E+02  0.89254352792E+02  0.00000000000E+00 0.  1.
<mgrwt>
<rscale>  1 0.13416103E+03</rscale>
<asrwt>0</asrwt>
<pdfrwt beam="1">  1       21 0.12087262E+00 0.13416103E+03</pdfrwt>
<pdfrwt beam="2">  1       21 0.20978250E-02 0.13416103E+03</pdfrwt>
<totfact> 0.59741466E+05</totfact>
</mgrwt>
</event>
<event>
 6    1  0.4244577E-002  0.1272001E+03  0.7546771E-02  0.1231670E+00
         21   -1    0    0  504  502  0.00000000000E+00  0.00000000000E+00  0.94043248618E+02  0.94043248618E+02  0.00000000000E+00 0. -1.
         21   -1    0    0  502  503 -0.00000000000E+00 -0.00000000000E+00 -0.20938926616E+03  0.20938926616E+03  0.00000000000E+00 0. -1.
         25    2    1    2    0    0 -0.16612090957E+02  0.16675511191E+02  0.49811972055E+02  0.13660567111E+03  0.12500337028E+03 0.  0.
          5    1    3    3  501    0 -0.70352658980E+02  0.20414543454E+02  0.26384417948E+02  0.77861400710E+02  0.10000000000E+00 0.  1.
         -5    1    3    3    0  501  0.53740568023E+02 -0.37390322633E+01  0.23427554107E+02  0.58744270403E+02  0.10000000000E+00 0.  1.
         21    1    1    2  504  503  0.16612090957E+02 -0.16675511191E+02 -0.16515798960E+03  0.16682684367E+03  0.00000000000E+00 0. -1.
<mgrwt>
<rscale>  1 0.12720014E+03</rscale>
<asrwt>0</asrwt>
<pdfrwt beam="1">  1       21 0.14468192E-01 0.12720014E+03</pdfrwt>
<pdfrwt beam="2">  1       21 0.32213733E-01 0.12720014E+03</pdfrwt>
<totfact> 0.39253204E+05</totfact>
</mgrwt>
</event>
<event>
 6    1  0.4244577E-002  0.1276777E+03  0.7546771E-02  0.1230943E+00
         21   -1    0    0  504  502  0.00000000000E+00  0.00000000000E+00  0.13387824040E+04  0.13387824040E+04  0.00000000000E+00 0. -1.
         21   -1    0    0  502  503 -0.00000000000E+00 -0.00000000000E+00 -0.12080306497E+03  0.12080306497E+03  0.00000000000E+00 0. -1.
         25    2    1    2    0    0 -0.41981296593E+01 -0.25655930926E+02  0.13343001696E+04  0.13403949211E+04  0.12500300284E+03 0.  0.
          5    1    3    3  501    0 -0.10126598217E+02  0.49980936608E+02  0.46398284095E+03  0.46677695820E+03  0.10000000000E+00 0. -1.
         -5    1    3    3    0  501  0.59284685577E+01 -0.75636867534E+02  0.87031732869E+03  0.87361796289E+03  0.10000000000E+00 0. -1.
         21    1    1    2  504  503  0.41981296593E+01  0.25655930926E+02 -0.11632083058E+03  0.11919054791E+03  0.00000000000E+00 0. -1.
<mgrwt>
<rscale>  1 0.12767773E+03</rscale>
<asrwt>0</asrwt>
<pdfrwt beam="1">  1       21 0.20596651E+00 0.12767773E+03</pdfrwt>
<pdfrwt beam="2">  1       21 0.18585088E-01 0.12767773E+03</pdfrwt>
<totfact> 0.35072217E+03</totfact>
</mgrwt>
</event>
<event>
 6    1  0.4244577E-002  0.1378656E+03  0.7546771E-02  0.1216230E+00
         21   -1    0    0  503  502  0.00000000000E+00  0.00000000000E+00  0.83984710707E+02  0.83984710707E+02  0.00000000000E+00 0. -1.
         21   -1    0    0  504  503 -0.00000000000E+00 -0.00000000000E+00 -0.32451311519E+03  0.32451311519E+03  0.00000000000E+00 0.  1.
         25    2    1    2    0    0  0.37902452635E+01 -0.58032171462E+02  0.21995839724E+02  0.13960922874E+03  0.12499928360E+03 0.  0.
          5    1    3    3  501    0  0.34851244963E+02 -0.11362030977E+02 -0.41189358942E+02  0.55138718823E+02  0.10000000000E+00 0.  1.
         -5    1    3    3    0  501 -0.31060999699E+02 -0.46670140485E+02  0.63185198666E+02  0.84470509918E+02  0.10000000000E+00 0.  1.
         21    1    1    2  504  502 -0.37902452635E+01  0.58032171462E+02 -0.26252424421E+03  0.26888859716E+03  0.00000000000E+00 0.  1.
<mgrwt>
<rscale>  1 0.13786559E+03</rscale>
<asrwt>0</asrwt>
<pdfrwt beam="1">  1       21 0.12920724E-01 0.13786559E+03</pdfrwt>
<pdfrwt beam="2">  1       21 0.49925096E-01 0.13786559E+03</pdfrwt>
<totfact> 0.19949726E+05</totfact>
</mgrwt>
</event>
<event>
 6    1  0.4244577E-002  0.1314919E+03  0.7546771E-02  0.1225259E+00
         21   -1    0    0  504  502  0.00000000000E+00  0.00000000000E+00  0.31287397542E+03  0.31287397542E+03  0.00000000000E+00 0. -1.
         21   -1    0    0  502  503 -0.00000000000E+00 -0.00000000000E+00 -0.88662910974E+03  0.88662910974E+03  0.00000000000E+00 0.  1.
         25    2    1    2    0    0  0.39650326933E+02  0.96899334847E+01  0.29856010247E+03  0.32623341570E+03  0.12499625393E+03 0.  0.
          5    1    3    3  501    0  0.75638568790E+02 -0.24194850038E+02  0.15092457700E+03  0.17054272719E+03  0.10000000000E+00 0. -1.
         -5    1    3    3    0  501 -0.35988241856E+02  0.33884783523E+02  0.14763552548E+03  0.15569068851E+03  0.10000000000E+00 0. -1.
         21    1    1    2  504  503 -0.39650326933E+02 -0.96899334847E+01 -0.87231523680E+03  0.87326966945E+03  0.00000000000E+00 0.  1.
<mgrwt>
<rscale>  1 0.13149185E+03</rscale>
<asrwt>0</asrwt>
<pdfrwt beam="1">  1       21 0.48134458E-01 0.13149185E+03</pdfrwt>
<pdfrwt beam="2">  1       21 0.13640448E+00 0.13149185E+03</pdfrwt>
<totfact> 0.16889940E+03</totfact>
</mgrwt>
</event>
<event>
 6    1  0.4244577E-002  0.1267169E+03  0.7546771E-02  0.1232410E+00
         21   -1    0    0  503  502  0.00000000000E+00  0.00000000000E+00  0.13329071132E+03  0.13329071132E+03  0.00000000000E+00 0. -1.
         21   -1    0    0  504  503 -0.00000000000E+00 -0.00000000000E+00 -0.49775989645E+02  0.49775989645E+02  0.00000000000E+00 0. -1.
         25    2    1    2    0    0 -0.18410398707E+02 -0.86803727782E+01  0.96188493839E+02  0.15908929174E+03  0.12507151853E+03 0.  0.
          5    1    3    3  501    0 -0.49211968651E+02  0.35330459585E+02  0.16153194680E+02  0.62697646936E+02  0.10000000000E+00 0. -1.
         -5    1    3    3    0  501  0.30801569944E+02 -0.44010832363E+02  0.80035299159E+02  0.96391644803E+02  0.10000000000E+00 0. -1.
         21    1    1    2  504  502  0.18410398707E+02  0.86803727782E+01 -0.12673772167E+02  0.23977409223E+02  0.00000000000E+00 0.  1.
<mgrwt>
<rscale>  1 0.12671691E+03</rscale>
<asrwt>0</asrwt>
<pdfrwt beam="1">  1       21 0.20506263E-01 0.12671691E+03</pdfrwt>
<pdfrwt beam="2">  1       21 0.76578446E-02 0.12671691E+03</pdfrwt>
<totfact> 0.28239695E+06</totfact>
</mgrwt>
</event>
<event>
 6    1  0.4244577E-002  0.1264282E+03  0.7546771E-02  0.1232854E+00
         21   -1    0    0  503  502  0.00000000000E+00  0.00000000000E+00  0.22651662313E+04  0.22651662313E+04  0.00000000000E+00 0. -1.
         21   -1    0    0  504  503 -0.00000000000E+00 -0.00000000000E+00 -0.21825494483E+02  0.21825494483E+02  0.00000000000E+00 0.  1.
         25    2    1    2    0    0  0.39385271598E+01  0.18474614830E+02  0.22589512244E+04  0.22624864057E+04  0.12500911303E+03 0.  0.
          5    1    3    3  501    0  0.98171381497E+01  0.18747428214E+02  0.61720107415E+02  0.65247405507E+02  0.10000000000E+00 0. -1.
         -5    1    3    3    0  501 -0.58786109899E+01 -0.27281338335E+00  0.21972311170E+04  0.21972390002E+04  0.10000000000E+00 0. -1.
         21    1    1    2  504  502 -0.39385271598E+01 -0.18474614830E+02 -0.15610487593E+02  0.24505320080E+02  0.00000000000E+00 0.  1.
<mgrwt>
<rscale>  1 0.12642825E+03</rscale>
<asrwt>0</asrwt>
<pdfrwt beam="1">  1       21 0.34848693E+00 0.12642825E+03</pdfrwt>
<pdfrwt beam="2">  1       21 0.33577702E-02 0.12642825E+03</pdfrwt>
<totfact> 0.10291016E+04</totfact>
</mgrwt>
</event>
<event>
 6    1  0.4244577E-002  0.1289026E+03  0.7546771E-02  0.1229093E+00
         21   -1    0    0  503  502  0.00000000000E+00  0.00000000000E+00  0.38435203240E+03  0.38435203240E+03  0.00000000000E+00 0. -1.
         21   -1    0    0  504  503 -0.00000000000E+00 -0.00000000000E+00 -0.29045053167E+02  0.29045053167E+02  0.00000000000E+00 0.  1.
         25    2    1    2    0    0 -0.26124412940E+02  0.17580156406E+02  0.35923733176E+03  0.38166390858E+03  0.12499732690E+03 0.  0.
          5    1    3    3  501    0 -0.70834050217E+02  0.14599931129E+02  0.13662490941E+03  0.15458653412E+03  0.10000000000E+00 0. -1.
         -5    1    3    3    0  501  0.44709637277E+02  0.29802252766E+01  0.22261242234E+03  0.22707737445E+03  0.10000000000E+00 0. -1.
         21    1    1    2  504  502  0.26124412940E+02 -0.17580156406E+02 -0.39303525272E+01  0.31733176988E+02  0.00000000000E+00 0.  1.
<mgrwt>
<rscale>  1 0.12890259E+03</rscale>
<asrwt>0</asrwt>
<pdfrwt beam="1">  1       21 0.59131078E-01 0.12890259E+03</pdfrwt>
<pdfrwt beam="2">  1       21 0.44684700E-02 0.12890259E+03</pdfrwt>
<totfact> 0.87307524E+05</totfact>
</mgrwt>
</event>
<event>
 6    1  0.4244577E-002  0.1328433E+03  0.7546771E-02  0.1223297E+00
         21   -1    0    0  504  502  0.00000000000E+00  0.00000000000E+00  0.76520296598E+02  0.76520296598E+02  0.00000000000E+00 0.  1.
         21   -1    0    0  502  503 -0.00000000000E+00 -0.00000000000E+00 -0.10986128200E+03  0.10986128200E+03  0.00000000000E+00 0.  1.
         25    2    1    2    0    0 -0.68288232921E+01 -0.44453372720E+02 -0.44325771873E+01  0.13291727986E+03  0.12499848148E+03 0.  0.
          5    1    3    3  501    0  0.50045652997E+02 -0.44510671625E+02 -0.26340089287E+02  0.71969282170E+02  0.10000000000E+00 0.  1.
         -5    1    3    3    0  501 -0.56874476289E+02  0.57298905256E-01  0.21907512100E+02  0.60947997692E+02  0.10000000000E+00 0.  1.
         21    1    1    2  504  503  0.68288232921E+01  0.44453372720E+02 -0.28908408212E+02  0.53464298733E+02  0.00000000000E+00 0.  1.
<mgrwt>
<rscale>  1 0.13284335E+03</rscale>
<asrwt>0</asrwt>
<pdfrwt beam="1">  1       21 0.11772353E-01 0.13284335E+03</pdfrwt>
<pdfrwt beam="2">  1       21 0.16901736E-01 0.13284335E+03</pdfrwt>
<totfact> 0.19057116E+06</totfact>
</mgrwt>
</event>
<event>
 6    1  0.4244577E-002  0.1332954E+03  0.7546771E-02  0.1222646E+00
         21   -1    0    0  503  502  0.00000000000E+00  0.00000000000E+00  0.17535818176E+03  0.17535818176E+03  0.00000000000E+00 0.  1.
         21   -1    0    0  504  503 -0.00000000000E+00 -0.00000000000E+00 -0.92474898965E+02  0.92474898965E+02  0.00000000000E+00 0.  1.
         25    2    1    2    0    0  0.51346638281E+01 -0.46061294433E+02  0.14064591160E+03  0.19377547541E+03  0.12497861738E+03 0.  0.
          5    1    3    3  501    0  0.24769104718E+02 -0.19379414087E+02 -0.14857491934E+02  0.34782543114E+02  0.10000000000E+00 0. -1.
         -5    1    3    3    0  501 -0.19634440890E+02 -0.26681880346E+02  0.15550340354E+03  0.15899293230E+03  0.10000000000E+00 0. -1.
         21    1    1    2  504  502 -0.51346638281E+01  0.46061294433E+02 -0.57762628812E+02  0.74057605313E+02  0.00000000000E+00 0.  1.
<mgrwt>
<rscale>  1 0.13329540E+03</rscale>
<asrwt>0</asrwt>
<pdfrwt beam="1">  1       21 0.26978182E-01 0.13329540E+03</pdfrwt>
<pdfrwt beam="2">  1       21 0.14226908E-01 0.13329540E+03</pdfrwt>
<totfact> 0.56901220E+05</totfact>
</mgrwt>
</event>
<event>
 6    1  0.4244577E-002  0.1263570E+03  0.7546771E-02  0.1232964E+00
         21   -1    0    0  504  502  0.00000000000E+00  0.00000000000E+00  0.88942451456E+03  0.88942451456E+03  0.00000000000E+00 0. -1.
         21   -1    0    0  502  503 -0.00000000000E+00 -0.00000000000E+00 -0.10235840440E+02  0.10235840440E+02  0.00000000000E+00 0. -1.
         25    2    1    2    0    0 -0.19198912149E+01  0.18195164096E+02  0.87010757009E+03  0.87923447853E+03  0.12502533640E+03 0.  0.
          5    1    3    3  501    0 -0.55361293122E+02 -0.37995612711E+01  0.62267158788E+03  0.62513936510E+03  0.10000000000E+00 0.  1.
         -5    1    3    3    0  501  0.53441401907E+02  0.21994725368E+02  0.24743598220E+03  0.25409511343E+03  0.10000000000E+00 0.  1.
         21    1    1    2  504  503  0.19198912149E+01 -0.18195164096E+02  0.90811040288E+01  0.20425876460E+02  0.00000000000E+00 0. -1.
<mgrwt>
<rscale>  1 0.12635697E+03</rscale>
<asrwt>0</asrwt>
<pdfrwt beam="1">  1       21 0.13683448E+00 0.12635697E+03</pdfrwt>
<pdfrwt beam="2">  1       21 0.15747454E-02 0.12635697E+03</pdfrwt>
<totfact> 0.69729287E+05</totfact>
</mgrwt>
</event>
<event>
 6    1  0.4244577E-002  0.1262981E+03  0.7546771E-02  0.1233054E+00
         21   -1    0    0  504  502  0.00000000000E+00  0.00000000000E+00  0.99358534771E+02  0.99358534771E+02  0.00000000000E+00 0. -1.
         21   -1    0    0  502  503 -0.00000000000E+00 -0.00000000000E+00 -0.65127474149E+02  0.65127474149E+02  0.00000000000E+00 0. -1.
         25    2    1    2    0    0 -0.29706432130E+01  0.17816897221E+02  0.54308201364E+02  0.13747937773E+03  0.12499972807E+03 0.  0.
          5    1    3    3  501    0 -0.35009057453E+02  0.54315252675E+02 -0.41975515858E-02  0.64620358978E+02  0.10000000000E+00 0. -1.
         -5    1    3    3    0  501  0.32038414240E+02 -0.36498355454E+02  0.54312398916E+02  0.72859018754E+02  0.10000000000E+00 0. -1.
         21    1    1    2  504  503  0.29706432130E+01 -0.17816897221E+02 -0.20077140743E+02  0.27006631187E+02  0.00000000000E+00 0. -1.
<mgrwt>
<rscale>  1 0.12629805E+03</rscale>
<asrwt>0</asrwt>
<pdfrwt beam="1">  1       21 0.15285928E-01 0.12629805E+03</pdfrwt>
<pdfrwt beam="2">  1       21 0.10019611E-01 0.12629805E+03</pdfrwt>
<totfact> 0.30312977E+06</totfact>
</mgrwt>
</event>
<event>
 6    1  0.4244577E-002  0.1260726E+03  0.7546771E-02  0.1233402E+00
         21   -1    0    0  504  502  0.00000000000E+00  0.00000000000E+00  0.10403227016E+03  0.10403227016E+03  0.00000000000E+00 0. -1.
         21   -1    0    0  502  503 -0.00000000000E+00 -0.00000000000E+00 -0.85646797534E+02  0.85646797534E+02  0.00000000000E+00 0. -1.
         25    2    1    2    0    0  0.17180406125E+01  0.16139813510E+02  0.63910892003E+02  0.14134679015E+03  0.12502346870E+03 0.  0.
          5    1    3    3  501    0 -0.56316287700E+02  0.59160913319E+00  0.58210334591E+02  0.80995847517E+02  0.10000000000E+00 0.  1.
         -5    1    3    3    0  501  0.58034328313E+02  0.15548204377E+02  0.57005574118E+01  0.60350942635E+02  0.10000000000E+00 0.  1.
         21    1    1    2  504  503 -0.17180406125E+01 -0.16139813510E+02 -0.45525419374E+02  0.48332277546E+02  0.00000000000E+00 0. -1.
<mgrwt>
<rscale>  1 0.12607265E+03</rscale>
<asrwt>0</asrwt>
<pdfrwt beam="1">  1       21 0.16004965E-01 0.12607265E+03</pdfrwt>
<pdfrwt beam="2">  1       21 0.13176430E-01 0.12607265E+03</pdfrwt>
<totfact> 0.17200398E+06</totfact>
</mgrwt>
</event>
<event>
 6    1  0.4244577E-002  0.1259955E+03  0.7546771E-02  0.1233522E+00
         21   -1    0    0  503  502  0.00000000000E+00  0.00000000000E+00  0.29138964513E+02  0.29138964513E+02  0.00000000000E+00 0.  1.
         21   -1    0    0  504  503 -0.00000000000E+00 -0.00000000000E+00 -0.17505581055E+03  0.17505581055E+03  0.00000000000E+00 0.  1.
         25    2    1    2    0    0 -0.15012942557E+02  0.50124962647E+01 -0.12107933350E+03  0.17474285506E+03  0.12499738729E+03 0.  0.
          5    1    3    3  501    0  0.43356590476E+02  0.15390119429E+02 -0.74897393286E+01  0.46612829875E+02  0.10000000000E+00 0.  1.
         -5    1    3    3    0  501 -0.58369533033E+02 -0.10377623165E+02 -0.11358959417E+03  0.12813002518E+03  0.10000000000E+00 0.  1.
         21    1    1    2  504  502  0.15012942557E+02 -0.50124962647E+01 -0.24837512535E+02  0.29451920005E+02  0.00000000000E+00 0. -1.
<mgrwt>
<rscale>  1 0.12599548E+03</rscale>
<asrwt>0</asrwt>
<pdfrwt beam="1">  1       21 0.44829177E-02 0.12599548E+03</pdfrwt>
<pdfrwt beam="2">  1       21 0.26931662E-01 0.12599548E+03</pdfrwt>
<totfact> 0.41906949E+06</totfact>
</mgrwt>
</event>
<event>
 6    1  0.4244577E-002  0.1284123E+03  0.7546771E-02  0.1229831E+00
         21   -1    0    0  504  502  0.00000000000E+00  0.00000000000E+00  0.36676222613E+03  0.36676222613E+03  0.00000000000E+00 0.  1.
         21   -1    0    0  502  503 -0.00000000000E+00 -0.00000000000E+00 -0.18626401054E+02  0.18626401054E+02  0.00000000000E+00 0.  1.
         25    2    1    2    0    0  0.17879405272E+02  0.23361991942E+02  0.31947517089E+03  0.34431687413E+03  0.12499707675E+03 0.  0.
          5    1    3    3  501    0 -0.44452028269E+02  0.21460932210E+02  0.61230209490E+02  0.78649240192E+02  0.10000000000E+00 0. -1.
         -5    1    3    3    0  501  0.62331433541E+02  0.19010597319E+01  0.25824496140E+03  0.26566763394E+03  0.10000000000E+00 0. -1.
         21    1    1    2  504  503 -0.17879405272E+02 -0.23361991942E+02  0.28660654186E+02  0.41071753052E+02  0.00000000000E+00 0.  1.
<mgrwt>
<rscale>  1 0.12841232E+03</rscale>
<asrwt>0</asrwt>
<pdfrwt beam="1">  1       21 0.56424952E-01 0.12841232E+03</pdfrwt>
<pdfrwt beam="2">  1       21 0.28656004E-02 0.12841232E+03</pdfrwt>
<totfact> 0.20085053E+06</totfact>
</mgrwt>
</event>
<event>
 6    1  0.4244577E-002  0.1283089E+03  0.7546771E-02  0.1229987E+00
         21   -1    0    0  504  502  0.00000000000E+00  0.00000000000E+00  0.23830396346E+03  0.23830396346E+03  0.00000000000E+00 0. -1.
         21   -1    0    0  502  503 -0.00000000000E+00 -0.00000000000E+00 -0.72164344112E+02  0.72164344112E+02  0.00000000000E+00 0. -1.
         25    2    1    2    0    0 -0.11187022536E+02  0.26710981159E+02  0.21691084277E+03  0.25201881557E+03  0.12499817479E+03 0.  0.
          5    1    3    3  501    0  0.13945713634E+02  0.53028825713E+02  0.31844193704E+02  0.63408216801E+02  0.10000000000E+00 0. -1.
         -5    1    3    3    0  501 -0.25132736170E+02 -0.26317844554E+02  0.18506664907E+03  0.18861059877E+03  0.10000000000E+00 0. -1.
         21    1    1    2  504  503  0.11187022536E+02 -0.26710981159E+02 -0.50771223424E+02  0.58449492005E+02  0.00000000000E+00 0. -1.
<mgrwt>
<rscale>  1 0.12830888E+03</rscale>
<asrwt>0</asrwt>
<pdfrwt beam="1">  1       21 0.36662148E-01 0.12830888E+03</pdfrwt>
<pdfrwt beam="2">  1       21 0.11102207E-01 0.12830888E+03</pdfrwt>
<totfact> 0.48787623E+05</totfact>
</mgrwt>
</event>
<event>
 6    1  0.4244577E-002  0.1436153E+03  0.7546771E-02  0.1208545E+00
         21   -1    0    0  504  502  0.00000000000E+00  0.00000000000E+00  0.35421606124E+02  0.35421606124E+02  0.00000000000E+00 0.  1.
         21   -1    0    0  502  503 -0.00000000000E+00 -0.00000000000E+00 -0.84708617448E+03  0.84708617448E+03  0.00000000000E+00 0.  1.
         25    2    1    2    0    0  0.54349920419E+02  0.45236841390E+02 -0.11975329534E+03  0.18699250731E+03  0.12500024150E+03 0.  0.
          5    1    3    3  501    0 -0.47800970470E+00 -0.30652086334E+02  0.49532220193E+01  0.31053555324E+02  0.10000000000E+00 0. -1.
         -5    1    3    3    0  501  0.54827930124E+02  0.75888927724E+02 -0.12470651736E+03  0.15593895198E+03  0.10000000000E+00 0. -1.
         21    1    1    2  504  503 -0.54349920419E+02 -0.45236841390E+02 -0.69191127301E+03  0.69551527330E+03  0.00000000000E+00 0.  1.
<mgrwt>
<rscale>  1 0.14361527E+03</rscale>
<asrwt>0</asrwt>
<pdfrwt beam="1">  1       21 0.54494785E-02 0.14361527E+03</pdfrwt>
<pdfrwt beam="2">  1       21 0.13032094E+00 0.14361527E+03</pdfrwt>
<totfact> 0.10208865E+05</totfact>
</mgrwt>
</event>
<event>
 6    1  0.4244577E-002  0.1299626E+03  0.7546771E-02  0.1227511E+00
         21   -1    0    0  504  502  0.00000000000E+00  0.00000000000E+00  0.97276326099E+02  0.97276326099E+02  0.00000000000E+00 0. -1.
         21   -1    0    0  502  503 -0.00000000000E+00 -0.00000000000E+00 -0.70919341927E+02  0.70919341927E+02  0.00000000000E+00 0. -1.
         25    2    1    2    0    0 -0.28271888907E+02  0.21543415661E+02  0.26568206462E+02  0.13265044225E+03  0.12500740687E+03 0.  0.
          5    1    3    3  501    0 -0.68577265740E+02 -0.10241634540E+02  0.39386556693E+02  0.79743609791E+02  0.10000000000E+00 0.  1.
         -5    1    3    3    0  501  0.40305376833E+02  0.31785050201E+02 -0.12818350231E+02  0.52906832457E+02  0.10000000000E+00 0.  1.
         21    1    1    2  504  503  0.28271888907E+02 -0.21543415661E+02 -0.21122229001E+00  0.35545225777E+02  0.00000000000E+00 0. -1.
<mgrwt>
<rscale>  1 0.12996257E+03</rscale>
<asrwt>0</asrwt>
<pdfrwt beam="1">  1       21 0.14965589E-01 0.12996257E+03</pdfrwt>
<pdfrwt beam="2">  1       21 0.10910668E-01 0.12996257E+03</pdfrwt>
<totfact> 0.27150810E+06</totfact>
</mgrwt>
</event>
<event>
 6    1  0.4244577E-002  0.1507051E+03  0.7546771E-02  0.1199609E+00
         21   -1    0    0  504  502  0.00000000000E+00  0.00000000000E+00  0.13231300484E+03  0.13231300484E+03  0.00000000000E+00 0.  1.
         21   -1    0    0  502  503 -0.00000000000E+00 -0.00000000000E+00 -0.21828312698E+03  0.21828312698E+03  0.00000000000E+00 0. -1.
         25    2    1    2    0    0 -0.60932524219E+02  0.58089283878E+02  0.75453974495E+02  0.16853878815E+03  0.12499953374E+03 0.  0.
          5    1    3    3  501    0 -0.10218543622E+02 -0.22497875386E+02  0.68785207365E+02  0.73088903281E+02  0.10000000000E+00 0. -1.
         -5    1    3    3    0  501 -0.50713980598E+02  0.80587159264E+02  0.66687671305E+01  0.95449884868E+02  0.10000000000E+00 0. -1.
         21    1    1    2  504  503  0.60932524219E+02 -0.58089283878E+02 -0.16142409664E+03  0.18205734367E+03  0.00000000000E+00 0. -1.
<mgrwt>
<rscale>  1 0.15070508E+03</rscale>
<asrwt>0</asrwt>
<pdfrwt beam="1">  1       21 0.20355847E-01 0.15070508E+03</pdfrwt>
<pdfrwt beam="2">  1       21 0.33582019E-01 0.15070508E+03</pdfrwt>
<totfact> 0.19307032E+05</totfact>
</mgrwt>
</event>
<event>
 6    1  0.4244577E-002  0.1527704E+03  0.7546771E-02  0.1197109E+00
         21   -1    0    0  504  502  0.00000000000E+00  0.00000000000E+00  0.33723077588E+02  0.33723077588E+02  0.00000000000E+00 0. -1.
         21   -1    0    0  502  503 -0.00000000000E+00 -0.00000000000E+00 -0.50805099279E+03  0.50805099279E+03  0.00000000000E+00 0. -1.
         25    2    1    2    0    0  0.45827410429E+02  0.74912453129E+02 -0.18779828375E+03  0.24208880735E+03  0.12500707212E+03 0.  0.
          5    1    3    3  501    0  0.54006562929E+02  0.31175883826E+02 -0.15663361628E+02  0.64296154390E+02  0.10000000000E+00 0.  1.
         -5    1    3    3    0  501 -0.81791525005E+01  0.43736569303E+02 -0.17213492213E+03  0.17779265296E+03  0.10000000000E+00 0.  1.
         21    1    1    2  504  503 -0.45827410429E+02 -0.74912453129E+02 -0.28652963145E+03  0.29968526303E+03  0.00000000000E+00 0. -1.
<mgrwt>
<rscale>  1 0.15277040E+03</rscale>
<asrwt>0</asrwt>
<pdfrwt beam="1">  1       21 0.51881659E-02 0.15277040E+03</pdfrwt>
<pdfrwt beam="2">  1       21 0.78161689E-01 0.15277040E+03</pdfrwt>
<totfact> 0.36946924E+05</totfact>
</mgrwt>
</event>
<event>
 6    1  0.4244577E-002  0.1297945E+03  0.7546771E-02  0.1227761E+00
         21   -1    0    0  503  502  0.00000000000E+00  0.00000000000E+00  0.11106076361E+03  0.11106076361E+03  0.00000000000E+00 0.  1.
         21   -1    0    0  504  503 -0.00000000000E+00 -0.00000000000E+00 -0.12680252165E+03  0.12680252165E+03  0.00000000000E+00 0.  1.
         25    2    1    2    0    0  0.21623454762E+02  0.27473512118E+02  0.68423228170E+02  0.14672540857E+03  0.12499695878E+03 0.  0.
          5    1    3    3  501    0 -0.15794921661E+02 -0.41548417894E+02  0.30400976175E+01  0.44553369944E+02  0.10000000000E+00 0.  1.
         -5    1    3    3    0  501  0.37418376424E+02  0.69021930012E+02  0.65383130552E+02  0.10217203863E+03  0.10000000000E+00 0.  1.
         21    1    1    2  504  502 -0.21623454762E+02 -0.27473512118E+02 -0.84164986206E+02  0.91137876687E+02  0.00000000000E+00 0.  1.
<mgrwt>
<rscale>  1 0.12979448E+03</rscale>
<asrwt>0</asrwt>
<pdfrwt beam="1">  1       21 0.17086271E-01 0.12979448E+03</pdfrwt>
<pdfrwt beam="2">  1       21 0.19508080E-01 0.12979448E+03</pdfrwt>
<totfact> 0.75025176E+05</totfact>
</mgrwt>
</event>
<event>
 6    1  0.4244577E-002  0.1279615E+03  0.7546771E-02  0.1230512E+00
         21   -1    0    0  504  502  0.00000000000E+00  0.00000000000E+00  0.26487696369E+02  0.26487696369E+02  0.00000000000E+00 0. -1.
         21   -1    0    0  502  503 -0.00000000000E+00 -0.00000000000E+00 -0.23182435110E+03  0.23182435110E+03  0.00000000000E+00 0. -1.
         25    2    1    2    0    0  0.22194825402E+02 -0.16062393238E+02 -0.15493406302E+03  0.20094453051E+03  0.12499411869E+03 0.  0.
          5    1    3    3  501    0  0.45141468914E+02  0.32964977931E+02 -0.12967566979E+03  0.14120988394E+03  0.10000000000E+00 0. -1.
         -5    1    3    3    0  501 -0.22946643512E+02 -0.49027371169E+02 -0.25258393225E+02  0.59734646567E+02  0.10000000000E+00 0. -1.
         21    1    1    2  504  503 -0.22194825402E+02  0.16062393238E+02 -0.50402591717E+02  0.57367516967E+02  0.00000000000E+00 0. -1.
<mgrwt>
<rscale>  1 0.12796148E+03</rscale>
<asrwt>0</asrwt>
<pdfrwt beam="1">  1       21 0.40750304E-02 0.12796148E+03</pdfrwt>
<pdfrwt beam="2">  1       21 0.35665283E-01 0.12796148E+03</pdfrwt>
<totfact> 0.28540298E+06</totfact>
</mgrwt>
</event>
<event>
 6    1  0.4244577E-002  0.1312654E+03  0.7546771E-02  0.1225590E+00
         21   -1    0    0  504  502  0.00000000000E+00  0.00000000000E+00  0.40717420574E+03  0.40717420574E+03  0.00000000000E+00 0. -1.
         21   -1    0    0  502  503 -0.00000000000E+00 -0.00000000000E+00 -0.68551715792E+02  0.68551715792E+02  0.00000000000E+00 0.  1.
         25    2    1    2    0    0  0.68656451198E+01 -0.39514364917E+02  0.38945220683E+03  0.41097885800E+03  0.12498831224E+03 0.  0.
          5    1    3    3  501    0 -0.75554137765E+01  0.51863841837E+01 -0.71382635458E+01  0.11616697667E+02  0.10000000000E+00 0.  1.
         -5    1    3    3    0  501  0.14421058896E+02 -0.44700749101E+02  0.39659047038E+03  0.39936216033E+03  0.10000000000E+00 0.  1.
         21    1    1    2  504  503 -0.68656451198E+01  0.39514364917E+02 -0.50829716885E+02  0.64747063534E+02  0.00000000000E+00 0.  1.
<mgrwt>
<rscale>  1 0.13126538E+03</rscale>
<asrwt>0</asrwt>
<pdfrwt beam="1">  1       21 0.62642184E-01 0.13126538E+03</pdfrwt>
<pdfrwt beam="2">  1       21 0.10546418E-01 0.13126538E+03</pdfrwt>
<totfact> 0.17769668E+05</totfact>
</mgrwt>
</event>
<event>
 6    1  0.4244577E-002  0.1387079E+03  0.7546771E-02  0.1215078E+00
         21   -1    0    0  503  502  0.00000000000E+00  0.00000000000E+00  0.22993214164E+04  0.22993214164E+04  0.00000000000E+00 0.  1.
         21   -1    0    0  504  503 -0.00000000000E+00 -0.00000000000E+00 -0.81635790962E+01  0.81635790962E+01  0.00000000000E+00 0.  1.
         25    2    1    2    0    0  0.21659854760E+00  0.60277153330E+02  0.21436990235E+04  0.21481818759E+04  0.12492592475E+03 0.  0.
          5    1    3    3  501    0  0.16371521157E+02  0.62713486428E+01  0.17845362446E+04  0.17846223620E+04  0.10000000000E+00 0.  1.
         -5    1    3    3    0  501 -0.16154922609E+02  0.54005804687E+02  0.35916277888E+03  0.36355951397E+03  0.10000000000E+00 0.  1.
         21    1    1    2  504  502 -0.21659854760E+00 -0.60277153330E+02  0.14745881379E+03  0.15930311953E+03  0.00000000000E+00 0.  1.
<mgrwt>
<rscale>  1 0.13870785E+03</rscale>
<asrwt>0</asrwt>
<pdfrwt beam="1">  1       21 0.35374124E+00 0.13870785E+03</pdfrwt>
<pdfrwt beam="2">  1       21 0.12559371E-02 0.13870785E+03</pdfrwt>
<totfact> 0.46179028E+04</totfact>
</mgrwt>
</event>
<event>
 6    1  0.4244577E-002  0.1821448E+03  0.7546771E-02  0.1165743E+00
         21   -1    0    0  503  502  0.00000000000E+00  0.00000000000E+00  0.11243354776E+04  0.11243354776E+04  0.00000000000E+00 0.  1.
         21   -1    0    0  504  503 -0.00000000000E+00 -0.00000000000E+00 -0.20585350470E+03  0.20585350470E+03  0.00000000000E+00 0. -1.
         25    2    1    2    0    0 -0.97976370449E+02  0.89157261357E+02  0.10946901104E+04  0.11097401353E+04  0.12501337404E+03 0.  0.
          5    1    3    3  501    0 -0.86259999684E+02  0.63763370351E+02  0.38965160585E+03  0.40414717478E+03  0.10000000000E+00 0. -1.
         -5    1    3    3    0  501 -0.11716370765E+02  0.25393891005E+02  0.70503850458E+03  0.70559296055E+03  0.10000000000E+00 0. -1.
         21    1    1    2  504  502  0.97976370449E+02 -0.89157261357E+02 -0.17620813750E+03  0.22044884699E+03  0.00000000000E+00 0. -1.
<mgrwt>
<rscale>  1 0.18214481E+03</rscale>
<asrwt>0</asrwt>
<pdfrwt beam="1">  1       21 0.17297469E+00 0.18214481E+03</pdfrwt>
<pdfrwt beam="2">  1       21 0.31669770E-01 0.18214481E+03</pdfrwt>
<totfact> 0.19706810E+03</totfact>
</mgrwt>
</event>
<event>
 6    1  0.4244577E-002  0.1271224E+03  0.7546771E-02  0.1231789E+00
         21   -1    0    0  504  502  0.00000000000E+00  0.00000000000E+00  0.15357157771E+03  0.15357157771E+03  0.00000000000E+00 0.  1.
         21   -1    0    0  502  503 -0.00000000000E+00 -0.00000000000E+00 -0.60897680170E+02  0.60897680170E+02  0.00000000000E+00 0. -1.
         25    2    1    2    0    0  0.20815351338E+02  0.10128878563E+02  0.12261715870E+03  0.17662124708E+03  0.12499689709E+03 0.  0.
          5    1    3    3  501    0  0.71220549458E+02  0.23141896980E+02  0.76902601902E+02  0.10734027315E+03  0.10000000000E+00 0. -1.
         -5    1    3    3    0  501 -0.50405198120E+02 -0.13013018417E+02  0.45714556797E+02  0.69280973932E+02  0.10000000000E+00 0. -1.
         21    1    1    2  504  503 -0.20815351338E+02 -0.10128878563E+02 -0.29943261161E+02  0.37848010795E+02  0.00000000000E+00 0. -1.
<mgrwt>
<rscale>  1 0.12712237E+03</rscale>
<asrwt>0</asrwt>
<pdfrwt beam="1">  1       21 0.23626396E-01 0.12712237E+03</pdfrwt>
<pdfrwt beam="2">  1       21 0.93688739E-02 0.12712237E+03</pdfrwt>
<totfact> 0.15300017E+06</totfact>
</mgrwt>
</event>
<event>
 6    1  0.4244577E-002  0.1311421E+03  0.7546771E-02  0.1225771E+00
         21   -1    0    0  503  502  0.00000000000E+00  0.00000000000E+00  0.42238825655E+03  0.42238825655E+03  0.00000000000E+00 0.  1.
         21   -1    0    0  504  503 -0.00000000000E+00 -0.00000000000E+00 -0.77135169947E+02  0.77135169947E+02  0.00000000000E+00 0.  1.
         25    2    1    2    0    0 -0.18183966573E+02 -0.35240041625E+02  0.40618118145E+03  0.42682714105E+03  0.12500295596E+03 0.  0.
          5    1    3    3  501    0 -0.39938867640E+02 -0.64058237364E+02  0.36190574143E+03  0.36969493722E+03  0.10000000000E+00 0.  1.
         -5    1    3    3    0  501  0.21754901067E+02  0.28818195739E+02  0.44275440021E+02  0.57132203836E+02  0.10000000000E+00 0.  1.
         21    1    1    2  504  502  0.18183966573E+02  0.35240041625E+02 -0.60928094854E+02  0.72696285439E+02  0.00000000000E+00 0.  1.
<mgrwt>
<rscale>  1 0.13114212E+03</rscale>
<asrwt>0</asrwt>
<pdfrwt beam="1">  1       21 0.64982807E-01 0.13114212E+03</pdfrwt>
<pdfrwt beam="2">  1       21 0.11866949E-01 0.13114212E+03</pdfrwt>
<totfact> 0.13339539E+05</totfact>
</mgrwt>
</event>
<event>
 6    1  0.4244577E-002  0.1294165E+03  0.7546771E-02  0.1228324E+00
         21   -1    0    0  504  502  0.00000000000E+00  0.00000000000E+00  0.46379807132E+03  0.46379807132E+03  0.00000000000E+00 0.  1.
         21   -1    0    0  502  503 -0.00000000000E+00 -0.00000000000E+00 -0.27008148459E+02  0.27008148459E+02  0.00000000000E+00 0.  1.
         25    2    1    2    0    0  0.57832883863E+01 -0.33033379507E+02  0.43852759439E+03  0.45722542037E+03  0.12499593355E+03 0.  0.
          5    1    3    3  501    0 -0.23707530657E+02 -0.35584080818E+02  0.43170151855E+02  0.60761384355E+02  0.10000000000E+00 0. -1.
         -5    1    3    3    0  501  0.29490819043E+02  0.25507013116E+01  0.39535744254E+03  0.39646403602E+03  0.10000000000E+00 0. -1.
         21    1    1    2  504  503 -0.57832883863E+01  0.33033379507E+02 -0.17376715358E+01  0.33580799403E+02  0.00000000000E+00 0.  1.
<mgrwt>
<rscale>  1 0.12941651E+03</rscale>
<asrwt>0</asrwt>
<pdfrwt beam="1">  1       21 0.71353544E-01 0.12941651E+03</pdfrwt>
<pdfrwt beam="2">  1       21 0.41551001E-02 0.12941651E+03</pdfrwt>
<totfact> 0.65771819E+05</totfact>
</mgrwt>
</event>
<event>
 6    1  0.4244577E-002  0.1269755E+03  0.7546771E-02  0.1232014E+00
         21   -1    0    0  504  502  0.00000000000E+00  0.00000000000E+00  0.80407192244E+02  0.80407192244E+02  0.00000000000E+00 0.  1.
         21   -1    0    0  502  503 -0.00000000000E+00 -0.00000000000E+00 -0.50507838479E+03  0.50507838479E+03  0.00000000000E+00 0. -1.
         25    2    1    2    0    0  0.10147198174E+02  0.19836431789E+02  0.29835064047E+02  0.13043350645E+03  0.12500527550E+03 0.  0.
          5    1    3    3  501    0  0.30359963438E+02  0.47788351683E+02 -0.27946684928E+02  0.63138586735E+02  0.10000000000E+00 0. -1.
         -5    1    3    3    0  501 -0.20212765263E+02 -0.27951919893E+02  0.57781748975E+02  0.67294919719E+02  0.10000000000E+00 0. -1.
         21    1    1    2  504  503 -0.10147198174E+02 -0.19836431789E+02 -0.45450625659E+03  0.45505207058E+03  0.00000000000E+00 0. -1.
<mgrwt>
<rscale>  1 0.12697546E+03</rscale>
<asrwt>0</asrwt>
<pdfrwt beam="1">  1       21 0.12370337E-01 0.12697546E+03</pdfrwt>
<pdfrwt beam="2">  1       21 0.77704367E-01 0.12697546E+03</pdfrwt>
<totfact> 0.83969482E+04</totfact>
</mgrwt>
</event>
<event>
 6    1  0.4244577E-002  0.1569518E+03  0.7546771E-02  0.1192182E+00
         21   -1    0    0  504  502  0.00000000000E+00  0.00000000000E+00  0.20096862581E+04  0.20096862581E+04  0.00000000000E+00 0. -1.
         21   -1    0    0  502  503 -0.00000000000E+00 -0.00000000000E+00 -0.24546886727E+02  0.24546886727E+02  0.00000000000E+00 0. -1.
         25    2    1    2    0    0  0.90630090633E+01  0.94482551007E+02  0.19007728548E+04  0.19072418078E+04  0.12499910811E+03 0.  0.
          5    1    3    3  501    0  0.65056414961E+02  0.30646801725E+02  0.83383975057E+03  0.83693506511E+03  0.10000000000E+00 0. -1.
         -5    1    3    3    0  501 -0.55993405897E+02  0.63835749282E+02  0.10669331043E+04  0.10703067426E+04  0.10000000000E+00 0. -1.
         21    1    1    2  504  503 -0.90630090633E+01 -0.94482551007E+02  0.84366516559E+02  0.12699133708E+03  0.00000000000E+00 0. -1.
<mgrwt>
<rscale>  1 0.15695180E+03</rscale>
<asrwt>0</asrwt>
<pdfrwt beam="1">  1       21 0.30918237E+00 0.15695180E+03</pdfrwt>
<pdfrwt beam="2">  1       21 0.37764457E-02 0.15695180E+03</pdfrwt>
<totfact> 0.13588622E+04</totfact>
</mgrwt>
</event>
<event>
 6    1  0.4244577E-002  0.1344704E+03  0.7546771E-02  0.1220969E+00
         21   -1    0    0  503  502  0.00000000000E+00  0.00000000000E+00  0.20184392839E+02  0.20184392839E+02  0.00000000000E+00 0. -1.
         21   -1    0    0  504  503 -0.00000000000E+00 -0.00000000000E+00 -0.52765357758E+03  0.52765357758E+03  0.00000000000E+00 0. -1.
         25    2    1    2    0    0  0.48172174935E+02 -0.11738494466E+02 -0.23378918636E+03  0.26970294529E+03  0.12499577732E+03 0.  0.
          5    1    3    3  501    0  0.60334760060E+02  0.33288341245E+02 -0.20155053216E+03  0.21300475100E+03  0.10000000000E+00 0.  1.
         -5    1    3    3    0  501 -0.12162585125E+02 -0.45026835711E+02 -0.32238654202E+02  0.56698194290E+02  0.10000000000E+00 0.  1.
         21    1    1    2  504  502 -0.48172174935E+02  0.11738494466E+02 -0.27367999838E+03  0.27813502513E+03  0.00000000000E+00 0. -1.
<mgrwt>
<rscale>  1 0.13447042E+03</rscale>
<asrwt>0</asrwt>
<pdfrwt beam="1">  1       21 0.31052913E-02 0.13447042E+03</pdfrwt>
<pdfrwt beam="2">  1       21 0.81177471E-01 0.13447042E+03</pdfrwt>
<totfact> 0.79989973E+05</totfact>
</mgrwt>
</event>
<event>
 6    1  0.4244577E-002  0.1264535E+03  0.7546771E-02  0.1232815E+00
         21   -1    0    0  503  502  0.00000000000E+00  0.00000000000E+00  0.47815195196E+03  0.47815195196E+03  0.00000000000E+00 0.  1.
         21   -1    0    0  504  503 -0.00000000000E+00 -0.00000000000E+00 -0.40429207516E+02  0.40429207516E+02  0.00000000000E+00 0.  1.
         25    2    1    2    0    0  0.18966611843E+01 -0.18996003945E+02  0.46689575901E+03  0.48371699065E+03  0.12500412699E+03 0.  0.
          5    1    3    3  501    0  0.28670698360E+02 -0.36612094622E+02  0.61729799592E+02  0.77285396905E+02  0.10000000000E+00 0. -1.
         -5    1    3    3    0  501 -0.26774037176E+02  0.17616090677E+02  0.40516595942E+03  0.40643159374E+03  0.10000000000E+00 0. -1.
         21    1    1    2  504  502 -0.18966611843E+01  0.18996003945E+02 -0.29173014566E+02  0.34864168832E+02  0.00000000000E+00 0.  1.
<mgrwt>
<rscale>  1 0.12645346E+03</rscale>
<asrwt>0</asrwt>
<pdfrwt beam="1">  1       21 0.73561835E-01 0.12645346E+03</pdfrwt>
<pdfrwt beam="2">  1       21 0.62198784E-02 0.12645346E+03</pdfrwt>
<totfact> 0.31238374E+05</totfact>
</mgrwt>
</event>
<event>
 6    1  0.4244577E-002  0.1262810E+03  0.7546771E-02  0.1233081E+00
         21   -1    0    0  504  502  0.00000000000E+00  0.00000000000E+00  0.88385443637E+01  0.88385443637E+01  0.00000000000E+00 0.  1.
         21   -1    0    0  502  503 -0.00000000000E+00 -0.00000000000E+00 -0.68522076928E+03  0.68522076928E+03  0.00000000000E+00 0.  1.
         25    2    1    2    0    0  0.90616452288E+01 -0.15484658544E+02 -0.46262926761E+03  0.47955473368E+03  0.12500006116E+03 0.  0.
          5    1    3    3  501    0 -0.16650176990E+02  0.51714625263E+02 -0.19780437321E+03  0.20512974167E+03  0.10000000000E+00 0. -1.
         -5    1    3    3    0  501  0.25711822219E+02 -0.67199283807E+02 -0.26482489440E+03  0.27442499201E+03  0.10000000000E+00 0. -1.
         21    1    1    2  504  503 -0.90616452288E+01  0.15484658544E+02 -0.21375295731E+03  0.21450457996E+03  0.00000000000E+00 0. -1.
<mgrwt>
<rscale>  1 0.12628105E+03</rscale>
<asrwt>0</asrwt>
<pdfrwt beam="1">  1       21 0.13597760E-02 0.12628105E+03</pdfrwt>
<pdfrwt beam="2">  1       21 0.10541858E+00 0.12628105E+03</pdfrwt>
<totfact> 0.16643710E+06</totfact>
</mgrwt>
</event>
<event>
 6    1  0.4244577E-002  0.1555835E+03  0.7546771E-02  0.1193775E+00
         21   -1    0    0  504  502  0.00000000000E+00  0.00000000000E+00  0.94209241392E+02  0.94209241392E+02  0.00000000000E+00 0. -1.
         21   -1    0    0  502  503 -0.00000000000E+00 -0.00000000000E+00 -0.18930793839E+03  0.18930793839E+03  0.00000000000E+00 0. -1.
         25    2    1    2    0    0 -0.39866607417E+02  0.83645050336E+02 -0.71242081359E+01  0.15574648078E+03  0.12498148303E+03 0.  0.
          5    1    3    3  501    0  0.18488230257E+01  0.71372729471E+02  0.47630244582E+02  0.85826189812E+02  0.10000000000E+00 0.  1.
         -5    1    3    3    0  501 -0.41715430442E+02  0.12272320865E+02 -0.54754452718E+02  0.69920290967E+02  0.10000000000E+00 0.  1.
         21    1    1    2  504  503  0.39866607417E+02 -0.83645050336E+02 -0.87974488858E+02  0.12777069900E+03  0.00000000000E+00 0. -1.
<mgrwt>
<rscale>  1 0.15558346E+03</rscale>
<asrwt>0</asrwt>
<pdfrwt beam="1">  1       21 0.14493730E-01 0.15558346E+03</pdfrwt>
<pdfrwt beam="2">  1       21 0.29124298E-01 0.15558346E+03</pdfrwt>
<totfact> 0.47423963E+05</totfact>
</mgrwt>
</event>
<event>
 6    1  0.4244577E-002  0.1267462E+03  0.7546771E-02  0.1232365E+00
         21   -1    0    0  504  502  0.00000000000E+00  0.00000000000E+00  0.61075717942E+03  0.61075717942E+03  0.00000000000E+00 0. -1.
         21   -1    0    0  502  503 -0.00000000000E+00 -0.00000000000E+00 -0.10777204828E+02  0.10777204828E+02  0.00000000000E+00 0. -1.
         25    2    1    2    0    0 -0.15283565712E+02 -0.14358026990E+02  0.57554088847E+03  0.58933175625E+03  0.12499945718E+03 0.  0.
          5    1    3    3  501    0 -0.57600432655E+02 -0.38174750052E+02  0.43917207540E+03  0.44457535153E+03  0.10000000000E+00 0.  1.
         -5    1    3    3    0  501  0.42316866943E+02  0.23816723061E+02  0.13636881308E+03  0.14475640471E+03  0.10000000000E+00 0.  1.
         21    1    1    2  504  503  0.15283565712E+02  0.14358026990E+02  0.24439086122E+02  0.32202628004E+02  0.00000000000E+00 0. -1.
<mgrwt>
<rscale>  1 0.12674622E+03</rscale>
<asrwt>0</asrwt>
<pdfrwt beam="1">  1       21 0.93962616E-01 0.12674622E+03</pdfrwt>
<pdfrwt beam="2">  1       21 0.16580320E-02 0.12674622E+03</pdfrwt>
<totfact> 0.15870744E+06</totfact>
</mgrwt>
</event>
<event>
 6    1  0.4244577E-002  0.1380527E+03  0.7546771E-02  0.1215973E+00
         21   -1    0    0  504  502  0.00000000000E+00  0.00000000000E+00  0.75662838478E+03  0.75662838478E+03  0.00000000000E+00 0. -1.
         21   -1    0    0  502  503 -0.00000000000E+00 -0.00000000000E+00 -0.29625265954E+02  0.29625265954E+02  0.00000000000E+00 0. -1.
         25    2    1    2    0    0  0.23639674299E+02 -0.53615609724E+02  0.71268640028E+03  0.72593419917E+03  0.12500035431E+03 0.  0.
          5    1    3    3  501    0 -0.24071638319E+02 -0.78601631431E+02  0.48855232519E+03  0.49542006891E+03  0.10000000000E+00 0. -1.
         -5    1    3    3    0  501  0.47711312619E+02  0.24986021706E+02  0.22413407509E+03  0.23051413026E+03  0.10000000000E+00 0. -1.
         21    1    1    2  504  503 -0.23639674299E+02  0.53615609724E+02  0.14316718550E+02  0.60319451565E+02  0.00000000000E+00 0. -1.
<mgrwt>
<rscale>  1 0.13805273E+03</rscale>
<asrwt>0</asrwt>
<pdfrwt beam="1">  1       21 0.11640435E+00 0.13805273E+03</pdfrwt>
<pdfrwt beam="2">  1       21 0.45577338E-02 0.13805273E+03</pdfrwt>
<totfact> 0.18256191E+05</totfact>
</mgrwt>
</event>
<event>
 6    1  0.4244577E-002  0.1510490E+03  0.7546771E-02  0.1199190E+00
         21   -1    0    0  504  502  0.00000000000E+00  0.00000000000E+00  0.10867666074E+02  0.10867666074E+02  0.00000000000E+00 0. -1.
         21   -1    0    0  502  503 -0.00000000000E+00 -0.00000000000E+00 -0.12847367391E+04  0.12847367391E+04  0.00000000000E+00 0. -1.
         25    2    1    2    0    0  0.43262763382E+02  0.72836212108E+02 -0.77260208095E+03  0.78722917187E+03  0.12505603971E+03 0.  0.
          5    1    3    3  501    0 -0.27095404952E+02  0.13360151551E+02 -0.47468588976E+02  0.56266611399E+02  0.10000000000E+00 0. -1.
         -5    1    3    3    0  501  0.70358168334E+02  0.59476060558E+02 -0.72513349197E+03  0.73096256047E+03  0.10000000000E+00 0. -1.
         21    1    1    2  504  503 -0.43262763382E+02 -0.72836212108E+02 -0.50126699209E+03  0.50837523332E+03  0.00000000000E+00 0. -1.
<mgrwt>
<rscale>  1 0.15104898E+03</rscale>
<asrwt>0</asrwt>
<pdfrwt beam="1">  1       21 0.16719490E-02 0.15104898E+03</pdfrwt>
<pdfrwt beam="2">  1       21 0.19765176E+00 0.15104898E+03</pdfrwt>
<totfact> 0.23352364E+05</totfact>
</mgrwt>
</event>
<event>
 6    1  0.4244577E-002  0.1260408E+03  0.7546771E-02  0.1233452E+00
         21   -1    0    0  504  502  0.00000000000E+00  0.00000000000E+00  0.26560935984E+03  0.26560935984E+03  0.00000000000E+00 0.  1.
         21   -1    0    0  502  503 -0.00000000000E+00 -0.00000000000E+00 -0.58548075498E+02  0.58548075498E+02  0.00000000000E+00 0.  1.
         25    2    1    2    0    0  0.11004449586E+02 -0.11801428712E+02  0.24907596460E+03  0.27915071375E+03  0.12500365281E+03 0.  0.
          5    1    3    3  501    0  0.56257690614E+02  0.39657479000E+01  0.53312866255E+02  0.77607516504E+02  0.10000000000E+00 0. -1.
         -5    1    3    3    0  501 -0.45253241028E+02 -0.15767176612E+02  0.19576309835E+03  0.20154319725E+03  0.10000000000E+00 0. -1.
         21    1    1    2  504  503 -0.11004449586E+02  0.11801428712E+02 -0.42014680262E+02  0.45006721585E+02  0.00000000000E+00 0.  1.
<mgrwt>
<rscale>  1 0.12604081E+03</rscale>
<asrwt>0</asrwt>
<pdfrwt beam="1">  1       21 0.40862978E-01 0.12604081E+03</pdfrwt>
<pdfrwt beam="2">  1       21 0.90073964E-02 0.12604081E+03</pdfrwt>
<totfact> 0.56684510E+05</totfact>
</mgrwt>
</event>
<event>
 6    1  0.4244577E-002  0.2010604E+03  0.7546771E-02  0.1148847E+00
         21   -1    0    0  503  502  0.00000000000E+00  0.00000000000E+00  0.18982692889E+03  0.18982692889E+03  0.00000000000E+00 0. -1.
         21   -1    0    0  504  503 -0.00000000000E+00 -0.00000000000E+00 -0.21369283053E+03  0.21369283053E+03  0.00000000000E+00 0.  1.
         25    2    1    2    0    0  0.11252898942E+03 -0.11017118827E+03  0.78335468456E+02  0.21578168594E+03  0.12499930474E+03 0.  0.
          5    1    3    3  501    0  0.12872333619E+03 -0.12386810468E+03  0.62306490125E+02  0.18919596547E+03  0.10000000000E+00 0. -1.
         -5    1    3    3    0  501 -0.16194346771E+02  0.13696916415E+02  0.16028978331E+02  0.26585720471E+02  0.10000000000E+00 0. -1.
         21    1    1    2  504  502 -0.11252898942E+03  0.11017118827E+03 -0.10220137010E+03  0.18773807348E+03  0.00000000000E+00 0.  1.
<mgrwt>
<rscale>  1 0.20106041E+03</rscale>
<asrwt>0</asrwt>
<pdfrwt beam="1">  1       21 0.29204143E-01 0.20106041E+03</pdfrwt>
<pdfrwt beam="2">  1       21 0.32875820E-01 0.20106041E+03</pdfrwt>
<totfact> 0.99669431E+04</totfact>
</mgrwt>
</event>
<event>
 6    1  0.4244577E-002  0.1265665E+03  0.7546771E-02  0.1232641E+00
         21   -1    0    0  504  502  0.00000000000E+00  0.00000000000E+00  0.41576373886E+03  0.41576373886E+03  0.00000000000E+00 0.  1.
         21   -1    0    0  502  503 -0.00000000000E+00 -0.00000000000E+00 -0.82062052132E+02  0.82062052132E+02  0.00000000000E+00 0.  1.
         25    2    1    2    0    0 -0.12105497925E+02 -0.15725904261E+02  0.40473980613E+03  0.42406766227E+03  0.12500089748E+03 0.  0.
          5    1    3    3  501    0 -0.15235121319E+02 -0.12799397335E+02  0.41367733746E+03  0.41415562657E+03  0.10000000000E+00 0.  1.
         -5    1    3    3    0  501  0.31296233945E+01 -0.29265069264E+01 -0.89375313292E+01  0.99120356962E+01  0.10000000000E+00 0.  1.
         21    1    1    2  504  503  0.12105497925E+02  0.15725904261E+02 -0.71038119401E+02  0.73758128724E+02  0.00000000000E+00 0.  1.
<mgrwt>
<rscale>  1 0.12656647E+03</rscale>
<asrwt>0</asrwt>
<pdfrwt beam="1">  1       21 0.63963651E-01 0.12656647E+03</pdfrwt>
<pdfrwt beam="2">  1       21 0.12624931E-01 0.12656647E+03</pdfrwt>
<totfact> 0.12385637E+05</totfact>
</mgrwt>
</event>
<event>
 6    1  0.4244577E-002  0.1576809E+03  0.7546771E-02  0.1191340E+00
         21   -1    0    0  503  502  0.00000000000E+00  0.00000000000E+00  0.73573515613E+03  0.73573515613E+03  0.00000000000E+00 0. -1.
         21   -1    0    0  504  503 -0.00000000000E+00 -0.00000000000E+00 -0.30582758098E+03  0.30582758098E+03  0.00000000000E+00 0.  1.
         25    2    1    2    0    0 -0.90155464906E+02  0.33401130705E+02  0.71942322060E+03  0.73650052650E+03  0.12497844533E+03 0.  0.
          5    1    3    3  501    0 -0.87153371037E+02  0.37451199412E+02  0.25535653025E+03  0.27240644259E+03  0.10000000000E+00 0. -1.
         -5    1    3    3    0  501 -0.30020938696E+01 -0.40500687071E+01  0.46406669035E+03  0.46409408391E+03  0.10000000000E+00 0. -1.
         21    1    1    2  504  502  0.90155464906E+02 -0.33401130705E+02 -0.28951564545E+03  0.30506221061E+03  0.00000000000E+00 0.  1.
<mgrwt>
<rscale>  1 0.15768086E+03</rscale>
<asrwt>0</asrwt>
<pdfrwt beam="1">  1       21 0.11319002E+00 0.15768086E+03</pdfrwt>
<pdfrwt beam="2">  1       21 0.47050397E-01 0.15768086E+03</pdfrwt>
<totfact> 0.27233138E+03</totfact>
</mgrwt>
</event>
<event>
 6    1  0.4244577E-002  0.1293440E+03  0.7546771E-02  0.1228432E+00
         21   -1    0    0  504  502  0.00000000000E+00  0.00000000000E+00  0.12754260883E+03  0.12754260883E+03  0.00000000000E+00 0.  1.
         21   -1    0    0  502  503 -0.00000000000E+00 -0.00000000000E+00 -0.59711898483E+02  0.59711898483E+02  0.00000000000E+00 0.  1.
         25    2    1    2    0    0  0.24038282116E+02  0.22971702531E+02  0.79725968090E+02  0.15194112060E+03  0.12499734404E+03 0.  0.
          5    1    3    3  501    0  0.19913394821E+02  0.62290192226E+02  0.28058841398E+01  0.65456048817E+02  0.10000000000E+00 0.  1.
         -5    1    3    3    0  501  0.41248872943E+01 -0.39318489696E+02  0.76920083950E+02  0.86485071787E+02  0.10000000000E+00 0.  1.
         21    1    1    2  504  503 -0.24038282116E+02 -0.22971702531E+02 -0.11895257742E+02  0.35313386711E+02  0.00000000000E+00 0. -1.
<mgrwt>
<rscale>  1 0.12934401E+03</rscale>
<asrwt>0</asrwt>
<pdfrwt beam="1">  1       21 0.19621940E-01 0.12934401E+03</pdfrwt>
<pdfrwt beam="2">  1       21 0.91864459E-02 0.12934401E+03</pdfrwt>
<totfact> 0.22382802E+06</totfact>
</mgrwt>
</event>
<event>
 6    1  0.4244577E-002  0.1272466E+03  0.7546771E-02  0.1231599E+00
         21   -1    0    0  504  502  0.00000000000E+00  0.00000000000E+00  0.13709476212E+04  0.13709476212E+04  0.00000000000E+00 0.  1.
         21   -1    0    0  502  503 -0.00000000000E+00 -0.00000000000E+00 -0.15677468039E+02  0.15677468039E+02  0.00000000000E+00 0.  1.
         25    2    1    2    0    0  0.60645522994E+01  0.23007246360E+02  0.13568273865E+04  0.13627810721E+04  0.12500232544E+03 0.  0.
          5    1    3    3  501    0  0.28724269221E+01 -0.12043876059E+02  0.12546602108E+04  0.12547213079E+04  0.10000000000E+00 0.  1.
         -5    1    3    3    0  501  0.31921253773E+01  0.35051122419E+02  0.10216717569E+03  0.10805976419E+03  0.10000000000E+00 0.  1.
         21    1    1    2  504  503 -0.60645522994E+01 -0.23007246360E+02 -0.15572333601E+01  0.23844017182E+02  0.00000000000E+00 0.  1.
<mgrwt>
<rscale>  1 0.12724659E+03</rscale>
<asrwt>0</asrwt>
<pdfrwt beam="1">  1       21 0.21091493E+00 0.12724659E+03</pdfrwt>
<pdfrwt beam="2">  1       21 0.24119192E-02 0.12724659E+03</pdfrwt>
<totfact> 0.10824138E+05</totfact>
</mgrwt>
</event>
<event>
 6    1  0.4244577E-002  0.1304573E+03  0.7546771E-02  0.1226779E+00
         21   -1    0    0  503  502  0.00000000000E+00  0.00000000000E+00  0.27662864447E+03  0.27662864447E+03  0.00000000000E+00 0. -1.
         21   -1    0    0  504  503 -0.00000000000E+00 -0.00000000000E+00 -0.79642687432E+02  0.79642687432E+02  0.00000000000E+00 0.  1.
         25    2    1    2    0    0 -0.27033922836E+02 -0.25748240401E+02  0.25549020910E+03  0.28686994592E+03  0.12500125623E+03 0.  0.
          5    1    3    3  501    0  0.82399343658E+01 -0.12852618922E+02 -0.10314411426E+02  0.18425075700E+02  0.10000000000E+00 0.  1.
         -5    1    3    3    0  501 -0.35273857202E+02 -0.12895621479E+02  0.26580462053E+03  0.26844487022E+03  0.10000000000E+00 0.  1.
         21    1    1    2  504  502  0.27033922836E+02  0.25748240401E+02 -0.58504252058E+02  0.69401385984E+02  0.00000000000E+00 0.  1.
<mgrwt>
<rscale>  1 0.13045735E+03</rscale>
<asrwt>0</asrwt>
<pdfrwt beam="1">  1       21 0.42558252E-01 0.13045735E+03</pdfrwt>
<pdfrwt beam="2">  1       21 0.12252721E-01 0.13045735E+03</pdfrwt>
<totfact> 0.30424178E+05</totfact>
</mgrwt>
</event>
<event>
 6    1  0.4244577E-002  0.1411588E+03  0.7546771E-02  0.1211778E+00
         21   -1    0    0  504  502  0.00000000000E+00  0.00000000000E+00  0.12706127564E+02  0.12706127564E+02  0.00000000000E+00 0.  1.
         21   -1    0    0  502  503 -0.00000000000E+00 -0.00000000000E+00 -0.11815570752E+04  0.11815570752E+04  0.00000000000E+00 0.  1.
         25    2    1    2    0    0 -0.18010470120E+02  0.63060732811E+02 -0.43151783183E+03  0.45401921817E+03  0.12499911291E+03 0.  0.
          5    1    3    3  501    0 -0.43913945934E+02 -0.21614123358E+02 -0.20612865387E+03  0.21185994648E+03  0.10000000000E+00 0.  1.
         -5    1    3    3    0  501  0.25903475814E+02  0.84674856168E+02 -0.22538917796E+03  0.24215927169E+03  0.10000000000E+00 0.  1.
         21    1    1    2  504  503  0.18010470120E+02 -0.63060732811E+02 -0.73733311580E+03  0.74024398458E+03  0.00000000000E+00 0.  1.
<mgrwt>
<rscale>  1 0.14115882E+03</rscale>
<asrwt>0</asrwt>
<pdfrwt beam="1">  1       21 0.19547888E-02 0.14115882E+03</pdfrwt>
<pdfrwt beam="2">  1       21 0.18177801E+00 0.14115882E+03</pdfrwt>
<totfact> 0.23137005E+05</totfact>
</mgrwt>
</event>
<event>
 6    1  0.4244577E-002  0.1341899E+03  0.7546771E-02  0.1221368E+00
         21   -1    0    0  503  502  0.00000000000E+00  0.00000000000E+00  0.52954044029E+02  0.52954044029E+02  0.00000000000E+00 0. -1.
         21   -1    0    0  504  503 -0.00000000000E+00 -0.00000000000E+00 -0.56284316991E+03  0.56284316991E+03  0.00000000000E+00 0. -1.
         25    2    1    2    0    0  0.20658492102E+02 -0.44240284418E+02 -0.35370545727E+02  0.13877325335E+03  0.12499185685E+03 0.  0.
          5    1    3    3  501    0  0.93344841311E+01 -0.87496622756E+02 -0.13589882730E+02  0.89036433556E+02  0.10000000000E+00 0.  1.
         -5    1    3    3    0  501  0.11324007971E+02  0.43256338338E+02 -0.21780662998E+02  0.49736819798E+02  0.10000000000E+00 0.  1.
         21    1    1    2  504  502 -0.20658492102E+02  0.44240284418E+02 -0.47451858015E+03  0.47702396058E+03  0.00000000000E+00 0. -1.
<mgrwt>
<rscale>  1 0.13418994E+03</rscale>
<asrwt>0</asrwt>
<pdfrwt beam="1">  1       21 0.81467763E-02 0.13418994E+03</pdfrwt>
<pdfrwt beam="2">  1       21 0.86591254E-01 0.13418994E+03</pdfrwt>
<totfact> 0.13637882E+05</totfact>
</mgrwt>
</event>
<event>
 6    1  0.4244577E-002  0.1327312E+03  0.7546771E-02  0.1223458E+00
         21   -1    0    0  503  502  0.00000000000E+00  0.00000000000E+00  0.20823820705E+03  0.20823820705E+03  0.00000000000E+00 0. -1.
         21   -1    0    0  504  503 -0.00000000000E+00 -0.00000000000E+00 -0.40296764185E+02  0.40296764185E+02  0.00000000000E+00 0. -1.
         25    2    1    2    0    0 -0.39427461669E+02  0.20993224824E+02  0.15027604320E+03  0.20050054017E+03  0.12498934845E+03 0.  0.
          5    1    3    3  501    0 -0.75499501311E+02  0.44170979993E+02  0.11774154852E+03  0.14667764799E+03  0.10000000000E+00 0. -1.
         -5    1    3    3    0  501  0.36072039642E+02 -0.23177755169E+02  0.32534494675E+02  0.53822892178E+02  0.10000000000E+00 0. -1.
         21    1    1    2  504  502  0.39427461669E+02 -0.20993224824E+02  0.17665399664E+02  0.48034431062E+02  0.00000000000E+00 0. -1.
<mgrwt>
<rscale>  1 0.13273122E+03</rscale>
<asrwt>0</asrwt>
<pdfrwt beam="1">  1       21 0.32036647E-01 0.13273122E+03</pdfrwt>
<pdfrwt beam="2">  1       21 0.61995023E-02 0.13273122E+03</pdfrwt>
<totfact> 0.17411885E+06</totfact>
</mgrwt>
</event>
<event>
 6    1  0.4244577E-002  0.1315487E+03  0.7546771E-02  0.1225176E+00
         21   -1    0    0  503  502  0.00000000000E+00  0.00000000000E+00  0.11453453181E+03  0.11453453181E+03  0.00000000000E+00 0.  1.
         21   -1    0    0  504  503 -0.00000000000E+00 -0.00000000000E+00 -0.34922070685E+03  0.34922070685E+03  0.00000000000E+00 0. -1.
         25    2    1    2    0    0  0.30009946402E+02  0.27927305647E+02  0.74960181183E+02  0.15140704000E+03  0.12499812685E+03 0.  0.
          5    1    3    3  501    0 -0.41664878463E+02 -0.89235158549E+01  0.52749291082E+02  0.67809209863E+02  0.10000000000E+00 0. -1.
         -5    1    3    3    0  501  0.71674824866E+02  0.36850821501E+02  0.22210890101E+02  0.83597830139E+02  0.10000000000E+00 0. -1.
         21    1    1    2  504  502 -0.30009946402E+02 -0.27927305647E+02 -0.30964635622E+03  0.31234819865E+03  0.00000000000E+00 0. -1.
<mgrwt>
<rscale>  1 0.13154871E+03</rscale>
<asrwt>0</asrwt>
<pdfrwt beam="1">  1       21 0.17620697E-01 0.13154871E+03</pdfrwt>
<pdfrwt beam="2">  1       21 0.53726262E-01 0.13154871E+03</pdfrwt>
<totfact> 0.98033639E+04</totfact>
</mgrwt>
</event>
<event>
 6    1  0.4244577E-002  0.1264022E+03  0.7546771E-02  0.1232894E+00
         21   -1    0    0  503  502  0.00000000000E+00  0.00000000000E+00  0.56794337549E+01  0.56794337549E+01  0.00000000000E+00 0.  1.
         21   -1    0    0  504  503 -0.00000000000E+00 -0.00000000000E+00 -0.12581281761E+04  0.12581281761E+04  0.00000000000E+00 0.  1.
         25    2    1    2    0    0 -0.38320343846E+01 -0.17740458843E+02 -0.71736423646E+03  0.72841538278E+03  0.12509242087E+03 0.  0.
          5    1    3    3  501    0  0.19822631022E+02 -0.15945550651E+02 -0.25077746441E+02  0.35722551039E+02  0.10000000000E+00 0.  1.
         -5    1    3    3    0  501 -0.23654665406E+02 -0.17949081920E+01 -0.69228649002E+03  0.69269283175E+03  0.10000000000E+00 0.  1.
         21    1    1    2  504  502  0.38320343846E+01  0.17740458843E+02 -0.53508450588E+03  0.53539222706E+03  0.00000000000E+00 0.  1.
<mgrwt>
<rscale>  1 0.12640222E+03</rscale>
<asrwt>0</asrwt>
<pdfrwt beam="1">  1       21 0.87375965E-03 0.12640222E+03</pdfrwt>
<pdfrwt beam="2">  1       21 0.19355805E+00 0.12640222E+03</pdfrwt>
<totfact> 0.70217867E+05</totfact>
</mgrwt>
</event>
<event>
 6    1  0.4244577E-002  0.1270295E+03  0.7546771E-02  0.1231931E+00
         21   -1    0    0  504  502  0.00000000000E+00  0.00000000000E+00  0.15004649102E+02  0.15004649102E+02  0.00000000000E+00 0.  1.
         21   -1    0    0  502  503 -0.00000000000E+00 -0.00000000000E+00 -0.54419176658E+03  0.54419176658E+03  0.00000000000E+00 0.  1.
         25    2    1    2    0    0 -0.89670440537E+01  0.20779974733E+02 -0.26323101484E+03  0.29227908061E+03  0.12499711421E+03 0.  0.
          5    1    3    3  501    0 -0.37470352769E+02 -0.37625764751E+02 -0.17377793417E+03  0.18170994996E+03  0.10000000000E+00 0. -1.
         -5    1    3    3    0  501  0.28503308715E+02  0.58405739484E+02 -0.89453080667E+02  0.11056913065E+03  0.10000000000E+00 0. -1.
         21    1    1    2  504  503  0.89670440537E+01 -0.20779974733E+02 -0.26595610264E+03  0.26691733507E+03  0.00000000000E+00 0.  1.
<mgrwt>
<rscale>  1 0.12702950E+03</rscale>
<asrwt>0</asrwt>
<pdfrwt beam="1">  1       21 0.23084079E-02 0.12702950E+03</pdfrwt>
<pdfrwt beam="2">  1       21 0.83721797E-01 0.12702950E+03</pdfrwt>
<totfact> 0.12110939E+06</totfact>
</mgrwt>
</event>
<event>
 6    1  0.4244577E-002  0.1276449E+03  0.7546771E-02  0.1230993E+00
         21   -1    0    0  504  502  0.00000000000E+00  0.00000000000E+00  0.61510241106E+03  0.61510241106E+03  0.00000000000E+00 0.  1.
         21   -1    0    0  502  503 -0.00000000000E+00 -0.00000000000E+00 -0.21648166867E+02  0.21648166867E+02  0.00000000000E+00 0.  1.
         25    2    1    2    0    0  0.19215645177E+02  0.17263144888E+02  0.59716438173E+03  0.61065417374E+03  0.12500385558E+03 0.  0.
          5    1    3    3  501    0 -0.27441481111E+02  0.43757653693E+02  0.46724847629E+03  0.47009458169E+03  0.10000000000E+00 0. -1.
         -5    1    3    3    0  501  0.46657126288E+02 -0.26494508805E+02  0.12991590544E+03  0.14055959205E+03  0.10000000000E+00 0. -1.
         21    1    1    2  504  503 -0.19215645177E+02 -0.17263144888E+02 -0.37101375360E+01  0.26096404187E+02  0.00000000000E+00 0.  1.
<mgrwt>
<rscale>  1 0.12764490E+03</rscale>
<asrwt>0</asrwt>
<pdfrwt beam="1">  1       21 0.94631127E-01 0.12764490E+03</pdfrwt>
<pdfrwt beam="2">  1       21 0.33304877E-02 0.12764490E+03</pdfrwt>
<totfact> 0.50314188E+05</totfact>
</mgrwt>
</event>
<event>
 6    1  0.4244577E-002  0.1594904E+03  0.7546771E-02  0.1189273E+00
         21   -1    0    0  503  502  0.00000000000E+00  0.00000000000E+00  0.12058506497E+03  0.12058506497E+03  0.00000000000E+00 0. -1.
         21   -1    0    0  504  503 -0.00000000000E+00 -0.00000000000E+00 -0.14326626126E+03  0.14326626126E+03  0.00000000000E+00 0. -1.
         25    2    1    2    0    0  0.70454145450E+02  0.69638983129E+02 -0.37090368638E+02  0.16374638715E+03  0.12499523701E+03 0.  0.
          5    1    3    3  501    0  0.65396394933E+02  0.66593201666E+02 -0.78475810337E+02  0.12194181312E+03  0.10000000000E+00 0.  1.
         -5    1    3    3    0  501  0.50577505173E+01  0.30457814630E+01  0.41385441699E+02  0.41804574027E+02  0.10000000000E+00 0.  1.
         21    1    1    2  504  502 -0.70454145450E+02 -0.69638983129E+02  0.14409172345E+02  0.10010493909E+03  0.00000000000E+00 0. -1.
<mgrwt>
<rscale>  1 0.15949039E+03</rscale>
<asrwt>0</asrwt>
<pdfrwt beam="1">  1       21 0.18551548E-01 0.15949039E+03</pdfrwt>
<pdfrwt beam="2">  1       21 0.22040963E-01 0.15949039E+03</pdfrwt>
<totfact> 0.51343573E+05</totfact>
</mgrwt>
</event>
<event>
 6    1  0.4244577E-002  0.1357932E+03  0.7546771E-02  0.1219104E+00
         21   -1    0    0  504  502  0.00000000000E+00  0.00000000000E+00  0.28870199934E+02  0.28870199934E+02  0.00000000000E+00 0.  1.
         21   -1    0    0  502  503 -0.00000000000E+00 -0.00000000000E+00 -0.30945512388E+03  0.30945512388E+03  0.00000000000E+00 0.  1.
         25    2    1    2    0    0  0.10955184127E+01 -0.53033906034E+02 -0.19461411588E+03  0.23730663649E+03  0.12500396102E+03 0.  0.
          5    1    3    3  501    0  0.33812859410E+02  0.23252022815E+02 -0.23916468234E+02  0.47497089166E+02  0.10000000000E+00 0. -1.
         -5    1    3    3    0  501 -0.32717340997E+02 -0.76285928849E+02 -0.17069764765E+03  0.18980954732E+03  0.10000000000E+00 0. -1.
         21    1    1    2  504  503 -0.10955184127E+01  0.53033906034E+02 -0.85970808067E+02  0.10101868733E+03  0.00000000000E+00 0.  1.
<mgrwt>
<rscale>  1 0.13579317E+03</rscale>
<asrwt>0</asrwt>
<pdfrwt beam="1">  1       21 0.44415693E-02 0.13579317E+03</pdfrwt>
<pdfrwt beam="2">  1       21 0.47608480E-01 0.13579317E+03</pdfrwt>
<totfact> 0.13858705E+06</totfact>
</mgrwt>
</event>
<event>
 6    1  0.4244577E-002  0.1272882E+03  0.7546771E-02  0.1231536E+00
         21   -1    0    0  503  502  0.00000000000E+00  0.00000000000E+00  0.50380971917E+03  0.50380971917E+03  0.00000000000E+00 0.  1.
         21   -1    0    0  504  503 -0.00000000000E+00 -0.00000000000E+00 -0.16623757172E+02  0.16623757172E+02  0.00000000000E+00 0.  1.
         25    2    1    2    0    0  0.20124703720E+02 -0.13061271088E+02  0.47814007013E+03  0.49479310462E+03  0.12500675668E+03 0.  0.
          5    1    3    3  501    0  0.18149880131E+02 -0.19730970501E+02  0.48457535831E+03  0.48531640939E+03  0.10000000000E+00 0.  1.
         -5    1    3    3    0  501  0.19748235893E+01  0.66696994127E+01 -0.64352881809E+01  0.94766952276E+01  0.10000000000E+00 0.  1.
         21    1    1    2  504  502 -0.20124703720E+02  0.13061271088E+02  0.90458918678E+01  0.25640371720E+02  0.00000000000E+00 0.  1.
<mgrwt>
<rscale>  1 0.12728822E+03</rscale>
<asrwt>0</asrwt>
<pdfrwt beam="1">  1       21 0.77509176E-01 0.12728822E+03</pdfrwt>
<pdfrwt beam="2">  1       21 0.25575015E-02 0.12728822E+03</pdfrwt>
<totfact> 0.12182488E+06</totfact>
</mgrwt>
</event>
<event>
 6    1  0.4244577E-002  0.1265577E+03  0.7546771E-02  0.1232655E+00
         21   -1    0    0  504  502  0.00000000000E+00  0.00000000000E+00  0.91654960383E+01  0.91654960383E+01  0.00000000000E+00 0.  1.
         21   -1    0    0  502  503 -0.00000000000E+00 -0.00000000000E+00 -0.58595573082E+03  0.58595573082E+03  0.00000000000E+00 0.  1.
         25    2    1    2    0    0  0.18460338249E+02 -0.71173507100E+01 -0.50947585238E+03  0.52495950762E+03  0.12500159881E+03 0.  0.
          5    1    3    3  501    0  0.28651311374E+02  0.31953505758E+02 -0.60528190378E+02  0.74199703531E+02  0.10000000000E+00 0.  1.
         -5    1    3    3    0  501 -0.10190973125E+02 -0.39070856468E+02 -0.44894766200E+03  0.45075980408E+03  0.10000000000E+00 0.  1.
         21    1    1    2  504  503 -0.18460338249E+02  0.71173507100E+01 -0.67314382401E+02  0.70161719245E+02  0.00000000000E+00 0.  1.
<mgrwt>
<rscale>  1 0.12655766E+03</rscale>
<asrwt>0</asrwt>
<pdfrwt beam="1">  1       21 0.14100761E-02 0.12655766E+03</pdfrwt>
<pdfrwt beam="2">  1       21 0.90147048E-01 0.12655766E+03</pdfrwt>
<totfact> 0.22609922E+06</totfact>
</mgrwt>
</event>
<event>
 6    1  0.4244577E-002  0.1449259E+03  0.7546771E-02  0.1206850E+00
         21   -1    0    0  504  502  0.00000000000E+00  0.00000000000E+00  0.31018521653E+02  0.31018521653E+02  0.00000000000E+00 0. -1.
         21   -1    0    0  502  503 -0.00000000000E+00 -0.00000000000E+00 -0.94637818145E+03  0.94637818145E+03  0.00000000000E+00 0.  1.
         25    2    1    2    0    0 -0.72623488437E+02 -0.10179709166E+02 -0.15015619238E+03  0.20868730151E+03  0.12500284057E+03 0.  0.
          5    1    3    3  501    0 -0.24706437338E+02  0.63880615379E+01 -0.15561517912E+03  0.15769372007E+03  0.10000000000E+00 0.  1.
         -5    1    3    3    0  501 -0.47917051099E+02 -0.16567770704E+02  0.54589867395E+01  0.50993581442E+02  0.10000000000E+00 0.  1.
         21    1    1    2  504  503  0.72623488437E+02  0.10179709166E+02 -0.76520346741E+03  0.76870940159E+03  0.00000000000E+00 0.  1.
<mgrwt>
<rscale>  1 0.14492587E+03</rscale>
<asrwt>0</asrwt>
<pdfrwt beam="1">  1       21 0.47720806E-02 0.14492587E+03</pdfrwt>
<pdfrwt beam="2">  1       21 0.14559663E+00 0.14492587E+03</pdfrwt>
<totfact> 0.96306862E+04</totfact>
</mgrwt>
</event>
<event>
 6    1  0.4244577E-002  0.1259557E+03  0.7546771E-02  0.1233583E+00
         21   -1    0    0  503  502  0.00000000000E+00  0.00000000000E+00  0.13598710687E+03  0.13598710687E+03  0.00000000000E+00 0.  1.
         21   -1    0    0  504  503 -0.00000000000E+00 -0.00000000000E+00 -0.10212961590E+03  0.10212961590E+03  0.00000000000E+00 0.  1.
         25    2    1    2    0    0  0.13806350892E+02 -0.70155941287E+01  0.10581951554E+03  0.16450716588E+03  0.12500001548E+03 0.  0.
          5    1    3    3  501    0  0.31392734319E+02  0.48999074389E+02  0.83326590002E+02  0.10163534651E+03  0.10000000000E+00 0.  1.
         -5    1    3    3    0  501 -0.17586383428E+02 -0.56014668518E+02  0.22492925536E+02  0.62871819366E+02  0.10000000000E+00 0.  1.
         21    1    1    2  504  502 -0.13806350892E+02  0.70155941287E+01 -0.71962024569E+02  0.73609556893E+02  0.00000000000E+00 0.  1.
<mgrwt>
<rscale>  1 0.12595570E+03</rscale>
<asrwt>0</asrwt>
<pdfrwt beam="1">  1       21 0.20921093E-01 0.12595570E+03</pdfrwt>
<pdfrwt beam="2">  1       21 0.15712249E-01 0.12595570E+03</pdfrwt>
<totfact> 0.76748079E+05</totfact>
</mgrwt>
</event>
<event>
 6    1  0.4244577E-002  0.1261505E+03  0.7546771E-02  0.1233282E+00
         21   -1    0    0  504  502  0.00000000000E+00  0.00000000000E+00  0.71263793008E+03  0.71263793008E+03  0.00000000000E+00 0.  1.
         21   -1    0    0  502  503 -0.00000000000E+00 -0.00000000000E+00 -0.13143590086E+02  0.13143590086E+02  0.00000000000E+00 0.  1.
         25    2    1    2    0    0  0.12426756973E+02  0.11619928522E+02  0.69730958165E+03  0.70862867210E+03  0.12499798091E+03 0.  0.
          5    1    3    3  501    0 -0.32453064712E+02  0.54783177788E+02  0.37289576049E+03  0.37829308237E+03  0.10000000000E+00 0.  1.
         -5    1    3    3    0  501  0.44879821684E+02 -0.43163249266E+02  0.32441382117E+03  0.33033558973E+03  0.10000000000E+00 0.  1.
         21    1    1    2  504  503 -0.12426756973E+02 -0.11619928522E+02  0.21847583408E+01  0.17152848064E+02  0.00000000000E+00 0.  1.
<mgrwt>
<rscale>  1 0.12615047E+03</rscale>
<asrwt>0</asrwt>
<pdfrwt beam="1">  1       21 0.10963657E+00 0.12615047E+03</pdfrwt>
<pdfrwt beam="2">  1       21 0.20220913E-02 0.12615047E+03</pdfrwt>
<totfact> 0.80294674E+05</totfact>
</mgrwt>
</event>
<event>
 6    1  0.4244577E-002  0.1297361E+03  0.7546771E-02  0.1227848E+00
         21   -1    0    0  503  502  0.00000000000E+00  0.00000000000E+00  0.93878684621E+01  0.93878684621E+01  0.00000000000E+00 0. -1.
         21   -1    0    0  504  503 -0.00000000000E+00 -0.00000000000E+00 -0.11836128904E+04  0.11836128904E+04  0.00000000000E+00 0. -1.
         25    2    1    2    0    0 -0.25562674362E+02 -0.23480182172E+02 -0.46033603502E+03  0.47826846288E+03  0.12500675251E+03 0.  0.
          5    1    3    3  501    0  0.16243487276E+02  0.24649804645E+02 -0.26181221090E+02  0.39457953389E+02  0.10000000000E+00 0. -1.
         -5    1    3    3    0  501 -0.41806161638E+02 -0.48129986817E+02 -0.43415481393E+03  0.43881050949E+03  0.10000000000E+00 0. -1.
         21    1    1    2  504  502  0.25562674362E+02  0.23480182172E+02 -0.71388898690E+03  0.71473229597E+03  0.00000000000E+00 0. -1.
<mgrwt>
<rscale>  1 0.12973611E+03</rscale>
<asrwt>0</asrwt>
<pdfrwt beam="1">  1       21 0.14442887E-02 0.12973611E+03</pdfrwt>
<pdfrwt beam="2">  1       21 0.18209414E+00 0.12973611E+03</pdfrwt>
<totfact> 0.37609236E+05</totfact>
</mgrwt>
</event>
<event>
 6    1  0.4244577E-002  0.1425237E+03  0.7546771E-02  0.1209973E+00
         21   -1    0    0  503  502  0.00000000000E+00  0.00000000000E+00  0.10965604183E+02  0.10965604183E+02  0.00000000000E+00 0.  1.
         21   -1    0    0  504  503 -0.00000000000E+00 -0.00000000000E+00 -0.10315742701E+04  0.10315742701E+04  0.00000000000E+00 0.  1.
         25    2    1    2    0    0 -0.38230242506E+02 -0.56826592611E+02 -0.74816962759E+03  0.76162379665E+03  0.12498881109E+03 0.  0.
          5    1    3    3  501    0 -0.53719876538E+02 -0.19681967612E+02 -0.12864414225E+03  0.14079250804E+03  0.10000000000E+00 0.  1.
         -5    1    3    3    0  501  0.15489634031E+02 -0.37144624999E+02 -0.61952548534E+03  0.62083128861E+03  0.10000000000E+00 0.  1.
         21    1    1    2  504  502  0.38230242506E+02  0.56826592611E+02 -0.27243903830E+03  0.28091607761E+03  0.00000000000E+00 0.  1.
<mgrwt>
<rscale>  1 0.14252374E+03</rscale>
<asrwt>0</asrwt>
<pdfrwt beam="1">  1       21 0.16870152E-02 0.14252374E+03</pdfrwt>
<pdfrwt beam="2">  1       21 0.15870381E+00 0.14252374E+03</pdfrwt>
<totfact> 0.42405503E+05</totfact>
</mgrwt>
</event>
<event>
 6    1  0.4244577E-002  0.1259126E+03  0.7546771E-02  0.1233650E+00
         21   -1    0    0  504  502  0.00000000000E+00  0.00000000000E+00  0.39122172398E+02  0.39122172398E+02  0.00000000000E+00 0.  1.
         21   -1    0    0  502  503 -0.00000000000E+00 -0.00000000000E+00 -0.22121395543E+03  0.22121395543E+03  0.00000000000E+00 0.  1.
         25    2    1    2    0    0 -0.14863230247E+02 -0.30828167623E+01 -0.63947343998E+02  0.14122052076E+03  0.12499421309E+03 0.  0.
          5    1    3    3  501    0 -0.51006050337E+02 -0.28750664167E+02 -0.75372028771E+02  0.95441974949E+02  0.10000000000E+00 0. -1.
         -5    1    3    3    0  501  0.36142820090E+02  0.25667847404E+02  0.11424684773E+02  0.45778545811E+02  0.10000000000E+00 0. -1.
         21    1    1    2  504  503  0.14863230247E+02  0.30828167623E+01 -0.11814443903E+03  0.11911560707E+03  0.00000000000E+00 0.  1.
<mgrwt>
<rscale>  1 0.12591256E+03</rscale>
<asrwt>0</asrwt>
<pdfrwt beam="1">  1       21 0.60187958E-02 0.12591256E+03</pdfrwt>
<pdfrwt beam="2">  1       21 0.34032916E-01 0.12591256E+03</pdfrwt>
<totfact> 0.16252943E+06</totfact>
</mgrwt>
</event>
<event>
 6    1  0.4244577E-002  0.1270023E+03  0.7546771E-02  0.1231973E+00
         21   -1    0    0  504  502  0.00000000000E+00  0.00000000000E+00  0.78832436363E+02  0.78832436363E+02  0.00000000000E+00 0.  1.
         21   -1    0    0  502  503 -0.00000000000E+00 -0.00000000000E+00 -0.73830268766E+02  0.73830268766E+02  0.00000000000E+00 0.  1.
         25    2    1    2    0    0 -0.16416863061E+01  0.22446360124E+02  0.15284686606E+02  0.12791872780E+03  0.12499218000E+03 0.  0.
          5    1    3    3  501    0  0.38895650231E+02 -0.36153576060E+02  0.19422973517E+02  0.56543917171E+02  0.10000000000E+00 0. -1.
         -5    1    3    3    0  501 -0.40537336537E+02  0.58599936184E+02 -0.41382869104E+01  0.71374810632E+02  0.10000000000E+00 0. -1.
         21    1    1    2  504  503  0.16416863061E+01 -0.22446360124E+02 -0.10282519010E+02  0.24743977326E+02  0.00000000000E+00 0.  1.
<mgrwt>
<rscale>  1 0.12700228E+03</rscale>
<asrwt>0</asrwt>
<pdfrwt beam="1">  1       21 0.12128067E-01 0.12700228E+03</pdfrwt>
<pdfrwt beam="2">  1       21 0.11358503E-01 0.12700228E+03</pdfrwt>
<totfact> 0.36794424E+06</totfact>
</mgrwt>
</event>
<event>
 6    1  0.4244577E-002  0.1274056E+03  0.7546771E-02  0.1231357E+00
         21   -1    0    0  503  502  0.00000000000E+00  0.00000000000E+00  0.59196267405E+03  0.59196267405E+03  0.00000000000E+00 0. -1.
         21   -1    0    0  504  503 -0.00000000000E+00 -0.00000000000E+00 -0.10749049684E+02  0.10749049684E+02  0.00000000000E+00 0. -1.
         25    2    1    2    0    0  0.23148161663E+02  0.84964398058E+01  0.53873280415E+03  0.55359302094E+03  0.12499668672E+03 0.  0.
          5    1    3    3  501    0 -0.68477724816E+01 -0.30957778561E+02  0.34216706876E+02  0.46648355499E+02  0.10000000000E+00 0. -1.
         -5    1    3    3    0  501  0.29995934144E+02  0.39454218366E+02  0.50451609727E+03  0.50694466544E+03  0.10000000000E+00 0. -1.
         21    1    1    2  504  502 -0.23148161663E+02 -0.84964398058E+01  0.42480820221E+02  0.49118702796E+02  0.00000000000E+00 0.  1.
<mgrwt>
<rscale>  1 0.12740565E+03</rscale>
<asrwt>0</asrwt>
<pdfrwt beam="1">  1       21 0.91071155E-01 0.12740565E+03</pdfrwt>
<pdfrwt beam="2">  1       21 0.16537004E-02 0.12740565E+03</pdfrwt>
<totfact> 0.17125403E+06</totfact>
</mgrwt>
</event>
<event>
 6    1  0.4244577E-002  0.1259658E+03  0.7546771E-02  0.1233568E+00
         21   -1    0    0  503  502  0.00000000000E+00  0.00000000000E+00  0.10721079424E+04  0.10721079424E+04  0.00000000000E+00 0. -1.
         21   -1    0    0  504  503 -0.00000000000E+00 -0.00000000000E+00 -0.49371678689E+01  0.49371678689E+01  0.00000000000E+00 0. -1.
         25    2    1    2    0    0 -0.98059818756E+01 -0.12097365615E+02  0.10087502022E+04  0.10165846538E+04  0.12499953676E+03 0.  0.
          5    1    3    3  501    0  0.64784106093E+01 -0.31380674743E+02  0.64726301822E+02  0.72223408248E+02  0.10000000000E+00 0.  1.
         -5    1    3    3    0  501 -0.16284392485E+02  0.19283309128E+02  0.94402390043E+03  0.94436124551E+03  0.10000000000E+00 0.  1.
         21    1    1    2  504  502  0.98059818756E+01  0.12097365615E+02  0.58420572276E+02  0.60460456502E+02  0.00000000000E+00 0. -1.
<mgrwt>
<rscale>  1 0.12596582E+03</rscale>
<asrwt>0</asrwt>
<pdfrwt beam="1">  1       21 0.16493950E+00 0.12596582E+03</pdfrwt>
<pdfrwt beam="2">  1       21 0.75956514E-03 0.12596582E+03</pdfrwt>
<totfact> 0.13589443E+06</totfact>
</mgrwt>
</event>
<event>
 6    1  0.4244577E-002  0.1284580E+03  0.7546771E-02  0.1229762E+00
         21   -1    0    0  503  502  0.00000000000E+00  0.00000000000E+00  0.16973371968E+02  0.16973371968E+02  0.00000000000E+00 0. -1.
         21   -1    0    0  504  503 -0.00000000000E+00 -0.00000000000E+00 -0.49370171484E+03  0.49370171484E+03  0.00000000000E+00 0. -1.
         25    2    1    2    0    0 -0.20520719452E+02  0.21360081462E+02 -0.24104389760E+03  0.27313664624E+03  0.12499645571E+03 0.  0.
          5    1    3    3  501    0  0.48024582514E+02  0.27001928371E+02 -0.14410181357E+03  0.15427510277E+03  0.10000000000E+00 0.  1.
         -5    1    3    3    0  501 -0.68545301966E+02 -0.56418469093E+01 -0.96942084033E+02  0.11886154346E+03  0.10000000000E+00 0.  1.
         21    1    1    2  504  502  0.20520719452E+02 -0.21360081462E+02 -0.23568444527E+03  0.23753844057E+03  0.00000000000E+00 0. -1.
<mgrwt>
<rscale>  1 0.12845804E+03</rscale>
<asrwt>0</asrwt>
<pdfrwt beam="1">  1       21 0.26112884E-02 0.12845804E+03</pdfrwt>
<pdfrwt beam="2">  1       21 0.75954098E-01 0.12845804E+03</pdfrwt>
<totfact> 0.12318112E+06</totfact>
</mgrwt>
</event>
<event>
 6    1  0.4244577E-002  0.1268954E+03  0.7546771E-02  0.1232136E+00
         21   -1    0    0  504  502  0.00000000000E+00  0.00000000000E+00  0.51846586949E+02  0.51846586949E+02  0.00000000000E+00 0.  1.
         21   -1    0    0  502  503 -0.00000000000E+00 -0.00000000000E+00 -0.13397789452E+03  0.13397789452E+03  0.00000000000E+00 0.  1.
         25    2    1    2    0    0  0.34953937718E+01  0.21441305355E+02 -0.31525662753E+02  0.13075290404E+03  0.12502202666E+03 0.  0.
          5    1    3    3  501    0 -0.17314754879E+02 -0.49758749262E+02 -0.11666115815E+02  0.53961487404E+02  0.10000000000E+00 0. -1.
         -5    1    3    3    0  501  0.20810148651E+02  0.71200054617E+02 -0.19859546938E+02  0.76791416636E+02  0.10000000000E+00 0. -1.
         21    1    1    2  504  503 -0.34953937718E+01 -0.21441305355E+02 -0.50605644818E+02  0.55071577428E+02  0.00000000000E+00 0.  1.
<mgrwt>
<rscale>  1 0.12689545E+03</rscale>
<asrwt>0</asrwt>
<pdfrwt beam="1">  1       21 0.79763979E-02 0.12689545E+03</pdfrwt>
<pdfrwt beam="2">  1       21 0.20611984E-01 0.12689545E+03</pdfrwt>
<totfact> 0.26078555E+06</totfact>
</mgrwt>
</event>
<event>
 6    1  0.4244577E-002  0.1433621E+03  0.7546771E-02  0.1208875E+00
         21   -1    0    0  504  502  0.00000000000E+00  0.00000000000E+00  0.11262596411E+04  0.11262596411E+04  0.00000000000E+00 0. -1.
         21   -1    0    0  502  503 -0.00000000000E+00 -0.00000000000E+00 -0.19790342086E+02  0.19790342086E+02  0.00000000000E+00 0. -1.
         25    2    1    2    0    0  0.69965169338E+02  0.57849931051E+01  0.10384501887E+04  0.10482993288E+04  0.12499638890E+03 0.  0.
          5    1    3    3  501    0  0.42407707543E+02  0.13418798519E+02  0.99671829265E+03  0.99771030000E+03  0.10000000000E+00 0.  1.
         -5    1    3    3    0  501  0.27557461794E+02 -0.76338054138E+01  0.41731896079E+02  0.50589028810E+02  0.10000000000E+00 0.  1.
         21    1    1    2  504  503 -0.69965169338E+02 -0.57849931051E+01  0.68019110251E+02  0.97750654346E+02  0.00000000000E+00 0. -1.
<mgrwt>
<rscale>  1 0.14336209E+03</rscale>
<asrwt>0</asrwt>
<pdfrwt beam="1">  1       21 0.17327066E+00 0.14336209E+03</pdfrwt>
<pdfrwt beam="2">  1       21 0.30446689E-02 0.14336209E+03</pdfrwt>
<totfact> 0.12816173E+05</totfact>
</mgrwt>
</event>
<event>
 6    1  0.4244577E-002  0.1333958E+03  0.7546771E-02  0.1222502E+00
         21   -1    0    0  503  502  0.00000000000E+00  0.00000000000E+00  0.72003918205E+02  0.72003918205E+02  0.00000000000E+00 0.  1.
         21   -1    0    0  504  503 -0.00000000000E+00 -0.00000000000E+00 -0.79932615691E+03  0.79932615691E+03  0.00000000000E+00 0. -1.
         25    2    1    2    0    0  0.46450099247E+02 -0.32496578369E+01  0.88478124049E+01  0.13368889124E+03  0.12500505534E+03 0.  0.
          5    1    3    3  501    0  0.70425736530E+02 -0.28137225679E+02 -0.30123718368E+02  0.81602305378E+02  0.10000000000E+00 0.  1.
         -5    1    3    3    0  501 -0.23975637283E+02  0.24887567842E+02  0.38971530772E+02  0.52086585864E+02  0.10000000000E+00 0.  1.
         21    1    1    2  504  502 -0.46450099247E+02  0.32496578369E+01 -0.73617005111E+03  0.73764118387E+03  0.00000000000E+00 0. -1.
<mgrwt>
<rscale>  1 0.13339579E+03</rscale>
<asrwt>0</asrwt>
<pdfrwt beam="1">  1       21 0.11077526E-01 0.13339579E+03</pdfrwt>
<pdfrwt beam="2">  1       21 0.12297325E+00 0.13339579E+03</pdfrwt>
<totfact> 0.34869466E+04</totfact>
</mgrwt>
</event>
<event>
 6    1  0.4244577E-002  0.1279501E+03  0.7546771E-02  0.1230529E+00
         21   -1    0    0  503  502  0.00000000000E+00  0.00000000000E+00  0.15903879394E+03  0.15903879394E+03  0.00000000000E+00 0. -1.
         21   -1    0    0  504  503 -0.00000000000E+00 -0.00000000000E+00 -0.44949891749E+02  0.44949891749E+02  0.00000000000E+00 0. -1.
         25    2    1    2    0    0 -0.27268891152E+02 -0.14774250882E+01  0.12069354254E+03  0.17589248517E+03  0.12500183966E+03 0.  0.
          5    1    3    3  501    0 -0.61554989393E+02  0.35862835563E+02  0.95886721212E+02  0.11945473201E+03  0.10000000000E+00 0.  1.
         -5    1    3    3    0  501  0.34286098240E+02 -0.37340260651E+02  0.24806821326E+02  0.56437753165E+02  0.10000000000E+00 0.  1.
         21    1    1    2  504  502  0.27268891152E+02  0.14774250882E+01 -0.66046403453E+01  0.28096200520E+02  0.00000000000E+00 0. -1.
<mgrwt>
<rscale>  1 0.12795013E+03</rscale>
<asrwt>0</asrwt>
<pdfrwt beam="1">  1       21 0.24467507E-01 0.12795013E+03</pdfrwt>
<pdfrwt beam="2">  1       21 0.69153680E-02 0.12795013E+03</pdfrwt>
<totfact> 0.24187935E+06</totfact>
</mgrwt>
</event>
<event>
 6    1  0.4244577E-002  0.1511336E+03  0.7546771E-02  0.1199087E+00
         21   -1    0    0  504  502  0.00000000000E+00  0.00000000000E+00  0.53009991693E+03  0.53009991693E+03  0.00000000000E+00 0.  1.
         21   -1    0    0  502  503 -0.00000000000E+00 -0.00000000000E+00 -0.30867768952E+02  0.30867768952E+02  0.00000000000E+00 0.  1.
         25    2    1    2    0    0 -0.20539693892E+02  0.82395328420E+02  0.41369728229E+03  0.44043933893E+03  0.12502200100E+03 0.  0.
          5    1    3    3  501    0  0.25591889711E+02  0.54756846116E+02  0.35781434567E+03  0.36288341514E+03  0.10000000000E+00 0.  1.
         -5    1    3    3    0  501 -0.46131583603E+02  0.27638482304E+02  0.55882936614E+02  0.77555923786E+02  0.10000000000E+00 0.  1.
         21    1    1    2  504  503  0.20539693892E+02 -0.82395328420E+02  0.85534865694E+02  0.12052834696E+03  0.00000000000E+00 0.  1.
<mgrwt>
<rscale>  1 0.15113362E+03</rscale>
<asrwt>0</asrwt>
<pdfrwt beam="1">  1       21 0.81553827E-01 0.15113362E+03</pdfrwt>
<pdfrwt beam="2">  1       21 0.47488879E-02 0.15113362E+03</pdfrwt>
<totfact> 0.38999042E+05</totfact>
</mgrwt>
</event>
<event>
 6    1  0.4244577E-002  0.1268885E+03  0.7546771E-02  0.1232147E+00
         21   -1    0    0  504  502  0.00000000000E+00  0.00000000000E+00  0.17046467295E+02  0.17046467295E+02  0.00000000000E+00 0.  1.
         21   -1    0    0  502  503 -0.00000000000E+00 -0.00000000000E+00 -0.34812886084E+03  0.34812886084E+03  0.00000000000E+00 0.  1.
         25    2    1    2    0    0 -0.48889891429E+01  0.21283032006E+02 -0.23962770664E+03  0.27114964322E+03  0.12499528617E+03 0.  0.
          5    1    3    3  501    0  0.15552490948E+02 -0.50018812864E+02 -0.89616463529E+02  0.10380212980E+03  0.10000000000E+00 0. -1.
         -5    1    3    3    0  501 -0.20441480091E+02  0.71301844870E+02 -0.15001124311E+03  0.16734751342E+03  0.10000000000E+00 0. -1.
         21    1    1    2  504  503  0.48889891429E+01 -0.21283032006E+02 -0.91454686902E+02  0.94025684909E+02  0.00000000000E+00 0.  1.
<mgrwt>
<rscale>  1 0.12688850E+03</rscale>
<asrwt>0</asrwt>
<pdfrwt beam="1">  1       21 0.26225338E-02 0.12688850E+03</pdfrwt>
<pdfrwt beam="2">  1       21 0.53558278E-01 0.12688850E+03</pdfrwt>
<totfact> 0.25881134E+06</totfact>
</mgrwt>
</event>
<event>
 6    1  0.4244577E-002  0.1260315E+03  0.7546771E-02  0.1233466E+00
         21   -1    0    0  503  502  0.00000000000E+00  0.00000000000E+00  0.76264126531E+01  0.76264126531E+01  0.00000000000E+00 0. -1.
         21   -1    0    0  504  503 -0.00000000000E+00 -0.00000000000E+00 -0.68357416917E+03  0.68357416917E+03  0.00000000000E+00 0. -1.
         25    2    1    2    0    0 -0.57688556888E+01 -0.14981069390E+02 -0.55124821083E+03  0.56547195012E+03  0.12500489707E+03 0.  0.
          5    1    3    3  501    0  0.54009790728E+02  0.62885218565E+01 -0.15697105486E+03  0.16612201861E+03  0.10000000000E+00 0.  1.
         -5    1    3    3    0  501 -0.59778646417E+02 -0.21269591247E+02 -0.39427715597E+03  0.39934993151E+03  0.10000000000E+00 0.  1.
         21    1    1    2  504  502  0.57688556888E+01  0.14981069390E+02 -0.12469954569E+03  0.12572863171E+03  0.00000000000E+00 0. -1.
<mgrwt>
<rscale>  1 0.12603149E+03</rscale>
<asrwt>0</asrwt>
<pdfrwt beam="1">  1       21 0.11732942E-02 0.12603149E+03</pdfrwt>
<pdfrwt beam="2">  1       21 0.10516526E+00 0.12603149E+03</pdfrwt>
<totfact> 0.21152620E+06</totfact>
</mgrwt>
</event>
<event>
 6    1  0.4244577E-002  0.1265244E+03  0.7546771E-02  0.1232706E+00
         21   -1    0    0  504  502  0.00000000000E+00  0.00000000000E+00  0.41536390655E+02  0.41536390655E+02  0.00000000000E+00 0. -1.
         21   -1    0    0  502  503 -0.00000000000E+00 -0.00000000000E+00 -0.12882209344E+03  0.12882209344E+03  0.00000000000E+00 0. -1.
         25    2    1    2    0    0 -0.14673991820E+02 -0.13230966121E+02 -0.74633244342E+02  0.14689640394E+03  0.12497218823E+03 0.  0.
          5    1    3    3  501    0  0.20269474726E+00  0.55065568328E+02 -0.21576028603E+02  0.59142141581E+02  0.10000000000E+00 0. -1.
         -5    1    3    3    0  501 -0.14876686567E+02 -0.68296534449E+02 -0.53057215740E+02  0.87754262364E+02  0.10000000000E+00 0. -1.
         21    1    1    2  504  503  0.14673991820E+02  0.13230966121E+02 -0.12652458448E+02  0.23462080155E+02  0.00000000000E+00 0. -1.
<mgrwt>
<rscale>  1 0.12652443E+03</rscale>
<asrwt>0</asrwt>
<pdfrwt beam="1">  1       21 0.63902139E-02 0.12652443E+03</pdfrwt>
<pdfrwt beam="2">  1       21 0.19818784E-01 0.12652443E+03</pdfrwt>
<totfact> 0.40982785E+06</totfact>
</mgrwt>
</event>
<event>
 6    1  0.4244577E-002  0.1298493E+03  0.7546771E-02  0.1227680E+00
         21   -1    0    0  504  502  0.00000000000E+00  0.00000000000E+00  0.49363175014E+02  0.49363175014E+02  0.00000000000E+00 0. -1.
         21   -1    0    0  502  503 -0.00000000000E+00 -0.00000000000E+00 -0.21824765385E+03  0.21824765385E+03  0.00000000000E+00 0. -1.
         25    2    1    2    0    0 -0.18769414115E+02  0.29718058304E+02 -0.42803791373E+02  0.13672235097E+03  0.12500153120E+03 0.  0.
          5    1    3    3  501    0 -0.35965834413E+02  0.24907117008E+02 -0.82395728165E+02  0.93289719383E+02  0.10000000000E+00 0. -1.
         -5    1    3    3    0  501  0.17196420298E+02  0.48109412957E+01  0.39591936792E+02  0.43432631583E+02  0.10000000000E+00 0. -1.
         21    1    1    2  504  503  0.18769414115E+02 -0.29718058304E+02 -0.12608068747E+03  0.13088847790E+03  0.00000000000E+00 0. -1.
<mgrwt>
<rscale>  1 0.12984928E+03</rscale>
<asrwt>0</asrwt>
<pdfrwt beam="1">  1       21 0.75943345E-02 0.12984928E+03</pdfrwt>
<pdfrwt beam="2">  1       21 0.33576562E-01 0.12984928E+03</pdfrwt>
<totfact> 0.11226737E+06</totfact>
</mgrwt>
</event>
<event>
 6    1  0.4244577E-002  0.1736298E+03  0.7546771E-02  0.1174115E+00
         21   -1    0    0  504  502  0.00000000000E+00  0.00000000000E+00  0.94251639655E+02  0.94251639655E+02  0.00000000000E+00 0. -1.
         21   -1    0    0  502  503 -0.00000000000E+00 -0.00000000000E+00 -0.42005154099E+03  0.42005154099E+03  0.00000000000E+00 0. -1.
         25    2    1    2    0    0  0.62677803069E+02  0.10292056761E+03 -0.73155896089E+01  0.17378386100E+03  0.12500464895E+03 0.  0.
          5    1    3    3  501    0  0.92279178454E+02  0.70844470115E+02  0.25594301254E+02  0.11911953651E+03  0.10000000000E+00 0. -1.
         -5    1    3    3    0  501 -0.29601375385E+02  0.32076097497E+02 -0.32909890863E+02  0.54664324490E+02  0.10000000000E+00 0. -1.
         21    1    1    2  504  503 -0.62677803069E+02 -0.10292056761E+03 -0.31848431173E+03  0.34051931965E+03  0.00000000000E+00 0. -1.
<mgrwt>
<rscale>  1 0.17362981E+03</rscale>
<asrwt>0</asrwt>
<pdfrwt beam="1">  1       21 0.14500252E-01 0.17362981E+03</pdfrwt>
<pdfrwt beam="2">  1       21 0.64623315E-01 0.17362981E+03</pdfrwt>
<totfact> 0.92791817E+04</totfact>
</mgrwt>
</event>
<event>
 6    1  0.4244577E-002  0.1868043E+03  0.7546771E-02  0.1161376E+00
         21   -1    0    0  504  502  0.00000000000E+00  0.00000000000E+00  0.49884926749E+02  0.49884926749E+02  0.00000000000E+00 0.  1.
         21   -1    0    0  502  503 -0.00000000000E+00 -0.00000000000E+00 -0.53794128708E+03  0.53794128708E+03  0.00000000000E+00 0.  1.
         25    2    1    2    0    0 -0.80344278868E+02  0.11321483216E+03 -0.24748533328E+03  0.31007232921E+03  0.12499223089E+03 0.  0.
          5    1    3    3  501    0 -0.96528178060E+02  0.10108956544E+03 -0.25306006355E+03  0.28909547759E+03  0.10000000000E+00 0.  1.
         -5    1    3    3    0  501  0.16183899192E+02  0.12125266715E+02  0.55747302700E+01  0.20976851612E+02  0.10000000000E+00 0.  1.
         21    1    1    2  504  503  0.80344278868E+02 -0.11321483216E+03 -0.24057102706E+03  0.27775388463E+03  0.00000000000E+00 0.  1.
<mgrwt>
<rscale>  1 0.18680433E+03</rscale>
<asrwt>0</asrwt>
<pdfrwt beam="1">  1       21 0.76746036E-02 0.18680433E+03</pdfrwt>
<pdfrwt beam="2">  1       21 0.82760204E-01 0.18680433E+03</pdfrwt>
<totfact> 0.16458776E+05</totfact>
</mgrwt>
</event>
<event>
 6    1  0.4244577E-002  0.1474130E+03  0.7546771E-02  0.1203688E+00
         21   -1    0    0  504  502  0.00000000000E+00  0.00000000000E+00  0.65376154434E+03  0.65376154434E+03  0.00000000000E+00 0. -1.
         21   -1    0    0  502  503 -0.00000000000E+00 -0.00000000000E+00 -0.43313248222E+02  0.43313248222E+02  0.00000000000E+00 0.  1.
         25    2    1    2    0    0 -0.77614505836E+02 -0.90671851081E+01  0.60046764127E+03  0.61829764592E+03  0.12499746147E+03 0.  0.
          5    1    3    3  501    0  0.10484454784E+02 -0.36387725176E+02  0.67406478088E+02  0.77315157788E+02  0.10000000000E+00 0.  1.
         -5    1    3    3    0  501 -0.88098960620E+02  0.27320540067E+02  0.53306116319E+03  0.54098248813E+03  0.10000000000E+00 0.  1.
         21    1    1    2  504  503  0.77614505836E+02  0.90671851081E+01  0.99806548475E+01  0.78777146643E+02  0.00000000000E+00 0.  1.
<mgrwt>
<rscale>  1 0.14741299E+03</rscale>
<asrwt>0</asrwt>
<pdfrwt beam="1">  1       21 0.10057869E+00 0.14741299E+03</pdfrwt>
<pdfrwt beam="2">  1       21 0.66635771E-02 0.14741299E+03</pdfrwt>
<totfact> 0.13565846E+05</totfact>
</mgrwt>
</event>
<event>
 6    1  0.4244577E-002  0.1263137E+03  0.7546771E-02  0.1233030E+00
         21   -1    0    0  503  502  0.00000000000E+00  0.00000000000E+00  0.13144582460E+03  0.13144582460E+03  0.00000000000E+00 0. -1.
         21   -1    0    0  504  503 -0.00000000000E+00 -0.00000000000E+00 -0.39756353459E+02  0.39756353459E+02  0.00000000000E+00 0. -1.
         25    2    1    2    0    0  0.16923537410E+02 -0.66348519096E+01  0.78129301247E+02  0.14852387155E+03  0.12499890131E+03 0.  0.
          5    1    3    3  501    0  0.51002182044E+02  0.20914941879E+01  0.96253539289E+02  0.10895113926E+03  0.10000000000E+00 0. -1.
         -5    1    3    3    0  501 -0.34078644634E+02 -0.87263460974E+01 -0.18124238042E+02  0.39572732291E+02  0.10000000000E+00 0. -1.
         21    1    1    2  504  502 -0.16923537410E+02  0.66348519096E+01  0.13560169890E+02  0.22678306501E+02  0.00000000000E+00 0.  1.
<mgrwt>
<rscale>  1 0.12631371E+03</rscale>
<asrwt>0</asrwt>
<pdfrwt beam="1">  1       21 0.20222434E-01 0.12631371E+03</pdfrwt>
<pdfrwt beam="2">  1       21 0.61163622E-02 0.12631371E+03</pdfrwt>
<totfact> 0.42530662E+06</totfact>
</mgrwt>
</event>
<event>
 6    1  0.4244577E-002  0.1259701E+03  0.7546771E-02  0.1233561E+00
         21   -1    0    0  504  502  0.00000000000E+00  0.00000000000E+00  0.41231819230E+03  0.41231819230E+03  0.00000000000E+00 0. -1.
         21   -1    0    0  502  503 -0.00000000000E+00 -0.00000000000E+00 -0.12176426020E+02  0.12176426020E+02  0.00000000000E+00 0. -1.
         25    2    1    2    0    0 -0.10033736296E+02  0.11948555565E+02  0.36163318608E+03  0.38294519482E+03  0.12500006847E+03 0.  0.
          5    1    3    3  501    0 -0.31839928511E+02 -0.23217975741E+02  0.32104681872E+02  0.50828889848E+02  0.10000000000E+00 0. -1.
         -5    1    3    3    0  501  0.21806192215E+02  0.35166531306E+02  0.32952850420E+03  0.33211630497E+03  0.10000000000E+00 0. -1.
         21    1    1    2  504  503  0.10033736296E+02 -0.11948555565E+02  0.38508580200E+02  0.41549423500E+02  0.00000000000E+00 0. -1.
<mgrwt>
<rscale>  1 0.12597008E+03</rscale>
<asrwt>0</asrwt>
<pdfrwt beam="1">  1       21 0.63433557E-01 0.12597008E+03</pdfrwt>
<pdfrwt beam="2">  1       21 0.18732966E-02 0.12597008E+03</pdfrwt>
<totfact> 0.31206019E+06</totfact>
</mgrwt>
</event>
<event>
 6    1  0.4244577E-002  0.1329887E+03  0.7546771E-02  0.1223087E+00
         21   -1    0    0  504  502  0.00000000000E+00  0.00000000000E+00  0.60069590258E+01  0.60069590258E+01  0.00000000000E+00 0.  1.
         21   -1    0    0  502  503 -0.00000000000E+00 -0.00000000000E+00 -0.13694794996E+04  0.13694794996E+04  0.00000000000E+00 0.  1.
         25    2    1    2    0    0 -0.43165913146E+02  0.13812847207E+02 -0.11162256091E+04  0.11241199216E+04  0.12502758478E+03 0.  0.
          5    1    3    3  501    0 -0.69450323636E+02 -0.33271197887E+02 -0.55653570016E+03  0.56183833584E+03  0.10000000000E+00 0.  1.
         -5    1    3    3    0  501  0.26284410489E+02  0.47084045094E+02 -0.55968990891E+03  0.56228158575E+03  0.10000000000E+00 0.  1.
         21    1    1    2  504  503  0.43165913146E+02 -0.13812847207E+02 -0.24724693151E+03  0.25136653705E+03  0.00000000000E+00 0. -1.
<mgrwt>
<rscale>  1 0.13298868E+03</rscale>
<asrwt>0</asrwt>
<pdfrwt beam="1">  1       21 0.92414699E-03 0.13298868E+03</pdfrwt>
<pdfrwt beam="2">  1       21 0.21068928E+00 0.13298868E+03</pdfrwt>
<totfact> 0.50106246E+05</totfact>
</mgrwt>
</event>
<event>
 6    1  0.4244577E-002  0.1261089E+03  0.7546771E-02  0.1233346E+00
         21   -1    0    0  504  502  0.00000000000E+00  0.00000000000E+00  0.60269899235E+02  0.60269899235E+02  0.00000000000E+00 0.  1.
         21   -1    0    0  502  503 -0.00000000000E+00 -0.00000000000E+00 -0.20242012483E+03  0.20242012483E+03  0.00000000000E+00 0.  1.
         25    2    1    2    0    0 -0.20741877197E+00  0.16680044860E+02 -0.67748509612E+01  0.12629076096E+03  0.12500076311E+03 0.  0.
          5    1    3    3  501    0  0.10807299098E+02  0.35788416748E+02 -0.58859592413E+02  0.69728545848E+02  0.10000000000E+00 0.  1.
         -5    1    3    3    0  501 -0.11014717870E+02 -0.19108371888E+02  0.52084741452E+02  0.56562215109E+02  0.10000000000E+00 0.  1.
         21    1    1    2  504  503  0.20741877197E+00 -0.16680044860E+02 -0.13537537464E+03  0.13639926311E+03  0.00000000000E+00 0.  1.
<mgrwt>
<rscale>  1 0.12610891E+03</rscale>
<asrwt>0</asrwt>
<pdfrwt beam="1">  1       21 0.92722921E-02 0.12610891E+03</pdfrwt>
<pdfrwt beam="2">  1       21 0.31141558E-01 0.12610891E+03</pdfrwt>
<totfact> 0.92010804E+05</totfact>
</mgrwt>
</event>
<event>
 6    1  0.4244577E-002  0.1361724E+03  0.7546771E-02  0.1218574E+00
         21   -1    0    0  504  502  0.00000000000E+00  0.00000000000E+00  0.66347563117E+02  0.66347563117E+02  0.00000000000E+00 0. -1.
         21   -1    0    0  502  503 -0.00000000000E+00 -0.00000000000E+00 -0.22587451240E+03  0.22587451240E+03  0.00000000000E+00 0. -1.
         25    2    1    2    0    0  0.47932903282E+02  0.24867707101E+02 -0.13869236428E+02  0.13687686192E+03  0.12500781390E+03 0.  0.
          5    1    3    3  501    0  0.16241093374E+02  0.44390862162E+02 -0.60777037810E+02  0.76994675676E+02  0.10000000000E+00 0.  1.
         -5    1    3    3    0  501  0.31691809908E+02 -0.19523155061E+02  0.46907801382E+02  0.59882186243E+02  0.10000000000E+00 0.  1.
         21    1    1    2  504  503 -0.47932903282E+02 -0.24867707101E+02 -0.14565771285E+03  0.15534521359E+03  0.00000000000E+00 0. -1.
<mgrwt>
<rscale>  1 0.13617239E+03</rscale>
<asrwt>0</asrwt>
<pdfrwt beam="1">  1       21 0.10207317E-01 0.13617239E+03</pdfrwt>
<pdfrwt beam="2">  1       21 0.34749925E-01 0.13617239E+03</pdfrwt>
<totfact> 0.62820145E+05</totfact>
</mgrwt>
</event>
<event>
 6    1  0.4244577E-002  0.1316978E+03  0.7546771E-02  0.1224958E+00
         21   -1    0    0  503  502  0.00000000000E+00  0.00000000000E+00  0.27018264018E+03  0.27018264018E+03  0.00000000000E+00 0. -1.
         21   -1    0    0  504  503 -0.00000000000E+00 -0.00000000000E+00 -0.30669932862E+02  0.30669932862E+02  0.00000000000E+00 0. -1.
         25    2    1    2    0    0  0.57374845425E+01 -0.41066726638E+02  0.21655220367E+03  0.25345447716E+03  0.12499968125E+03 0.  0.
          5    1    3    3  501    0  0.60525392585E+02 -0.41847310354E+02  0.15132423290E+03  0.16826631866E+03  0.10000000000E+00 0.  1.
         -5    1    3    3    0  501 -0.54787908042E+02  0.78058371615E+00  0.65227970766E+02  0.85188158501E+02  0.10000000000E+00 0.  1.
         21    1    1    2  504  502 -0.57374845425E+01  0.41066726638E+02  0.22960503654E+02  0.47398095886E+02  0.00000000000E+00 0. -1.
<mgrwt>
<rscale>  1 0.13169782E+03</rscale>
<asrwt>0</asrwt>
<pdfrwt beam="1">  1       21 0.41566558E-01 0.13169782E+03</pdfrwt>
<pdfrwt beam="2">  1       21 0.47184514E-02 0.13169782E+03</pdfrwt>
<totfact> 0.16491955E+06</totfact>
</mgrwt>
</event>
<event>
 6    1  0.4244577E-002  0.1368238E+03  0.7546771E-02  0.1217668E+00
         21   -1    0    0  503  502  0.00000000000E+00  0.00000000000E+00  0.13846200114E+04  0.13846200114E+04  0.00000000000E+00 0. -1.
         21   -1    0    0  504  503 -0.00000000000E+00 -0.00000000000E+00 -0.74459548137E+01  0.74459548137E+01  0.00000000000E+00 0. -1.
         25    2    1    2    0    0 -0.35205869825E+02 -0.43109048028E+02  0.11528163323E+04  0.11609075103E+04  0.12499163238E+03 0.  0.
          5    1    3    3  501    0 -0.12961288853E+02  0.15101888805E+02  0.27923209027E+02  0.34289614413E+02  0.10000000000E+00 0. -1.
         -5    1    3    3    0  501 -0.22244580972E+02 -0.58210936833E+02  0.11248931233E+04  0.11266178959E+04  0.10000000000E+00 0. -1.
         21    1    1    2  504  502  0.35205869825E+02  0.43109048028E+02  0.22435772422E+03  0.23115845584E+03  0.00000000000E+00 0. -1.
<mgrwt>
<rscale>  1 0.13682380E+03</rscale>
<asrwt>0</asrwt>
<pdfrwt beam="1">  1       21 0.21301826E+00 0.13682380E+03</pdfrwt>
<pdfrwt beam="2">  1       21 0.11455326E-02 0.13682380E+03</pdfrwt>
<totfact> 0.34483819E+05</totfact>
</mgrwt>
</event>
<event>
 6    1  0.4244577E-002  0.1287315E+03  0.7546771E-02  0.1229350E+00
         21   -1    0    0  504  502  0.00000000000E+00  0.00000000000E+00  0.81932545967E+02  0.81932545967E+02  0.00000000000E+00 0. -1.
         21   -1    0    0  502  503 -0.00000000000E+00 -0.00000000000E+00 -0.29564971735E+03  0.29564971735E+03  0.00000000000E+00 0.  1.
         25    2    1    2    0    0  0.13152250090E+01  0.30708878888E+02  0.29797728609E+02  0.13213517823E+03  0.12500814228E+03 0.  0.
          5    1    3    3  501    0  0.46886978304E+02 -0.71174914454E+01 -0.23077463745E+02  0.52741129604E+02  0.10000000000E+00 0. -1.
         -5    1    3    3    0  501 -0.45571753295E+02  0.37826370333E+02  0.52875192354E+02  0.79394048627E+02  0.10000000000E+00 0. -1.
         21    1    1    2  504  503 -0.13152250090E+01 -0.30708878888E+02 -0.24351489999E+03  0.24544708509E+03  0.00000000000E+00 0.  1.
<mgrwt>
<rscale>  1 0.12873151E+03</rscale>
<asrwt>0</asrwt>
<pdfrwt beam="1">  1       21 0.12605007E-01 0.12873151E+03</pdfrwt>
<pdfrwt beam="2">  1       21 0.45484571E-01 0.12873151E+03</pdfrwt>
<totfact> 0.25292318E+05</totfact>
</mgrwt>
</event>
<event>
 6    1  0.4244577E-002  0.1415401E+03  0.7546771E-02  0.1211272E+00
         21   -1    0    0  503  502  0.00000000000E+00  0.00000000000E+00  0.19088187331E+03  0.19088187331E+03  0.00000000000E+00 0.  1.
         21   -1    0    0  504  503 -0.00000000000E+00 -0.00000000000E+00 -0.57868823800E+02  0.57868823800E+02  0.00000000000E+00 0.  1.
         25    2    1    2    0    0 -0.30466514451E+02  0.58998918791E+02  0.73037293877E+02  0.15927348110E+03  0.12499805824E+03 0.  0.
          5    1    3    3  501    0 -0.64416535248E+02  0.61499836107E+02  0.12653224992E+02  0.89954621656E+02  0.10000000000E+00 0. -1.
         -5    1    3    3    0  501  0.33950020797E+02 -0.25009173156E+01  0.60384068884E+02  0.69318859444E+02  0.10000000000E+00 0. -1.
         21    1    1    2  504  502  0.30466514451E+02 -0.58998918791E+02  0.59975755637E+02  0.89477216014E+02  0.00000000000E+00 0.  1.
<mgrwt>
<rscale>  1 0.14154008E+03</rscale>
<asrwt>0</asrwt>
<pdfrwt beam="1">  1       21 0.29366442E-01 0.14154008E+03</pdfrwt>
<pdfrwt beam="2">  1       21 0.89028960E-02 0.14154008E+03</pdfrwt>
<totfact> 0.11070686E+06</totfact>
</mgrwt>
</event>
<event>
 6    1  0.4244577E-002  0.1261229E+03  0.7546771E-02  0.1233325E+00
         21   -1    0    0  504  502  0.00000000000E+00  0.00000000000E+00  0.19020600526E+03  0.19020600526E+03  0.00000000000E+00 0. -1.
         21   -1    0    0  502  503 -0.00000000000E+00 -0.00000000000E+00 -0.34382441069E+02  0.34382441069E+02  0.00000000000E+00 0. -1.
         25    2    1    2    0    0 -0.48990447043E+01 -0.16071229603E+02  0.16318650326E+03  0.20624456637E+03  0.12499880501E+03 0.  0.
          5    1    3    3  501    0 -0.92994114196E+01 -0.70653565830E+02  0.88183264201E+02  0.11337858485E+03  0.10000000000E+00 0.  1.
         -5    1    3    3    0  501  0.44003667153E+01  0.54582336228E+02  0.75003239059E+02  0.92865981525E+02  0.10000000000E+00 0.  1.
         21    1    1    2  504  503  0.48990447043E+01  0.16071229603E+02 -0.73629390705E+01  0.18343879953E+02  0.00000000000E+00 0. -1.
<mgrwt>
<rscale>  1 0.12612290E+03</rscale>
<asrwt>0</asrwt>
<pdfrwt beam="1">  1       21 0.29262462E-01 0.12612290E+03</pdfrwt>
<pdfrwt beam="2">  1       21 0.52896064E-02 0.12612290E+03</pdfrwt>
<totfact> 0.27093321E+06</totfact>
</mgrwt>
</event>
<event>
 6    1  0.4244577E-002  0.1259159E+03  0.7546771E-02  0.1233645E+00
         21   -1    0    0  504  502  0.00000000000E+00  0.00000000000E+00  0.82101662167E+03  0.82101662167E+03  0.00000000000E+00 0.  1.
         21   -1    0    0  502  503 -0.00000000000E+00 -0.00000000000E+00 -0.15385718410E+03  0.15385718410E+03  0.00000000000E+00 0. -1.
         25    2    1    2    0    0 -0.56172187578E+01 -0.14076769769E+02  0.81580120776E+03  0.82546134164E+03  0.12500042943E+03 0.  0.
          5    1    3    3  501    0 -0.40177382195E+02 -0.43727747944E+02  0.21846437328E+03  0.22639132133E+03  0.10000000000E+00 0. -1.
         -5    1    3    3    0  501  0.34560163438E+02  0.29650978174E+02  0.59733683448E+03  0.59907002031E+03  0.10000000000E+00 0. -1.
         21    1    1    2  504  503  0.56172187578E+01  0.14076769769E+02 -0.14864177019E+03  0.14941246414E+03  0.00000000000E+00 0. -1.
<mgrwt>
<rscale>  1 0.12591591E+03</rscale>
<asrwt>0</asrwt>
<pdfrwt beam="1">  1       21 0.12631025E+00 0.12591591E+03</pdfrwt>
<pdfrwt beam="2">  1       21 0.23670337E-01 0.12591591E+03</pdfrwt>
<totfact> 0.82702630E+03</totfact>
</mgrwt>
</event>
<event>
 6    1  0.4244577E-002  0.1280824E+03  0.7546771E-02  0.1230329E+00
         21   -1    0    0  504  502  0.00000000000E+00  0.00000000000E+00  0.18894963978E+03  0.18894963978E+03  0.00000000000E+00 0.  1.
         21   -1    0    0  502  503 -0.00000000000E+00 -0.00000000000E+00 -0.35696239177E+02  0.35696239177E+02  0.00000000000E+00 0.  1.
         25    2    1    2    0    0 -0.21075969269E+02  0.18225366319E+02  0.14895964995E+03  0.19645373905E+03  0.12501493436E+03 0.  0.
          5    1    3    3  501    0  0.52759026420E+02  0.53577543650E+01  0.65643959648E+02  0.84388149872E+02  0.10000000000E+00 0.  1.
         -5    1    3    3    0  501 -0.73834995689E+02  0.12867611954E+02  0.83315690305E+02  0.11206558917E+03  0.10000000000E+00 0.  1.
         21    1    1    2  504  503  0.21075969269E+02 -0.18225366319E+02  0.42937506485E+01  0.28192139910E+02  0.00000000000E+00 0.  1.
<mgrwt>
<rscale>  1 0.12808237E+03</rscale>
<asrwt>0</asrwt>
<pdfrwt beam="1">  1       21 0.29069175E-01 0.12808237E+03</pdfrwt>
<pdfrwt beam="2">  1       21 0.54917292E-02 0.12808237E+03</pdfrwt>
<totfact> 0.25773715E+06</totfact>
</mgrwt>
</event>
<event>
 6    1  0.4244577E-002  0.1259186E+03  0.7546771E-02  0.1233641E+00
         21   -1    0    0  504  502  0.00000000000E+00  0.00000000000E+00  0.17003658185E+03  0.17003658185E+03  0.00000000000E+00 0. -1.
         21   -1    0    0  502  503 -0.00000000000E+00 -0.00000000000E+00 -0.32173569019E+02  0.32173569019E+02  0.00000000000E+00 0. -1.
         25    2    1    2    0    0  0.15082816044E+02  0.18198894570E+01  0.13826855927E+03  0.18701252588E+03  0.12499874806E+03 0.  0.
          5    1    3    3  501    0  0.42195986658E+02 -0.46188968822E+01 -0.34423953464E+01  0.42587505024E+02  0.10000000000E+00 0. -1.
         -5    1    3    3    0  501 -0.27113170614E+02  0.64387863392E+01  0.14171095462E+03  0.14442502086E+03  0.10000000000E+00 0. -1.
         21    1    1    2  504  503 -0.15082816044E+02 -0.18198894570E+01 -0.40554644011E+00  0.15197624991E+02  0.00000000000E+00 0. -1.
<mgrwt>
<rscale>  1 0.12591859E+03</rscale>
<asrwt>0</asrwt>
<pdfrwt beam="1">  1       21 0.26159474E-01 0.12591859E+03</pdfrwt>
<pdfrwt beam="2">  1       21 0.49497800E-02 0.12591859E+03</pdfrwt>
<totfact> 0.37521075E+06</totfact>
</mgrwt>
</event>
<event>
 6    1  0.4244577E-002  0.1319819E+03  0.7546771E-02  0.1224544E+00
         21   -1    0    0  503  502  0.00000000000E+00  0.00000000000E+00  0.10414206334E+03  0.10414206334E+03  0.00000000000E+00 0. -1.
         21   -1    0    0  504  503 -0.00000000000E+00 -0.00000000000E+00 -0.51816098993E+03  0.51816098993E+03  0.00000000000E+00 0.  1.
         25    2    1    2    0    0 -0.15084212685E+02  0.39604297086E+02  0.61000450756E+02  0.14539693811E+03  0.12499272299E+03 0.  0.
          5    1    3    3  501    0  0.13858321686E+02  0.69306941442E+02 -0.11403137278E+01  0.70688156911E+02  0.10000000000E+00 0. -1.
         -5    1    3    3    0  501 -0.28942534371E+02 -0.29702644357E+02  0.62140764484E+02  0.74708781199E+02  0.10000000000E+00 0. -1.
         21    1    1    2  504  502  0.15084212685E+02 -0.39604297086E+02 -0.47501937735E+03  0.47690611516E+03  0.00000000000E+00 0.  1.
<mgrwt>
<rscale>  1 0.13198187E+03</rscale>
<asrwt>0</asrwt>
<pdfrwt beam="1">  1       21 0.16021856E-01 0.13198187E+03</pdfrwt>
<pdfrwt beam="2">  1       21 0.79717075E-01 0.13198187E+03</pdfrwt>
<totfact> 0.49744837E+04</totfact>
</mgrwt>
</event>
<event>
 6    1  0.4244577E-002  0.1262760E+03  0.7546771E-02  0.1233088E+00
         21   -1    0    0  504  502  0.00000000000E+00  0.00000000000E+00  0.71412078077E+01  0.71412078077E+01  0.00000000000E+00 0.  1.
         21   -1    0    0  502  503 -0.00000000000E+00 -0.00000000000E+00 -0.14591075013E+04  0.14591075013E+04  0.00000000000E+00 0.  1.
         25    2    1    2    0    0 -0.43188854597E+01 -0.17441340029E+02 -0.55832520410E+03  0.57242699883E+03  0.12499112906E+03 0.  0.
          5    1    3    3  501    0  0.15129599285E+02  0.43684606549E+02 -0.10691569351E+03  0.11648272465E+03  0.10000000000E+00 0.  1.
         -5    1    3    3    0  501 -0.19448484745E+02 -0.61125946577E+02 -0.45140951059E+03  0.45594427418E+03  0.10000000000E+00 0.  1.
         21    1    1    2  504  503  0.43188854597E+01  0.17441340029E+02 -0.89364108943E+03  0.89382171031E+03  0.00000000000E+00 0.  1.
<mgrwt>
<rscale>  1 0.12627603E+03</rscale>
<asrwt>0</asrwt>
<pdfrwt beam="1">  1       21 0.10986460E-02 0.12627603E+03</pdfrwt>
<pdfrwt beam="2">  1       21 0.22447835E+00 0.12627603E+03</pdfrwt>
<totfact> 0.31608724E+05</totfact>
</mgrwt>
</event>
<event>
 6    1  0.4244577E-002  0.1496939E+03  0.7546771E-02  0.1200850E+00
         21   -1    0    0  504  502  0.00000000000E+00  0.00000000000E+00  0.35478315421E+02  0.35478315421E+02  0.00000000000E+00 0.  1.
         21   -1    0    0  502  503 -0.00000000000E+00 -0.00000000000E+00 -0.19357515974E+04  0.19357515974E+04  0.00000000000E+00 0.  1.
         25    2    1    2    0    0 -0.47361353030E+02 -0.67378718563E+02 -0.12775234825E+03  0.19679663710E+03  0.12500105765E+03 0.  0.
          5    1    3    3  501    0 -0.62154473022E+02  0.14558657095E+02 -0.37643167361E+02  0.74109048449E+02  0.10000000000E+00 0.  1.
         -5    1    3    3    0  501  0.14793119992E+02 -0.81937375658E+02 -0.90109180890E+02  0.12268758865E+03  0.10000000000E+00 0.  1.
         21    1    1    2  504  503  0.47361353030E+02  0.67378718563E+02 -0.17725209338E+04  0.17744332758E+04  0.00000000000E+00 0.  1.
<mgrwt>
<rscale>  1 0.14969387E+03</rscale>
<asrwt>0</asrwt>
<pdfrwt beam="1">  1       21 0.54582031E-02 0.14969387E+03</pdfrwt>
<pdfrwt beam="2">  1       21 0.29780790E+00 0.14969387E+03</pdfrwt>
<totfact> 0.85773741E+03</totfact>
</mgrwt>
</event>
<event>
 6    1  0.4244577E-002  0.1282419E+03  0.7546771E-02  0.1230088E+00
         21   -1    0    0  503  502  0.00000000000E+00  0.00000000000E+00  0.88466138139E+03  0.88466138139E+03  0.00000000000E+00 0.  1.
         21   -1    0    0  504  503 -0.00000000000E+00 -0.00000000000E+00 -0.71736530246E+01  0.71736530246E+01  0.00000000000E+00 0.  1.
         25    2    1    2    0    0  0.27854151332E+02 -0.65879659319E+01  0.76977431276E+03  0.78038354298E+03  0.12500690592E+03 0.  0.
          5    1    3    3  501    0 -0.14658703030E+02  0.24933702638E+02  0.43834279781E+02  0.52516865726E+02  0.10000000000E+00 0. -1.
         -5    1    3    3    0  501  0.42512854362E+02 -0.31521668570E+02  0.72594003298E+03  0.72786667726E+03  0.10000000000E+00 0. -1.
         21    1    1    2  504  502 -0.27854151332E+02  0.65879659319E+01  0.10771341560E+03  0.11145149143E+03  0.00000000000E+00 0.  1.
<mgrwt>
<rscale>  1 0.12824189E+03</rscale>
<asrwt>0</asrwt>
<pdfrwt beam="1">  1       21 0.13610166E+00 0.12824189E+03</pdfrwt>
<pdfrwt beam="2">  1       21 0.11036396E-02 0.12824189E+03</pdfrwt>
<totfact> 0.12433088E+06</totfact>
</mgrwt>
</event>
<event>
 6    1  0.4244577E-002  0.1322226E+03  0.7546771E-02  0.1224195E+00
         21   -1    0    0  503  502  0.00000000000E+00  0.00000000000E+00  0.73985754086E+01  0.73985754086E+01  0.00000000000E+00 0.  1.
         21   -1    0    0  504  503 -0.00000000000E+00 -0.00000000000E+00 -0.11123024909E+04  0.11123024909E+04  0.00000000000E+00 0.  1.
         25    2    1    2    0    0 -0.36931431520E+02  0.22235907387E+02 -0.68926968831E+03  0.70183724038E+03  0.12499777020E+03 0.  0.
          5    1    3    3  501    0  0.86211861142E+01 -0.79646789446E+01 -0.14240533960E+01  0.11823658012E+02  0.10000000000E+00 0. -1.
         -5    1    3    3    0  501 -0.45552617634E+02  0.30200586332E+02 -0.68784563491E+03  0.69001358237E+03  0.10000000000E+00 0. -1.
         21    1    1    2  504  502  0.36931431520E+02 -0.22235907387E+02 -0.41563422717E+03  0.41786382591E+03  0.00000000000E+00 0. -1.
<mgrwt>
<rscale>  1 0.13222257E+03</rscale>
<asrwt>0</asrwt>
<pdfrwt beam="1">  1       21 0.11382422E-02 0.13222257E+03</pdfrwt>
<pdfrwt beam="2">  1       21 0.17112349E+00 0.13222257E+03</pdfrwt>
<totfact> 0.65073700E+05</totfact>
</mgrwt>
</event>
<event>
 6    1  0.4244577E-002  0.1284043E+03  0.7546771E-02  0.1229843E+00
         21   -1    0    0  503  502  0.00000000000E+00  0.00000000000E+00  0.86292822850E+02  0.86292822850E+02  0.00000000000E+00 0.  1.
         21   -1    0    0  504  503 -0.00000000000E+00 -0.00000000000E+00 -0.88901894987E+02  0.88901894987E+02  0.00000000000E+00 0.  1.
         25    2    1    2    0    0 -0.14625624381E+02  0.25468506853E+02  0.29427541496E+02  0.13173325970E+03  0.12500047114E+03 0.  0.
          5    1    3    3  501    0 -0.30818541549E+02 -0.20265489304E+02 -0.35157042516E+02  0.50955865201E+02  0.10000000000E+00 0. -1.
         -5    1    3    3    0  501  0.16192917168E+02  0.45733996156E+02  0.64584584012E+02  0.80777394504E+02  0.10000000000E+00 0. -1.
         21    1    1    2  504  502  0.14625624381E+02 -0.25468506853E+02 -0.32036613633E+02  0.43461458131E+02  0.00000000000E+00 0.  1.
<mgrwt>
<rscale>  1 0.12840433E+03</rscale>
<asrwt>0</asrwt>
<pdfrwt beam="1">  1       21 0.13275819E-01 0.12840433E+03</pdfrwt>
<pdfrwt beam="2">  1       21 0.13677215E-01 0.12840433E+03</pdfrwt>
<totfact> 0.22532897E+06</totfact>
</mgrwt>
</event>
<event>
 6    1  0.4244577E-002  0.1427289E+03  0.7546771E-02  0.1209703E+00
         21   -1    0    0  504  502  0.00000000000E+00  0.00000000000E+00  0.34141326071E+03  0.34141326071E+03  0.00000000000E+00 0. -1.
         21   -1    0    0  502  503 -0.00000000000E+00 -0.00000000000E+00 -0.45455253347E+02  0.45455253347E+02  0.00000000000E+00 0.  1.
         25    2    1    2    0    0 -0.33982413211E+02 -0.59940768740E+02  0.28271954402E+03  0.31670472656E+03  0.12499537227E+03 0.  0.
          5    1    3    3  501    0 -0.16527159928E+02 -0.74430046133E+02  0.28392842464E+03  0.29398697097E+03  0.10000000000E+00 0. -1.
         -5    1    3    3    0  501 -0.17455253283E+02  0.14489277393E+02 -0.12088806215E+01  0.22717755587E+02  0.10000000000E+00 0. -1.
         21    1    1    2  504  503  0.33982413211E+02  0.59940768740E+02  0.13238463347E+02  0.70163787501E+02  0.00000000000E+00 0.  1.
<mgrwt>
<rscale>  1 0.14272892E+03</rscale>
<asrwt>0</asrwt>
<pdfrwt beam="1">  1       21 0.52525116E-01 0.14272892E+03</pdfrwt>
<pdfrwt beam="2">  1       21 0.69931161E-02 0.14272892E+03</pdfrwt>
<totfact> 0.52456234E+05</totfact>
</mgrwt>
</event>
<event>
 6    1  0.4244577E-002  0.1595188E+03  0.7546771E-02  0.1189241E+00
         21   -1    0    0  504  502  0.00000000000E+00  0.00000000000E+00  0.78719318980E+02  0.78719318980E+02  0.00000000000E+00 0. -1.
         21   -1    0    0  502  503 -0.00000000000E+00 -0.00000000000E+00 -0.28756729898E+03  0.28756729898E+03  0.00000000000E+00 0. -1.
         25    2    1    2    0    0 -0.35411630650E+02 -0.92566235994E+02 -0.21415431775E+03  0.26703618294E+03  0.12499503812E+03 0.  0.
          5    1    3    3  501    0 -0.59284235672E+02  0.32465867388E+01 -0.98009230932E+02  0.11459048945E+03  0.10000000000E+00 0.  1.
         -5    1    3    3    0  501  0.23872605022E+02 -0.95812822732E+02 -0.11614508682E+03  0.15244569349E+03  0.10000000000E+00 0.  1.
         21    1    1    2  504  503  0.35411630650E+02  0.92566235994E+02  0.53063377543E+01  0.99250435020E+02  0.00000000000E+00 0. -1.
<mgrwt>
<rscale>  1 0.15951881E+03</rscale>
<asrwt>0</asrwt>
<pdfrwt beam="1">  1       21 0.12110664E-01 0.15951881E+03</pdfrwt>
<pdfrwt beam="2">  1       21 0.44241123E-01 0.15951881E+03</pdfrwt>
<totfact> 0.28560247E+05</totfact>
</mgrwt>
</event>
<event>
 6    1  0.4244577E-002  0.1360524E+03  0.7546771E-02  0.1218742E+00
         21   -1    0    0  503  502  0.00000000000E+00  0.00000000000E+00  0.10869244432E+04  0.10869244432E+04  0.00000000000E+00 0.  1.
         21   -1    0    0  504  503 -0.00000000000E+00 -0.00000000000E+00 -0.13171136902E+02  0.13171136902E+02  0.00000000000E+00 0.  1.
         25    2    1    2    0    0  0.23518066911E+02  0.48284749999E+02  0.36872643007E+03  0.39302598469E+03  0.12500291138E+03 0.  0.
          5    1    3    3  501    0  0.10753204456E+02 -0.12078222611E+02  0.30090648892E+03  0.30134073727E+03  0.10000000000E+00 0.  1.
         -5    1    3    3    0  501  0.12764862455E+02  0.60362972610E+02  0.67819941156E+02  0.91685247419E+02  0.10000000000E+00 0.  1.
         21    1    1    2  504  502 -0.23518066911E+02 -0.48284749999E+02  0.70502687624E+03  0.70706959543E+03  0.00000000000E+00 0.  1.
<mgrwt>
<rscale>  1 0.13605236E+03</rscale>
<asrwt>0</asrwt>
<pdfrwt beam="1">  1       21 0.16721907E+00 0.13605236E+03</pdfrwt>
<pdfrwt beam="2">  1       21 0.20263296E-02 0.13605236E+03</pdfrwt>
<totfact> 0.27503812E+05</totfact>
</mgrwt>
</event>
<event>
 6    1  0.4244577E-002  0.1316329E+03  0.7546771E-02  0.1225053E+00
         21   -1    0    0  503  502  0.00000000000E+00  0.00000000000E+00  0.15512811083E+02  0.15512811083E+02  0.00000000000E+00 0.  1.
         21   -1    0    0  504  503 -0.00000000000E+00 -0.00000000000E+00 -0.74815263246E+03  0.74815263246E+03  0.00000000000E+00 0.  1.
         25    2    1    2    0    0 -0.37494905896E+02  0.17179394818E+02 -0.28274912976E+03  0.31188824848E+03  0.12500483825E+03 0.  0.
          5    1    3    3  501    0  0.35068186918E+02  0.23039616284E+02 -0.18676013071E+03  0.19141566831E+03  0.10000000000E+00 0. -1.
         -5    1    3    3    0  501 -0.72563092814E+02 -0.58602214663E+01 -0.95988999052E+02  0.12047258017E+03  0.10000000000E+00 0. -1.
         21    1    1    2  504  502  0.37494905896E+02 -0.17179394818E+02 -0.44989069162E+03  0.45177719507E+03  0.00000000000E+00 0.  1.
<mgrwt>
<rscale>  1 0.13163286E+03</rscale>
<asrwt>0</asrwt>
<pdfrwt beam="1">  1       21 0.23865869E-02 0.13163286E+03</pdfrwt>
<pdfrwt beam="2">  1       21 0.11510038E+00 0.13163286E+03</pdfrwt>
<totfact> 0.54604270E+05</totfact>
</mgrwt>
</event>
<event>
 6    1  0.4244577E-002  0.1265316E+03  0.7546771E-02  0.1232695E+00
         21   -1    0    0  503  502  0.00000000000E+00  0.00000000000E+00  0.28262599912E+03  0.28262599912E+03  0.00000000000E+00 0. -1.
         21   -1    0    0  504  503 -0.00000000000E+00 -0.00000000000E+00 -0.10180087481E+04  0.10180087481E+04  0.00000000000E+00 0. -1.
         25    2    1    2    0    0  0.10175621475E+02  0.16797224620E+02  0.26836308241E+03  0.29669680886E+03  0.12499824945E+03 0.  0.
          5    1    3    3  501    0 -0.47768655247E+02  0.21466615351E+02  0.20103781565E+03  0.20774713794E+03  0.10000000000E+00 0.  1.
         -5    1    3    3    0  501  0.57944276723E+02 -0.46693907305E+01  0.67325266755E+02  0.88949670929E+02  0.10000000000E+00 0.  1.
         21    1    1    2  504  502 -0.10175621475E+02 -0.16797224620E+02 -0.10037458314E+04  0.10039379384E+04  0.00000000000E+00 0. -1.
<mgrwt>
<rscale>  1 0.12653163E+03</rscale>
<asrwt>0</asrwt>
<pdfrwt beam="1">  1       21 0.43480923E-01 0.12653163E+03</pdfrwt>
<pdfrwt beam="2">  1       21 0.15661673E+00 0.12653163E+03</pdfrwt>
<totfact> 0.14660550E+03</totfact>
</mgrwt>
</event>
<event>
 6    1  0.4244577E-002  0.1347428E+03  0.7546771E-02  0.1220583E+00
         21   -1    0    0  503  502  0.00000000000E+00  0.00000000000E+00  0.13305405232E+03  0.13305405232E+03  0.00000000000E+00 0.  1.
         21   -1    0    0  504  503 -0.00000000000E+00 -0.00000000000E+00 -0.99165044166E+03  0.99165044166E+03  0.00000000000E+00 0.  1.
         25    2    1    2    0    0  0.16887275848E+02  0.47384428498E+02  0.98109758213E+02  0.16667677156E+03  0.12500062948E+03 0.  0.
          5    1    3    3  501    0  0.33163062218E+02 -0.15335033360E+02 -0.12389184919E+02  0.38580485310E+02  0.10000000000E+00 0.  1.
         -5    1    3    3    0  501 -0.16275786369E+02  0.62719461858E+02  0.11049894313E+03  0.12809628625E+03  0.10000000000E+00 0.  1.
         21    1    1    2  504  502 -0.16887275848E+02 -0.47384428498E+02 -0.95670614756E+03  0.95802772242E+03  0.00000000000E+00 0.  1.
<mgrwt>
<rscale>  1 0.13474280E+03</rscale>
<asrwt>0</asrwt>
<pdfrwt beam="1">  1       21 0.20469854E-01 0.13474280E+03</pdfrwt>
<pdfrwt beam="2">  1       21 0.15256161E+00 0.13474280E+03</pdfrwt>
<totfact> 0.66588954E+03</totfact>
</mgrwt>
</event>
<event>
 6    1  0.4244577E-002  0.1270385E+03  0.7546771E-02  0.1231917E+00
         21   -1    0    0  503  502  0.00000000000E+00  0.00000000000E+00  0.45428801558E+03  0.45428801558E+03  0.00000000000E+00 0.  1.
         21   -1    0    0  504  503 -0.00000000000E+00 -0.00000000000E+00 -0.12551032422E+02  0.12551032422E+02  0.00000000000E+00 0.  1.
         25    2    1    2    0    0 -0.20096323541E+02 -0.10551020514E+02  0.35021100094E+03  0.37254062981E+03  0.12499435756E+03 0.  0.
          5    1    3    3  501    0 -0.16460423381E+02 -0.48764410317E+01  0.36013507979E+03  0.36054404850E+03  0.10000000000E+00 0.  1.
         -5    1    3    3    0  501 -0.36359001595E+01 -0.56745794821E+01 -0.99240788420E+01  0.11996581310E+02  0.10000000000E+00 0.  1.
         21    1    1    2  504  502  0.20096323541E+02  0.10551020514E+02  0.91525982218E+02  0.94298418198E+02  0.00000000000E+00 0.  1.
<mgrwt>
<rscale>  1 0.12703848E+03</rscale>
<asrwt>0</asrwt>
<pdfrwt beam="1">  1       21 0.69890451E-01 0.12703848E+03</pdfrwt>
<pdfrwt beam="2">  1       21 0.19309284E-02 0.12703848E+03</pdfrwt>
<totfact> 0.24111088E+06</totfact>
</mgrwt>
</event>
<event>
 6    1  0.4244577E-002  0.1515912E+03  0.7546771E-02  0.1198531E+00
         21   -1    0    0  504  502  0.00000000000E+00  0.00000000000E+00  0.63209136414E+02  0.63209136414E+02  0.00000000000E+00 0. -1.
         21   -1    0    0  502  503 -0.00000000000E+00 -0.00000000000E+00 -0.22636573477E+03  0.22636573477E+03  0.00000000000E+00 0. -1.
         25    2    1    2    0    0  0.78989615291E+02 -0.33401957322E+02 -0.86421124569E+02  0.17449497279E+03  0.12499933872E+03 0.  0.
          5    1    3    3  501    0  0.99964950007E+02 -0.57886358975E+02 -0.50052500133E+02  0.12589314737E+03  0.10000000000E+00 0. -1.
         -5    1    3    3    0  501 -0.20975334716E+02  0.24484401653E+02 -0.36368624436E+02  0.48601825420E+02  0.10000000000E+00 0. -1.
         21    1    1    2  504  503 -0.78989615291E+02  0.33401957322E+02 -0.76735473785E+02  0.11507989839E+03  0.00000000000E+00 0. -1.
<mgrwt>
<rscale>  1 0.15159118E+03</rscale>
<asrwt>0</asrwt>
<pdfrwt beam="1">  1       21 0.97244824E-02 0.15159118E+03</pdfrwt>
<pdfrwt beam="2">  1       21 0.34825498E-01 0.15159118E+03</pdfrwt>
<totfact> 0.68055247E+05</totfact>
</mgrwt>
</event>
<event>
 6    1  0.4244577E-002  0.1375096E+03  0.7546771E-02  0.1216720E+00
         21   -1    0    0  503  502  0.00000000000E+00  0.00000000000E+00  0.13811755970E+04  0.13811755970E+04  0.00000000000E+00 0. -1.
         21   -1    0    0  504  503 -0.00000000000E+00 -0.00000000000E+00 -0.80832830483E+01  0.80832830483E+01  0.00000000000E+00 0. -1.
         25    2    1    2    0    0  0.57114658714E+02  0.60736842778E+01  0.11746562093E+04  0.11826775123E+04  0.12493964191E+03 0.  0.
          5    1    3    3  501    0  0.95465491028E+02  0.14079148601E+02  0.91638109945E+03  0.92144788883E+03  0.10000000000E+00 0.  1.
         -5    1    3    3    0  501 -0.38350832315E+02 -0.80054643234E+01  0.25827510987E+03  0.26122962347E+03  0.10000000000E+00 0.  1.
         21    1    1    2  504  502 -0.57114658714E+02 -0.60736842778E+01  0.19843610467E+03  0.20658136779E+03  0.00000000000E+00 0. -1.
<mgrwt>
<rscale>  1 0.13750959E+03</rscale>
<asrwt>0</asrwt>
<pdfrwt beam="1">  1       21 0.21248837E+00 0.13750959E+03</pdfrwt>
<pdfrwt beam="2">  1       21 0.12435831E-02 0.13750959E+03</pdfrwt>
<totfact> 0.30486844E+05</totfact>
</mgrwt>
</event>
<event>
 6    1  0.4244577E-002  0.1270920E+03  0.7546771E-02  0.1231836E+00
         21   -1    0    0  503  502  0.00000000000E+00  0.00000000000E+00  0.25866465500E+02  0.25866465500E+02  0.00000000000E+00 0. -1.
         21   -1    0    0  504  503 -0.00000000000E+00 -0.00000000000E+00 -0.39744874953E+03  0.39744874953E+03  0.00000000000E+00 0. -1.
         25    2    1    2    0    0 -0.45102334296E+01  0.22517867752E+02 -0.13421873075E+03  0.18484330263E+03  0.12499992909E+03 0.  0.
          5    1    3    3  501    0  0.33614343668E+02 -0.39221464720E+02 -0.75599711784E+02  0.91561857871E+02  0.10000000000E+00 0. -1.
         -5    1    3    3    0  501 -0.38124577098E+02  0.61739332473E+02 -0.58619018962E+02  0.93281444763E+02  0.10000000000E+00 0. -1.
         21    1    1    2  504  502  0.45102334296E+01 -0.22517867752E+02 -0.23736355329E+03  0.23847191240E+03  0.00000000000E+00 0. -1.
<mgrwt>
<rscale>  1 0.12709201E+03</rscale>
<asrwt>0</asrwt>
<pdfrwt beam="1">  1       21 0.39794562E-02 0.12709201E+03</pdfrwt>
<pdfrwt beam="2">  1       21 0.61145962E-01 0.12709201E+03</pdfrwt>
<totfact> 0.98612202E+05</totfact>
</mgrwt>
</event>
<event>
 6    1  0.4244577E-002  0.1396320E+03  0.7546771E-02  0.1213825E+00
         21   -1    0    0  503  502  0.00000000000E+00  0.00000000000E+00  0.41886546473E+02  0.41886546473E+02  0.00000000000E+00 0.  1.
         21   -1    0    0  504  503 -0.00000000000E+00 -0.00000000000E+00 -0.29620868297E+03  0.29620868297E+03  0.00000000000E+00 0.  1.
         25    2    1    2    0    0  0.34357380598E+02 -0.51890309677E+02 -0.10014540440E+03  0.17183188845E+03  0.12499624804E+03 0.  0.
          5    1    3    3  501    0  0.81689549986E+02 -0.29796924428E+02 -0.69107623166E+02  0.11107165643E+03  0.10000000000E+00 0.  1.
         -5    1    3    3    0  501 -0.47332169388E+02 -0.22093385249E+02 -0.31037781238E+02  0.60760232018E+02  0.10000000000E+00 0.  1.
         21    1    1    2  504  502 -0.34357380598E+02  0.51890309677E+02 -0.15417673210E+03  0.16626334100E+03  0.00000000000E+00 0.  1.
<mgrwt>
<rscale>  1 0.13963200E+03</rscale>
<asrwt>0</asrwt>
<pdfrwt beam="1">  1       21 0.64440842E-02 0.13963200E+03</pdfrwt>
<pdfrwt beam="2">  1       21 0.45570565E-01 0.13963200E+03</pdfrwt>
<totfact> 0.80867658E+05</totfact>
</mgrwt>
</event>
<event>
 6    1  0.4244577E-002  0.1260324E+03  0.7546771E-02  0.1233465E+00
         21   -1    0    0  504  502  0.00000000000E+00  0.00000000000E+00  0.50418505614E+02  0.50418505614E+02  0.00000000000E+00 0.  1.
         21   -1    0    0  502  503 -0.00000000000E+00 -0.00000000000E+00 -0.13227885482E+03  0.13227885482E+03  0.00000000000E+00 0.  1.
         25    2    1    2    0    0 -0.33796860262E+01 -0.15746370854E+02 -0.31619399623E+02  0.12993825233E+03  0.12499917005E+03 0.  0.
          5    1    3    3  501    0 -0.82377896177E+01 -0.44114862795E+01 -0.79728141164E+02  0.80273961423E+02  0.10000000000E+00 0. -1.
         -5    1    3    3    0  501  0.48581035915E+01 -0.11334884574E+02  0.48108741541E+02  0.49664290909E+02  0.10000000000E+00 0. -1.
         21    1    1    2  504  503  0.33796860262E+01  0.15746370854E+02 -0.50240949586E+02  0.52759108105E+02  0.00000000000E+00 0.  1.
<mgrwt>
<rscale>  1 0.12603239E+03</rscale>
<asrwt>0</asrwt>
<pdfrwt beam="1">  1       21 0.77566933E-02 0.12603239E+03</pdfrwt>
<pdfrwt beam="2">  1       21 0.20350593E-01 0.12603239E+03</pdfrwt>
<totfact> 0.28010679E+06</totfact>
</mgrwt>
</event>
<event>
 6    1  0.4244577E-002  0.1263965E+03  0.7546771E-02  0.1232903E+00
         21   -1    0    0  503  502  0.00000000000E+00  0.00000000000E+00  0.67420847414E+01  0.67420847414E+01  0.00000000000E+00 0. -1.
         21   -1    0    0  504  503 -0.00000000000E+00 -0.00000000000E+00 -0.86258437818E+03  0.86258437818E+03  0.00000000000E+00 0. -1.
         25    2    1    2    0    0 -0.24160513385E+00  0.18750225804E+02 -0.62076030569E+03  0.63349777445E+03  0.12499777509E+03 0.  0.
          5    1    3    3  501    0  0.44829725789E+02 -0.11347283524E+02 -0.10295214350E+03  0.11286106064E+03  0.10000000000E+00 0.  1.
         -5    1    3    3    0  501 -0.45071330923E+02  0.30097509328E+02 -0.51780816219E+03  0.52063671382E+03  0.10000000000E+00 0.  1.
         21    1    1    2  504  502  0.24160513385E+00 -0.18750225804E+02 -0.23508198775E+03  0.23582868847E+03  0.00000000000E+00 0. -1.
<mgrwt>
<rscale>  1 0.12639649E+03</rscale>
<asrwt>0</asrwt>
<pdfrwt beam="1">  1       21 0.10372440E-02 0.12639649E+03</pdfrwt>
<pdfrwt beam="2">  1       21 0.13270527E+00 0.12639649E+03</pdfrwt>
<totfact> 0.14608995E+06</totfact>
</mgrwt>
</event>
<event>
 6    1  0.4244577E-002  0.1567624E+03  0.7546771E-02  0.1192401E+00
         21   -1    0    0  503  502  0.00000000000E+00  0.00000000000E+00  0.18383270674E+02  0.18383270674E+02  0.00000000000E+00 0.  1.
         21   -1    0    0  504  503 -0.00000000000E+00 -0.00000000000E+00 -0.86083207533E+03  0.86083207533E+03  0.00000000000E+00 0.  1.
         25    2    1    2    0    0 -0.23236291166E+02  0.91694696411E+02 -0.50665670132E+03  0.53035408527E+03  0.12500640062E+03 0.  0.
          5    1    3    3  501    0 -0.61089029804E+02  0.91234070513E+01 -0.26724467646E+03  0.27428968849E+03  0.10000000000E+00 0.  1.
         -5    1    3    3    0  501  0.37852738639E+02  0.82571289359E+02 -0.23941202486E+03  0.25606439678E+03  0.10000000000E+00 0.  1.
         21    1    1    2  504  502  0.23236291166E+02 -0.91694696411E+02 -0.33579210334E+03  0.34886126074E+03  0.00000000000E+00 0.  1.
<mgrwt>
<rscale>  1 0.15676238E+03</rscale>
<asrwt>0</asrwt>
<pdfrwt beam="1">  1       21 0.28281956E-02 0.15676238E+03</pdfrwt>
<pdfrwt beam="2">  1       21 0.13243570E+00 0.15676238E+03</pdfrwt>
<totfact> 0.29108451E+05</totfact>
</mgrwt>
</event>
<event>
 6    1  0.4244577E-002  0.1993402E+03  0.7546771E-02  0.1150297E+00
         21   -1    0    0  503  502  0.00000000000E+00  0.00000000000E+00  0.94197718888E+02  0.94197718888E+02  0.00000000000E+00 0. -1.
         21   -1    0    0  504  503 -0.00000000000E+00 -0.00000000000E+00 -0.41490719387E+03  0.41490719387E+03  0.00000000000E+00 0. -1.
         25    2    1    2    0    0  0.15503973470E+03  0.85996585093E+01 -0.28826149554E+03  0.35047280746E+03  0.12500090198E+03 0.  0.
          5    1    3    3  501    0  0.14109810676E+03 -0.94554767169E+01 -0.29461181653E+03  0.32679384054E+03  0.10000000000E+00 0.  1.
         -5    1    3    3    0  501  0.13941627944E+02  0.18055135226E+02  0.63503209958E+01  0.23678966922E+02  0.10000000000E+00 0.  1.
         21    1    1    2  504  502 -0.15503973470E+03 -0.85996585093E+01 -0.32447979449E+02  0.15863210530E+03  0.00000000000E+00 0. -1.
<mgrwt>
<rscale>  1 0.19934016E+03</rscale>
<asrwt>0</asrwt>
<pdfrwt beam="1">  1       21 0.14491957E-01 0.19934016E+03</pdfrwt>
<pdfrwt beam="2">  1       21 0.63831876E-01 0.19934016E+03</pdfrwt>
<totfact> 0.94421458E+04</totfact>
</mgrwt>
</event>
<event>
 6    1  0.4244577E-002  0.1479869E+03  0.7546771E-02  0.1202969E+00
         21   -1    0    0  503  502  0.00000000000E+00  0.00000000000E+00  0.13541717106E+03  0.13541717106E+03  0.00000000000E+00 0. -1.
         21   -1    0    0  504  503 -0.00000000000E+00 -0.00000000000E+00 -0.14854036556E+03  0.14854036556E+03  0.00000000000E+00 0. -1.
         25    2    1    2    0    0 -0.78826808898E+02  0.78363820880E+01  0.74628864715E+02  0.16573952369E+03  0.12500019031E+03 0.  0.
          5    1    3    3  501    0 -0.23784871104E+02  0.14797219274E+02 -0.33825217218E+02  0.43918482573E+02  0.10000000000E+00 0.  1.
         -5    1    3    3    0  501 -0.55041937794E+02 -0.69608371862E+01  0.10845408193E+03  0.12182104112E+03  0.10000000000E+00 0.  1.
         21    1    1    2  504  502  0.78826808898E+02 -0.78363820880E+01 -0.87752059220E+02  0.11821801294E+03  0.00000000000E+00 0. -1.
<mgrwt>
<rscale>  1 0.14798690E+03</rscale>
<asrwt>0</asrwt>
<pdfrwt beam="1">  1       21 0.20833411E-01 0.14798690E+03</pdfrwt>
<pdfrwt beam="2">  1       21 0.22852364E-01 0.14798690E+03</pdfrwt>
<totfact> 0.38731911E+05</totfact>
</mgrwt>
</event>
<event>
 6    1  0.4244577E-002  0.1313036E+03  0.7546771E-02  0.1225534E+00
         21   -1    0    0  504  502  0.00000000000E+00  0.00000000000E+00  0.63285903936E+02  0.63285903936E+02  0.00000000000E+00 0. -1.
         21   -1    0    0  502  503 -0.00000000000E+00 -0.00000000000E+00 -0.20051406156E+03  0.20051406156E+03  0.00000000000E+00 0. -1.
         25    2    1    2    0    0  0.39154962629E+02 -0.90780752122E+01 -0.11503242435E+02  0.13180649275E+03  0.12500041759E+03 0.  0.
          5    1    3    3  501    0 -0.14522502803E+02  0.29064586500E+02  0.37578899640E+02  0.49677328574E+02  0.10000000000E+00 0.  1.
         -5    1    3    3    0  501  0.53677465432E+02 -0.38142661712E+02 -0.49082142075E+02  0.82129164177E+02  0.10000000000E+00 0.  1.
         21    1    1    2  504  503 -0.39154962629E+02  0.90780752122E+01 -0.12572491519E+03  0.13199347275E+03  0.00000000000E+00 0. -1.
<mgrwt>
<rscale>  1 0.13130357E+03</rscale>
<asrwt>0</asrwt>
<pdfrwt beam="1">  1       21 0.97362930E-02 0.13130357E+03</pdfrwt>
<pdfrwt beam="2">  1       21 0.30848317E-01 0.13130357E+03</pdfrwt>
<totfact> 0.86086790E+05</totfact>
</mgrwt>
</event>
<event>
 6    1  0.4244577E-002  0.1271955E+03  0.7546771E-02  0.1231677E+00
         21   -1    0    0  503  502  0.00000000000E+00  0.00000000000E+00  0.82471642445E+03  0.82471642445E+03  0.00000000000E+00 0.  1.
         21   -1    0    0  504  503 -0.00000000000E+00 -0.00000000000E+00 -0.75117149880E+01  0.75117149880E+01  0.00000000000E+00 0.  1.
         25    2    1    2    0    0  0.12542236459E+02 -0.19447614040E+02  0.75913526230E+03  0.76971751569E+03  0.12507273928E+03 0.  0.
          5    1    3    3  501    0  0.39632100141E+02  0.35071382618E+02  0.52990107336E+03  0.53253719380E+03  0.10000000000E+00 0.  1.
         -5    1    3    3    0  501 -0.27089863682E+02 -0.54518996658E+02  0.22923418894E+03  0.23718032189E+03  0.10000000000E+00 0.  1.
         21    1    1    2  504  502 -0.12542236459E+02  0.19447614040E+02  0.58069447163E+02  0.62510623746E+02  0.00000000000E+00 0.  1.
<mgrwt>
<rscale>  1 0.12719555E+03</rscale>
<asrwt>0</asrwt>
<pdfrwt beam="1">  1       21 0.12687938E+00 0.12719555E+03</pdfrwt>
<pdfrwt beam="2">  1       21 0.11556491E-02 0.12719555E+03</pdfrwt>
<totfact> 0.13768336E+06</totfact>
</mgrwt>
</event>
<event>
 6    1  0.4244577E-002  0.1281775E+03  0.7546771E-02  0.1230185E+00
         21   -1    0    0  503  502  0.00000000000E+00  0.00000000000E+00  0.40965331880E+02  0.40965331880E+02  0.00000000000E+00 0. -1.
         21   -1    0    0  504  503 -0.00000000000E+00 -0.00000000000E+00 -0.17687599682E+03  0.17687599682E+03  0.00000000000E+00 0. -1.
         25    2    1    2    0    0 -0.27338752791E+02 -0.75418957418E+01 -0.69904160467E+02  0.14600021075E+03  0.12500072917E+03 0.  0.
          5    1    3    3  501    0 -0.44047849532E+02 -0.43193706517E+02  0.44627700909E+01  0.61853339829E+02  0.10000000000E+00 0. -1.
         -5    1    3    3    0  501  0.16709096741E+02  0.35651810775E+02 -0.74366930558E+02  0.84146870923E+02  0.10000000000E+00 0. -1.
         21    1    1    2  504  502  0.27338752791E+02  0.75418957418E+01 -0.66006504475E+02  0.71841117952E+02  0.00000000000E+00 0. -1.
<mgrwt>
<rscale>  1 0.12817749E+03</rscale>
<asrwt>0</asrwt>
<pdfrwt beam="1">  1       21 0.63023588E-02 0.12817749E+03</pdfrwt>
<pdfrwt beam="2">  1       21 0.27211692E-01 0.12817749E+03</pdfrwt>
<totfact> 0.23164939E+06</totfact>
</mgrwt>
</event>
<event>
 6    1  0.4244577E-002  0.1287448E+03  0.7546771E-02  0.1229330E+00
         21   -1    0    0  503  502  0.00000000000E+00  0.00000000000E+00  0.15268587802E+03  0.15268587802E+03  0.00000000000E+00 0. -1.
         21   -1    0    0  504  503 -0.00000000000E+00 -0.00000000000E+00 -0.41801639212E+02  0.41801639212E+02  0.00000000000E+00 0. -1.
         25    2    1    2    0    0  0.26621961246E+02 -0.15548200056E+02  0.93281153976E+02  0.15898619414E+03  0.12499904358E+03 0.  0.
          5    1    3    3  501    0  0.68820130439E+01 -0.40712441296E+02  0.11375125267E+03  0.12101331523E+03  0.10000000000E+00 0.  1.
         -5    1    3    3    0  501  0.19739948202E+02  0.25164241240E+02 -0.20470098692E+02  0.37972878909E+02  0.10000000000E+00 0.  1.
         21    1    1    2  504  502 -0.26621961246E+02  0.15548200056E+02  0.17603084831E+02  0.35501323090E+02  0.00000000000E+00 0. -1.
<mgrwt>
<rscale>  1 0.12874485E+03</rscale>
<asrwt>0</asrwt>
<pdfrwt beam="1">  1       21 0.23490135E-01 0.12874485E+03</pdfrwt>
<pdfrwt beam="2">  1       21 0.64310215E-02 0.12874485E+03</pdfrwt>
<totfact> 0.29566179E+06</totfact>
</mgrwt>
</event>
<event>
 6    1  0.4244577E-002  0.1483057E+03  0.7546771E-02  0.1202571E+00
         21   -1    0    0  503  502  0.00000000000E+00  0.00000000000E+00  0.77239897281E+02  0.77239897281E+02  0.00000000000E+00 0.  1.
         21   -1    0    0  504  503 -0.00000000000E+00 -0.00000000000E+00 -0.20573409692E+03  0.20573409692E+03  0.00000000000E+00 0.  1.
         25    2    1    2    0    0 -0.66976264107E+02 -0.43450767446E+02 -0.22078886990E+02  0.14994013418E+03  0.12498310863E+03 0.  0.
          5    1    3    3  501    0 -0.44730886296E+02 -0.74832654383E+02 -0.51727671338E+02  0.10137327228E+03  0.10000000000E+00 0. -1.
         -5    1    3    3    0  501 -0.22245377810E+02  0.31381886937E+02  0.29648784348E+02  0.48566861902E+02  0.10000000000E+00 0. -1.
         21    1    1    2  504  502  0.66976264107E+02  0.43450767446E+02 -0.10641531265E+03  0.13303386002E+03  0.00000000000E+00 0.  1.
<mgrwt>
<rscale>  1 0.14830565E+03</rscale>
<asrwt>0</asrwt>
<pdfrwt beam="1">  1       21 0.11883061E-01 0.14830565E+03</pdfrwt>
<pdfrwt beam="2">  1       21 0.31651399E-01 0.14830565E+03</pdfrwt>
<totfact> 0.57627736E+05</totfact>
</mgrwt>
</event>
<event>
 6    1  0.4244577E-002  0.1271150E+03  0.7546771E-02  0.1231800E+00
         21   -1    0    0  504  502  0.00000000000E+00  0.00000000000E+00  0.32571570890E+02  0.32571570890E+02  0.00000000000E+00 0. -1.
         21   -1    0    0  502  503 -0.00000000000E+00 -0.00000000000E+00 -0.98166163857E+03  0.98166163857E+03  0.00000000000E+00 0. -1.
         25    2    1    2    0    0 -0.79561072769E+01 -0.21629968794E+02 -0.92197002208E+02  0.15703026917E+03  0.12500825183E+03 0.  0.
          5    1    3    3  501    0 -0.45726844119E+01  0.46068169630E+02 -0.73243374970E+02  0.86647490862E+02  0.10000000000E+00 0.  1.
         -5    1    3    3    0  501 -0.33834228650E+01 -0.67698138423E+02 -0.18953627238E+02  0.70382778304E+02  0.10000000000E+00 0.  1.
         21    1    1    2  504  503  0.79561072769E+01  0.21629968794E+02 -0.85689306547E+03  0.85720294030E+03  0.00000000000E+00 0. -1.
<mgrwt>
<rscale>  1 0.12711498E+03</rscale>
<asrwt>0</asrwt>
<pdfrwt beam="1">  1       21 0.50110112E-02 0.12711498E+03</pdfrwt>
<pdfrwt beam="2">  1       21 0.15102486E+00 0.12711498E+03</pdfrwt>
<totfact> 0.81488443E+04</totfact>
</mgrwt>
</event>
<event>
 6    1  0.4244577E-002  0.1293489E+03  0.7546771E-02  0.1228425E+00
         21   -1    0    0  503  502  0.00000000000E+00  0.00000000000E+00  0.30297517526E+03  0.30297517526E+03  0.00000000000E+00 0. -1.
         21   -1    0    0  504  503 -0.00000000000E+00 -0.00000000000E+00 -0.31662396048E+02  0.31662396048E+02  0.00000000000E+00 0. -1.
         25    2    1    2    0    0 -0.22541427018E+02 -0.24282279493E+02  0.27233228755E+03  0.30148965392E+03  0.12503356171E+03 0.  0.
          5    1    3    3  501    0 -0.66747675271E+02 -0.50238704860E+01  0.85776980797E+02  0.10880345520E+03  0.10000000000E+00 0. -1.
         -5    1    3    3    0  501  0.44206248254E+02 -0.19258409007E+02  0.18655530675E+03  0.19268619872E+03  0.10000000000E+00 0. -1.
         21    1    1    2  504  502  0.22541427018E+02  0.24282279493E+02 -0.10195083386E+01  0.33147917380E+02  0.00000000000E+00 0. -1.
<mgrwt>
<rscale>  1 0.12934889E+03</rscale>
<asrwt>0</asrwt>
<pdfrwt beam="1">  1       21 0.46611563E-01 0.12934889E+03</pdfrwt>
<pdfrwt beam="2">  1       21 0.48711381E-02 0.12934889E+03</pdfrwt>
<totfact> 0.12391895E+06</totfact>
</mgrwt>
</event>
<event>
 6    1  0.4244577E-002  0.1261398E+03  0.7546771E-02  0.1233299E+00
         21   -1    0    0  503  502  0.00000000000E+00  0.00000000000E+00  0.10803626816E+04  0.10803626816E+04  0.00000000000E+00 0.  1.
         21   -1    0    0  504  503 -0.00000000000E+00 -0.00000000000E+00 -0.22584190205E+02  0.22584190205E+02  0.00000000000E+00 0.  1.
         25    2    1    2    0    0 -0.53428283166E+01  0.16069544843E+02  0.10728722944E+04  0.10802620977E+04  0.12499785467E+03 0.  0.
          5    1    3    3  501    0 -0.13337303626E+02  0.29494036745E+02  0.10586158572E+04  0.10591106292E+04  0.10000000000E+00 0.  1.
         -5    1    3    3    0  501  0.79944753097E+01 -0.13424491902E+02  0.14256437194E+02  0.21151468502E+02  0.10000000000E+00 0.  1.
         21    1    1    2  504  502  0.53428283166E+01 -0.16069544843E+02 -0.15093802986E+02  0.22684774067E+02  0.00000000000E+00 0.  1.
<mgrwt>
<rscale>  1 0.12613976E+03</rscale>
<asrwt>0</asrwt>
<pdfrwt beam="1">  1       21 0.16620960E+00 0.12613976E+03</pdfrwt>
<pdfrwt beam="2">  1       21 0.34744916E-02 0.12613976E+03</pdfrwt>
<totfact> 0.11647706E+05</totfact>
</mgrwt>
</event>
<event>
 6    1  0.4244577E-002  0.1260642E+03  0.7546771E-02  0.1233415E+00
         21   -1    0    0  503  502  0.00000000000E+00  0.00000000000E+00  0.47386582200E+01  0.47386582200E+01  0.00000000000E+00 0.  1.
         21   -1    0    0  504  503 -0.00000000000E+00 -0.00000000000E+00 -0.12776977652E+04  0.12776977652E+04  0.00000000000E+00 0.  1.
         25    2    1    2    0    0  0.12350749017E+02  0.10743332157E+02 -0.86385448358E+03  0.87300443509E+03  0.12499685870E+03 0.  0.
          5    1    3    3  501    0  0.47839023508E+01  0.26601128181E+02 -0.36268001928E+02  0.45231445987E+02  0.10000000000E+00 0.  1.
         -5    1    3    3    0  501  0.75668466660E+01 -0.15857796023E+02 -0.82758648166E+03  0.82777298910E+03  0.10000000000E+00 0.  1.
         21    1    1    2  504  502 -0.12350749017E+02 -0.10743332157E+02 -0.40910462336E+03  0.40943198830E+03  0.00000000000E+00 0.  1.
<mgrwt>
<rscale>  1 0.12606417E+03</rscale>
<asrwt>0</asrwt>
<pdfrwt beam="1">  1       21 0.72902401E-03 0.12606417E+03</pdfrwt>
<pdfrwt beam="2">  1       21 0.19656898E+00 0.12606417E+03</pdfrwt>
<totfact> 0.89197395E+05</totfact>
</mgrwt>
</event>
<event>
 6    1  0.4244577E-002  0.1296832E+03  0.7546771E-02  0.1227926E+00
         21   -1    0    0  504  502  0.00000000000E+00  0.00000000000E+00  0.10891277949E+03  0.10891277949E+03  0.00000000000E+00 0.  1.
         21   -1    0    0  502  503 -0.00000000000E+00 -0.00000000000E+00 -0.86551552019E+02  0.86551552019E+02  0.00000000000E+00 0.  1.
         25    2    1    2    0    0 -0.26053453518E+02  0.22652505673E+02  0.61285607825E+02  0.14343524503E+03  0.12500330131E+03 0.  0.
          5    1    3    3  501    0  0.92240160221E+01 -0.11200352275E+02 -0.33652178846E+02  0.36647094070E+02  0.10000000000E+00 0. -1.
         -5    1    3    3    0  501 -0.35277469540E+02  0.33852857948E+02  0.94937786671E+02  0.10678815096E+03  0.10000000000E+00 0. -1.
         21    1    1    2  504  503  0.26053453518E+02 -0.22652505673E+02 -0.38924380354E+02  0.52029086475E+02  0.00000000000E+00 0.  1.
<mgrwt>
<rscale>  1 0.12968324E+03</rscale>
<asrwt>0</asrwt>
<pdfrwt beam="1">  1       21 0.16755812E-01 0.12968324E+03</pdfrwt>
<pdfrwt beam="2">  1       21 0.13315623E-01 0.12968324E+03</pdfrwt>
<totfact> 0.15543099E+06</totfact>
</mgrwt>
</event>
<event>
 6    1  0.4244577E-002  0.1270754E+03  0.7546771E-02  0.1231861E+00
         21   -1    0    0  503  502  0.00000000000E+00  0.00000000000E+00  0.17428507602E+03  0.17428507602E+03  0.00000000000E+00 0.  1.
         21   -1    0    0  504  503 -0.00000000000E+00 -0.00000000000E+00 -0.68982998547E+02  0.68982998547E+02  0.00000000000E+00 0.  1.
         25    2    1    2    0    0 -0.22707017106E+02 -0.30342518197E+01  0.14784324225E+03  0.19495072768E+03  0.12499338637E+03 0.  0.
          5    1    3    3  501    0  0.22467882054E+02 -0.51111537188E+02  0.95965425369E+02  0.11102507746E+03  0.10000000000E+00 0.  1.
         -5    1    3    3    0  501 -0.45174899160E+02  0.48077285368E+02  0.51877816877E+02  0.83925650229E+02  0.10000000000E+00 0.  1.
         21    1    1    2  504  502  0.22707017106E+02  0.30342518197E+01 -0.42541164771E+02  0.48317346885E+02  0.00000000000E+00 0.  1.
<mgrwt>
<rscale>  1 0.12707542E+03</rscale>
<asrwt>0</asrwt>
<pdfrwt beam="1">  1       21 0.26813088E-01 0.12707542E+03</pdfrwt>
<pdfrwt beam="2">  1       21 0.10612769E-01 0.12707542E+03</pdfrwt>
<totfact> 0.96862199E+05</totfact>
</mgrwt>
</event>
<event>
 6    1  0.4244577E-002  0.1261206E+03  0.7546771E-02  0.1233328E+00
         21   -1    0    0  504  502  0.00000000000E+00  0.00000000000E+00  0.24967459817E+03  0.24967459817E+03  0.00000000000E+00 0. -1.
         21   -1    0    0  502  503 -0.00000000000E+00 -0.00000000000E+00 -0.20544777102E+02  0.20544777102E+02  0.00000000000E+00 0. -1.
         25    2    1    2    0    0 -0.14111549411E+02 -0.90280318542E+01  0.19556110532E+03  0.23270271414E+03  0.12500306423E+03 0.  0.
          5    1    3    3  501    0  0.44439151545E+02  0.16967392973E+02  0.14014527647E+03  0.14799810516E+03  0.10000000000E+00 0. -1.
         -5    1    3    3    0  501 -0.58550700957E+02 -0.25995424827E+02  0.55415828854E+02  0.84704608977E+02  0.10000000000E+00 0. -1.
         21    1    1    2  504  503  0.14111549411E+02  0.90280318542E+01  0.33568715747E+02  0.37516661136E+02  0.00000000000E+00 0. -1.
<mgrwt>
<rscale>  1 0.12612061E+03</rscale>
<asrwt>0</asrwt>
<pdfrwt beam="1">  1       21 0.38411475E-01 0.12612061E+03</pdfrwt>
<pdfrwt beam="2">  1       21 0.31607351E-02 0.12612061E+03</pdfrwt>
<totfact> 0.37484136E+06</totfact>
</mgrwt>
</event>
<event>
 6    1  0.4244577E-002  0.1338863E+03  0.7546771E-02  0.1221800E+00
         21   -1    0    0  504  502  0.00000000000E+00  0.00000000000E+00  0.89078133441E+02  0.89078133441E+02  0.00000000000E+00 0. -1.
         21   -1    0    0  502  503 -0.00000000000E+00 -0.00000000000E+00 -0.93966403948E+02  0.93966403948E+02  0.00000000000E+00 0. -1.
         25    2    1    2    0    0 -0.22554870159E+01 -0.47904046411E+02  0.54042573108E+01  0.13399536805E+03  0.12500267108E+03 0.  0.
          5    1    3    3  501    0 -0.32060925758E+02 -0.36477606258E+02  0.56029129955E+02  0.74147097868E+02  0.10000000000E+00 0.  1.
         -5    1    3    3    0  501  0.29805438742E+02 -0.11426440153E+02 -0.50624872644E+02  0.59848270179E+02  0.10000000000E+00 0.  1.
         21    1    1    2  504  503  0.22554870159E+01  0.47904046411E+02 -0.10292527818E+02  0.49049169342E+02  0.00000000000E+00 0. -1.
<mgrwt>
<rscale>  1 0.13388634E+03</rscale>
<asrwt>0</asrwt>
<pdfrwt beam="1">  1       21 0.13704328E-01 0.13388634E+03</pdfrwt>
<pdfrwt beam="2">  1       21 0.14456370E-01 0.13388634E+03</pdfrwt>
<totfact> 0.19296779E+06</totfact>
</mgrwt>
</event>
<event>
 6    1  0.4244577E-002  0.1946938E+03  0.7546771E-02  0.1154295E+00
         21   -1    0    0  504  502  0.00000000000E+00  0.00000000000E+00  0.16681284153E+04  0.16681284153E+04  0.00000000000E+00 0. -1.
         21   -1    0    0  502  503 -0.00000000000E+00 -0.00000000000E+00 -0.12963786736E+03  0.12963786736E+03  0.00000000000E+00 0.  1.
         25    2    1    2    0    0  0.11861981346E+03  0.90607949254E+02  0.16172970486E+04  0.16289737320E+04  0.12500086212E+03 0.  0.
          5    1    3    3  501    0  0.35908185906E+02  0.81251863299E+02  0.44828235287E+03  0.45699927900E+03  0.10000000000E+00 0.  1.
         -5    1    3    3    0  501  0.82711627555E+02  0.93560859549E+01  0.11690146957E+04  0.11719744530E+04  0.10000000000E+00 0.  1.
         21    1    1    2  504  503 -0.11861981346E+03 -0.90607949254E+02 -0.78806500652E+02  0.16879255066E+03  0.00000000000E+00 0.  1.
<mgrwt>
<rscale>  1 0.19469380E+03</rscale>
<asrwt>0</asrwt>
<pdfrwt beam="1">  1       21 0.25663513E+00 0.19469380E+03</pdfrwt>
<pdfrwt beam="2">  1       21 0.19944289E-01 0.19469380E+03</pdfrwt>
<totfact> 0.14072318E+03</totfact>
</mgrwt>
</event>
<event>
 6    1  0.4244577E-002  0.1853822E+03  0.7546771E-02  0.1162694E+00
         21   -1    0    0  504  502  0.00000000000E+00  0.00000000000E+00  0.24738482997E+03  0.24738482997E+03  0.00000000000E+00 0. -1.
         21   -1    0    0  502  503 -0.00000000000E+00 -0.00000000000E+00 -0.32995308854E+03  0.32995308854E+03  0.00000000000E+00 0. -1.
         25    2    1    2    0    0  0.98279019805E+02 -0.95305589770E+02  0.19425213031E+03  0.26851523658E+03  0.12499848388E+03 0.  0.
          5    1    3    3  501    0  0.94176993775E+02 -0.26129148313E+02  0.16809926635E+03  0.19444642423E+03  0.10000000000E+00 0.  1.
         -5    1    3    3    0  501  0.41020260294E+01 -0.69176441457E+02  0.26152863958E+02  0.74068812353E+02  0.10000000000E+00 0.  1.
         21    1    1    2  504  503 -0.98279019805E+02  0.95305589770E+02 -0.27682038888E+03  0.30882268193E+03  0.00000000000E+00 0. -1.
<mgrwt>
<rscale>  1 0.18538215E+03</rscale>
<asrwt>0</asrwt>
<pdfrwt beam="1">  1       21 0.38059205E-01 0.18538215E+03</pdfrwt>
<pdfrwt beam="2">  1       21 0.50762014E-01 0.18538215E+03</pdfrwt>
<totfact> 0.24681293E+04</totfact>
</mgrwt>
</event>
<event>
 6    1  0.4244577E-002  0.1279621E+03  0.7546771E-02  0.1230511E+00
         21   -1    0    0  503  502  0.00000000000E+00  0.00000000000E+00  0.43129059718E+03  0.43129059718E+03  0.00000000000E+00 0.  1.
         21   -1    0    0  504  503 -0.00000000000E+00 -0.00000000000E+00 -0.14532515778E+02  0.14532515778E+02  0.00000000000E+00 0.  1.
         25    2    1    2    0    0  0.22723072389E+02 -0.15259973815E+02  0.37162395439E+03  0.39303775286E+03  0.12500042750E+03 0.  0.
          5    1    3    3  501    0  0.40965118445E+02  0.42741976022E+02  0.11542621714E+03  0.12972370272E+03  0.10000000000E+00 0. -1.
         -5    1    3    3    0  501 -0.18242046056E+02 -0.58001949837E+02  0.25619773725E+03  0.26331405014E+03  0.10000000000E+00 0. -1.
         21    1    1    2  504  502 -0.22723072389E+02  0.15259973815E+02  0.45134127004E+02  0.52785360092E+02  0.00000000000E+00 0.  1.
<mgrwt>
<rscale>  1 0.12796215E+03</rscale>
<asrwt>0</asrwt>
<pdfrwt beam="1">  1       21 0.66352390E-01 0.12796215E+03</pdfrwt>
<pdfrwt beam="2">  1       21 0.22357720E-02 0.12796215E+03</pdfrwt>
<totfact> 0.21300081E+06</totfact>
</mgrwt>
</event>
<event>
 6    1  0.4244577E-002  0.1272932E+03  0.7546771E-02  0.1231528E+00
         21   -1    0    0  504  502  0.00000000000E+00  0.00000000000E+00  0.28726682510E+02  0.28726682510E+02  0.00000000000E+00 0.  1.
         21   -1    0    0  502  503 -0.00000000000E+00 -0.00000000000E+00 -0.66220926429E+03  0.66220926429E+03  0.00000000000E+00 0. -1.
         25    2    1    2    0    0  0.16350894167E+02 -0.17633986391E+02 -0.11394489717E+03  0.17084199861E+03  0.12500095872E+03 0.  0.
          5    1    3    3  501    0 -0.99270205777E+01  0.32158726749E+02 -0.10928261060E+03  0.11434783961E+03  0.10000000000E+00 0. -1.
         -5    1    3    3    0  501  0.26277914744E+02 -0.49792713140E+02 -0.46622865713E+01  0.56494159001E+02  0.10000000000E+00 0. -1.
         21    1    1    2  504  503 -0.16350894167E+02  0.17633986391E+02 -0.51953768461E+03  0.52009394819E+03  0.00000000000E+00 0. -1.
<mgrwt>
<rscale>  1 0.12729316E+03</rscale>
<asrwt>0</asrwt>
<pdfrwt beam="1">  1       21 0.44194897E-02 0.12729316E+03</pdfrwt>
<pdfrwt beam="2">  1       21 0.10187835E+00 0.12729316E+03</pdfrwt>
<totfact> 0.26508345E+05</totfact>
</mgrwt>
</event>
<event>
 6    1  0.4244577E-002  0.1261910E+03  0.7546771E-02  0.1233220E+00
         21   -1    0    0  503  502  0.00000000000E+00  0.00000000000E+00  0.16568732164E+02  0.16568732164E+02  0.00000000000E+00 0. -1.
         21   -1    0    0  504  503 -0.00000000000E+00 -0.00000000000E+00 -0.35701382266E+03  0.35701382266E+03  0.00000000000E+00 0. -1.
         25    2    1    2    0    0  0.14322565574E+02  0.97820047701E+01 -0.23516541015E+03  0.26688375167E+03  0.12499337290E+03 0.  0.
          5    1    3    3  501    0 -0.46541660710E+02 -0.22943817485E+02 -0.64657614298E+02  0.82904535637E+02  0.10000000000E+00 0.  1.
         -5    1    3    3    0  501  0.60864226284E+02  0.32725822256E+02 -0.17050779586E+03  0.18397921603E+03  0.10000000000E+00 0.  1.
         21    1    1    2  504  502 -0.14322565574E+02 -0.97820047701E+01 -0.10527968034E+03  0.10669880316E+03  0.00000000000E+00 0.  1.
<mgrwt>
<rscale>  1 0.12619099E+03</rscale>
<asrwt>0</asrwt>
<pdfrwt beam="1">  1       21 0.25490359E-02 0.12619099E+03</pdfrwt>
<pdfrwt beam="2">  1       21 0.54925199E-01 0.12619099E+03</pdfrwt>
<totfact> 0.25714445E+06</totfact>
</mgrwt>
</event>
<event>
 6    1  0.4244577E-002  0.1275978E+03  0.7546771E-02  0.1231064E+00
         21   -1    0    0  504  502  0.00000000000E+00  0.00000000000E+00  0.38542386405E+01  0.38542386405E+01  0.00000000000E+00 0.  1.
         21   -1    0    0  502  503 -0.00000000000E+00 -0.00000000000E+00 -0.16841206454E+04  0.16841206454E+04  0.00000000000E+00 0.  1.
         25    2    1    2    0    0 -0.25645560984E+02  0.91472399487E+00 -0.15474733347E+04  0.15527249986E+04  0.12499067256E+03 0.  0.
          5    1    3    3  501    0 -0.43034106676E+02  0.54585049996E+02 -0.97669411553E+03  0.97916437197E+03  0.10000000000E+00 0. -1.
         -5    1    3    3    0  501  0.17388545692E+02 -0.53670326001E+02 -0.57077921917E+03  0.57356062665E+03  0.10000000000E+00 0. -1.
         21    1    1    2  504  503  0.25645560984E+02 -0.91472399487E+00 -0.13279307208E+03  0.13524988544E+03  0.00000000000E+00 0.  1.
<mgrwt>
<rscale>  1 0.12759780E+03</rscale>
<asrwt>0</asrwt>
<pdfrwt beam="1">  1       21 0.59295845E-03 0.12759780E+03</pdfrwt>
<pdfrwt beam="2">  1       21 0.25909607E+00 0.12759780E+03</pdfrwt>
<totfact> 0.52236671E+05</totfact>
</mgrwt>
</event>
<event>
 6    1  0.4244577E-002  0.1335672E+03  0.7546771E-02  0.1222257E+00
         21   -1    0    0  503  502  0.00000000000E+00  0.00000000000E+00  0.84160278681E+02  0.84160278681E+02  0.00000000000E+00 0. -1.
         21   -1    0    0  504  503 -0.00000000000E+00 -0.00000000000E+00 -0.10257329790E+03  0.10257329790E+03  0.00000000000E+00 0. -1.
         25    2    1    2    0    0  0.38998179290E+02  0.26306051053E+02  0.60651980012E+01  0.13370481619E+03  0.12500929940E+03 0.  0.
          5    1    3    3  501    0  0.19918440795E+02  0.66079946473E+02  0.38427424743E+02  0.78993547723E+02  0.10000000000E+00 0. -1.
         -5    1    3    3    0  501  0.19079738495E+02 -0.39773895420E+02 -0.32362226742E+02  0.54711268470E+02  0.10000000000E+00 0. -1.
         21    1    1    2  504  502 -0.38998179290E+02 -0.26306051053E+02 -0.24478217219E+02  0.53028760387E+02  0.00000000000E+00 0. -1.
<mgrwt>
<rscale>  1 0.13356718E+03</rscale>
<asrwt>0</asrwt>
<pdfrwt beam="1">  1       21 0.12947735E-01 0.13356718E+03</pdfrwt>
<pdfrwt beam="2">  1       21 0.15780507E-01 0.13356718E+03</pdfrwt>
<totfact> 0.18232138E+06</totfact>
</mgrwt>
</event>
<event>
 6    1  0.4244577E-002  0.1331193E+03  0.7546771E-02  0.1222899E+00
         21   -1    0    0  504  502  0.00000000000E+00  0.00000000000E+00  0.33369328975E+03  0.33369328975E+03  0.00000000000E+00 0.  1.
         21   -1    0    0  502  503 -0.00000000000E+00 -0.00000000000E+00 -0.21302211146E+03  0.21302211146E+03  0.00000000000E+00 0.  1.
         25    2    1    2    0    0 -0.67419246639E+01 -0.45270240537E+02  0.31768859336E+03  0.34445143984E+03  0.12500361526E+03 0.  0.
          5    1    3    3  501    0 -0.64500433752E+02 -0.38058083209E+02  0.18176297202E+03  0.19658716044E+03  0.10000000000E+00 0.  1.
         -5    1    3    3    0  501  0.57758509088E+02 -0.72121573271E+01  0.13592562134E+03  0.14786427940E+03  0.10000000000E+00 0.  1.
         21    1    1    2  504  503  0.67419246639E+01  0.45270240537E+02 -0.19701741507E+03  0.20226396137E+03  0.00000000000E+00 0.  1.
<mgrwt>
<rscale>  1 0.13311932E+03</rscale>
<asrwt>0</asrwt>
<pdfrwt beam="1">  1       21 0.51337429E-01 0.13311932E+03</pdfrwt>
<pdfrwt beam="2">  1       21 0.32772632E-01 0.13311932E+03</pdfrwt>
<totfact> 0.33416118E+04</totfact>
</mgrwt>
</event>
<event>
 6    1  0.4244577E-002  0.1520346E+03  0.7546771E-02  0.1197995E+00
         21   -1    0    0  503  502  0.00000000000E+00  0.00000000000E+00  0.34573011899E+03  0.34573011899E+03  0.00000000000E+00 0. -1.
         21   -1    0    0  504  503 -0.00000000000E+00 -0.00000000000E+00 -0.86083116665E+03  0.86083116665E+03  0.00000000000E+00 0. -1.
         25    2    1    2    0    0  0.21601417261E+02  0.83809727408E+02  0.32668910218E+03  0.36033356924E+03  0.12499527992E+03 0.  0.
          5    1    3    3  501    0 -0.39145538135E+02  0.22802401485E+02  0.38157006014E+02  0.59230817801E+02  0.10000000000E+00 0. -1.
         -5    1    3    3    0  501  0.60746955396E+02  0.61007325923E+02  0.28853209616E+03  0.30110275144E+03  0.10000000000E+00 0. -1.
         21    1    1    2  504  502 -0.21601417261E+02 -0.83809727408E+02 -0.84179014984E+03  0.84622771640E+03  0.00000000000E+00 0. -1.
<mgrwt>
<rscale>  1 0.15203457E+03</rscale>
<asrwt>0</asrwt>
<pdfrwt beam="1">  1       21 0.53189250E-01 0.15203457E+03</pdfrwt>
<pdfrwt beam="2">  1       21 0.13243556E+00 0.15203457E+03</pdfrwt>
<totfact> 0.14422964E+03</totfact>
</mgrwt>
</event>
<event>
 6    1  0.4244577E-002  0.1259183E+03  0.7546771E-02  0.1233641E+00
         21   -1    0    0  504  502  0.00000000000E+00  0.00000000000E+00  0.22869522028E+03  0.22869522028E+03  0.00000000000E+00 0. -1.
         21   -1    0    0  502  503 -0.00000000000E+00 -0.00000000000E+00 -0.27137402176E+02  0.27137402176E+02  0.00000000000E+00 0. -1.
         25    2    1    2    0    0  0.54862753151E+01 -0.14127471978E+02  0.20472559597E+03  0.24034974488E+03  0.12500298211E+03 0.  0.
          5    1    3    3  501    0 -0.27014367283E+02 -0.35346283032E+02  0.19544128848E+03  0.20044062215E+03  0.10000000000E+00 0. -1.
         -5    1    3    3    0  501  0.32500642598E+02  0.21218811054E+02  0.92843074940E+01  0.39909122735E+02  0.10000000000E+00 0. -1.
         21    1    1    2  504  503 -0.54862753151E+01  0.14127471978E+02 -0.31677778705E+01  0.15482877574E+02  0.00000000000E+00 0. -1.
<mgrwt>
<rscale>  1 0.12591835E+03</rscale>
<asrwt>0</asrwt>
<pdfrwt beam="1">  1       21 0.35183879E-01 0.12591835E+03</pdfrwt>
<pdfrwt beam="2">  1       21 0.41749851E-02 0.12591835E+03</pdfrwt>
<totfact> 0.28139810E+06</totfact>
</mgrwt>
</event>
<event>
 6    1  0.4244577E-002  0.1400002E+03  0.7546771E-02  0.1213329E+00
         21   -1    0    0  504  502  0.00000000000E+00  0.00000000000E+00  0.68670964902E+02  0.68670964902E+02  0.00000000000E+00 0. -1.
         21   -1    0    0  502  503 -0.00000000000E+00 -0.00000000000E+00 -0.24737181274E+03  0.24737181274E+03  0.00000000000E+00 0. -1.
         25    2    1    2    0    0  0.61834751254E+02  0.12326121173E+02 -0.15220774681E+02  0.14082518707E+03  0.12499836641E+03 0.  0.
          5    1    3    3  501    0  0.94498194606E+02  0.15486346180E+02 -0.35638667485E+02  0.10217563468E+03  0.10000000000E+00 0.  1.
         -5    1    3    3    0  501 -0.32663443352E+02 -0.31602250076E+01  0.20417892803E+02  0.38649552394E+02  0.10000000000E+00 0.  1.
         21    1    1    2  504  503 -0.61834751254E+02 -0.12326121173E+02 -0.16348007316E+03  0.17521759057E+03  0.00000000000E+00 0. -1.
<mgrwt>
<rscale>  1 0.14000022E+03</rscale>
<asrwt>0</asrwt>
<pdfrwt beam="1">  1       21 0.10564764E-01 0.14000022E+03</pdfrwt>
<pdfrwt beam="2">  1       21 0.38057202E-01 0.14000022E+03</pdfrwt>
<totfact> 0.49390472E+05</totfact>
</mgrwt>
</event>
<event>
 6    1  0.4244577E-002  0.1261158E+03  0.7546771E-02  0.1233336E+00
         21   -1    0    0  504  502  0.00000000000E+00  0.00000000000E+00  0.96848294219E+03  0.96848294219E+03  0.00000000000E+00 0. -1.
         21   -1    0    0  502  503 -0.00000000000E+00 -0.00000000000E+00 -0.69498679279E+01  0.69498679279E+01  0.00000000000E+00 0. -1.
         25    2    1    2    0    0  0.40160730780E+01 -0.16270358218E+02  0.93856743610E+03  0.94700265121E+03  0.12499734351E+03 0.  0.
          5    1    3    3  501    0  0.29059295563E+02 -0.63408624221E+02  0.63035075741E+03  0.63419806342E+03  0.10000000000E+00 0.  1.
         -5    1    3    3    0  501 -0.25043222485E+02  0.47138266003E+02  0.30821667869E+03  0.31280458779E+03  0.10000000000E+00 0.  1.
         21    1    1    2  504  503 -0.40160730780E+01  0.16270358218E+02  0.22965638155E+02  0.28430158905E+02  0.00000000000E+00 0. -1.
<mgrwt>
<rscale>  1 0.12611578E+03</rscale>
<asrwt>0</asrwt>
<pdfrwt beam="1">  1       21 0.14899727E+00 0.12611578E+03</pdfrwt>
<pdfrwt beam="2">  1       21 0.10692112E-02 0.12611578E+03</pdfrwt>
<totfact> 0.10376111E+06</totfact>
</mgrwt>
</event>
<event>
 6    1  0.4244577E-002  0.1269407E+03  0.7546771E-02  0.1232067E+00
         21   -1    0    0  504  502  0.00000000000E+00  0.00000000000E+00  0.20178282101E+03  0.20178282101E+03  0.00000000000E+00 0.  1.
         21   -1    0    0  502  503 -0.00000000000E+00 -0.00000000000E+00 -0.27924805192E+02  0.27924805192E+02  0.00000000000E+00 0.  1.
         25    2    1    2    0    0  0.48206447454E+01  0.21551585410E+02  0.15715158033E+03  0.20201621172E+03  0.12500488449E+03 0.  0.
          5    1    3    3  501    0  0.32078760280E+02  0.61572122826E+02  0.53626828124E+02  0.87726962019E+02  0.10000000000E+00 0. -1.
         -5    1    3    3    0  501 -0.27258115535E+02 -0.40020537417E+02  0.10352475220E+03  0.11428924970E+03  0.10000000000E+00 0. -1.
         21    1    1    2  504  503 -0.48206447454E+01 -0.21551585410E+02  0.16706435490E+02  0.27691414486E+02  0.00000000000E+00 0.  1.
<mgrwt>
<rscale>  1 0.12694066E+03</rscale>
<asrwt>0</asrwt>
<pdfrwt beam="1">  1       21 0.31043510E-01 0.12694066E+03</pdfrwt>
<pdfrwt beam="2">  1       21 0.42961240E-02 0.12694066E+03</pdfrwt>
<totfact> 0.34260050E+06</totfact>
</mgrwt>
</event>
<event>
 6    1  0.4244577E-002  0.1303513E+03  0.7546771E-02  0.1226935E+00
         21   -1    0    0  504  502  0.00000000000E+00  0.00000000000E+00  0.65944964631E+03  0.65944964631E+03  0.00000000000E+00 0.  1.
         21   -1    0    0  502  503 -0.00000000000E+00 -0.00000000000E+00 -0.26618866529E+02  0.26618866529E+02  0.00000000000E+00 0.  1.
         25    2    1    2    0    0  0.17810951822E+02  0.32382606845E+02  0.63576896078E+03  0.64899431509E+03  0.12500234517E+03 0.  0.
          5    1    3    3  501    0 -0.13476051001E+02  0.24389358088E+02  0.60061046770E+03  0.60125650820E+03  0.10000000000E+00 0. -1.
         -5    1    3    3    0  501  0.31287002823E+02  0.79932487572E+01  0.35158493078E+02  0.47737806892E+02  0.10000000000E+00 0. -1.
         21    1    1    2  504  503 -0.17810951822E+02 -0.32382606845E+02 -0.29381810009E+01  0.37074197746E+02  0.00000000000E+00 0.  1.
<mgrwt>
<rscale>  1 0.13035125E+03</rscale>
<asrwt>0</asrwt>
<pdfrwt beam="1">  1       21 0.10145378E+00 0.13035125E+03</pdfrwt>
<pdfrwt beam="2">  1       21 0.40952107E-02 0.13035125E+03</pdfrwt>
<totfact> 0.30370879E+05</totfact>
</mgrwt>
</event>
<event>
 6    1  0.4244577E-002  0.1261565E+03  0.7546771E-02  0.1233273E+00
         21   -1    0    0  503  502  0.00000000000E+00  0.00000000000E+00  0.38737531779E+02  0.38737531779E+02  0.00000000000E+00 0. -1.
         21   -1    0    0  504  503 -0.00000000000E+00 -0.00000000000E+00 -0.16946642707E+03  0.16946642707E+03  0.00000000000E+00 0. -1.
         25    2    1    2    0    0 -0.12503014140E+02  0.11633325532E+02 -0.68253509886E+02  0.14343642526E+03  0.12499522733E+03 0.  0.
          5    1    3    3  501    0  0.53377134961E+02  0.90084126252E+01 -0.91681441602E+01  0.54902958955E+02  0.10000000000E+00 0. -1.
         -5    1    3    3    0  501 -0.65880149101E+02  0.26249129066E+01 -0.59085365725E+02  0.88533466307E+02  0.10000000000E+00 0. -1.
         21    1    1    2  504  502  0.12503014140E+02 -0.11633325532E+02 -0.62475385409E+02  0.64767533591E+02  0.00000000000E+00 0. -1.
<mgrwt>
<rscale>  1 0.12615652E+03</rscale>
<asrwt>0</asrwt>
<pdfrwt beam="1">  1       21 0.59596202E-02 0.12615652E+03</pdfrwt>
<pdfrwt beam="2">  1       21 0.26071758E-01 0.12615652E+03</pdfrwt>
<totfact> 0.27615592E+06</totfact>
</mgrwt>
</event>
<event>
 6    1  0.4244577E-002  0.1260526E+03  0.7546771E-02  0.1233433E+00
         21   -1    0    0  504  502  0.00000000000E+00  0.00000000000E+00  0.99901948713E+01  0.99901948713E+01  0.00000000000E+00 0. -1.
         21   -1    0    0  502  503 -0.00000000000E+00 -0.00000000000E+00 -0.52353007451E+03  0.52353007451E+03  0.00000000000E+00 0. -1.
         25    2    1    2    0    0 -0.11926689968E+01  0.16308645308E+02 -0.41805918706E+03  0.43664944288E+03  0.12498743022E+03 0.  0.
          5    1    3    3  501    0 -0.33367526259E+02  0.59538284118E+02 -0.28572703127E+03  0.29376545999E+03  0.10000000000E+00 0.  1.
         -5    1    3    3    0  501  0.32174857262E+02 -0.43229638810E+02 -0.13233215578E+03  0.14288398289E+03  0.10000000000E+00 0.  1.
         21    1    1    2  504  503  0.11926689968E+01 -0.16308645308E+02 -0.95480692582E+02  0.96870826501E+02  0.00000000000E+00 0. -1.
<mgrwt>
<rscale>  1 0.12605258E+03</rscale>
<asrwt>0</asrwt>
<pdfrwt beam="1">  1       21 0.15369531E-02 0.12605258E+03</pdfrwt>
<pdfrwt beam="2">  1       21 0.80543085E-01 0.12605258E+03</pdfrwt>
<totfact> 0.25418651E+06</totfact>
</mgrwt>
</event>
<event>
 6    1  0.4244577E-002  0.1261763E+03  0.7546771E-02  0.1233242E+00
         21   -1    0    0  503  502  0.00000000000E+00  0.00000000000E+00  0.42293391446E+02  0.42293391446E+02  0.00000000000E+00 0.  1.
         21   -1    0    0  504  503 -0.00000000000E+00 -0.00000000000E+00 -0.12728104816E+03  0.12728104816E+03  0.00000000000E+00 0.  1.
         25    2    1    2    0    0  0.15955244682E+02  0.64701311557E+01 -0.61268037218E+02  0.14026483744E+03  0.12499607917E+03 0.  0.
          5    1    3    3  501    0 -0.54669563539E+02 -0.16341783437E+00 -0.33309646660E+02  0.64018204001E+02  0.10000000000E+00 0. -1.
         -5    1    3    3    0  501  0.70624808220E+02  0.66335489901E+01 -0.27958390558E+02  0.76246633440E+02  0.10000000000E+00 0. -1.
         21    1    1    2  504  502 -0.15955244682E+02 -0.64701311557E+01 -0.23719619499E+02  0.29309602167E+02  0.00000000000E+00 0.  1.
<mgrwt>
<rscale>  1 0.12617627E+03</rscale>
<asrwt>0</asrwt>
<pdfrwt beam="1">  1       21 0.65066757E-02 0.12617627E+03</pdfrwt>
<pdfrwt beam="2">  1       21 0.19581700E-01 0.12617627E+03</pdfrwt>
<totfact> 0.40629492E+06</totfact>
</mgrwt>
</event>
<event>
 6    1  0.4244577E-002  0.1274039E+03  0.7546771E-02  0.1231359E+00
         21   -1    0    0  503  502  0.00000000000E+00  0.00000000000E+00  0.48617424540E+02  0.48617424540E+02  0.00000000000E+00 0. -1.
         21   -1    0    0  504  503 -0.00000000000E+00 -0.00000000000E+00 -0.20194945258E+03  0.20194945258E+03  0.00000000000E+00 0. -1.
         25    2    1    2    0    0  0.22170465478E+01  0.24536729819E+02 -0.38459708752E+02  0.13308234136E+03  0.12499917591E+03 0.  0.
          5    1    3    3  501    0  0.40458727835E+02  0.13038296859E+02  0.31240607416E+02  0.52753117394E+02  0.10000000000E+00 0.  1.
         -5    1    3    3    0  501 -0.38241681287E+02  0.11498432960E+02 -0.69700316169E+02  0.80329223962E+02  0.10000000000E+00 0.  1.
         21    1    1    2  504  502 -0.22170465478E+01 -0.24536729819E+02 -0.11487231929E+03  0.11748453577E+03  0.00000000000E+00 0.  1.
<mgrwt>
<rscale>  1 0.12740393E+03</rscale>
<asrwt>0</asrwt>
<pdfrwt beam="1">  1       21 0.74796037E-02 0.12740393E+03</pdfrwt>
<pdfrwt beam="2">  1       21 0.31069147E-01 0.12740393E+03</pdfrwt>
<totfact> 0.13398704E+06</totfact>
</mgrwt>
</event>
<event>
 6    1  0.4244577E-002  0.1259766E+03  0.7546771E-02  0.1233551E+00
         21   -1    0    0  504  502  0.00000000000E+00  0.00000000000E+00  0.56358405005E+03  0.56358405005E+03  0.00000000000E+00 0. -1.
         21   -1    0    0  502  503 -0.00000000000E+00 -0.00000000000E+00 -0.11055220290E+03  0.11055220290E+03  0.00000000000E+00 0.  1.
         25    2    1    2    0    0 -0.69355486341E+01 -0.14048184963E+02  0.55594397156E+03  0.57003842067E+03  0.12499859273E+03 0.  0.
          5    1    3    3  501    0  0.20927303134E+02 -0.17243410420E+02  0.20838616300E+02  0.34198613257E+02  0.10000000000E+00 0.  1.
         -5    1    3    3    0  501 -0.27862851768E+02  0.31952254569E+01  0.53510535526E+03  0.53583980741E+03  0.10000000000E+00 0.  1.
         21    1    1    2  504  503  0.69355486341E+01  0.14048184963E+02 -0.10291212442E+03  0.10409783229E+03  0.00000000000E+00 0.  1.
<mgrwt>
<rscale>  1 0.12597659E+03</rscale>
<asrwt>0</asrwt>
<pdfrwt beam="1">  1       21 0.86705237E-01 0.12597659E+03</pdfrwt>
<pdfrwt beam="2">  1       21 0.17008032E-01 0.12597659E+03</pdfrwt>
<totfact> 0.37072169E+04</totfact>
</mgrwt>
</event>
<event>
 6    1  0.4244577E-002  0.1261241E+03  0.7546771E-02  0.1233323E+00
         21   -1    0    0  504  502  0.00000000000E+00  0.00000000000E+00  0.80801009975E+01  0.80801009975E+01  0.00000000000E+00 0.  1.
         21   -1    0    0  502  503 -0.00000000000E+00 -0.00000000000E+00 -0.64583112093E+03  0.64583112093E+03  0.00000000000E+00 0.  1.
         25    2    1    2    0    0  0.51006019684E+01  0.15997742815E+02 -0.52623905171E+03  0.54114215271E+03  0.12500138390E+03 0.  0.
          5    1    3    3  501    0 -0.36268192553E+02 -0.41506093454E+02 -0.24415212754E+03  0.25029664194E+03  0.10000000000E+00 0. -1.
         -5    1    3    3    0  501  0.41368794521E+02  0.57503836269E+02 -0.28208692417E+03  0.29084551076E+03  0.10000000000E+00 0. -1.
         21    1    1    2  504  503 -0.51006019684E+01 -0.15997742815E+02 -0.11151196823E+03  0.11276906922E+03  0.00000000000E+00 0. -1.
<mgrwt>
<rscale>  1 0.12612411E+03</rscale>
<asrwt>0</asrwt>
<pdfrwt beam="1">  1       21 0.12430919E-02 0.12612411E+03</pdfrwt>
<pdfrwt beam="2">  1       21 0.99358681E-01 0.12612411E+03</pdfrwt>
<totfact> 0.22064849E+06</totfact>
</mgrwt>
</event>
<event>
 6    1  0.4244577E-002  0.1418069E+03  0.7546771E-02  0.1210918E+00
         21   -1    0    0  503  502  0.00000000000E+00  0.00000000000E+00  0.15200435918E+04  0.15200435918E+04  0.00000000000E+00 0. -1.
         21   -1    0    0  504  503 -0.00000000000E+00 -0.00000000000E+00 -0.74138010157E+01  0.74138010157E+01  0.00000000000E+00 0. -1.
         25    2    1    2    0    0 -0.39522780662E+02 -0.54055774382E+02  0.88843917280E+03  0.89968513752E+03  0.12500042392E+03 0.  0.
          5    1    3    3  501    0  0.24319108504E+02 -0.20554348517E+02  0.64520948665E+03  0.64599473059E+03  0.10000000000E+00 0.  1.
         -5    1    3    3    0  501 -0.63841889166E+02 -0.33501425865E+02  0.24322968614E+03  0.25369040693E+03  0.10000000000E+00 0.  1.
         21    1    1    2  504  502  0.39522780662E+02  0.54055774382E+02  0.62419061796E+03  0.62777225527E+03  0.00000000000E+00 0. -1.
<mgrwt>
<rscale>  1 0.14180685E+03</rscale>
<asrwt>0</asrwt>
<pdfrwt beam="1">  1       21 0.23385261E+00 0.14180685E+03</pdfrwt>
<pdfrwt beam="2">  1       21 0.11405860E-02 0.14180685E+03</pdfrwt>
<totfact> 0.25975651E+05</totfact>
</mgrwt>
</event>
<event>
 6    1  0.4244577E-002  0.1270893E+03  0.7546771E-02  0.1231840E+00
         21   -1    0    0  503  502  0.00000000000E+00  0.00000000000E+00  0.89673657021E+02  0.89673657021E+02  0.00000000000E+00 0.  1.
         21   -1    0    0  504  503 -0.00000000000E+00 -0.00000000000E+00 -0.62073863670E+03  0.62073863670E+03  0.00000000000E+00 0. -1.
         25    2    1    2    0    0  0.58957905225E+01  0.22147405364E+02  0.44301565899E+02  0.13458946534E+03  0.12500570999E+03 0.  0.
          5    1    3    3  501    0 -0.56974871687E+02  0.20013849676E+02  0.38042804595E+02  0.71371949420E+02  0.10000000000E+00 0.  1.
         -5    1    3    3    0  501  0.62870662210E+02  0.21335556876E+01  0.62587613045E+01  0.63217515924E+02  0.10000000000E+00 0.  1.
         21    1    1    2  504  502 -0.58957905225E+01 -0.22147405364E+02 -0.57536654558E+03  0.57582282838E+03  0.00000000000E+00 0. -1.
<mgrwt>
<rscale>  1 0.12708932E+03</rscale>
<asrwt>0</asrwt>
<pdfrwt beam="1">  1       21 0.13795947E-01 0.12708932E+03</pdfrwt>
<pdfrwt beam="2">  1       21 0.95498254E-01 0.12708932E+03</pdfrwt>
<totfact> 0.43324724E+04</totfact>
</mgrwt>
</event>
<event>
 6    1  0.4244577E-002  0.1959562E+03  0.7546771E-02  0.1153196E+00
         21   -1    0    0  503  502  0.00000000000E+00  0.00000000000E+00  0.66284037683E+03  0.66284037683E+03  0.00000000000E+00 0.  1.
         21   -1    0    0  504  503 -0.00000000000E+00 -0.00000000000E+00 -0.76909824580E+02  0.76909824580E+02  0.00000000000E+00 0.  1.
         25    2    1    2    0    0 -0.42845528377E+02  0.14470234287E+03  0.55105667224E+03  0.58486090274E+03  0.12499724879E+03 0.  0.
          5    1    3    3  501    0 -0.58051136475E+02  0.16183525447E+03  0.50411583303E+03  0.53262873293E+03  0.10000000000E+00 0.  1.
         -5    1    3    3    0  501  0.15205608098E+02 -0.17132911598E+02  0.46940839211E+02  0.52232169812E+02  0.10000000000E+00 0.  1.
         21    1    1    2  504  502  0.42845528377E+02 -0.14470234287E+03  0.34873880011E+02  0.15488929867E+03  0.00000000000E+00 0.  1.
<mgrwt>
<rscale>  1 0.19595617E+03</rscale>
<asrwt>0</asrwt>
<pdfrwt beam="1">  1       21 0.10197544E+00 0.19595617E+03</pdfrwt>
<pdfrwt beam="2">  1       21 0.11832281E-01 0.19595617E+03</pdfrwt>
<totfact> 0.47073807E+04</totfact>
</mgrwt>
</event>
<event>
 6    1  0.4244577E-002  0.1271662E+03  0.7546771E-02  0.1231722E+00
         21   -1    0    0  503  502  0.00000000000E+00  0.00000000000E+00  0.15198094803E+03  0.15198094803E+03  0.00000000000E+00 0.  1.
         21   -1    0    0  504  503 -0.00000000000E+00 -0.00000000000E+00 -0.41461072164E+02  0.41461072164E+02  0.00000000000E+00 0.  1.
         25    2    1    2    0    0 -0.10143029788E+02  0.21057614079E+02  0.11276361600E+03  0.16996142110E+03  0.12499978963E+03 0.  0.
          5    1    3    3  501    0 -0.61571816503E+02 -0.48537399365E+01  0.28802027555E+02  0.68148471517E+02  0.10000000000E+00 0. -1.
         -5    1    3    3    0  501  0.51428786714E+02  0.25911354015E+02  0.83961588444E+02  0.10181294959E+03  0.10000000000E+00 0. -1.
         21    1    1    2  504  502  0.10143029788E+02 -0.21057614079E+02 -0.22437401286E+01  0.23480599093E+02  0.00000000000E+00 0. -1.
<mgrwt>
<rscale>  1 0.12716624E+03</rscale>
<asrwt>0</asrwt>
<pdfrwt beam="1">  1       21 0.23381684E-01 0.12716624E+03</pdfrwt>
<pdfrwt beam="2">  1       21 0.63786266E-02 0.12716624E+03</pdfrwt>
<totfact> 0.30227942E+06</totfact>
</mgrwt>
</event>
<event>
 6    1  0.4244577E-002  0.1372175E+03  0.7546771E-02  0.1217123E+00
         21   -1    0    0  503  502  0.00000000000E+00  0.00000000000E+00  0.65580100397E+02  0.65580100397E+02  0.00000000000E+00 0. -1.
         21   -1    0    0  504  503 -0.00000000000E+00 -0.00000000000E+00 -0.51942286992E+03  0.51942286992E+03  0.00000000000E+00 0.  1.
         25    2    1    2    0    0 -0.47303012630E+02 -0.31082748351E+02 -0.10017128264E+02  0.13758268458E+03  0.12499975995E+03 0.  0.
          5    1    3    3  501    0 -0.35260041003E+02 -0.70788698141E+02  0.25365478271E+02  0.83052560249E+02  0.10000000000E+00 0.  1.
         -5    1    3    3    0  501 -0.12042971627E+02  0.39705949790E+02 -0.35382606536E+02  0.54530124331E+02  0.10000000000E+00 0.  1.
         21    1    1    2  504  502  0.47303012630E+02  0.31082748351E+02 -0.44382564126E+03  0.44742028573E+03  0.00000000000E+00 0.  1.
<mgrwt>
<rscale>  1 0.13721754E+03</rscale>
<asrwt>0</asrwt>
<pdfrwt beam="1">  1       21 0.10089246E-01 0.13721754E+03</pdfrwt>
<pdfrwt beam="2">  1       21 0.79911211E-01 0.13721754E+03</pdfrwt>
<totfact> 0.11252023E+05</totfact>
</mgrwt>
</event>
<event>
 6    1  0.4244577E-002  0.1521756E+03  0.7546771E-02  0.1197825E+00
         21   -1    0    0  503  502  0.00000000000E+00  0.00000000000E+00  0.31702255832E+03  0.31702255832E+03  0.00000000000E+00 0. -1.
         21   -1    0    0  504  503 -0.00000000000E+00 -0.00000000000E+00 -0.12203512435E+03  0.12203512435E+03  0.00000000000E+00 0.  1.
         25    2    1    2    0    0 -0.71232134785E+02 -0.49575409197E+02  0.27929649459E+03  0.31806282359E+03  0.12500275853E+03 0.  0.
          5    1    3    3  501    0 -0.82809740770E+02 -0.56430822593E+02  0.28598729650E+03  0.30303569867E+03  0.10000000000E+00 0. -1.
         -5    1    3    3    0  501  0.11577605985E+02  0.68554133963E+01 -0.66908019174E+01  0.15027124924E+02  0.10000000000E+00 0. -1.
         21    1    1    2  504  502  0.71232134785E+02  0.49575409197E+02 -0.84309060609E+02  0.12099485908E+03  0.00000000000E+00 0.  1.
<mgrwt>
<rscale>  1 0.15217565E+03</rscale>
<asrwt>0</asrwt>
<pdfrwt beam="1">  1       21 0.48772701E-01 0.15217565E+03</pdfrwt>
<pdfrwt beam="2">  1       21 0.18774635E-01 0.15217565E+03</pdfrwt>
<totfact> 0.10581792E+05</totfact>
</mgrwt>
</event>
<event>
 6    1  0.4244577E-002  0.1268395E+03  0.7546771E-02  0.1232222E+00
         21   -1    0    0  503  502  0.00000000000E+00  0.00000000000E+00  0.43550086010E+02  0.43550086010E+02  0.00000000000E+00 0. -1.
         21   -1    0    0  504  503 -0.00000000000E+00 -0.00000000000E+00 -0.12712442424E+03  0.12712442424E+03  0.00000000000E+00 0. -1.
         25    2    1    2    0    0  0.20286678030E+02  0.72404674813E+01 -0.66674303384E+02  0.14329596294E+03  0.12499718632E+03 0.  0.
          5    1    3    3  501    0  0.35284430889E+02 -0.51105695771E+02 -0.52708432657E+02  0.81455337926E+02  0.10000000000E+00 0. -1.
         -5    1    3    3    0  501 -0.14997752859E+02  0.58346163252E+02 -0.13965870727E+02  0.61840625015E+02  0.10000000000E+00 0. -1.
         21    1    1    2  504  502 -0.20286678030E+02 -0.72404674813E+01 -0.16900034842E+02  0.27378547304E+02  0.00000000000E+00 0. -1.
<mgrwt>
<rscale>  1 0.12683955E+03</rscale>
<asrwt>0</asrwt>
<pdfrwt beam="1">  1       21 0.67000131E-02 0.12683955E+03</pdfrwt>
<pdfrwt beam="2">  1       21 0.19557604E-01 0.12683955E+03</pdfrwt>
<totfact> 0.38749030E+06</totfact>
</mgrwt>
</event>
<event>
 6    1  0.4244577E-002  0.1272393E+03  0.7546771E-02  0.1231611E+00
         21   -1    0    0  503  502  0.00000000000E+00  0.00000000000E+00  0.46734191508E+02  0.46734191508E+02  0.00000000000E+00 0.  1.
         21   -1    0    0  504  503 -0.00000000000E+00 -0.00000000000E+00 -0.13349993373E+03  0.13349993373E+03  0.00000000000E+00 0.  1.
         25    2    1    2    0    0 -0.19603265310E+02 -0.13472941299E+02 -0.50566363358E+02  0.13691896406E+03  0.12499614977E+03 0.  0.
          5    1    3    3  501    0 -0.71154030315E+01  0.49215014603E+01 -0.90660810389E+02  0.91072732897E+02  0.10000000000E+00 0.  1.
         -5    1    3    3    0  501 -0.12487862278E+02 -0.18394442760E+02  0.40094447031E+02  0.45846231159E+02  0.10000000000E+00 0.  1.
         21    1    1    2  504  502  0.19603265310E+02  0.13472941299E+02 -0.36199378869E+02  0.43315161186E+02  0.00000000000E+00 0. -1.
<mgrwt>
<rscale>  1 0.12723932E+03</rscale>
<asrwt>0</asrwt>
<pdfrwt beam="1">  1       21 0.71898758E-02 0.12723932E+03</pdfrwt>
<pdfrwt beam="2">  1       21 0.20538451E-01 0.12723932E+03</pdfrwt>
<totfact> 0.31379987E+06</totfact>
</mgrwt>
</event>
<event>
 6    1  0.4244577E-002  0.1266570E+03  0.7546771E-02  0.1232502E+00
         21   -1    0    0  504  502  0.00000000000E+00  0.00000000000E+00  0.10758062814E+04  0.10758062814E+04  0.00000000000E+00 0. -1.
         21   -1    0    0  502  503 -0.00000000000E+00 -0.00000000000E+00 -0.50828540029E+01  0.50828540029E+01  0.00000000000E+00 0. -1.
         25    2    1    2    0    0  0.18730244093E+02  0.81677818925E+01  0.95693310431E+03  0.96527870191E+03  0.12499788609E+03 0.  0.
          5    1    3    3  501    0  0.12805750200E+02  0.53214898746E+02  0.80081897480E+03  0.80268726979E+03  0.10000000000E+00 0.  1.
         -5    1    3    3    0  501  0.59244938933E+01 -0.45047116854E+02  0.15611412951E+03  0.16259143211E+03  0.10000000000E+00 0.  1.
         21    1    1    2  504  503 -0.18730244093E+02 -0.81677818925E+01  0.11379032314E+03  0.11561043354E+03  0.00000000000E+00 0. -1.
<mgrwt>
<rscale>  1 0.12665704E+03</rscale>
<asrwt>0</asrwt>
<pdfrwt beam="1">  1       21 0.16550848E+00 0.12665704E+03</pdfrwt>
<pdfrwt beam="2">  1       21 0.78197839E-03 0.12665704E+03</pdfrwt>
<totfact> 0.12865436E+06</totfact>
</mgrwt>
</event>
<event>
 6    1  0.4244577E-002  0.1300198E+03  0.7546771E-02  0.1227426E+00
         21   -1    0    0  504  502  0.00000000000E+00  0.00000000000E+00  0.11902507254E+03  0.11902507254E+03  0.00000000000E+00 0. -1.
         21   -1    0    0  502  503 -0.00000000000E+00 -0.00000000000E+00 -0.93065210545E+02  0.93065210545E+02  0.00000000000E+00 0. -1.
         25    2    1    2    0    0 -0.13468895900E+02  0.33137317992E+02  0.75982911980E+02  0.15059395367E+03  0.12500257185E+03 0.  0.
          5    1    3    3  501    0 -0.50338037083E+02 -0.81704846976E+00 -0.97540554674E+01  0.51280962780E+02  0.10000000000E+00 0. -1.
         -5    1    3    3    0  501  0.36869141183E+02  0.33954366462E+02  0.85736967447E+02  0.99312990895E+02  0.10000000000E+00 0. -1.
         21    1    1    2  504  503  0.13468895900E+02 -0.33137317992E+02 -0.50023049988E+02  0.61496329408E+02  0.00000000000E+00 0. -1.
<mgrwt>
<rscale>  1 0.13001975E+03</rscale>
<asrwt>0</asrwt>
<pdfrwt beam="1">  1       21 0.18311550E-01 0.13001975E+03</pdfrwt>
<pdfrwt beam="2">  1       21 0.14317725E-01 0.13001975E+03</pdfrwt>
<totfact> 0.11605979E+06</totfact>
</mgrwt>
</event>
<event>
 6    1  0.4244577E-002  0.1286310E+03  0.7546771E-02  0.1229501E+00
         21   -1    0    0  503  502  0.00000000000E+00  0.00000000000E+00  0.32183336202E+03  0.32183336202E+03  0.00000000000E+00 0. -1.
         21   -1    0    0  504  503 -0.00000000000E+00 -0.00000000000E+00 -0.13091940679E+03  0.13091940679E+03  0.00000000000E+00 0. -1.
         25    2    1    2    0    0  0.27583286156E+02 -0.12668218674E+02  0.30694989326E+03  0.33281253222E+03  0.12499849277E+03 0.  0.
          5    1    3    3  501    0  0.19465106690E+02  0.47109837108E+02  0.22701951138E+03  0.23267164777E+03  0.10000000000E+00 0.  1.
         -5    1    3    3    0  501  0.81181794666E+01 -0.59778055782E+02  0.79930381876E+02  0.10014088445E+03  0.10000000000E+00 0.  1.
         21    1    1    2  504  502 -0.27583286156E+02  0.12668218674E+02 -0.11603593803E+03  0.11994023659E+03  0.00000000000E+00 0. -1.
<mgrwt>
<rscale>  1 0.12863104E+03</rscale>
<asrwt>0</asrwt>
<pdfrwt beam="1">  1       21 0.49512825E-01 0.12863104E+03</pdfrwt>
<pdfrwt beam="2">  1       21 0.20141447E-01 0.12863104E+03</pdfrwt>
<totfact> 0.90918463E+04</totfact>
</mgrwt>
</event>
<event>
 6    1  0.4244577E-002  0.1869661E+03  0.7546771E-02  0.1161227E+00
         21   -1    0    0  504  502  0.00000000000E+00  0.00000000000E+00  0.14105033574E+03  0.14105033574E+03  0.00000000000E+00 0. -1.
         21   -1    0    0  502  503 -0.00000000000E+00 -0.00000000000E+00 -0.60271627850E+03  0.60271627850E+03  0.00000000000E+00 0.  1.
         25    2    1    2    0    0  0.93921851917E+02  0.10250484018E+03  0.65861097414E+02  0.19822712471E+03  0.12501100867E+03 0.  0.
          5    1    3    3  501    0  0.36032906660E+01  0.49101061982E+02  0.78377188660E+02  0.92557504794E+02  0.10000000000E+00 0. -1.
         -5    1    3    3    0  501  0.90318561251E+02  0.53403778202E+02 -0.12516091246E+02  0.10566961991E+03  0.10000000000E+00 0. -1.
         21    1    1    2  504  503 -0.93921851917E+02 -0.10250484018E+03 -0.52752704017E+03  0.54553948953E+03  0.00000000000E+00 0.  1.
<mgrwt>
<rscale>  1 0.18696606E+03</rscale>
<asrwt>0</asrwt>
<pdfrwt beam="1">  1       21 0.21700052E-01 0.18696606E+03</pdfrwt>
<pdfrwt beam="2">  1       21 0.92725580E-01 0.18696606E+03</pdfrwt>
<totfact> 0.19485758E+04</totfact>
</mgrwt>
</event>
<event>
 6    1  0.4244577E-002  0.1379167E+03  0.7546771E-02  0.1216160E+00
         21   -1    0    0  503  502  0.00000000000E+00  0.00000000000E+00  0.26158831581E+04  0.26158831581E+04  0.00000000000E+00 0.  1.
         21   -1    0    0  504  503 -0.00000000000E+00 -0.00000000000E+00 -0.65330978205E+01  0.65330978205E+01  0.00000000000E+00 0.  1.
         25    2    1    2    0    0  0.26649787783E+02 -0.51827710632E+02  0.24283954045E+04  0.24323086279E+04  0.12499879220E+03 0.  0.
          5    1    3    3  501    0  0.84949653580E+01 -0.65614471509E+02  0.57824643843E+03  0.58201922379E+03  0.10000000000E+00 0. -1.
         -5    1    3    3    0  501  0.18154822425E+02  0.13786760877E+02  0.18501489661E+04  0.18502894041E+04  0.10000000000E+00 0. -1.
         21    1    1    2  504  502 -0.26649787783E+02  0.51827710632E+02  0.18095465580E+03  0.19010762802E+03  0.00000000000E+00 0.  1.
<mgrwt>
<rscale>  1 0.13791672E+03</rscale>
<asrwt>0</asrwt>
<pdfrwt beam="1">  1       21 0.40244273E+00 0.13791672E+03</pdfrwt>
<pdfrwt beam="2">  1       21 0.10050941E-02 0.13791672E+03</pdfrwt>
<totfact> 0.33675704E+04</totfact>
</mgrwt>
</event>
<event>
 6    1  0.4244577E-002  0.1259542E+03  0.7546771E-02  0.1233586E+00
         21   -1    0    0  503  502  0.00000000000E+00  0.00000000000E+00  0.66055117180E+02  0.66055117180E+02  0.00000000000E+00 0. -1.
         21   -1    0    0  504  503 -0.00000000000E+00 -0.00000000000E+00 -0.50316714549E+03  0.50316714549E+03  0.00000000000E+00 0. -1.
         25    2    1    2    0    0 -0.65248393012E+01  0.14108051482E+02  0.57520837668E+01  0.12608545263E+03  0.12499137672E+03 0.  0.
          5    1    3    3  501    0  0.25344635737E+02 -0.40702186746E+02 -0.26678441491E+02  0.54870463885E+02  0.10000000000E+00 0. -1.
         -5    1    3    3    0  501 -0.31869475039E+02  0.54810238228E+02  0.32430525258E+02  0.71214988748E+02  0.10000000000E+00 0. -1.
         21    1    1    2  504  502  0.65248393012E+01 -0.14108051482E+02 -0.44286411207E+03  0.44313681003E+03  0.00000000000E+00 0. -1.
<mgrwt>
<rscale>  1 0.12595418E+03</rscale>
<asrwt>0</asrwt>
<pdfrwt beam="1">  1       21 0.10162326E-01 0.12595418E+03</pdfrwt>
<pdfrwt beam="2">  1       21 0.77410328E-01 0.12595418E+03</pdfrwt>
<totfact> 0.11979542E+05</totfact>
</mgrwt>
</event>
<event>
 6    1  0.4244577E-002  0.1262524E+03  0.7546771E-02  0.1233125E+00
         21   -1    0    0  504  502  0.00000000000E+00  0.00000000000E+00  0.69652169697E+01  0.69652169697E+01  0.00000000000E+00 0.  1.
         21   -1    0    0  502  503 -0.00000000000E+00 -0.00000000000E+00 -0.74574754626E+03  0.74574754626E+03  0.00000000000E+00 0.  1.
         25    2    1    2    0    0 -0.57491812349E+00  0.17736673177E+02 -0.63608721263E+03  0.64849564807E+03  0.12499897355E+03 0.  0.
          5    1    3    3  501    0 -0.50395892067E+02  0.41384434728E+02 -0.43980540196E+03  0.44461356139E+03  0.10000000000E+00 0. -1.
         -5    1    3    3    0  501  0.49820973944E+02 -0.23647761550E+02 -0.19628181067E+03  0.20388208669E+03  0.10000000000E+00 0. -1.
         21    1    1    2  504  503  0.57491812349E+00 -0.17736673177E+02 -0.10269511666E+03  0.10421711516E+03  0.00000000000E+00 0.  1.
<mgrwt>
<rscale>  1 0.12625238E+03</rscale>
<asrwt>0</asrwt>
<pdfrwt beam="1">  1       21 0.10715724E-02 0.12625238E+03</pdfrwt>
<pdfrwt beam="2">  1       21 0.11473033E+00 0.12625238E+03</pdfrwt>
<totfact> 0.19834773E+06</totfact>
</mgrwt>
</event>
<event>
 6    1  0.4244577E-002  0.1302533E+03  0.7546771E-02  0.1227080E+00
         21   -1    0    0  504  502  0.00000000000E+00  0.00000000000E+00  0.75707162693E+01  0.75707162693E+01  0.00000000000E+00 0.  1.
         21   -1    0    0  502  503 -0.00000000000E+00 -0.00000000000E+00 -0.12279112995E+04  0.12279112995E+04  0.00000000000E+00 0.  1.
         25    2    1    2    0    0 -0.18429624463E+02 -0.31662284645E+02 -0.59598313907E+03  0.61005066909E+03  0.12499506181E+03 0.  0.
          5    1    3    3  501    0 -0.89800134964E+01  0.39918881457E+02 -0.89036259480E+02  0.97987872930E+02  0.10000000000E+00 0. -1.
         -5    1    3    3    0  501 -0.94496109671E+01 -0.71581166101E+02 -0.50694687959E+03  0.51206279616E+03  0.10000000000E+00 0. -1.
         21    1    1    2  504  503  0.18429624463E+02  0.31662284645E+02 -0.62435744415E+03  0.62543134666E+03  0.00000000000E+00 0.  1.
<mgrwt>
<rscale>  1 0.13025328E+03</rscale>
<asrwt>0</asrwt>
<pdfrwt beam="1">  1       21 0.11647260E-02 0.13025328E+03</pdfrwt>
<pdfrwt beam="2">  1       21 0.18890937E+00 0.13025328E+03</pdfrwt>
<totfact> 0.47754439E+05</totfact>
</mgrwt>
</event>
<event>
 6    1  0.4244577E-002  0.1383485E+03  0.7546771E-02  0.1215569E+00
         21   -1    0    0  503  502  0.00000000000E+00  0.00000000000E+00  0.60240725364E+02  0.60240725364E+02  0.00000000000E+00 0. -1.
         21   -1    0    0  504  503 -0.00000000000E+00 -0.00000000000E+00 -0.19164553597E+03  0.19164553597E+03  0.00000000000E+00 0. -1.
         25    2    1    2    0    0  0.51370210049E+02 -0.29617353642E+02 -0.13390371047E+03  0.19253703541E+03  0.12499688080E+03 0.  0.
          5    1    3    3  501    0  0.22542789942E+02 -0.55923557966E+02 -0.14056032993E+03  0.15294717410E+03  0.10000000000E+00 0. -1.
         -5    1    3    3    0  501  0.28827420108E+02  0.26306204325E+02  0.66566194597E+01  0.39589861311E+02  0.10000000000E+00 0. -1.
         21    1    1    2  504  502 -0.51370210049E+02  0.29617353642E+02  0.24988998657E+01  0.59349225924E+02  0.00000000000E+00 0. -1.
<mgrwt>
<rscale>  1 0.13834850E+03</rscale>
<asrwt>0</asrwt>
<pdfrwt beam="1">  1       21 0.92678038E-02 0.13834850E+03</pdfrwt>
<pdfrwt beam="2">  1       21 0.29483929E-01 0.13834850E+03</pdfrwt>
<totfact> 0.10241790E+06</totfact>
</mgrwt>
</event>
<event>
 6    1  0.4244577E-002  0.1262466E+03  0.7546771E-02  0.1233134E+00
         21   -1    0    0  504  502  0.00000000000E+00  0.00000000000E+00  0.12578905006E+02  0.12578905006E+02  0.00000000000E+00 0. -1.
         21   -1    0    0  502  503 -0.00000000000E+00 -0.00000000000E+00 -0.41602145816E+03  0.41602145816E+03  0.00000000000E+00 0. -1.
         25    2    1    2    0    0  0.16920131980E+02  0.53051576890E+01 -0.33834574847E+03  0.36113163305E+03  0.12499510115E+03 0.  0.
          5    1    3    3  501    0  0.61470280876E+02  0.36804790708E+02 -0.19649674979E+03  0.20915107154E+03  0.10000000000E+00 0. -1.
         -5    1    3    3    0  501 -0.44550148895E+02 -0.31499633019E+02 -0.14184899869E+03  0.15198056151E+03  0.10000000000E+00 0. -1.
         21    1    1    2  504  503 -0.16920131980E+02 -0.53051576890E+01 -0.65096804683E+02  0.67468730122E+02  0.00000000000E+00 0. -1.
<mgrwt>
<rscale>  1 0.12624663E+03</rscale>
<asrwt>0</asrwt>
<pdfrwt beam="1">  1       21 0.19352164E-02 0.12624663E+03</pdfrwt>
<pdfrwt beam="2">  1       21 0.64003293E-01 0.12624663E+03</pdfrwt>
<totfact> 0.29054337E+06</totfact>
</mgrwt>
</event>
<event>
 6    1  0.4244577E-002  0.1259862E+03  0.7546771E-02  0.1233536E+00
         21   -1    0    0  504  502  0.00000000000E+00  0.00000000000E+00  0.14951392035E+03  0.14951392035E+03  0.00000000000E+00 0.  1.
         21   -1    0    0  502  503 -0.00000000000E+00 -0.00000000000E+00 -0.39050070938E+02  0.39050070938E+02  0.00000000000E+00 0.  1.
         25    2    1    2    0    0 -0.21882544609E+01  0.15522054928E+02  0.11666460338E+03  0.17170658946E+03  0.12500720193E+03 0.  0.
          5    1    3    3  501    0  0.23467278132E+02 -0.12222914886E+02 -0.17894014926E+02  0.31942425728E+02  0.10000000000E+00 0.  1.
         -5    1    3    3    0  501 -0.25655532592E+02  0.27744969814E+02  0.13455861831E+03  0.13976416373E+03  0.10000000000E+00 0.  1.
         21    1    1    2  504  503  0.21882544609E+01 -0.15522054928E+02 -0.62007539662E+01  0.16857401832E+02  0.00000000000E+00 0.  1.
<mgrwt>
<rscale>  1 0.12598620E+03</rscale>
<asrwt>0</asrwt>
<pdfrwt beam="1">  1       21 0.23002141E-01 0.12598620E+03</pdfrwt>
<pdfrwt beam="2">  1       21 0.60077033E-02 0.12598620E+03</pdfrwt>
<totfact> 0.34494222E+06</totfact>
</mgrwt>
</event>
<event>
 6    1  0.4244577E-002  0.1379172E+03  0.7546771E-02  0.1216159E+00
         21   -1    0    0  503  502  0.00000000000E+00  0.00000000000E+00  0.76892336578E+02  0.76892336578E+02  0.00000000000E+00 0. -1.
         21   -1    0    0  504  503 -0.00000000000E+00 -0.00000000000E+00 -0.39892889231E+03  0.39892889231E+03  0.00000000000E+00 0. -1.
         25    2    1    2    0    0 -0.39315828959E+02 -0.43018776110E+02  0.10405954481E+02  0.13830919636E+03  0.12499920162E+03 0.  0.
          5    1    3    3  501    0 -0.47661516795E+02 -0.75831901208E+02 -0.21146086876E+02  0.92028606499E+02  0.10000000000E+00 0.  1.
         -5    1    3    3    0  501  0.83456878361E+01  0.32813125097E+02  0.31552041357E+02  0.46280589861E+02  0.10000000000E+00 0.  1.
         21    1    1    2  504  502  0.39315828959E+02  0.43018776110E+02 -0.33244251021E+03  0.33751203253E+03  0.00000000000E+00 0. -1.
<mgrwt>
<rscale>  1 0.13791718E+03</rscale>
<asrwt>0</asrwt>
<pdfrwt beam="1">  1       21 0.11829590E-01 0.13791718E+03</pdfrwt>
<pdfrwt beam="2">  1       21 0.61373677E-01 0.13791718E+03</pdfrwt>
<totfact> 0.15128059E+05</totfact>
</mgrwt>
</event>
<event>
 6    1  0.4244577E-002  0.1264118E+03  0.7546771E-02  0.1232879E+00
         21   -1    0    0  503  502  0.00000000000E+00  0.00000000000E+00  0.29896754852E+03  0.29896754852E+03  0.00000000000E+00 0. -1.
         21   -1    0    0  504  503 -0.00000000000E+00 -0.00000000000E+00 -0.19160414502E+02  0.19160414502E+02  0.00000000000E+00 0. -1.
         25    2    1    2    0    0 -0.13848412319E+02  0.12595727276E+02  0.26709751869E+03  0.29550131521E+03  0.12501804643E+03 0.  0.
          5    1    3    3  501    0 -0.13176834238E+02 -0.43954464066E+02  0.21067560171E+03  0.21561503433E+03  0.10000000000E+00 0. -1.
         -5    1    3    3    0  501 -0.67157808110E+00  0.56550191341E+02  0.56421916974E+02  0.79886280880E+02  0.10000000000E+00 0. -1.
         21    1    1    2  504  502  0.13848412319E+02 -0.12595727276E+02  0.12709615331E+02  0.22626647812E+02  0.00000000000E+00 0.  1.
<mgrwt>
<rscale>  1 0.12641180E+03</rscale>
<asrwt>0</asrwt>
<pdfrwt beam="1">  1       21 0.45995004E-01 0.12641180E+03</pdfrwt>
<pdfrwt beam="2">  1       21 0.29477563E-02 0.12641180E+03</pdfrwt>
<totfact> 0.29253120E+06</totfact>
</mgrwt>
</event>
<event>
 6    1  0.4244577E-002  0.2079364E+03  0.7546771E-02  0.1143211E+00
         21   -1    0    0  504  502  0.00000000000E+00  0.00000000000E+00  0.14869739905E+03  0.14869739905E+03  0.00000000000E+00 0.  1.
         21   -1    0    0  502  503 -0.00000000000E+00 -0.00000000000E+00 -0.53595394614E+03  0.53595394614E+03  0.00000000000E+00 0. -1.
         25    2    1    2    0    0  0.15659172374E+03 -0.55606260097E+02  0.52571666507E+02  0.21447916228E+03  0.12499802729E+03 0.  0.
          5    1    3    3  501    0 -0.10533202173E+02  0.15482161894E+02  0.24296716334E+02  0.30675496892E+02  0.10000000000E+00 0. -1.
         -5    1    3    3    0  501  0.16712492591E+03 -0.71088421992E+02  0.28274950173E+02  0.18380366538E+03  0.10000000000E+00 0. -1.
         21    1    1    2  504  503 -0.15659172374E+03  0.55606260097E+02 -0.43982821360E+03  0.47017218291E+03  0.00000000000E+00 0. -1.
<mgrwt>
<rscale>  1 0.20793636E+03</rscale>
<asrwt>0</asrwt>
<pdfrwt beam="1">  1       21 0.22876523E-01 0.20793636E+03</pdfrwt>
<pdfrwt beam="2">  1       21 0.82454453E-01 0.20793636E+03</pdfrwt>
<totfact> 0.22820871E+04</totfact>
</mgrwt>
</event>
<event>
 6    1  0.4244577E-002  0.1513547E+03  0.7546771E-02  0.1198818E+00
         21   -1    0    0  503  502  0.00000000000E+00  0.00000000000E+00  0.32793400301E+03  0.32793400301E+03  0.00000000000E+00 0.  1.
         21   -1    0    0  504  503 -0.00000000000E+00 -0.00000000000E+00 -0.69841091125E+02  0.69841091125E+02  0.00000000000E+00 0.  1.
         25    2    1    2    0    0 -0.83161080861E+02  0.19164518465E+02  0.27203228619E+03  0.31130342077E+03  0.12500084367E+03 0.  0.
          5    1    3    3  501    0 -0.62376337448E+02  0.13699518664E+02  0.28088978617E+03  0.28805826886E+03  0.10000000000E+00 0.  1.
         -5    1    3    3    0  501 -0.20784743412E+02  0.54649998005E+01 -0.88574999798E+01  0.23245151912E+02  0.10000000000E+00 0.  1.
         21    1    1    2  504  502  0.83161080861E+02 -0.19164518465E+02 -0.13939374305E+02  0.86471673361E+02  0.00000000000E+00 0.  1.
<mgrwt>
<rscale>  1 0.15135473E+03</rscale>
<asrwt>0</asrwt>
<pdfrwt beam="1">  1       21 0.50451384E-01 0.15135473E+03</pdfrwt>
<pdfrwt beam="2">  1       21 0.10744783E-01 0.15135473E+03</pdfrwt>
<totfact> 0.26993826E+05</totfact>
</mgrwt>
</event>
<event>
 6    1  0.4244577E-002  0.1260198E+03  0.7546771E-02  0.1233484E+00
         21   -1    0    0  503  502  0.00000000000E+00  0.00000000000E+00  0.48970165435E+02  0.48970165435E+02  0.00000000000E+00 0.  1.
         21   -1    0    0  504  503 -0.00000000000E+00 -0.00000000000E+00 -0.62419790863E+03  0.62419790863E+03  0.00000000000E+00 0. -1.
         25    2    1    2    0    0 -0.80841419215E+01  0.13792185285E+02 -0.32417607522E+02  0.13012256850E+03  0.12500161531E+03 0.  0.
          5    1    3    3  501    0  0.27569428409E+02  0.11630206788E+02  0.39658927996E+02  0.49680737338E+02  0.10000000000E+00 0. -1.
         -5    1    3    3    0  501 -0.35653570331E+02  0.21619784977E+01 -0.72076535518E+02  0.80441831161E+02  0.10000000000E+00 0. -1.
         21    1    1    2  504  502  0.80841419215E+01 -0.13792185285E+02 -0.54281013567E+03  0.54304550557E+03  0.00000000000E+00 0. -1.
<mgrwt>
<rscale>  1 0.12601977E+03</rscale>
<asrwt>0</asrwt>
<pdfrwt beam="1">  1       21 0.75338710E-02 0.12601977E+03</pdfrwt>
<pdfrwt beam="2">  1       21 0.96030456E-01 0.12601977E+03</pdfrwt>
<totfact> 0.12347328E+05</totfact>
</mgrwt>
</event>
<event>
 6    1  0.4244577E-002  0.1260243E+03  0.7546771E-02  0.1233477E+00
         21   -1    0    0  504  502  0.00000000000E+00  0.00000000000E+00  0.40740819329E+02  0.40740819329E+02  0.00000000000E+00 0.  1.
         21   -1    0    0  502  503 -0.00000000000E+00 -0.00000000000E+00 -0.18047989141E+03  0.18047989141E+03  0.00000000000E+00 0.  1.
         25    2    1    2    0    0 -0.10781521533E+02  0.11810746632E+02 -0.59428917663E+02  0.13933386292E+03  0.12500557651E+03 0.  0.
          5    1    3    3  501    0  0.38931432683E+00  0.16747412402E+02  0.37797389270E+02  0.41343439908E+02  0.10000000000E+00 0. -1.
         -5    1    3    3    0  501 -0.11170835860E+02 -0.49366657702E+01 -0.97226306933E+02  0.97990423014E+02  0.10000000000E+00 0. -1.
         21    1    1    2  504  503  0.10781521533E+02 -0.11810746632E+02 -0.80310154422E+02  0.81886847820E+02  0.00000000000E+00 0.  1.
<mgrwt>
<rscale>  1 0.12602432E+03</rscale>
<asrwt>0</asrwt>
<pdfrwt beam="1">  1       21 0.62678184E-02 0.12602432E+03</pdfrwt>
<pdfrwt beam="2">  1       21 0.27766137E-01 0.12602432E+03</pdfrwt>
<totfact> 0.22487166E+06</totfact>
</mgrwt>
</event>
<event>
 6    1  0.4244577E-002  0.1874096E+03  0.7546771E-02  0.1160819E+00
         21   -1    0    0  503  502  0.00000000000E+00  0.00000000000E+00  0.20877186162E+03  0.20877186162E+03  0.00000000000E+00 0. -1.
         21   -1    0    0  504  503 -0.00000000000E+00 -0.00000000000E+00 -0.14632769023E+03  0.14632769023E+03  0.00000000000E+00 0. -1.
         25    2    1    2    0    0 -0.74460358762E+02  0.11814385273E+03 -0.26876665125E+02  0.18932703664E+03  0.12498022527E+03 0.  0.
          5    1    3    3  501    0  0.94253580049E+01 -0.11842608006E+02  0.22338564721E+02  0.26983443289E+02  0.10000000000E+00 0.  1.
         -5    1    3    3    0  501 -0.83885716767E+02  0.12998646074E+03 -0.49215229846E+02  0.16234359335E+03  0.10000000000E+00 0.  1.
         21    1    1    2  504  502  0.74460358762E+02 -0.11814385273E+03  0.89320836515E+02  0.16577251521E+03  0.00000000000E+00 0. -1.
<mgrwt>
<rscale>  1 0.18740964E+03</rscale>
<asrwt>0</asrwt>
<pdfrwt beam="1">  1       21 0.32118748E-01 0.18740964E+03</pdfrwt>
<pdfrwt beam="2">  1       21 0.22511952E-01 0.18740964E+03</pdfrwt>
<totfact> 0.17261461E+05</totfact>
</mgrwt>
</event>
<event>
 6    1  0.4244577E-002  0.1311951E+03  0.7546771E-02  0.1225693E+00
         21   -1    0    0  504  502  0.00000000000E+00  0.00000000000E+00  0.10257150148E+03  0.10257150148E+03  0.00000000000E+00 0. -1.
         21   -1    0    0  502  503 -0.00000000000E+00 -0.00000000000E+00 -0.11363944646E+04  0.11363944646E+04  0.00000000000E+00 0. -1.
         25    2    1    2    0    0  0.38727723967E+02  0.93071031382E+01  0.60108717422E+02  0.14430940785E+03  0.12500275402E+03 0.  0.
          5    1    3    3  501    0  0.53287655228E+02 -0.13223786408E+02 -0.21073754497E+02  0.58809487800E+02  0.10000000000E+00 0. -1.
         -5    1    3    3    0  501 -0.14559931261E+02  0.22530889547E+02  0.81182471919E+02  0.85499920052E+02  0.10000000000E+00 0. -1.
         21    1    1    2  504  503 -0.38727723967E+02 -0.93071031382E+01 -0.10939316806E+04  0.10946565583E+04  0.00000000000E+00 0. -1.
<mgrwt>
<rscale>  1 0.13119507E+03</rscale>
<asrwt>0</asrwt>
<pdfrwt beam="1">  1       21 0.15780231E-01 0.13119507E+03</pdfrwt>
<pdfrwt beam="2">  1       21 0.17482992E+00 0.13119507E+03</pdfrwt>
<totfact> 0.74823372E+03</totfact>
</mgrwt>
</event>
<event>
 6    1  0.4244577E-002  0.1262496E+03  0.7546771E-02  0.1233129E+00
         21   -1    0    0  503  502  0.00000000000E+00  0.00000000000E+00  0.10391330444E+03  0.10391330444E+03  0.00000000000E+00 0.  1.
         21   -1    0    0  504  503 -0.00000000000E+00 -0.00000000000E+00 -0.84387214408E+02  0.84387214408E+02  0.00000000000E+00 0.  1.
         25    2    1    2    0    0  0.80700179715E+01  0.15897029659E+02  0.63158493397E+02  0.14116637659E+03  0.12498443843E+03 0.  0.
          5    1    3    3  501    0 -0.13445467057E+02 -0.24843403324E+02 -0.27530565911E+02  0.39445117980E+02  0.10000000000E+00 0.  1.
         -5    1    3    3    0  501  0.21515485029E+02  0.40740432983E+02  0.90689059307E+02  0.10172125861E+03  0.10000000000E+00 0.  1.
         21    1    1    2  504  502 -0.80700179715E+01 -0.15897029659E+02 -0.43632403368E+02  0.47134142251E+02  0.00000000000E+00 0.  1.
<mgrwt>
<rscale>  1 0.12624956E+03</rscale>
<asrwt>0</asrwt>
<pdfrwt beam="1">  1       21 0.15986662E-01 0.12624956E+03</pdfrwt>
<pdfrwt beam="2">  1       21 0.12982648E-01 0.12624956E+03</pdfrwt>
<totfact> 0.17697990E+06</totfact>
</mgrwt>
</event>
<event>
 6    1  0.4244577E-002  0.1262340E+03  0.7546771E-02  0.1233153E+00
         21   -1    0    0  504  502  0.00000000000E+00  0.00000000000E+00  0.79241303699E+02  0.79241303699E+02  0.00000000000E+00 0.  1.
         21   -1    0    0  502  503 -0.00000000000E+00 -0.00000000000E+00 -0.66880161962E+02  0.66880161962E+02  0.00000000000E+00 0.  1.
         25    2    1    2    0    0  0.51161910416E+01  0.16881285372E+02  0.18203085209E+02  0.12753971359E+03  0.12499549202E+03 0.  0.
          5    1    3    3  501    0 -0.20954824172E+01 -0.53428395581E+02 -0.35555453311E+01  0.53587651596E+02  0.10000000000E+00 0.  1.
         -5    1    3    3    0  501  0.72116734589E+01  0.70309680954E+02  0.21758630540E+02  0.73952061992E+02  0.10000000000E+00 0.  1.
         21    1    1    2  504  503 -0.51161910416E+01 -0.16881285372E+02 -0.58419434724E+01  0.18581752074E+02  0.00000000000E+00 0. -1.
<mgrwt>
<rscale>  1 0.12623401E+03</rscale>
<asrwt>0</asrwt>
<pdfrwt beam="1">  1       21 0.12190970E-01 0.12623401E+03</pdfrwt>
<pdfrwt beam="2">  1       21 0.10289256E-01 0.12623401E+03</pdfrwt>
<totfact> 0.43366026E+06</totfact>
</mgrwt>
</event>
<event>
 6    1  0.4244577E-002  0.1273717E+03  0.7546771E-02  0.1231409E+00
         21   -1    0    0  504  502  0.00000000000E+00  0.00000000000E+00  0.13822392939E+03  0.13822392939E+03  0.00000000000E+00 0. -1.
         21   -1    0    0  502  503 -0.00000000000E+00 -0.00000000000E+00 -0.72716630401E+02  0.72716630401E+02  0.00000000000E+00 0. -1.
         25    2    1    2    0    0 -0.22697715075E+02 -0.91247335280E+01  0.10460495071E+03  0.16482035379E+03  0.12500042512E+03 0.  0.
          5    1    3    3  501    0 -0.11231461270E+02  0.34277738992E+02  0.11346686235E+03  0.11906237006E+03  0.10000000000E+00 0.  1.
         -5    1    3    3    0  501 -0.11466253805E+02 -0.43402472520E+02 -0.88619116412E+01  0.45757983731E+02  0.10000000000E+00 0.  1.
         21    1    1    2  504  503  0.22697715075E+02  0.91247335280E+01 -0.39097651720E+02  0.46120206001E+02  0.00000000000E+00 0. -1.
<mgrwt>
<rscale>  1 0.12737171E+03</rscale>
<asrwt>0</asrwt>
<pdfrwt beam="1">  1       21 0.21265220E-01 0.12737171E+03</pdfrwt>
<pdfrwt beam="2">  1       21 0.11187174E-01 0.12737171E+03</pdfrwt>
<totfact> 0.13652840E+06</totfact>
</mgrwt>
</event>
<event>
 6    1  0.4244577E-002  0.1296471E+03  0.7546771E-02  0.1227980E+00
         21   -1    0    0  503  502  0.00000000000E+00  0.00000000000E+00  0.79287259422E+02  0.79287259422E+02  0.00000000000E+00 0.  1.
         21   -1    0    0  504  503 -0.00000000000E+00 -0.00000000000E+00 -0.86148802187E+02  0.86148802187E+02  0.00000000000E+00 0.  1.
         25    2    1    2    0    0 -0.33262441569E+02  0.89985736968E+01  0.27025902240E+01  0.12967523126E+03  0.12498398801E+03 0.  0.
          5    1    3    3  501    0 -0.74432776248E+02  0.30407584672E+02 -0.11322849624E+02  0.81197760493E+02  0.10000000000E+00 0. -1.
         -5    1    3    3    0  501  0.41170334679E+02 -0.21409010975E+02  0.14025439848E+02  0.48477470762E+02  0.10000000000E+00 0. -1.
         21    1    1    2  504  502  0.33262441569E+02 -0.89985736968E+01 -0.95641329889E+01  0.35760830353E+02  0.00000000000E+00 0.  1.
<mgrwt>
<rscale>  1 0.12964707E+03</rscale>
<asrwt>0</asrwt>
<pdfrwt beam="1">  1       21 0.12198040E-01 0.12964707E+03</pdfrwt>
<pdfrwt beam="2">  1       21 0.13253662E-01 0.12964707E+03</pdfrwt>
<totfact> 0.27721403E+06</totfact>
</mgrwt>
</event>
<event>
 6    1  0.4244577E-002  0.1553632E+03  0.7546771E-02  0.1194033E+00
         21   -1    0    0  503  502  0.00000000000E+00  0.00000000000E+00  0.14452194909E+03  0.14452194909E+03  0.00000000000E+00 0.  1.
         21   -1    0    0  504  503 -0.00000000000E+00 -0.00000000000E+00 -0.16867069290E+03  0.16867069290E+03  0.00000000000E+00 0.  1.
         25    2    1    2    0    0 -0.37066845587E+02  0.84490002183E+02  0.79421848783E+02  0.17448655286E+03  0.12500086222E+03 0.  0.
          5    1    3    3  501    0 -0.69112404642E+02  0.98454495694E+02  0.58683894296E+02  0.13384177841E+03  0.10000000000E+00 0. -1.
         -5    1    3    3    0  501  0.32045559055E+02 -0.13964493511E+02  0.20737954486E+02  0.40644774454E+02  0.10000000000E+00 0. -1.
         21    1    1    2  504  502  0.37066845587E+02 -0.84490002183E+02 -0.10357059260E+03  0.13870608913E+03  0.00000000000E+00 0.  1.
<mgrwt>
<rscale>  1 0.15536321E+03</rscale>
<asrwt>0</asrwt>
<pdfrwt beam="1">  1       21 0.22234146E-01 0.15536321E+03</pdfrwt>
<pdfrwt beam="2">  1       21 0.25949337E-01 0.15536321E+03</pdfrwt>
<totfact> 0.26932035E+05</totfact>
</mgrwt>
</event>
<event>
 6    1  0.4244577E-002  0.1401310E+03  0.7546771E-02  0.1213153E+00
         21   -1    0    0  504  502  0.00000000000E+00  0.00000000000E+00  0.78478652686E+02  0.78478652686E+02  0.00000000000E+00 0. -1.
         21   -1    0    0  502  503 -0.00000000000E+00 -0.00000000000E+00 -0.18716327961E+03  0.18716327961E+03  0.00000000000E+00 0. -1.
         25    2    1    2    0    0 -0.49510385382E+02 -0.39520027628E+02 -0.13725153893E+03  0.19614963556E+03  0.12499433485E+03 0.  0.
          5    1    3    3  501    0 -0.72895207000E+02  0.18641122068E+02 -0.57422705322E+02  0.94649774020E+02  0.10000000000E+00 0. -1.
         -5    1    3    3    0  501  0.23384821618E+02 -0.58161149696E+02 -0.79828833613E+02  0.10149986154E+03  0.10000000000E+00 0. -1.
         21    1    1    2  504  503  0.49510385382E+02  0.39520027628E+02  0.28566912010E+02  0.69492296740E+02  0.00000000000E+00 0. -1.
<mgrwt>
<rscale>  1 0.14013099E+03</rscale>
<asrwt>0</asrwt>
<pdfrwt beam="1">  1       21 0.12073639E-01 0.14013099E+03</pdfrwt>
<pdfrwt beam="2">  1       21 0.28794350E-01 0.14013099E+03</pdfrwt>
<totfact> 0.67309162E+05</totfact>
</mgrwt>
</event>
<event>
 6    1  0.4244577E-002  0.1314258E+03  0.7546771E-02  0.1225355E+00
         21   -1    0    0  503  502  0.00000000000E+00  0.00000000000E+00  0.48393972154E+03  0.48393972154E+03  0.00000000000E+00 0.  1.
         21   -1    0    0  504  503 -0.00000000000E+00 -0.00000000000E+00 -0.18075355589E+02  0.18075355589E+02  0.00000000000E+00 0.  1.
         25    2    1    2    0    0 -0.25455119040E+02  0.31587613534E+02  0.42322074601E+03  0.44315746304E+03  0.12500798688E+03 0.  0.
          5    1    3    3  501    0 -0.58974240098E+02  0.56484718069E+02  0.34452790475E+03  0.35407339849E+03  0.10000000000E+00 0. -1.
         -5    1    3    3    0  501  0.33519121059E+02 -0.24897104535E+02  0.78692841264E+02  0.89084064551E+02  0.10000000000E+00 0. -1.
         21    1    1    2  504  502  0.25455119040E+02 -0.31587613534E+02  0.42643619939E+02  0.58857614083E+02  0.00000000000E+00 0. -1.
<mgrwt>
<rscale>  1 0.13142579E+03</rscale>
<asrwt>0</asrwt>
<pdfrwt beam="1">  1       21 0.74452255E-01 0.13142579E+03</pdfrwt>
<pdfrwt beam="2">  1       21 0.27808243E-02 0.13142579E+03</pdfrwt>
<totfact> 0.11619009E+06</totfact>
</mgrwt>
</event>
<event>
 6    1  0.4244577E-002  0.1291370E+03  0.7546771E-02  0.1228742E+00
         21   -1    0    0  504  502  0.00000000000E+00  0.00000000000E+00  0.51378761207E+02  0.51378761207E+02  0.00000000000E+00 0.  1.
         21   -1    0    0  502  503 -0.00000000000E+00 -0.00000000000E+00 -0.13145678204E+03  0.13145678204E+03  0.00000000000E+00 0.  1.
         25    2    1    2    0    0  0.16050370419E+02 -0.28172624512E+02 -0.49596854947E+02  0.13833371591E+03  0.12500023110E+03 0.  0.
          5    1    3    3  501    0  0.11297635132E+02  0.11311274801E+02  0.38494002551E+02  0.41681887308E+02  0.10000000000E+00 0. -1.
         -5    1    3    3    0  501  0.47527352868E+01 -0.39483899314E+02 -0.88090857497E+02  0.96651828603E+02  0.10000000000E+00 0. -1.
         21    1    1    2  504  503 -0.16050370419E+02  0.28172624512E+02 -0.30481165891E+02  0.44501827339E+02  0.00000000000E+00 0.  1.
<mgrwt>
<rscale>  1 0.12913702E+03</rscale>
<asrwt>0</asrwt>
<pdfrwt beam="1">  1       21 0.79044248E-02 0.12913702E+03</pdfrwt>
<pdfrwt beam="2">  1       21 0.20224120E-01 0.12913702E+03</pdfrwt>
<totfact> 0.27454893E+06</totfact>
</mgrwt>
</event>
<event>
 6    1  0.4244577E-002  0.1263390E+03  0.7546771E-02  0.1232991E+00
         21   -1    0    0  504  502  0.00000000000E+00  0.00000000000E+00  0.17194929929E+03  0.17194929929E+03  0.00000000000E+00 0.  1.
         21   -1    0    0  502  503 -0.00000000000E+00 -0.00000000000E+00 -0.31290585737E+02  0.31290585737E+02  0.00000000000E+00 0.  1.
         25    2    1    2    0    0  0.17010028025E+02  0.63879238159E+01  0.13323663140E+03  0.18361250804E+03  0.12502562352E+03 0.  0.
          5    1    3    3  501    0  0.56454511996E+02 -0.32534850652E+02  0.98856276188E+02  0.11839848721E+03  0.10000000000E+00 0. -1.
         -5    1    3    3    0  501 -0.39444483971E+02  0.38922774468E+02  0.34380355210E+02  0.65214020827E+02  0.10000000000E+00 0. -1.
         21    1    1    2  504  503 -0.17010028025E+02 -0.63879238159E+01  0.74220821587E+01  0.19627376994E+02  0.00000000000E+00 0.  1.
<mgrwt>
<rscale>  1 0.12633904E+03</rscale>
<asrwt>0</asrwt>
<pdfrwt beam="1">  1       21 0.26453738E-01 0.12633904E+03</pdfrwt>
<pdfrwt beam="2">  1       21 0.48139364E-02 0.12633904E+03</pdfrwt>
<totfact> 0.38492659E+06</totfact>
</mgrwt>
</event>
<event>
 6    1  0.4244577E-002  0.1278093E+03  0.7546771E-02  0.1230743E+00
         21   -1    0    0  503  502  0.00000000000E+00  0.00000000000E+00  0.12370682323E+03  0.12370682323E+03  0.00000000000E+00 0.  1.
         21   -1    0    0  504  503 -0.00000000000E+00 -0.00000000000E+00 -0.72750560472E+02  0.72750560472E+02  0.00000000000E+00 0.  1.
         25    2    1    2    0    0 -0.49635681392E+01 -0.26205458175E+02  0.84788436737E+02  0.15337630848E+03  0.12499539972E+03 0.  0.
          5    1    3    3  501    0 -0.10459694838E+02 -0.53844137384E+02 -0.88762347417E+01  0.55564322095E+02  0.10000000000E+00 0.  1.
         -5    1    3    3    0  501  0.54961266984E+01  0.27638679209E+02  0.93664671479E+02  0.97811986384E+02  0.10000000000E+00 0.  1.
         21    1    1    2  504  502  0.49635681392E+01  0.26205458175E+02 -0.33832173975E+02  0.43081075227E+02  0.00000000000E+00 0.  1.
<mgrwt>
<rscale>  1 0.12780928E+03</rscale>
<asrwt>0</asrwt>
<pdfrwt beam="1">  1       21 0.19031819E-01 0.12780928E+03</pdfrwt>
<pdfrwt beam="2">  1       21 0.11192394E-01 0.12780928E+03</pdfrwt>
<totfact> 0.16750395E+06</totfact>
</mgrwt>
</event>
<event>
 6    1  0.4244577E-002  0.1262740E+03  0.7546771E-02  0.1233092E+00
         21   -1    0    0  504  502  0.00000000000E+00  0.00000000000E+00  0.21697408259E+02  0.21697408259E+02  0.00000000000E+00 0.  1.
         21   -1    0    0  502  503 -0.00000000000E+00 -0.00000000000E+00 -0.29730944150E+03  0.29730944150E+03  0.00000000000E+00 0.  1.
         25    2    1    2    0    0  0.13437740533E+02 -0.11840825481E+02 -0.16934560202E+03  0.21124167717E+03  0.12499734090E+03 0.  0.
          5    1    3    3  501    0  0.70938964566E+01  0.36704265639E+02 -0.26185949805E+01  0.37475238794E+02  0.10000000000E+00 0.  1.
         -5    1    3    3    0  501  0.63438440766E+01 -0.48545091120E+02 -0.16672700704E+03  0.17376643838E+03  0.10000000000E+00 0.  1.
         21    1    1    2  504  503 -0.13437740533E+02  0.11840825481E+02 -0.10626643122E+03  0.10776517258E+03  0.00000000000E+00 0.  1.
<mgrwt>
<rscale>  1 0.12627396E+03</rscale>
<asrwt>0</asrwt>
<pdfrwt beam="1">  1       21 0.33380629E-02 0.12627396E+03</pdfrwt>
<pdfrwt beam="2">  1       21 0.45739913E-01 0.12627396E+03</pdfrwt>
<totfact> 0.24119941E+06</totfact>
</mgrwt>
</event>
<event>
 6    1  0.4244577E-002  0.1302931E+03  0.7546771E-02  0.1227022E+00
         21   -1    0    0  504  502  0.00000000000E+00  0.00000000000E+00  0.15253408126E+03  0.15253408126E+03  0.00000000000E+00 0. -1.
         21   -1    0    0  502  503 -0.00000000000E+00 -0.00000000000E+00 -0.48455399173E+02  0.48455399173E+02  0.00000000000E+00 0. -1.
         25    2    1    2    0    0 -0.32981070759E+02  0.16249403681E+02  0.99496017858E+02  0.16393823268E+03  0.12499796965E+03 0.  0.
          5    1    3    3  501    0  0.46523054365E+02  0.20023372968E+02  0.36482832145E+02  0.62420646374E+02  0.10000000000E+00 0.  1.
         -5    1    3    3    0  501 -0.79504125124E+02 -0.37739692873E+01  0.63013185713E+02  0.10151758631E+03  0.10000000000E+00 0.  1.
         21    1    1    2  504  503  0.32981070759E+02 -0.16249403681E+02  0.45826642288E+01  0.37051247750E+02  0.00000000000E+00 0. -1.
<mgrwt>
<rscale>  1 0.13029308E+03</rscale>
<asrwt>0</asrwt>
<pdfrwt beam="1">  1       21 0.23466781E-01 0.13029308E+03</pdfrwt>
<pdfrwt beam="2">  1       21 0.74546769E-02 0.13029308E+03</pdfrwt>
<totfact> 0.23019938E+06</totfact>
</mgrwt>
</event>
<event>
 6    1  0.4244577E-002  0.1310835E+03  0.7546771E-02  0.1225857E+00
         21   -1    0    0  504  502  0.00000000000E+00  0.00000000000E+00  0.10823432633E+04  0.10823432633E+04  0.00000000000E+00 0.  1.
         21   -1    0    0  502  503 -0.00000000000E+00 -0.00000000000E+00 -0.15698229132E+02  0.15698229132E+02  0.00000000000E+00 0. -1.
         25    2    1    2    0    0 -0.37016630358E+02 -0.13788401282E+02  0.10446248891E+04  0.10528171879E+04  0.12499008474E+03 0.  0.
          5    1    3    3  501    0  0.70792150490E+01 -0.54836413773E+02  0.25642855647E+03  0.26232186744E+03  0.10000000000E+00 0.  1.
         -5    1    3    3    0  501 -0.44095845407E+02  0.41048012490E+02  0.78819633261E+03  0.79049532045E+03  0.10000000000E+00 0.  1.
         21    1    1    2  504  503  0.37016630358E+02  0.13788401282E+02  0.22020145104E+02  0.45224304564E+02  0.00000000000E+00 0. -1.
<mgrwt>
<rscale>  1 0.13108346E+03</rscale>
<asrwt>0</asrwt>
<pdfrwt beam="1">  1       21 0.16651429E+00 0.13108346E+03</pdfrwt>
<pdfrwt beam="2">  1       21 0.24151130E-02 0.13108346E+03</pdfrwt>
<totfact> 0.20972580E+05</totfact>
</mgrwt>
</event>
<event>
 6    1  0.4244577E-002  0.1265125E+03  0.7546771E-02  0.1232724E+00
         21   -1    0    0  504  502  0.00000000000E+00  0.00000000000E+00  0.77072496452E+03  0.77072496452E+03  0.00000000000E+00 0.  1.
         21   -1    0    0  502  503 -0.00000000000E+00 -0.00000000000E+00 -0.15694874444E+02  0.15694874444E+02  0.00000000000E+00 0.  1.
         25    2    1    2    0    0  0.90672365017E+01  0.17265246435E+02  0.75636532013E+03  0.76687280974E+03  0.12500042120E+03 0.  0.
          5    1    3    3  501    0  0.43727293757E+02  0.17272293277E+02  0.11060143027E+03  0.12017942715E+03  0.10000000000E+00 0. -1.
         -5    1    3    3    0  501 -0.34660057255E+02 -0.70468417613E-02  0.64576388987E+03  0.64669338258E+03  0.10000000000E+00 0. -1.
         21    1    1    2  504  503 -0.90672365017E+01 -0.17265246435E+02 -0.13352300599E+01  0.19547029226E+02  0.00000000000E+00 0.  1.
<mgrwt>
<rscale>  1 0.12651248E+03</rscale>
<asrwt>0</asrwt>
<pdfrwt beam="1">  1       21 0.11857304E+00 0.12651248E+03</pdfrwt>
<pdfrwt beam="2">  1       21 0.24145967E-02 0.12651248E+03</pdfrwt>
<totfact> 0.49912592E+05</totfact>
</mgrwt>
</event>
<event>
 6    1  0.4244577E-002  0.1262192E+03  0.7546771E-02  0.1233176E+00
         21   -1    0    0  504  502  0.00000000000E+00  0.00000000000E+00  0.84801853779E+02  0.84801853779E+02  0.00000000000E+00 0.  1.
         21   -1    0    0  502  503 -0.00000000000E+00 -0.00000000000E+00 -0.24024765852E+03  0.24024765852E+03  0.00000000000E+00 0.  1.
         25    2    1    2    0    0 -0.15871563874E+01 -0.17447877825E+02  0.37216961753E+02  0.13159179315E+03  0.12499740108E+03 0.  0.
          5    1    3    3  501    0  0.52489993035E+02 -0.17960817411E+02 -0.13883109858E+02  0.57188644591E+02  0.10000000000E+00 0. -1.
         -5    1    3    3    0  501 -0.54077149422E+02  0.51293958557E+00  0.51100071611E+02  0.74403148558E+02  0.10000000000E+00 0. -1.
         21    1    1    2  504  503  0.15871563874E+01  0.17447877825E+02 -0.19266276649E+03  0.19345771915E+03  0.00000000000E+00 0.  1.
<mgrwt>
<rscale>  1 0.12621924E+03</rscale>
<asrwt>0</asrwt>
<pdfrwt beam="1">  1       21 0.13046439E-01 0.12621924E+03</pdfrwt>
<pdfrwt beam="2">  1       21 0.36961178E-01 0.12621924E+03</pdfrwt>
<totfact> 0.36082174E+05</totfact>
</mgrwt>
</event>
<event>
 6    1  0.4244577E-002  0.1295123E+03  0.7546771E-02  0.1228181E+00
         21   -1    0    0  503  502  0.00000000000E+00  0.00000000000E+00  0.20047871608E+02  0.20047871608E+02  0.00000000000E+00 0.  1.
         21   -1    0    0  504  503 -0.00000000000E+00 -0.00000000000E+00 -0.66093373143E+03  0.66093373143E+03  0.00000000000E+00 0.  1.
         25    2    1    2    0    0 -0.45464006711E+01  0.33527730188E+02 -0.19669791692E+03  0.23550690447E+03  0.12501461146E+03 0.  0.
          5    1    3    3  501    0 -0.56278304366E+01 -0.46932527803E+02 -0.92267966640E+02  0.10367122218E+03  0.10000000000E+00 0.  1.
         -5    1    3    3    0  501  0.10814297656E+01  0.80460257992E+02 -0.10442995028E+03  0.13183568228E+03  0.10000000000E+00 0.  1.
         21    1    1    2  504  502  0.45464006711E+01 -0.33527730188E+02 -0.44418794290E+03  0.44547469857E+03  0.00000000000E+00 0.  1.
<mgrwt>
<rscale>  1 0.12951228E+03</rscale>
<asrwt>0</asrwt>
<pdfrwt beam="1">  1       21 0.30842877E-02 0.12951228E+03</pdfrwt>
<pdfrwt beam="2">  1       21 0.10168212E+00 0.12951228E+03</pdfrwt>
<totfact> 0.48272123E+05</totfact>
</mgrwt>
</event>
<event>
 6    1  0.4244577E-002  0.1303150E+03  0.7546771E-02  0.1226989E+00
         21   -1    0    0  503  502  0.00000000000E+00  0.00000000000E+00  0.30785257802E+02  0.30785257802E+02  0.00000000000E+00 0.  1.
         21   -1    0    0  504  503 -0.00000000000E+00 -0.00000000000E+00 -0.24032540576E+03  0.24032540576E+03  0.00000000000E+00 0.  1.
         25    2    1    2    0    0  0.12324472247E+01  0.36834572748E+02 -0.13322566211E+03  0.18636277022E+03  0.12499480151E+03 0.  0.
          5    1    3    3  501    0  0.90315982802E+01 -0.28384017063E+02 -0.11414022754E+03  0.11796280658E+03  0.10000000000E+00 0.  1.
         -5    1    3    3    0  501 -0.77991510555E+01  0.65218589811E+02 -0.19085434572E+02  0.68399963647E+02  0.10000000000E+00 0.  1.
         21    1    1    2  504  502 -0.12324472247E+01 -0.36834572748E+02 -0.76314485848E+02  0.84747893342E+02  0.00000000000E+00 0.  1.
<mgrwt>
<rscale>  1 0.13031502E+03</rscale>
<asrwt>0</asrwt>
<pdfrwt beam="1">  1       21 0.47361935E-02 0.13031502E+03</pdfrwt>
<pdfrwt beam="2">  1       21 0.36973140E-01 0.13031502E+03</pdfrwt>
<totfact> 0.20694855E+06</totfact>
</mgrwt>
</event>
<event>
 6    1  0.4244577E-002  0.1264808E+03  0.7546771E-02  0.1232773E+00
         21   -1    0    0  503  502  0.00000000000E+00  0.00000000000E+00  0.36388822971E+02  0.36388822971E+02  0.00000000000E+00 0. -1.
         21   -1    0    0  504  503 -0.00000000000E+00 -0.00000000000E+00 -0.24861523956E+03  0.24861523956E+03  0.00000000000E+00 0. -1.
         25    2    1    2    0    0 -0.15767757796E+02 -0.11204040700E+02 -0.76309807566E+02  0.14771794771E+03  0.12499301033E+03 0.  0.
          5    1    3    3  501    0  0.55088233749E+02 -0.57879128900E+01 -0.34929819568E+02  0.65485232902E+02  0.10000000000E+00 0. -1.
         -5    1    3    3    0  501 -0.70855991545E+02 -0.54161278101E+01 -0.41379987997E+02  0.82232714809E+02  0.10000000000E+00 0. -1.
         21    1    1    2  504  502  0.15767757796E+02  0.11204040700E+02 -0.13591660902E+03  0.13728611482E+03  0.00000000000E+00 0. -1.
<mgrwt>
<rscale>  1 0.12648085E+03</rscale>
<asrwt>0</asrwt>
<pdfrwt beam="1">  1       21 0.55982805E-02 0.12648085E+03</pdfrwt>
<pdfrwt beam="2">  1       21 0.38248498E-01 0.12648085E+03</pdfrwt>
<totfact> 0.14596072E+06</totfact>
</mgrwt>
</event>
<event>
 6    1  0.4244577E-002  0.1315492E+03  0.7546771E-02  0.1225175E+00
         21   -1    0    0  504  502  0.00000000000E+00  0.00000000000E+00  0.14763647917E+02  0.14763647917E+02  0.00000000000E+00 0.  1.
         21   -1    0    0  502  503 -0.00000000000E+00 -0.00000000000E+00 -0.93034744835E+03  0.93034744835E+03  0.00000000000E+00 0.  1.
         25    2    1    2    0    0 -0.40569288209E+02  0.58590690500E+01 -0.29296351592E+03  0.32114297647E+03  0.12499997536E+03 0.  0.
          5    1    3    3  501    0  0.21187075411E+02  0.33340255128E+02 -0.21210599041E+03  0.21575315975E+03  0.10000000000E+00 0. -1.
         -5    1    3    3    0  501 -0.61756363619E+02 -0.27481186078E+02 -0.80857525513E+02  0.10538981672E+03  0.10000000000E+00 0. -1.
         21    1    1    2  504  503  0.40569288209E+02 -0.58590690500E+01 -0.62262028451E+03  0.62396811979E+03  0.00000000000E+00 0.  1.
<mgrwt>
<rscale>  1 0.13154919E+03</rscale>
<asrwt>0</asrwt>
<pdfrwt beam="1">  1       21 0.22713300E-02 0.13154919E+03</pdfrwt>
<pdfrwt beam="2">  1       21 0.14313041E+00 0.13154919E+03</pdfrwt>
<totfact> 0.34437891E+05</totfact>
</mgrwt>
</event>
<event>
 6    1  0.4244577E-002  0.1616674E+03  0.7546771E-02  0.1186827E+00
         21   -1    0    0  503  502  0.00000000000E+00  0.00000000000E+00  0.31550476617E+03  0.31550476617E+03  0.00000000000E+00 0. -1.
         21   -1    0    0  504  503 -0.00000000000E+00 -0.00000000000E+00 -0.61565298062E+02  0.61565298062E+02  0.00000000000E+00 0.  1.
         25    2    1    2    0    0  0.77092254099E+02 -0.67596589554E+02  0.21123654022E+03  0.26600227136E+03  0.12499527146E+03 0.  0.
          5    1    3    3  501    0  0.20345395099E+02  0.34627860436E+02  0.84577195210E+02  0.93628712315E+02  0.10000000000E+00 0. -1.
         -5    1    3    3    0  501  0.56746859001E+02 -0.10222444999E+03  0.12665934501E+03  0.17237355905E+03  0.10000000000E+00 0. -1.
         21    1    1    2  504  502 -0.77092254099E+02  0.67596589554E+02  0.42702927888E+02  0.11106779286E+03  0.00000000000E+00 0.  1.
<mgrwt>
<rscale>  1 0.16166735E+03</rscale>
<asrwt>0</asrwt>
<pdfrwt beam="1">  1       21 0.48539194E-01 0.16166735E+03</pdfrwt>
<pdfrwt beam="2">  1       21 0.94715845E-02 0.16166735E+03</pdfrwt>
<totfact> 0.36436940E+05</totfact>
</mgrwt>
</event>
<event>
 6    1  0.4244577E-002  0.1262836E+03  0.7546771E-02  0.1233077E+00
         21   -1    0    0  503  502  0.00000000000E+00  0.00000000000E+00  0.44003129791E+01  0.44003129791E+01  0.00000000000E+00 0. -1.
         21   -1    0    0  504  503 -0.00000000000E+00 -0.00000000000E+00 -0.13906968469E+04  0.13906968469E+04  0.00000000000E+00 0. -1.
         25    2    1    2    0    0 -0.12258757540E+02  0.13152132341E+02 -0.94076565113E+03  0.94920364878E+03  0.12499720311E+03 0.  0.
          5    1    3    3  501    0  0.13898678982E+02  0.46503832333E+02 -0.15789975968E+03  0.16519117351E+03  0.10000000000E+00 0. -1.
         -5    1    3    3    0  501 -0.26157436521E+02 -0.33351699992E+02 -0.78286589145E+03  0.78401247527E+03  0.10000000000E+00 0. -1.
         21    1    1    2  504  502  0.12258757540E+02 -0.13152132341E+02 -0.44553088279E+03  0.44589351110E+03  0.00000000000E+00 0. -1.
<mgrwt>
<rscale>  1 0.12628364E+03</rscale>
<asrwt>0</asrwt>
<pdfrwt beam="1">  1       21 0.67697022E-03 0.12628364E+03</pdfrwt>
<pdfrwt beam="2">  1       21 0.21395368E+00 0.12628364E+03</pdfrwt>
<totfact> 0.78115807E+05</totfact>
</mgrwt>
</event>
<event>
 6    1  0.4244577E-002  0.1262838E+03  0.7546771E-02  0.1233076E+00
         21   -1    0    0  504  502  0.00000000000E+00  0.00000000000E+00  0.66048607087E+02  0.66048607087E+02  0.00000000000E+00 0. -1.
         21   -1    0    0  502  503 -0.00000000000E+00 -0.00000000000E+00 -0.18653526897E+03  0.18653526897E+03  0.00000000000E+00 0. -1.
         25    2    1    2    0    0  0.12006056850E+02 -0.13431776194E+02  0.44430104517E+01  0.12636192455E+03  0.12499215024E+03 0.  0.
          5    1    3    3  501    0  0.43300830744E+01 -0.41637493682E+02 -0.49609251043E+02  0.64911619057E+02  0.10000000000E+00 0.  1.
         -5    1    3    3    0  501  0.76759737751E+01  0.28205717488E+02  0.54052261494E+02  0.61450305492E+02  0.10000000000E+00 0.  1.
         21    1    1    2  504  503 -0.12006056850E+02  0.13431776194E+02 -0.12492967234E+03  0.12622195151E+03  0.00000000000E+00 0. -1.
<mgrwt>
<rscale>  1 0.12628379E+03</rscale>
<asrwt>0</asrwt>
<pdfrwt beam="1">  1       21 0.10161324E-01 0.12628379E+03</pdfrwt>
<pdfrwt beam="2">  1       21 0.28697733E-01 0.12628379E+03</pdfrwt>
<totfact> 0.91802183E+05</totfact>
</mgrwt>
</event>
<event>
 6    1  0.4244577E-002  0.1377825E+03  0.7546771E-02  0.1216344E+00
         21   -1    0    0  504  502  0.00000000000E+00  0.00000000000E+00  0.13039663363E+02  0.13039663363E+02  0.00000000000E+00 0. -1.
         21   -1    0    0  502  503 -0.00000000000E+00 -0.00000000000E+00 -0.75685602216E+03  0.75685602216E+03  0.00000000000E+00 0. -1.
         25    2    1    2    0    0  0.57436618840E+02 -0.77895437856E+01 -0.45866329022E+03  0.47891129643E+03  0.12499749548E+03 0.  0.
          5    1    3    3  501    0  0.13577874579E+02 -0.17938134951E+02 -0.41689416480E+03  0.41750076648E+03  0.10000000000E+00 0. -1.
         -5    1    3    3    0  501  0.43858744262E+02  0.10148591166E+02 -0.41769125418E+02  0.61410529952E+02  0.10000000000E+00 0. -1.
         21    1    1    2  504  503 -0.57436618840E+02  0.77895437856E+01 -0.28515306858E+03  0.29098438910E+03  0.00000000000E+00 0. -1.
<mgrwt>
<rscale>  1 0.13778250E+03</rscale>
<asrwt>0</asrwt>
<pdfrwt beam="1">  1       21 0.20061026E-02 0.13778250E+03</pdfrwt>
<pdfrwt beam="2">  1       21 0.11643936E+00 0.13778250E+03</pdfrwt>
<totfact> 0.70304832E+05</totfact>
</mgrwt>
</event>
<event>
 6    1  0.4244577E-002  0.1293932E+03  0.7546771E-02  0.1228359E+00
         21   -1    0    0  503  502  0.00000000000E+00  0.00000000000E+00  0.29890806921E+04  0.29890806921E+04  0.00000000000E+00 0. -1.
         21   -1    0    0  504  503 -0.00000000000E+00 -0.00000000000E+00 -0.22415421861E+01  0.22415421861E+01  0.00000000000E+00 0. -1.
         25    2    1    2    0    0 -0.92281820211E+01  0.32135935445E+02  0.22385320124E+04  0.22422685314E+04  0.12499887545E+03 0.  0.
          5    1    3    3  501    0 -0.58202573600E+02  0.42204901408E+02  0.16684112869E+04  0.16699595880E+04  0.10000000000E+00 0.  1.
         -5    1    3    3    0  501  0.48974391579E+02 -0.10068965963E+02  0.57012072549E+03  0.57230894344E+03  0.10000000000E+00 0.  1.
         21    1    1    2  504  502  0.92281820211E+01 -0.32135935445E+02  0.74830713755E+03  0.74905370288E+03  0.00000000000E+00 0. -1.
<mgrwt>
<rscale>  1 0.12939319E+03</rscale>
<asrwt>0</asrwt>
<pdfrwt beam="1">  1       21 0.45985538E+00 0.12939319E+03</pdfrwt>
<pdfrwt beam="2">  1       21 0.34485504E-03 0.12939319E+03</pdfrwt>
<totfact> 0.77297681E+04</totfact>
</mgrwt>
</event>
<event>
 6    1  0.4244577E-002  0.1278926E+03  0.7546771E-02  0.1230617E+00
         21   -1    0    0  503  502  0.00000000000E+00  0.00000000000E+00  0.57086601054E+03  0.57086601054E+03  0.00000000000E+00 0.  1.
         21   -1    0    0  504  503 -0.00000000000E+00 -0.00000000000E+00 -0.10763632633E+02  0.10763632633E+02  0.00000000000E+00 0.  1.
         25    2    1    2    0    0 -0.15922419882E+02  0.21837341815E+02  0.49225902746E+03  0.50860147633E+03  0.12500447455E+03 0.  0.
          5    1    3    3  501    0  0.13933608967E+02  0.41617438365E+02  0.57329947591E+02  0.72200342975E+02  0.10000000000E+00 0.  1.
         -5    1    3    3    0  501 -0.29856028849E+02 -0.19780096550E+02  0.43492907987E+03  0.43640113336E+03  0.10000000000E+00 0.  1.
         21    1    1    2  504  502  0.15922419882E+02 -0.21837341815E+02  0.67843350445E+02  0.73028166841E+02  0.00000000000E+00 0.  1.
<mgrwt>
<rscale>  1 0.12789258E+03</rscale>
<asrwt>0</asrwt>
<pdfrwt beam="1">  1       21 0.87825516E-01 0.12789258E+03</pdfrwt>
<pdfrwt beam="2">  1       21 0.16559439E-02 0.12789258E+03</pdfrwt>
<totfact> 0.18565136E+06</totfact>
</mgrwt>
</event>
<event>
 6    1  0.4244577E-002  0.1337842E+03  0.7546771E-02  0.1221946E+00
         21   -1    0    0  503  502  0.00000000000E+00  0.00000000000E+00  0.46072529368E+03  0.46072529368E+03  0.00000000000E+00 0. -1.
         21   -1    0    0  504  503 -0.00000000000E+00 -0.00000000000E+00 -0.36929986815E+02  0.36929986815E+02  0.00000000000E+00 0. -1.
         25    2    1    2    0    0  0.40586332608E+02 -0.25042928128E+02  0.42928607330E+03  0.44964958125E+03  0.12499525808E+03 0.  0.
          5    1    3    3  501    0 -0.38901552617E+02  0.12755906469E+02  0.19785597784E+03  0.20204712795E+03  0.10000000000E+00 0.  1.
         -5    1    3    3    0  501  0.79487885225E+02 -0.37798834596E+02  0.23143009546E+03  0.24760245329E+03  0.10000000000E+00 0.  1.
         21    1    1    2  504  502 -0.40586332608E+02  0.25042928128E+02 -0.54907664385E+01  0.48005699243E+02  0.00000000000E+00 0. -1.
<mgrwt>
<rscale>  1 0.13378420E+03</rscale>
<asrwt>0</asrwt>
<pdfrwt beam="1">  1       21 0.70880810E-01 0.13378420E+03</pdfrwt>
<pdfrwt beam="2">  1       21 0.56815368E-02 0.13378420E+03</pdfrwt>
<totfact> 0.39457907E+05</totfact>
</mgrwt>
</event>
<event>
 6    1  0.4244577E-002  0.1266222E+03  0.7546771E-02  0.1232556E+00
         21   -1    0    0  503  502  0.00000000000E+00  0.00000000000E+00  0.17375659930E+03  0.17375659930E+03  0.00000000000E+00 0.  1.
         21   -1    0    0  504  503 -0.00000000000E+00 -0.00000000000E+00 -0.31571385076E+02  0.31571385076E+02  0.00000000000E+00 0.  1.
         25    2    1    2    0    0 -0.15897763023E+02  0.12462409528E+02  0.13118928206E+03  0.18232883125E+03  0.12500049783E+03 0.  0.
          5    1    3    3  501    0  0.10499834261E+02 -0.32359388462E+02  0.12546683409E+03  0.12999735766E+03  0.10000000000E+00 0. -1.
         -5    1    3    3    0  501 -0.26397597284E+02  0.44821797990E+02  0.57224479708E+01  0.52331473591E+02  0.10000000000E+00 0. -1.
         21    1    1    2  504  502  0.15897763023E+02 -0.12462409528E+02  0.10995932159E+02  0.22999153124E+02  0.00000000000E+00 0. -1.
<mgrwt>
<rscale>  1 0.12662217E+03</rscale>
<asrwt>0</asrwt>
<pdfrwt beam="1">  1       21 0.26731784E-01 0.12662217E+03</pdfrwt>
<pdfrwt beam="2">  1       21 0.48571363E-02 0.12662217E+03</pdfrwt>
<totfact> 0.37177959E+06</totfact>
</mgrwt>
</event>
<event>
 6    1  0.4244577E-002  0.1270653E+03  0.7546771E-02  0.1231876E+00
         21   -1    0    0  503  502  0.00000000000E+00  0.00000000000E+00  0.11391191572E+02  0.11391191572E+02  0.00000000000E+00 0. -1.
         21   -1    0    0  504  503 -0.00000000000E+00 -0.00000000000E+00 -0.60164126274E+03  0.60164126274E+03  0.00000000000E+00 0. -1.
         25    2    1    2    0    0 -0.39722871396E+01  0.22443117161E+02 -0.36211041179E+03  0.38375712473E+03  0.12500443145E+03 0.  0.
          5    1    3    3  501    0 -0.18153907878E+02  0.11105665391E+02 -0.36478431458E+03  0.36540457898E+03  0.10000000000E+00 0. -1.
         -5    1    3    3    0  501  0.14181620738E+02  0.11337451771E+02  0.26739027914E+01  0.18352545751E+02  0.10000000000E+00 0. -1.
         21    1    1    2  504  502  0.39722871396E+01 -0.22443117161E+02 -0.22813965939E+03  0.22927532959E+03  0.00000000000E+00 0. -1.
<mgrwt>
<rscale>  1 0.12706526E+03</rscale>
<asrwt>0</asrwt>
<pdfrwt beam="1">  1       21 0.17524910E-02 0.12706526E+03</pdfrwt>
<pdfrwt beam="2">  1       21 0.92560196E-01 0.12706526E+03</pdfrwt>
<totfact> 0.15033417E+06</totfact>
</mgrwt>
</event>
<event>
 6    1  0.4244577E-002  0.1654663E+03  0.7546771E-02  0.1182660E+00
         21   -1    0    0  503  502  0.00000000000E+00  0.00000000000E+00  0.12898882640E+03  0.12898882640E+03  0.00000000000E+00 0. -1.
         21   -1    0    0  504  503 -0.00000000000E+00 -0.00000000000E+00 -0.14566506795E+03  0.14566506795E+03  0.00000000000E+00 0. -1.
         25    2    1    2    0    0 -0.80268212776E+02 -0.72867464456E+02 -0.16045209237E+02  0.16624240252E+03  0.12500573706E+03 0.  0.
          5    1    3    3  501    0 -0.78247477682E+02 -0.32825437142E+02 -0.62122747413E+02  0.10516379050E+03  0.10000000000E+00 0. -1.
         -5    1    3    3    0  501 -0.20207350931E+01 -0.40042027314E+02  0.46077538176E+02  0.61078612018E+02  0.10000000000E+00 0. -1.
         21    1    1    2  504  502  0.80268212776E+02  0.72867464456E+02 -0.63103230441E+00  0.10841149183E+03  0.00000000000E+00 0. -1.
<mgrwt>
<rscale>  1 0.16546627E+03</rscale>
<asrwt>0</asrwt>
<pdfrwt beam="1">  1       21 0.19844435E-01 0.16546627E+03</pdfrwt>
<pdfrwt beam="2">  1       21 0.22410011E-01 0.16546627E+03</pdfrwt>
<totfact> 0.43880288E+05</totfact>
</mgrwt>
</event>
<event>
 6    1  0.4244577E-002  0.1269458E+03  0.7546771E-02  0.1232059E+00
         21   -1    0    0  504  502  0.00000000000E+00  0.00000000000E+00  0.45581618747E+03  0.45581618747E+03  0.00000000000E+00 0. -1.
         21   -1    0    0  502  503 -0.00000000000E+00 -0.00000000000E+00 -0.58889108477E+02  0.58889108477E+02  0.00000000000E+00 0. -1.
         25    2    1    2    0    0 -0.21739715950E+02  0.42955575463E+01  0.44447444310E+03  0.46224751389E+03  0.12499666583E+03 0.  0.
          5    1    3    3  501    0 -0.36165074107E+02 -0.32901148551E+01  0.44446789755E+03  0.44594894259E+03  0.10000000000E+00 0.  1.
         -5    1    3    3    0  501  0.14425358156E+02  0.75856724015E+01  0.65455441123E-02  0.16298571304E+02  0.10000000000E+00 0.  1.
         21    1    1    2  504  503  0.21739715950E+02 -0.42955575463E+01 -0.47547364107E+02  0.52457782052E+02  0.00000000000E+00 0. -1.
<mgrwt>
<rscale>  1 0.12694579E+03</rscale>
<asrwt>0</asrwt>
<pdfrwt beam="1">  1       21 0.70125565E-01 0.12694579E+03</pdfrwt>
<pdfrwt beam="2">  1       21 0.90598631E-02 0.12694579E+03</pdfrwt>
<totfact> 0.18182186E+05</totfact>
</mgrwt>
</event>
<event>
 6    1  0.4244577E-002  0.1270448E+03  0.7546771E-02  0.1231908E+00
         21   -1    0    0  504  502  0.00000000000E+00  0.00000000000E+00  0.94913027059E+02  0.94913027059E+02  0.00000000000E+00 0. -1.
         21   -1    0    0  502  503 -0.00000000000E+00 -0.00000000000E+00 -0.73703423374E+02  0.73703423374E+02  0.00000000000E+00 0. -1.
         25    2    1    2    0    0 -0.31864515261E+01  0.22507842965E+02  0.45874735566E+02  0.13507356447E+03  0.12499447982E+03 0.  0.
          5    1    3    3  501    0 -0.12528487587E+02 -0.52511276126E+00 -0.41957911042E+02  0.43791723461E+02  0.10000000000E+00 0.  1.
         -5    1    3    3    0  501  0.93420360605E+01  0.23032955726E+02  0.87832646608E+02  0.91281841006E+02  0.10000000000E+00 0.  1.
         21    1    1    2  504  503  0.31864515261E+01 -0.22507842965E+02 -0.24665131881E+02  0.33542885966E+02  0.00000000000E+00 0. -1.
<mgrwt>
<rscale>  1 0.12704478E+03</rscale>
<asrwt>0</asrwt>
<pdfrwt beam="1">  1       21 0.14602004E-01 0.12704478E+03</pdfrwt>
<pdfrwt beam="2">  1       21 0.11338988E-01 0.12704478E+03</pdfrwt>
<totfact> 0.26496653E+06</totfact>
</mgrwt>
</event>
<event>
 6    1  0.4244577E-002  0.1704584E+03  0.7546771E-02  0.1177371E+00
         21   -1    0    0  504  502  0.00000000000E+00  0.00000000000E+00  0.19342838835E+03  0.19342838835E+03  0.00000000000E+00 0.  1.
         21   -1    0    0  502  503 -0.00000000000E+00 -0.00000000000E+00 -0.10834459502E+03  0.10834459502E+03  0.00000000000E+00 0.  1.
         25    2    1    2    0    0 -0.74104500929E+02 -0.89119242993E+02  0.72330482490E+02  0.18516953802E+03  0.12498936988E+03 0.  0.
          5    1    3    3  501    0 -0.47610481387E+02 -0.90298264773E+02 -0.62125647849E+01  0.10226993947E+03  0.10000000000E+00 0.  1.
         -5    1    3    3    0  501 -0.26494019542E+02  0.11790217799E+01  0.78543047275E+02  0.82899598546E+02  0.10000000000E+00 0.  1.
         21    1    1    2  504  503  0.74104500929E+02  0.89119242993E+02  0.12753310836E+02  0.11660344535E+03  0.00000000000E+00 0.  1.
<mgrwt>
<rscale>  1 0.17045838E+03</rscale>
<asrwt>0</asrwt>
<pdfrwt beam="1">  1       21 0.29758214E-01 0.17045838E+03</pdfrwt>
<pdfrwt beam="2">  1       21 0.16668399E-01 0.17045838E+03</pdfrwt>
<totfact> 0.35181868E+05</totfact>
</mgrwt>
</event>
<event>
 6    1  0.4244577E-002  0.1267769E+03  0.7546771E-02  0.1232318E+00
         21   -1    0    0  504  502  0.00000000000E+00  0.00000000000E+00  0.22735561722E+03  0.22735561722E+03  0.00000000000E+00 0. -1.
         21   -1    0    0  502  503 -0.00000000000E+00 -0.00000000000E+00 -0.42721940684E+02  0.42721940684E+02  0.00000000000E+00 0. -1.
         25    2    1    2    0    0  0.17265552187E+02 -0.12364556849E+02  0.20475306669E+03  0.24082398686E+03  0.12498557026E+03 0.  0.
          5    1    3    3  501    0  0.70787916302E+02 -0.51506295197E+01  0.13589618500E+03  0.15331419105E+03  0.10000000000E+00 0. -1.
         -5    1    3    3    0  501 -0.53522364115E+02 -0.72139273296E+01  0.68856881684E+02  0.87509795812E+02  0.10000000000E+00 0. -1.
         21    1    1    2  504  503 -0.17265552187E+02  0.12364556849E+02 -0.20119390154E+02  0.29253571039E+02  0.00000000000E+00 0. -1.
<mgrwt>
<rscale>  1 0.12677687E+03</rscale>
<asrwt>0</asrwt>
<pdfrwt beam="1">  1       21 0.34977786E-01 0.12677687E+03</pdfrwt>
<pdfrwt beam="2">  1       21 0.65726064E-02 0.12677687E+03</pdfrwt>
<totfact> 0.13265200E+06</totfact>
</mgrwt>
</event>
<event>
 6    1  0.4244577E-002  0.2012693E+03  0.7546771E-02  0.1148673E+00
         21   -1    0    0  503  502  0.00000000000E+00  0.00000000000E+00  0.73712895825E+02  0.73712895825E+02  0.00000000000E+00 0.  1.
         21   -1    0    0  504  503 -0.00000000000E+00 -0.00000000000E+00 -0.43990330024E+03  0.43990330024E+03  0.00000000000E+00 0.  1.
         25    2    1    2    0    0 -0.26429156335E+02 -0.15551391084E+03 -0.18493504531E+03  0.27333181877E+03  0.12500494149E+03 0.  0.
          5    1    3    3  501    0 -0.34751215906E+00 -0.13993087408E+03 -0.73963492991E+02  0.15827627296E+03  0.10000000000E+00 0.  1.
         -5    1    3    3    0  501 -0.26081644176E+02 -0.15583036761E+02 -0.11097155232E+03  0.11505554581E+03  0.10000000000E+00 0.  1.
         21    1    1    2  504  502  0.26429156335E+02  0.15551391084E+03 -0.18125535911E+03  0.24028437730E+03  0.00000000000E+00 0.  1.
<mgrwt>
<rscale>  1 0.20126925E+03</rscale>
<asrwt>0</asrwt>
<pdfrwt beam="1">  1       21 0.11340445E-01 0.20126925E+03</pdfrwt>
<pdfrwt beam="2">  1       21 0.67677431E-01 0.20126925E+03</pdfrwt>
<totfact> 0.12911508E+05</totfact>
</mgrwt>
</event>
<event>
 6    1  0.4244577E-002  0.1265500E+03  0.7546771E-02  0.1232667E+00
         21   -1    0    0  503  502  0.00000000000E+00  0.00000000000E+00  0.11985871426E+03  0.11985871426E+03  0.00000000000E+00 0.  1.
         21   -1    0    0  504  503 -0.00000000000E+00 -0.00000000000E+00 -0.44727088418E+02  0.44727088418E+02  0.00000000000E+00 0.  1.
         25    2    1    2    0    0  0.29079742415E+01 -0.19534757411E+02  0.67370481628E+02  0.14336556657E+03  0.12499936328E+03 0.  0.
          5    1    3    3  501    0  0.40104142145E+02  0.38175015699E+02  0.44381687534E+02  0.70960680867E+02  0.10000000000E+00 0. -1.
         -5    1    3    3    0  501 -0.37196167904E+02 -0.57709773109E+02  0.22988794094E+02  0.72404885698E+02  0.10000000000E+00 0. -1.
         21    1    1    2  504  502 -0.29079742415E+01  0.19534757411E+02  0.77611442179E+01  0.21220236117E+02  0.00000000000E+00 0.  1.
<mgrwt>
<rscale>  1 0.12655001E+03</rscale>
<asrwt>0</asrwt>
<pdfrwt beam="1">  1       21 0.18439802E-01 0.12655001E+03</pdfrwt>
<pdfrwt beam="2">  1       21 0.68810906E-02 0.12655001E+03</pdfrwt>
<totfact> 0.41252558E+06</totfact>
</mgrwt>
</event>
<event>
 6    1  0.4244577E-002  0.1615919E+03  0.7546771E-02  0.1186911E+00
         21   -1    0    0  504  502  0.00000000000E+00  0.00000000000E+00  0.71285413001E+02  0.71285413001E+02  0.00000000000E+00 0. -1.
         21   -1    0    0  502  503 -0.00000000000E+00 -0.00000000000E+00 -0.38851677687E+03  0.38851677687E+03  0.00000000000E+00 0. -1.
         25    2    1    2    0    0  0.74213105837E+02 -0.70567028595E+02 -0.43208833238E+02  0.16726905005E+03  0.12499856491E+03 0.  0.
          5    1    3    3  501    0 -0.31200546630E+02 -0.29545075880E+02 -0.32049397031E+02  0.53605591769E+02  0.10000000000E+00 0. -1.
         -5    1    3    3    0  501  0.10541365247E+03 -0.41021952715E+02 -0.11159436206E+02  0.11366345828E+03  0.10000000000E+00 0. -1.
         21    1    1    2  504  503 -0.74213105837E+02  0.70567028595E+02 -0.27402253063E+03  0.29253313983E+03  0.00000000000E+00 0. -1.
<mgrwt>
<rscale>  1 0.16159187E+03</rscale>
<asrwt>0</asrwt>
<pdfrwt beam="1">  1       21 0.10966987E-01 0.16159187E+03</pdfrwt>
<pdfrwt beam="2">  1       21 0.59771811E-01 0.16159187E+03</pdfrwt>
<totfact> 0.18178857E+05</totfact>
</mgrwt>
</event>
<event>
 6    1  0.4244577E-002  0.1276310E+03  0.7546771E-02  0.1231014E+00
         21   -1    0    0  504  502  0.00000000000E+00  0.00000000000E+00  0.12901401652E+03  0.12901401652E+03  0.00000000000E+00 0. -1.
         21   -1    0    0  502  503 -0.00000000000E+00 -0.00000000000E+00 -0.11808959859E+03  0.11808959859E+03  0.00000000000E+00 0. -1.
         25    2    1    2    0    0 -0.25542465872E+02  0.35696944193E+01  0.95035634973E+02  0.15912715739E+03  0.12499808007E+03 0.  0.
          5    1    3    3  501    0  0.41646531304E+01  0.40609930361E+02  0.10317074542E+03  0.11095369976E+03  0.10000000000E+00 0. -1.
         -5    1    3    3    0  501 -0.29707119002E+02 -0.37040235942E+02 -0.81351104434E+01  0.48173457630E+02  0.10000000000E+00 0. -1.
         21    1    1    2  504  503  0.25542465872E+02 -0.35696944193E+01 -0.84111217048E+02  0.87976457728E+02  0.00000000000E+00 0. -1.
<mgrwt>
<rscale>  1 0.12763103E+03</rscale>
<asrwt>0</asrwt>
<pdfrwt beam="1">  1       21 0.19848310E-01 0.12763103E+03</pdfrwt>
<pdfrwt beam="2">  1       21 0.18167631E-01 0.12763103E+03</pdfrwt>
<totfact> 0.64960518E+05</totfact>
</mgrwt>
</event>
<event>
 6    1  0.4244577E-002  0.1432065E+03  0.7546771E-02  0.1209078E+00
         21   -1    0    0  503  502  0.00000000000E+00  0.00000000000E+00  0.29283148067E+02  0.29283148067E+02  0.00000000000E+00 0.  1.
         21   -1    0    0  504  503 -0.00000000000E+00 -0.00000000000E+00 -0.14721319218E+04  0.14721319218E+04  0.00000000000E+00 0.  1.
         25    2    1    2    0    0  0.61524309326E-01  0.69883159945E+02 -0.15258913410E+03  0.20926430563E+03  0.12499778374E+03 0.  0.
          5    1    3    3  501    0  0.19730865531E+02  0.24897559767E+02 -0.15680043615E+03  0.15998619414E+03  0.10000000000E+00 0.  1.
         -5    1    3    3    0  501 -0.19669341221E+02  0.44985600177E+02  0.42113020594E+01  0.49278111494E+02  0.10000000000E+00 0.  1.
         21    1    1    2  504  502 -0.61524309326E-01 -0.69883159945E+02 -0.12902596397E+04  0.12921507643E+04  0.00000000000E+00 0.  1.
<mgrwt>
<rscale>  1 0.14320651E+03</rscale>
<asrwt>0</asrwt>
<pdfrwt beam="1">  1       21 0.45050995E-02 0.14320651E+03</pdfrwt>
<pdfrwt beam="2">  1       21 0.22648185E+00 0.14320651E+03</pdfrwt>
<totfact> 0.30712319E+04</totfact>
</mgrwt>
</event>
<event>
 6    1  0.4244577E-002  0.1263248E+03  0.7546771E-02  0.1233013E+00
         21   -1    0    0  504  502  0.00000000000E+00  0.00000000000E+00  0.18909832471E+03  0.18909832471E+03  0.00000000000E+00 0.  1.
         21   -1    0    0  502  503 -0.00000000000E+00 -0.00000000000E+00 -0.28612793866E+02  0.28612793866E+02  0.00000000000E+00 0.  1.
         25    2    1    2    0    0  0.12910799965E+02 -0.13392979975E+02  0.15086027410E+03  0.19676580321E+03  0.12494758238E+03 0.  0.
          5    1    3    3  501    0  0.61456638762E+01 -0.83311117046E+01 -0.21676618724E+02  0.24022123262E+02  0.10000000000E+00 0. -1.
         -5    1    3    3    0  501  0.67651360890E+01 -0.50618682704E+01  0.17253689283E+03  0.17274367995E+03  0.10000000000E+00 0. -1.
         21    1    1    2  504  503 -0.12910799965E+02  0.13392979975E+02  0.96252567392E+01  0.20945315363E+02  0.00000000000E+00 0.  1.
<mgrwt>
<rscale>  1 0.12632482E+03</rscale>
<asrwt>0</asrwt>
<pdfrwt beam="1">  1       21 0.29092049E-01 0.12632482E+03</pdfrwt>
<pdfrwt beam="2">  1       21 0.44019684E-02 0.12632482E+03</pdfrwt>
<totfact> 0.37277638E+06</totfact>
</mgrwt>
</event>
<event>
 6    1  0.4244577E-002  0.1260467E+03  0.7546771E-02  0.1233443E+00
         21   -1    0    0  503  502  0.00000000000E+00  0.00000000000E+00  0.75099566640E+02  0.75099566640E+02  0.00000000000E+00 0.  1.
         21   -1    0    0  504  503 -0.00000000000E+00 -0.00000000000E+00 -0.24604585708E+03  0.24604585708E+03  0.00000000000E+00 0.  1.
         25    2    1    2    0    0  0.13913014073E+02  0.83053756763E+01  0.21629625477E+02  0.12788902766E+03  0.12500084589E+03 0.  0.
          5    1    3    3  501    0  0.43724617999E+02 -0.35998922007E+02  0.42234935660E+02  0.70651004204E+02  0.10000000000E+00 0.  1.
         -5    1    3    3    0  501 -0.29811603925E+02  0.44304297683E+02 -0.20605310183E+02  0.57238023459E+02  0.10000000000E+00 0.  1.
         21    1    1    2  504  502 -0.13913014073E+02 -0.83053756763E+01 -0.19257591591E+03  0.19325639605E+03  0.00000000000E+00 0.  1.
<mgrwt>
<rscale>  1 0.12604667E+03</rscale>
<asrwt>0</asrwt>
<pdfrwt beam="1">  1       21 0.11553779E-01 0.12604667E+03</pdfrwt>
<pdfrwt beam="2">  1       21 0.37853209E-01 0.12604667E+03</pdfrwt>
<totfact> 0.42695672E+05</totfact>
</mgrwt>
</event>
<event>
 6    1  0.4244577E-002  0.1267127E+03  0.7546771E-02  0.1232417E+00
         21   -1    0    0  503  502  0.00000000000E+00  0.00000000000E+00  0.39984128045E+02  0.39984128045E+02  0.00000000000E+00 0. -1.
         21   -1    0    0  504  503 -0.00000000000E+00 -0.00000000000E+00 -0.16135829665E+03  0.16135829665E+03  0.00000000000E+00 0. -1.
         25    2    1    2    0    0  0.95737960258E+01 -0.18430067028E+02 -0.67427175600E+02  0.14353582477E+03  0.12499913616E+03 0.  0.
          5    1    3    3  501    0 -0.17437368878E+02 -0.59531252797E+01  0.33544264774E+02  0.38271781161E+02  0.10000000000E+00 0.  1.
         -5    1    3    3    0  501  0.27011164904E+02 -0.12476941748E+02 -0.10097144037E+03  0.10526404361E+03  0.10000000000E+00 0.  1.
         21    1    1    2  504  502 -0.95737960258E+01  0.18430067028E+02 -0.53946993007E+02  0.57806599930E+02  0.00000000000E+00 0. -1.
<mgrwt>
<rscale>  1 0.12671270E+03</rscale>
<asrwt>0</asrwt>
<pdfrwt beam="1">  1       21 0.61514043E-02 0.12671270E+03</pdfrwt>
<pdfrwt beam="2">  1       21 0.24824353E-01 0.12671270E+03</pdfrwt>
<totfact> 0.28720335E+06</totfact>
</mgrwt>
</event>
<event>
 6    1  0.4244577E-002  0.1363981E+03  0.7546771E-02  0.1218259E+00
         21   -1    0    0  504  502  0.00000000000E+00  0.00000000000E+00  0.47121667214E+03  0.47121667214E+03  0.00000000000E+00 0. -1.
         21   -1    0    0  502  503 -0.00000000000E+00 -0.00000000000E+00 -0.42669832538E+02  0.42669832538E+02  0.00000000000E+00 0. -1.
         25    2    1    2    0    0 -0.50919100223E+02 -0.19627153180E+02  0.43778311245E+03  0.45853952061E+03  0.12500583386E+03 0.  0.
          5    1    3    3  501    0 -0.43756520000E+02 -0.62272030924E+02  0.15732440541E+03  0.17476675146E+03  0.10000000000E+00 0. -1.
         -5    1    3    3    0  501 -0.71625802227E+01  0.42644877744E+02  0.28045870705E+03  0.28377276915E+03  0.10000000000E+00 0. -1.
         21    1    1    2  504  503  0.50919100223E+02  0.19627153180E+02 -0.92362728530E+01  0.55346984070E+02  0.00000000000E+00 0. -1.
<mgrwt>
<rscale>  1 0.13639809E+03</rscale>
<asrwt>0</asrwt>
<pdfrwt beam="1">  1       21 0.72494869E-01 0.13639809E+03</pdfrwt>
<pdfrwt beam="2">  1       21 0.65645900E-02 0.13639809E+03</pdfrwt>
<totfact> 0.29367011E+05</totfact>
</mgrwt>
</event>
<event>
 6    1  0.4244577E-002  0.1263310E+03  0.7546771E-02  0.1233004E+00
         21   -1    0    0  504  502  0.00000000000E+00  0.00000000000E+00  0.22039580914E+03  0.22039580914E+03  0.00000000000E+00 0. -1.
         21   -1    0    0  502  503 -0.00000000000E+00 -0.00000000000E+00 -0.10649166188E+03  0.10649166188E+03  0.00000000000E+00 0.  1.
         25    2    1    2    0    0  0.15283265896E+02 -0.10071362505E+02  0.20126593912E+03  0.23762889588E+03  0.12499801338E+03 0.  0.
          5    1    3    3  501    0  0.18747977991E+02  0.56563681732E+02  0.96838677096E+02  0.11370433656E+03  0.10000000000E+00 0. -1.
         -5    1    3    3    0  501 -0.34647120953E+01 -0.66635044237E+02  0.10442726202E+03  0.12392455933E+03  0.10000000000E+00 0. -1.
         21    1    1    2  504  503 -0.15283265896E+02  0.10071362505E+02 -0.87361791854E+02  0.89258575135E+02  0.00000000000E+00 0.  1.
<mgrwt>
<rscale>  1 0.12633097E+03</rscale>
<asrwt>0</asrwt>
<pdfrwt beam="1">  1       21 0.33907047E-01 0.12633097E+03</pdfrwt>
<pdfrwt beam="2">  1       21 0.16383333E-01 0.12633097E+03</pdfrwt>
<totfact> 0.28383204E+05</totfact>
</mgrwt>
</event>
<event>
 6    1  0.4244577E-002  0.1261126E+03  0.7546771E-02  0.1233341E+00
         21   -1    0    0  504  502  0.00000000000E+00  0.00000000000E+00  0.10281687292E+02  0.10281687292E+02  0.00000000000E+00 0. -1.
         21   -1    0    0  502  503 -0.00000000000E+00 -0.00000000000E+00 -0.49711021790E+03  0.49711021790E+03  0.00000000000E+00 0. -1.
         25    2    1    2    0    0  0.48563140810E+01  0.15988832977E+02 -0.42168330899E+03  0.44013771227E+03  0.12500066444E+03 0.  0.
          5    1    3    3  501    0 -0.58549100176E+02  0.20976822623E+02 -0.19288366137E+03  0.20266262863E+03  0.10000000000E+00 0. -1.
         -5    1    3    3    0  501  0.63405414257E+02 -0.49879896462E+01 -0.22879964762E+03  0.23747508364E+03  0.10000000000E+00 0. -1.
         21    1    1    2  504  503 -0.48563140810E+01 -0.15988832977E+02 -0.65145221617E+02  0.67254192924E+02  0.00000000000E+00 0. -1.
<mgrwt>
<rscale>  1 0.12611262E+03</rscale>
<asrwt>0</asrwt>
<pdfrwt beam="1">  1       21 0.15817982E-02 0.12611262E+03</pdfrwt>
<pdfrwt beam="2">  1       21 0.76478486E-01 0.12611262E+03</pdfrwt>
<totfact> 0.27240996E+06</totfact>
</mgrwt>
</event>
<event>
 6    1  0.4244577E-002  0.1274834E+03  0.7546771E-02  0.1231238E+00
         21   -1    0    0  504  502  0.00000000000E+00  0.00000000000E+00  0.18515938714E+03  0.18515938714E+03  0.00000000000E+00 0.  1.
         21   -1    0    0  502  503 -0.00000000000E+00 -0.00000000000E+00 -0.31415512803E+02  0.31415512803E+02  0.00000000000E+00 0.  1.
         25    2    1    2    0    0 -0.20071948995E+02 -0.14914003159E+02  0.12650168063E+03  0.17959588231E+03  0.12500678028E+03 0.  0.
          5    1    3    3  501    0  0.28960386388E+01 -0.94511325117E+01 -0.24677777036E+02  0.26584085935E+02  0.10000000000E+00 0.  1.
         -5    1    3    3    0  501 -0.22967987634E+02 -0.54628706471E+01  0.15117945766E+03  0.15301179638E+03  0.10000000000E+00 0.  1.
         21    1    1    2  504  503  0.20071948995E+02  0.14914003159E+02  0.27242193710E+02  0.36979017629E+02  0.00000000000E+00 0.  1.
<mgrwt>
<rscale>  1 0.12748335E+03</rscale>
<asrwt>0</asrwt>
<pdfrwt beam="1">  1       21 0.28486059E-01 0.12748335E+03</pdfrwt>
<pdfrwt beam="2">  1       21 0.48331559E-02 0.12748335E+03</pdfrwt>
<totfact> 0.33211706E+06</totfact>
</mgrwt>
</event>
<event>
 6    1  0.4244577E-002  0.1270703E+03  0.7546771E-02  0.1231869E+00
         21   -1    0    0  504  502  0.00000000000E+00  0.00000000000E+00  0.56993915040E+02  0.56993915040E+02  0.00000000000E+00 0. -1.
         21   -1    0    0  502  503 -0.00000000000E+00 -0.00000000000E+00 -0.10260747672E+03  0.10260747672E+03  0.00000000000E+00 0. -1.
         25    2    1    2    0    0  0.76085589104E+01  0.21501640060E+02 -0.49674362304E+02  0.13643458801E+03  0.12500657520E+03 0.  0.
          5    1    3    3  501    0  0.51144582001E+02 -0.64050830424E+01 -0.64569419002E+02  0.82619690311E+02  0.10000000000E+00 0.  1.
         -5    1    3    3    0  501 -0.43536023091E+02  0.27906723103E+02  0.14895056697E+02  0.53814897704E+02  0.10000000000E+00 0.  1.
         21    1    1    2  504  503 -0.76085589104E+01 -0.21501640060E+02  0.40608006265E+01  0.23166803744E+02  0.00000000000E+00 0. -1.
<mgrwt>
<rscale>  1 0.12707027E+03</rscale>
<asrwt>0</asrwt>
<pdfrwt beam="1">  1       21 0.87682947E-02 0.12707027E+03</pdfrwt>
<pdfrwt beam="2">  1       21 0.15785765E-01 0.12707027E+03</pdfrwt>
<totfact> 0.36087868E+06</totfact>
</mgrwt>
</event>
<event>
 6    1  0.4244577E-002  0.1274826E+03  0.7546771E-02  0.1231240E+00
         21   -1    0    0  503  502  0.00000000000E+00  0.00000000000E+00  0.68114194562E+01  0.68114194562E+01  0.00000000000E+00 0.  1.
         21   -1    0    0  504  503 -0.00000000000E+00 -0.00000000000E+00 -0.86700838692E+03  0.86700838692E+03  0.00000000000E+00 0.  1.
         25    2    1    2    0    0  0.23814810125E+02 -0.76992391462E+01 -0.75494596416E+03  0.76563386846E+03  0.12500155310E+03 0.  0.
          5    1    3    3  501    0  0.25592109056E+02  0.51579559298E+01 -0.26947987765E+02  0.37520189231E+02  0.10000000000E+00 0.  1.
         -5    1    3    3    0  501 -0.17772989309E+01 -0.12857195076E+02 -0.72799797639E+03  0.72811367923E+03  0.10000000000E+00 0.  1.
         21    1    1    2  504  502 -0.23814810125E+02  0.76992391462E+01 -0.10525100331E+03  0.10818593791E+03  0.00000000000E+00 0.  1.
<mgrwt>
<rscale>  1 0.12748259E+03</rscale>
<asrwt>0</asrwt>
<pdfrwt beam="1">  1       21 0.10479111E-02 0.12748259E+03</pdfrwt>
<pdfrwt beam="2">  1       21 0.13338585E+00 0.12748259E+03</pdfrwt>
<totfact> 0.14192292E+06</totfact>
</mgrwt>
</event>
<event>
 6    1  0.4244577E-002  0.1274360E+03  0.7546771E-02  0.1231311E+00
         21   -1    0    0  503  502  0.00000000000E+00  0.00000000000E+00  0.10085234574E+04  0.10085234574E+04  0.00000000000E+00 0. -1.
         21   -1    0    0  504  503 -0.00000000000E+00 -0.00000000000E+00 -0.78861032981E+01  0.78861032981E+01  0.00000000000E+00 0. -1.
         25    2    1    2    0    0  0.14729303364E+02 -0.19946793000E+02  0.96263361098E+03  0.97103212776E+03  0.12500038891E+03 0.  0.
          5    1    3    3  501    0 -0.53271540964E+02  0.21767306844E+01  0.51077907783E+03  0.51355415642E+03  0.10000000000E+00 0.  1.
         -5    1    3    3    0  501  0.68000844328E+02 -0.22123523684E+02  0.45185453315E+03  0.45747797134E+03  0.10000000000E+00 0.  1.
         21    1    1    2  504  502 -0.14729303364E+02  0.19946793000E+02  0.38003743117E+02  0.45377432931E+02  0.00000000000E+00 0. -1.
<mgrwt>
<rscale>  1 0.12743596E+03</rscale>
<asrwt>0</asrwt>
<pdfrwt beam="1">  1       21 0.15515735E+00 0.12743596E+03</pdfrwt>
<pdfrwt beam="2">  1       21 0.12132475E-02 0.12743596E+03</pdfrwt>
<totfact> 0.76460985E+05</totfact>
</mgrwt>
</event>
<event>
 6    1  0.4244577E-002  0.1266479E+03  0.7546771E-02  0.1232516E+00
         21   -1    0    0  504  502  0.00000000000E+00  0.00000000000E+00  0.95168409745E+03  0.95168409745E+03  0.00000000000E+00 0.  1.
         21   -1    0    0  502  503 -0.00000000000E+00 -0.00000000000E+00 -0.68215824343E+01  0.68215824343E+01  0.00000000000E+00 0.  1.
         25    2    1    2    0    0 -0.18639605840E+02  0.81398390123E+01  0.90434003676E+03  0.91316515575E+03  0.12500403073E+03 0.  0.
          5    1    3    3  501    0 -0.48358614666E+02 -0.44616882076E+02  0.50220229027E+03  0.50649419753E+03  0.10000000000E+00 0.  1.
         -5    1    3    3    0  501  0.29719008826E+02  0.52756721088E+02  0.40213774650E+03  0.40667095822E+03  0.10000000000E+00 0.  1.
         21    1    1    2  504  503  0.18639605840E+02 -0.81398390123E+01  0.40522478250E+02  0.45340524132E+02  0.00000000000E+00 0. -1.
<mgrwt>
<rscale>  1 0.12664794E+03</rscale>
<asrwt>0</asrwt>
<pdfrwt beam="1">  1       21 0.14641283E+00 0.12664794E+03</pdfrwt>
<pdfrwt beam="2">  1       21 0.10494750E-02 0.12664794E+03</pdfrwt>
<totfact> 0.11177791E+06</totfact>
</mgrwt>
</event>
<event>
 6    1  0.4244577E-002  0.1259217E+03  0.7546771E-02  0.1233636E+00
         21   -1    0    0  503  502  0.00000000000E+00  0.00000000000E+00  0.93766073507E+02  0.93766073507E+02  0.00000000000E+00 0. -1.
         21   -1    0    0  504  503 -0.00000000000E+00 -0.00000000000E+00 -0.62760268558E+02  0.62760268558E+02  0.00000000000E+00 0. -1.
         25    2    1    2    0    0  0.14282660514E+02  0.51570664740E+01  0.47060092067E+02  0.13442815524E+03  0.12500274769E+03 0.  0.
          5    1    3    3  501    0 -0.54212592089E+02  0.10937304744E+02  0.95583101809E+01  0.56124870330E+02  0.10000000000E+00 0. -1.
         -5    1    3    3    0  501  0.68495252603E+02 -0.57802382700E+01  0.37501781886E+02  0.78303284913E+02  0.10000000000E+00 0. -1.
         21    1    1    2  504  502 -0.14282660514E+02 -0.51570664740E+01 -0.16054287118E+02  0.22098186823E+02  0.00000000000E+00 0. -1.
<mgrwt>
<rscale>  1 0.12592171E+03</rscale>
<asrwt>0</asrwt>
<pdfrwt beam="1">  1       21 0.14425550E-01 0.12592171E+03</pdfrwt>
<pdfrwt beam="2">  1       21 0.96554260E-02 0.12592171E+03</pdfrwt>
<totfact> 0.35887990E+06</totfact>
</mgrwt>
</event>
<event>
 6    1  0.4244577E-002  0.1293861E+03  0.7546771E-02  0.1228370E+00
         21   -1    0    0  503  502  0.00000000000E+00  0.00000000000E+00  0.13311399418E+03  0.13311399418E+03  0.00000000000E+00 0. -1.
         21   -1    0    0  504  503 -0.00000000000E+00 -0.00000000000E+00 -0.62095619349E+02  0.62095619349E+02  0.00000000000E+00 0. -1.
         25    2    1    2    0    0 -0.33207336787E+02 -0.36617380896E+01  0.89219081766E+02  0.15716488623E+03  0.12499848547E+03 0.  0.
          5    1    3    3  501    0  0.10320888163E+02  0.45356561564E+02  0.80839361697E-01  0.46516179383E+02  0.10000000000E+00 0. -1.
         -5    1    3    3    0  501 -0.43528224950E+02 -0.49018299654E+02  0.89138242405E+02  0.11064870685E+03  0.10000000000E+00 0. -1.
         21    1    1    2  504  502  0.33207336787E+02  0.36617380896E+01 -0.18200706934E+02  0.38044727298E+02  0.00000000000E+00 0. -1.
<mgrwt>
<rscale>  1 0.12938608E+03</rscale>
<asrwt>0</asrwt>
<pdfrwt beam="1">  1       21 0.20479076E-01 0.12938608E+03</pdfrwt>
<pdfrwt beam="2">  1       21 0.95531722E-02 0.12938608E+03</pdfrwt>
<totfact> 0.19317930E+06</totfact>
</mgrwt>
</event>
<event>
 6    1  0.4244577E-002  0.1267010E+03  0.7546771E-02  0.1232435E+00
         21   -1    0    0  504  502  0.00000000000E+00  0.00000000000E+00  0.31763288320E+02  0.31763288320E+02  0.00000000000E+00 0.  1.
         21   -1    0    0  502  503 -0.00000000000E+00 -0.00000000000E+00 -0.25204225324E+03  0.25204225324E+03  0.00000000000E+00 0.  1.
         25    2    1    2    0    0 -0.17240000550E+02 -0.11465061735E+02 -0.99054696235E+02  0.16082591488E+03  0.12499790715E+03 0.  0.
          5    1    3    3  501    0  0.92858246033E+01 -0.35912577008E+02 -0.11540494183E+03  0.12121984295E+03  0.10000000000E+00 0. -1.
         -5    1    3    3    0  501 -0.26525825153E+02  0.24447515273E+02  0.16350245593E+02  0.39606071934E+02  0.10000000000E+00 0. -1.
         21    1    1    2  504  503  0.17240000550E+02  0.11465061735E+02 -0.12122426869E+03  0.12297962668E+03  0.00000000000E+00 0.  1.
<mgrwt>
<rscale>  1 0.12670099E+03</rscale>
<asrwt>0</asrwt>
<pdfrwt beam="1">  1       21 0.48866597E-02 0.12670099E+03</pdfrwt>
<pdfrwt beam="2">  1       21 0.38775732E-01 0.12670099E+03</pdfrwt>
<totfact> 0.17855910E+06</totfact>
</mgrwt>
</event>
<event>
 6    1  0.4244577E-002  0.1594926E+03  0.7546771E-02  0.1189271E+00
         21   -1    0    0  503  502  0.00000000000E+00  0.00000000000E+00  0.67421164548E+02  0.67421164548E+02  0.00000000000E+00 0.  1.
         21   -1    0    0  504  503 -0.00000000000E+00 -0.00000000000E+00 -0.29716521861E+03  0.29716521861E+03  0.00000000000E+00 0.  1.
         25    2    1    2    0    0 -0.78799893207E+02  0.60021166406E+02 -0.64736302031E+02  0.17212983789E+03  0.12500371477E+03 0.  0.
          5    1    3    3  501    0 -0.48859310978E+02  0.98952814719E+02 -0.43500402816E+02  0.11862203360E+03  0.10000000000E+00 0. -1.
         -5    1    3    3    0  501 -0.29940582229E+02 -0.38931648313E+02 -0.21235899215E+02  0.53507804291E+02  0.10000000000E+00 0. -1.
         21    1    1    2  504  502  0.78799893207E+02 -0.60021166406E+02 -0.16500775203E+03  0.19245654526E+03  0.00000000000E+00 0.  1.
<mgrwt>
<rscale>  1 0.15949261E+03</rscale>
<asrwt>0</asrwt>
<pdfrwt beam="1">  1       21 0.10372487E-01 0.15949261E+03</pdfrwt>
<pdfrwt beam="2">  1       21 0.45717727E-01 0.15949261E+03</pdfrwt>
<totfact> 0.35146734E+05</totfact>
</mgrwt>
</event>
<event>
 6    1  0.4244577E-002  0.1273884E+03  0.7546771E-02  0.1231383E+00
         21   -1    0    0  504  502  0.00000000000E+00  0.00000000000E+00  0.90763720156E+02  0.90763720156E+02  0.00000000000E+00 0. -1.
         21   -1    0    0  502  503 -0.00000000000E+00 -0.00000000000E+00 -0.67416875234E+02  0.67416875234E+02  0.00000000000E+00 0. -1.
         25    2    1    2    0    0  0.22113356997E+02  0.10675419573E+02  0.33325193684E+02  0.13167526414E+03  0.12499936604E+03 0.  0.
          5    1    3    3  501    0  0.39918379975E+02  0.59196228655E+02  0.23858515785E+01  0.71437894947E+02  0.10000000000E+00 0.  1.
         -5    1    3    3    0  501 -0.17805022977E+02 -0.48520809082E+02  0.30939342106E+02  0.60237369192E+02  0.10000000000E+00 0.  1.
         21    1    1    2  504  503 -0.22113356997E+02 -0.10675419573E+02 -0.99783487623E+01  0.26505331252E+02  0.00000000000E+00 0. -1.
<mgrwt>
<rscale>  1 0.12738841E+03</rscale>
<asrwt>0</asrwt>
<pdfrwt beam="1">  1       21 0.13963649E-01 0.12738841E+03</pdfrwt>
<pdfrwt beam="2">  1       21 0.10371827E-01 0.12738841E+03</pdfrwt>
<totfact> 0.33586727E+06</totfact>
</mgrwt>
</event>
<event>
 6    1  0.4244577E-002  0.1260064E+03  0.7546771E-02  0.1233505E+00
         21   -1    0    0  504  502  0.00000000000E+00  0.00000000000E+00  0.29663413321E+02  0.29663413321E+02  0.00000000000E+00 0. -1.
         21   -1    0    0  502  503 -0.00000000000E+00 -0.00000000000E+00 -0.46298098764E+03  0.46298098764E+03  0.00000000000E+00 0. -1.
         25    2    1    2    0    0 -0.10766167396E+02 -0.11738441243E+02 -0.10522178419E+03  0.16416221140E+03  0.12499562560E+03 0.  0.
          5    1    3    3  501    0  0.18913551278E+02  0.32301956612E+02 -0.10455125163E+03  0.11105004746E+03  0.10000000000E+00 0. -1.
         -5    1    3    3    0  501 -0.29679718674E+02 -0.44040397855E+02 -0.67053255776E+00  0.53112163933E+02  0.10000000000E+00 0. -1.
         21    1    1    2  504  503  0.10766167396E+02  0.11738441243E+02 -0.32809579013E+03  0.32848218957E+03  0.00000000000E+00 0. -1.
<mgrwt>
<rscale>  1 0.12600638E+03</rscale>
<asrwt>0</asrwt>
<pdfrwt beam="1">  1       21 0.45636024E-02 0.12600638E+03</pdfrwt>
<pdfrwt beam="2">  1       21 0.71227839E-01 0.12600638E+03</pdfrwt>
<totfact> 0.56479518E+05</totfact>
</mgrwt>
</event>
<event>
 6    1  0.4244577E-002  0.1260980E+03  0.7546771E-02  0.1233363E+00
         21   -1    0    0  503  502  0.00000000000E+00  0.00000000000E+00  0.36508095940E+03  0.36508095940E+03  0.00000000000E+00 0.  1.
         21   -1    0    0  504  503 -0.00000000000E+00 -0.00000000000E+00 -0.61099724045E+02  0.61099724045E+02  0.00000000000E+00 0.  1.
         25    2    1    2    0    0  0.14257903830E+02 -0.85526032239E+01  0.35277374797E+03  0.37463318952E+03  0.12499709832E+03 0.  0.
          5    1    3    3  501    0 -0.53298837402E+02 -0.22050937798E+01  0.10551690471E+03  0.11823474822E+03  0.10000000000E+00 0.  1.
         -5    1    3    3    0  501  0.67556741232E+02 -0.63475094440E+01  0.24725684325E+03  0.25639844129E+03  0.10000000000E+00 0.  1.
         21    1    1    2  504  502 -0.14257903830E+02  0.85526032239E+01 -0.48792512611E+02  0.51547493930E+02  0.00000000000E+00 0.  1.
<mgrwt>
<rscale>  1 0.12609802E+03</rscale>
<asrwt>0</asrwt>
<pdfrwt beam="1">  1       21 0.56166300E-01 0.12609802E+03</pdfrwt>
<pdfrwt beam="2">  1       21 0.93999578E-02 0.12609802E+03</pdfrwt>
<totfact> 0.27421840E+05</totfact>
</mgrwt>
</event>
<event>
 6    1  0.4244577E-002  0.1360700E+03  0.7546771E-02  0.1218717E+00
         21   -1    0    0  504  502  0.00000000000E+00  0.00000000000E+00  0.42017975011E+02  0.42017975011E+02  0.00000000000E+00 0. -1.
         21   -1    0    0  502  503 -0.00000000000E+00 -0.00000000000E+00 -0.33836984506E+03  0.33836984506E+03  0.00000000000E+00 0. -1.
         25    2    1    2    0    0 -0.42042249182E+02 -0.33501971613E+02 -0.80840107056E+02  0.15827241582E+03  0.12500040753E+03 0.  0.
          5    1    3    3  501    0 -0.12060211110E+02  0.93874851511E+01  0.31128859866E+02  0.34678372021E+02  0.10000000000E+00 0.  1.
         -5    1    3    3    0  501 -0.29982038073E+02 -0.42889456764E+02 -0.11196896692E+03  0.12359404380E+03  0.10000000000E+00 0.  1.
         21    1    1    2  504  503  0.42042249182E+02  0.33501971613E+02 -0.21551176299E+03  0.22211540425E+03  0.00000000000E+00 0. -1.
<mgrwt>
<rscale>  1 0.13606996E+03</rscale>
<asrwt>0</asrwt>
<pdfrwt beam="1">  1       21 0.64643039E-02 0.13606996E+03</pdfrwt>
<pdfrwt beam="2">  1       21 0.52056899E-01 0.13606996E+03</pdfrwt>
<totfact> 0.61167537E+05</totfact>
</mgrwt>
</event>
<event>
 6    1  0.4244577E-002  0.1398540E+03  0.7546771E-02  0.1213526E+00
         21   -1    0    0  503  502  0.00000000000E+00  0.00000000000E+00  0.35745466986E+03  0.35745466986E+03  0.00000000000E+00 0.  1.
         21   -1    0    0  504  503 -0.00000000000E+00 -0.00000000000E+00 -0.28709660170E+02  0.28709660170E+02  0.00000000000E+00 0.  1.
         25    2    1    2    0    0  0.55753398553E+02  0.28789649716E+02  0.22820897856E+03  0.26765365989E+03  0.12498743288E+03 0.  0.
          5    1    3    3  501    0  0.90235534423E+02  0.44299863068E+02  0.14712306373E+03  0.17818567682E+03  0.10000000000E+00 0.  1.
         -5    1    3    3    0  501 -0.34482135870E+02 -0.15510213352E+02  0.81085914824E+02  0.89467983074E+02  0.10000000000E+00 0.  1.
         21    1    1    2  504  502 -0.55753398553E+02 -0.28789649716E+02  0.10053603114E+03  0.11851067014E+03  0.00000000000E+00 0.  1.
<mgrwt>
<rscale>  1 0.13985401E+03</rscale>
<asrwt>0</asrwt>
<pdfrwt beam="1">  1       21 0.54993023E-01 0.13985401E+03</pdfrwt>
<pdfrwt beam="2">  1       21 0.44168710E-02 0.13985401E+03</pdfrwt>
<totfact> 0.10374764E+06</totfact>
</mgrwt>
</event>
<event>
 6    1  0.4244577E-002  0.1261359E+03  0.7546771E-02  0.1233305E+00
         21   -1    0    0  503  502  0.00000000000E+00  0.00000000000E+00  0.67548256369E+01  0.67548256369E+01  0.00000000000E+00 0.  1.
         21   -1    0    0  504  503 -0.00000000000E+00 -0.00000000000E+00 -0.93899696640E+03  0.93899696640E+03  0.00000000000E+00 0.  1.
         25    2    1    2    0    0  0.16773732854E+02  0.14511020518E+01 -0.60159026696E+03  0.61467155183E+03  0.12500721382E+03 0.  0.
          5    1    3    3  501    0 -0.61163266526E+01 -0.13613595381E+02 -0.57890469301E+03  0.57909704974E+03  0.10000000000E+00 0.  1.
         -5    1    3    3    0  501  0.22890059507E+02  0.15064697433E+02 -0.22685573956E+02  0.35574502086E+02  0.10000000000E+00 0.  1.
         21    1    1    2  504  502 -0.16773732854E+02 -0.14511020518E+01 -0.33065187379E+03  0.33108024021E+03  0.00000000000E+00 0.  1.
<mgrwt>
<rscale>  1 0.12613591E+03</rscale>
<asrwt>0</asrwt>
<pdfrwt beam="1">  1       21 0.10392040E-02 0.12613591E+03</pdfrwt>
<pdfrwt beam="2">  1       21 0.14446106E+00 0.12613591E+03</pdfrwt>
<totfact> 0.11750969E+06</totfact>
</mgrwt>
</event>
<event>
 6    1  0.4244577E-002  0.1266334E+03  0.7546771E-02  0.1232538E+00
         21   -1    0    0  503  502  0.00000000000E+00  0.00000000000E+00  0.28430052330E+03  0.28430052330E+03  0.00000000000E+00 0. -1.
         21   -1    0    0  504  503 -0.00000000000E+00 -0.00000000000E+00 -0.30420116158E+03  0.30420116158E+03  0.00000000000E+00 0.  1.
         25    2    1    2    0    0 -0.94069550366E+01 -0.17987739017E+02  0.26982647585E+03  0.29806434186E+03  0.12499590098E+03 0.  0.
          5    1    3    3  501    0 -0.61899567191E+02 -0.94533459203E+00  0.84871017300E+02  0.10505022443E+03  0.10000000000E+00 0. -1.
         -5    1    3    3    0  501  0.52492612155E+02 -0.17042404425E+02  0.18495545855E+03  0.19301411743E+03  0.10000000000E+00 0. -1.
         21    1    1    2  504  502  0.94069550366E+01  0.17987739017E+02 -0.28972711413E+03  0.29043734302E+03  0.00000000000E+00 0.  1.
<mgrwt>
<rscale>  1 0.12663343E+03</rscale>
<asrwt>0</asrwt>
<pdfrwt beam="1">  1       21 0.43738542E-01 0.12663343E+03</pdfrwt>
<pdfrwt beam="2">  1       21 0.46800179E-01 0.12663343E+03</pdfrwt>
<totfact> 0.22891200E+04</totfact>
</mgrwt>
</event>
<event>
 6    1  0.4244577E-002  0.1355574E+03  0.7546771E-02  0.1219435E+00
         21   -1    0    0  504  502  0.00000000000E+00  0.00000000000E+00  0.68463556176E+02  0.68463556176E+02  0.00000000000E+00 0.  1.
         21   -1    0    0  502  503 -0.00000000000E+00 -0.00000000000E+00 -0.24010499470E+03  0.24010499470E+03  0.00000000000E+00 0.  1.
         25    2    1    2    0    0 -0.26826823031E+02  0.45074522473E+02 -0.69608074173E+01  0.13573596925E+03  0.12499763797E+03 0.  0.
          5    1    3    3  501    0  0.16243365844E+02 -0.24694014611E+02  0.33187794262E+02  0.44441883168E+02  0.10000000000E+00 0. -1.
         -5    1    3    3    0  501 -0.43070188875E+02  0.69768537084E+02 -0.40148601679E+02  0.91294086081E+02  0.10000000000E+00 0. -1.
         21    1    1    2  504  503  0.26826823031E+02 -0.45074522473E+02 -0.16468063111E+03  0.17283258163E+03  0.00000000000E+00 0.  1.
<mgrwt>
<rscale>  1 0.13555737E+03</rscale>
<asrwt>0</asrwt>
<pdfrwt beam="1">  1       21 0.10532855E-01 0.13555737E+03</pdfrwt>
<pdfrwt beam="2">  1       21 0.36939230E-01 0.13555737E+03</pdfrwt>
<totfact> 0.52702306E+05</totfact>
</mgrwt>
</event>
<event>
 6    1  0.4244577E-002  0.1725123E+03  0.7546771E-02  0.1175253E+00
         21   -1    0    0  504  502  0.00000000000E+00  0.00000000000E+00  0.56389256832E+03  0.56389256832E+03  0.00000000000E+00 0.  1.
         21   -1    0    0  502  503 -0.00000000000E+00 -0.00000000000E+00 -0.10472675772E+03  0.10472675772E+03  0.00000000000E+00 0.  1.
         25    2    1    2    0    0 -0.19939530472E+02  0.11719492360E+03  0.51070053399E+03  0.53905056935E+03  0.12501298297E+03 0.  0.
          5    1    3    3  501    0 -0.57870863688E+02  0.11371523176E+03  0.31840738782E+03  0.34302108596E+03  0.10000000000E+00 0. -1.
         -5    1    3    3    0  501  0.37931333215E+02  0.34796918485E+01  0.19229314617E+03  0.19602948339E+03  0.10000000000E+00 0. -1.
         21    1    1    2  504  503  0.19939530472E+02 -0.11719492360E+03 -0.51534723385E+02  0.12956875668E+03  0.00000000000E+00 0.  1.
<mgrwt>
<rscale>  1 0.17251226E+03</rscale>
<asrwt>0</asrwt>
<pdfrwt beam="1">  1       21 0.86752701E-01 0.17251226E+03</pdfrwt>
<pdfrwt beam="2">  1       21 0.16111809E-01 0.17251226E+03</pdfrwt>
<totfact> 0.39786144E+04</totfact>
</mgrwt>
</event>
<event>
 6    1  0.4244577E-002  0.1269459E+03  0.7546771E-02  0.1232059E+00
         21   -1    0    0  504  502  0.00000000000E+00  0.00000000000E+00  0.49359029432E+02  0.49359029432E+02  0.00000000000E+00 0.  1.
         21   -1    0    0  502  503 -0.00000000000E+00 -0.00000000000E+00 -0.22404266549E+03  0.22404266549E+03  0.00000000000E+00 0.  1.
         25    2    1    2    0    0  0.17561175386E+02  0.13425902701E+02 -0.34588988857E+02  0.13157377130E+03  0.12500643743E+03 0.  0.
          5    1    3    3  501    0  0.69274610144E+02 -0.10279018288E+02 -0.20384513607E+02  0.72939483289E+02  0.10000000000E+00 0. -1.
         -5    1    3    3    0  501 -0.51713434758E+02  0.23704920989E+02 -0.14204475250E+02  0.58634288012E+02  0.10000000000E+00 0. -1.
         21    1    1    2  504  503 -0.17561175386E+02 -0.13425902701E+02 -0.14009464720E+03  0.14182792362E+03  0.00000000000E+00 0.  1.
<mgrwt>
<rscale>  1 0.12694589E+03</rscale>
<asrwt>0</asrwt>
<pdfrwt beam="1">  1       21 0.75936968E-02 0.12694589E+03</pdfrwt>
<pdfrwt beam="2">  1       21 0.34468102E-01 0.12694589E+03</pdfrwt>
<totfact> 0.10664175E+06</totfact>
</mgrwt>
</event>
<event>
 6    1  0.4244577E-002  0.1263349E+03  0.7546771E-02  0.1232998E+00
         21   -1    0    0  503  502  0.00000000000E+00  0.00000000000E+00  0.22846756636E+03  0.22846756636E+03  0.00000000000E+00 0. -1.
         21   -1    0    0  504  503 -0.00000000000E+00 -0.00000000000E+00 -0.44311645797E+02  0.44311645797E+02  0.00000000000E+00 0. -1.
         25    2    1    2    0    0 -0.17640868499E+02  0.91860047366E+00  0.20784535751E+03  0.24322868778E+03  0.12509379621E+03 0.  0.
          5    1    3    3  501    0  0.13646510284E+02  0.18356931362E+01  0.21129047708E+03  0.21173868970E+03  0.10000000000E+00 0. -1.
         -5    1    3    3    0  501 -0.31287378783E+02 -0.91709266250E+00 -0.34451195654E+01  0.31489998077E+02  0.10000000000E+00 0. -1.
         21    1    1    2  504  502  0.17640868499E+02 -0.91860047366E+00 -0.23689436948E+02  0.29550524380E+02  0.00000000000E+00 0. -1.
<mgrwt>
<rscale>  1 0.12633488E+03</rscale>
<asrwt>0</asrwt>
<pdfrwt beam="1">  1       21 0.35148856E-01 0.12633488E+03</pdfrwt>
<pdfrwt beam="2">  1       21 0.68171764E-02 0.12633488E+03</pdfrwt>
<totfact> 0.12344346E+06</totfact>
</mgrwt>
</event>
<event>
 6    1  0.4244577E-002  0.1985331E+03  0.7546771E-02  0.1150983E+00
         21   -1    0    0  503  502  0.00000000000E+00  0.00000000000E+00  0.11354646067E+03  0.11354646067E+03  0.00000000000E+00 0. -1.
         21   -1    0    0  504  503 -0.00000000000E+00 -0.00000000000E+00 -0.39192827599E+03  0.39192827599E+03  0.00000000000E+00 0. -1.
         25    2    1    2    0    0  0.87853806846E+02 -0.12678065007E+03 -0.13545231635E+02  0.19899465465E+03  0.12499509858E+03 0.  0.
          5    1    3    3  501    0 -0.12062499443E+02 -0.63414439002E+02 -0.42374789360E+02  0.77217405681E+02  0.10000000000E+00 0.  1.
         -5    1    3    3    0  501  0.99916306290E+02 -0.63366211065E+02  0.28829557725E+02  0.12177724897E+03  0.10000000000E+00 0.  1.
         21    1    1    2  504  502 -0.87853806846E+02  0.12678065007E+03 -0.26483658369E+03  0.30648008201E+03  0.00000000000E+00 0. -1.
<mgrwt>
<rscale>  1 0.19853312E+03</rscale>
<asrwt>0</asrwt>
<pdfrwt beam="1">  1       21 0.17468686E-01 0.19853312E+03</pdfrwt>
<pdfrwt beam="2">  1       21 0.60296659E-01 0.19853312E+03</pdfrwt>
<totfact> 0.75881017E+04</totfact>
</mgrwt>
</event>
<event>
 6    1  0.4244577E-002  0.1283883E+03  0.7546771E-02  0.1229867E+00
         21   -1    0    0  504  502  0.00000000000E+00  0.00000000000E+00  0.37062029005E+02  0.37062029005E+02  0.00000000000E+00 0.  1.
         21   -1    0    0  502  503 -0.00000000000E+00 -0.00000000000E+00 -0.17232639768E+03  0.17232639768E+03  0.00000000000E+00 0.  1.
         25    2    1    2    0    0 -0.23969960321E+02  0.16836231919E+02 -0.12243958638E+03  0.17741198623E+03  0.12500217135E+03 0.  0.
          5    1    3    3  501    0 -0.25214880970E+02 -0.47944707270E+02 -0.89771174317E+02  0.10484921991E+03  0.10000000000E+00 0. -1.
         -5    1    3    3    0  501  0.12449206487E+01  0.64780939189E+02 -0.32668412060E+02  0.72562766321E+02  0.10000000000E+00 0. -1.
         21    1    1    2  504  503  0.23969960321E+02 -0.16836231919E+02 -0.12824782298E+02  0.31976440453E+02  0.00000000000E+00 0.  1.
<mgrwt>
<rscale>  1 0.12838832E+03</rscale>
<asrwt>0</asrwt>
<pdfrwt beam="1">  1       21 0.57018507E-02 0.12838832E+03</pdfrwt>
<pdfrwt beam="2">  1       21 0.26511753E-01 0.12838832E+03</pdfrwt>
<totfact> 0.28848641E+06</totfact>
</mgrwt>
</event>
<event>
 6    1  0.4244577E-002  0.1442310E+03  0.7546771E-02  0.1207747E+00
         21   -1    0    0  503  502  0.00000000000E+00  0.00000000000E+00  0.12773502125E+03  0.12773502125E+03  0.00000000000E+00 0.  1.
         21   -1    0    0  504  503 -0.00000000000E+00 -0.00000000000E+00 -0.42653949101E+03  0.42653949101E+03  0.00000000000E+00 0.  1.
         25    2    1    2    0    0 -0.18749364807E+02 -0.69483752239E+02  0.82553138148E+02  0.16618540443E+03  0.12499214984E+03 0.  0.
          5    1    3    3  501    0  0.34082321394E+02  0.17636299946E+02  0.40979331443E+02  0.56142313035E+02  0.10000000000E+00 0.  1.
         -5    1    3    3    0  501 -0.52831686202E+02 -0.87120052185E+02  0.41573806705E+02  0.11004309139E+03  0.10000000000E+00 0.  1.
         21    1    1    2  504  502  0.18749364807E+02  0.69483752239E+02 -0.38135760791E+03  0.38808910783E+03  0.00000000000E+00 0.  1.
<mgrwt>
<rscale>  1 0.14423095E+03</rscale>
<asrwt>0</asrwt>
<pdfrwt beam="1">  1       21 0.19651542E-01 0.14423095E+03</pdfrwt>
<pdfrwt beam="2">  1       21 0.65621460E-01 0.14423095E+03</pdfrwt>
<totfact> 0.52143277E+04</totfact>
</mgrwt>
</event>
<event>
 6    1  0.4244577E-002  0.1263974E+03  0.7546771E-02  0.1232901E+00
         21   -1    0    0  503  502  0.00000000000E+00  0.00000000000E+00  0.46325719228E+02  0.46325719228E+02  0.00000000000E+00 0. -1.
         21   -1    0    0  504  503 -0.00000000000E+00 -0.00000000000E+00 -0.11567989636E+03  0.11567989636E+03  0.00000000000E+00 0. -1.
         25    2    1    2    0    0 -0.62290012120E+01  0.17677037156E+02 -0.52738716522E+02  0.13695862715E+03  0.12500006092E+03 0.  0.
          5    1    3    3  501    0 -0.11012596327E+01  0.15061340672E+02 -0.94046634715E+02  0.95251437032E+02  0.10000000000E+00 0.  1.
         -5    1    3    3    0  501 -0.51277415793E+01  0.26156964847E+01  0.41307918193E+02  0.41707190114E+02  0.10000000000E+00 0.  1.
         21    1    1    2  504  502  0.62290012120E+01 -0.17677037156E+02 -0.16615460613E+02  0.25046988444E+02  0.00000000000E+00 0. -1.
<mgrwt>
<rscale>  1 0.12639736E+03</rscale>
<asrwt>0</asrwt>
<pdfrwt beam="1">  1       21 0.71270338E-02 0.12639736E+03</pdfrwt>
<pdfrwt beam="2">  1       21 0.17796907E-01 0.12639736E+03</pdfrwt>
<totfact> 0.41453229E+06</totfact>
</mgrwt>
</event>
<event>
 6    1  0.4244577E-002  0.1278502E+03  0.7546771E-02  0.1230681E+00
         21   -1    0    0  503  502  0.00000000000E+00  0.00000000000E+00  0.55867248797E+02  0.55867248797E+02  0.00000000000E+00 0.  1.
         21   -1    0    0  504  503 -0.00000000000E+00 -0.00000000000E+00 -0.30827110771E+03  0.30827110771E+03  0.00000000000E+00 0.  1.
         25    2    1    2    0    0  0.21803577948E+02  0.15922751107E+02 -0.19089970733E+02  0.12926754003E+03  0.12496695527E+03 0.  0.
          5    1    3    3  501    0  0.69016037761E+02  0.17393866657E+02  0.12744089600E+02  0.72306167684E+02  0.10000000000E+00 0. -1.
         -5    1    3    3    0  501 -0.47212459813E+02 -0.14711155497E+01 -0.31834060333E+02  0.56961372349E+02  0.10000000000E+00 0. -1.
         21    1    1    2  504  502 -0.21803577948E+02 -0.15922751107E+02 -0.23331388818E+03  0.23487081648E+03  0.00000000000E+00 0.  1.
<mgrwt>
<rscale>  1 0.12785019E+03</rscale>
<asrwt>0</asrwt>
<pdfrwt beam="1">  1       21 0.85949615E-02 0.12785019E+03</pdfrwt>
<pdfrwt beam="2">  1       21 0.47426323E-01 0.12785019E+03</pdfrwt>
<totfact> 0.45467370E+05</totfact>
</mgrwt>
</event>
<event>
 6    1  0.4244577E-002  0.1262095E+03  0.7546771E-02  0.1233191E+00
         21   -1    0    0  503  502  0.00000000000E+00  0.00000000000E+00  0.20603365857E+03  0.20603365857E+03  0.00000000000E+00 0.  1.
         21   -1    0    0  504  503 -0.00000000000E+00 -0.00000000000E+00 -0.25077344572E+02  0.25077344572E+02  0.00000000000E+00 0.  1.
         25    2    1    2    0    0 -0.43257175603E+01 -0.16917987898E+02  0.15622147975E+03  0.20083325269E+03  0.12499565794E+03 0.  0.
          5    1    3    3  501    0  0.57086126833E+02 -0.37972221186E+01  0.43769587851E+02  0.72034933145E+02  0.10000000000E+00 0.  1.
         -5    1    3    3    0  501 -0.61411844393E+02 -0.13120765780E+02  0.11245189190E+03  0.12879831955E+03  0.10000000000E+00 0.  1.
         21    1    1    2  504  502  0.43257175603E+01  0.16917987898E+02  0.24734834244E+02  0.30277750445E+02  0.00000000000E+00 0. -1.
<mgrwt>
<rscale>  1 0.12620953E+03</rscale>
<asrwt>0</asrwt>
<pdfrwt beam="1">  1       21 0.31697485E-01 0.12620953E+03</pdfrwt>
<pdfrwt beam="2">  1       21 0.38580531E-02 0.12620953E+03</pdfrwt>
<totfact> 0.39332656E+06</totfact>
</mgrwt>
</event>
<event>
 6    1  0.4244577E-002  0.1263527E+03  0.7546771E-02  0.1232970E+00
         21   -1    0    0  503  502  0.00000000000E+00  0.00000000000E+00  0.58704446932E+03  0.58704446932E+03  0.00000000000E+00 0.  1.
         21   -1    0    0  504  503 -0.00000000000E+00 -0.00000000000E+00 -0.16140897010E+02  0.16140897010E+02  0.00000000000E+00 0.  1.
         25    2    1    2    0    0 -0.14009380956E+02  0.11946079932E+02  0.57096036356E+03  0.58477409788E+03  0.12500414877E+03 0.  0.
          5    1    3    3  501    0 -0.41584464895E+02  0.19149590440E+02  0.74135373900E+02  0.87132302839E+02  0.10000000000E+00 0.  1.
         -5    1    3    3    0  501  0.27575083938E+02 -0.72035105083E+01  0.49682498966E+03  0.49764179504E+03  0.10000000000E+00 0.  1.
         21    1    1    2  504  502  0.14009380956E+02 -0.11946079932E+02 -0.56791258921E-01  0.18411268445E+02  0.00000000000E+00 0.  1.
<mgrwt>
<rscale>  1 0.12635272E+03</rscale>
<asrwt>0</asrwt>
<pdfrwt beam="1">  1       21 0.90314517E-01 0.12635272E+03</pdfrwt>
<pdfrwt beam="2">  1       21 0.24832154E-02 0.12635272E+03</pdfrwt>
<totfact> 0.90567814E+05</totfact>
</mgrwt>
</event>
<event>
 6    1  0.4244577E-002  0.1404646E+03  0.7546771E-02  0.1212705E+00
         21   -1    0    0  503  502  0.00000000000E+00  0.00000000000E+00  0.43479035774E+02  0.43479035774E+02  0.00000000000E+00 0. -1.
         21   -1    0    0  504  503 -0.00000000000E+00 -0.00000000000E+00 -0.45551246548E+03  0.45551246548E+03  0.00000000000E+00 0. -1.
         25    2    1    2    0    0  0.62339457983E+02 -0.14714783929E+02 -0.81681949270E+02  0.16248766247E+03  0.12501026651E+03 0.  0.
          5    1    3    3  501    0  0.16362244446E+02 -0.24190392065E+02  0.29677979747E+02  0.41637610324E+02  0.10000000000E+00 0.  1.
         -5    1    3    3    0  501  0.45977213537E+02  0.94756081362E+01 -0.11135992902E+03  0.12085005215E+03  0.10000000000E+00 0.  1.
         21    1    1    2  504  502 -0.62339457983E+02  0.14714783929E+02 -0.33035148044E+03  0.33650383878E+03  0.00000000000E+00 0. -1.
<mgrwt>
<rscale>  1 0.14046458E+03</rscale>
<asrwt>0</asrwt>
<pdfrwt beam="1">  1       21 0.66890821E-02 0.14046458E+03</pdfrwt>
<pdfrwt beam="2">  1       21 0.70078844E-01 0.14046458E+03</pdfrwt>
<totfact> 0.30606702E+05</totfact>
</mgrwt>
</event>
<event>
 6    1  0.4244577E-002  0.1260319E+03  0.7546771E-02  0.1233465E+00
         21   -1    0    0  504  502  0.00000000000E+00  0.00000000000E+00  0.20570878466E+03  0.20570878466E+03  0.00000000000E+00 0.  1.
         21   -1    0    0  502  503 -0.00000000000E+00 -0.00000000000E+00 -0.83269306377E+02  0.83269306377E+02  0.00000000000E+00 0. -1.
         25    2    1    2    0    0  0.42629242572E+01  0.15514070014E+02  0.18529595376E+03  0.22409515490E+03  0.12500075630E+03 0.  0.
          5    1    3    3  501    0  0.50102373680E+02  0.46935859306E+02  0.12091140162E+03  0.13904243877E+03  0.10000000000E+00 0. -1.
         -5    1    3    3    0  501 -0.45839449423E+02 -0.31421789292E+02  0.64384552147E+02  0.85052716129E+02  0.10000000000E+00 0. -1.
         21    1    1    2  504  503 -0.42629242572E+01 -0.15514070014E+02 -0.62856475484E+02  0.64882936138E+02  0.00000000000E+00 0. -1.
<mgrwt>
<rscale>  1 0.12603193E+03</rscale>
<asrwt>0</asrwt>
<pdfrwt beam="1">  1       21 0.31647505E-01 0.12603193E+03</pdfrwt>
<pdfrwt beam="2">  1       21 0.12810663E-01 0.12603193E+03</pdfrwt>
<totfact> 0.50509228E+05</totfact>
</mgrwt>
</event>
<event>
 6    1  0.4244577E-002  0.1592693E+03  0.7546771E-02  0.1189524E+00
         21   -1    0    0  503  502  0.00000000000E+00  0.00000000000E+00  0.11141332980E+03  0.11141332980E+03  0.00000000000E+00 0.  1.
         21   -1    0    0  504  503 -0.00000000000E+00 -0.00000000000E+00 -0.15624407343E+03  0.15624407343E+03  0.00000000000E+00 0.  1.
         25    2    1    2    0    0  0.87340480213E+02  0.45969305335E+02 -0.37491377927E-01  0.15926934133E+03  0.12500074066E+03 0.  0.
          5    1    3    3  501    0  0.71690745804E+02  0.11563202063E+02  0.55981618957E+02  0.91690906512E+02  0.10000000000E+00 0. -1.
         -5    1    3    3    0  501  0.15649734409E+02  0.34406103272E+02 -0.56019110335E+02  0.67578434816E+02  0.10000000000E+00 0. -1.
         21    1    1    2  504  502 -0.87340480213E+02 -0.45969305335E+02 -0.44793252245E+02  0.10838806190E+03  0.00000000000E+00 0.  1.
<mgrwt>
<rscale>  1 0.15926934E+03</rscale>
<asrwt>0</asrwt>
<pdfrwt beam="1">  1       21 0.17140512E-01 0.15926934E+03</pdfrwt>
<pdfrwt beam="2">  1       21 0.24037550E-01 0.15926934E+03</pdfrwt>
<totfact> 0.50431698E+05</totfact>
</mgrwt>
</event>
<event>
 6    1  0.4244577E-002  0.1289804E+03  0.7546771E-02  0.1228977E+00
         21   -1    0    0  504  502  0.00000000000E+00  0.00000000000E+00  0.73566913299E+03  0.73566913299E+03  0.00000000000E+00 0.  1.
         21   -1    0    0  502  503 -0.00000000000E+00 -0.00000000000E+00 -0.87853618865E+01  0.87853618865E+01  0.00000000000E+00 0.  1.
         25    2    1    2    0    0 -0.20336162771E+02 -0.24437765149E+02  0.57916799404E+03  0.59335613395E+03  0.12500068997E+03 0.  0.
          5    1    3    3  501    0 -0.71563651194E+02 -0.19583672440E+01  0.28033217027E+03  0.28932909820E+03  0.10000000000E+00 0. -1.
         -5    1    3    3    0  501  0.51227488422E+02 -0.22479397905E+02  0.29883582377E+03  0.30402703575E+03  0.10000000000E+00 0. -1.
         21    1    1    2  504  503  0.20336162771E+02  0.24437765149E+02  0.14771577707E+03  0.15109836093E+03  0.00000000000E+00 0.  1.
<mgrwt>
<rscale>  1 0.12898037E+03</rscale>
<asrwt>0</asrwt>
<pdfrwt beam="1">  1       21 0.11317982E+00 0.12898037E+03</pdfrwt>
<pdfrwt beam="2">  1       21 0.13515947E-02 0.12898037E+03</pdfrwt>
<totfact> 0.14187029E+06</totfact>
</mgrwt>
</event>
<event>
 6    1  0.4244577E-002  0.1272054E+03  0.7546771E-02  0.1231662E+00
         21   -1    0    0  504  502  0.00000000000E+00  0.00000000000E+00  0.17899651014E+03  0.17899651014E+03  0.00000000000E+00 0. -1.
         21   -1    0    0  502  503 -0.00000000000E+00 -0.00000000000E+00 -0.36736454156E+02  0.36736454156E+02  0.00000000000E+00 0. -1.
         25    2    1    2    0    0  0.33661723106E+01 -0.23366003968E+02  0.14390639978E+03  0.19206839784E+03  0.12499566510E+03 0.  0.
          5    1    3    3  501    0 -0.34560891826E+02  0.10689911534E+00  0.14335441267E+03  0.14746173844E+03  0.10000000000E+00 0. -1.
         -5    1    3    3    0  501  0.37927064137E+02 -0.23472903084E+02  0.55198711112E+00  0.44606659402E+02  0.10000000000E+00 0. -1.
         21    1    1    2  504  503 -0.33661723106E+01  0.23366003968E+02 -0.16463437999E+01  0.23664566453E+02  0.00000000000E+00 0.  1.
<mgrwt>
<rscale>  1 0.12720541E+03</rscale>
<asrwt>0</asrwt>
<pdfrwt beam="1">  1       21 0.27537924E-01 0.12720541E+03</pdfrwt>
<pdfrwt beam="2">  1       21 0.56517623E-02 0.12720541E+03</pdfrwt>
<totfact> 0.27229154E+06</totfact>
</mgrwt>
</event>
<event>
 6    1  0.4244577E-002  0.1330023E+03  0.7546771E-02  0.1223068E+00
         21   -1    0    0  504  502  0.00000000000E+00  0.00000000000E+00  0.27694673890E+02  0.27694673890E+02  0.00000000000E+00 0. -1.
         21   -1    0    0  502  503 -0.00000000000E+00 -0.00000000000E+00 -0.28765123571E+03  0.28765123571E+03  0.00000000000E+00 0. -1.
         25    2    1    2    0    0  0.43563539581E+02 -0.12921243590E+02 -0.19749732393E+03  0.23810669084E+03  0.12499945098E+03 0.  0.
          5    1    3    3  501    0  0.21298278972E+00  0.77648325418E+01 -0.18920317769E+03  0.18936258985E+03  0.10000000000E+00 0. -1.
         -5    1    3    3    0  501  0.43350556791E+02 -0.20686076131E+02 -0.82941462437E+01  0.48744100994E+02  0.10000000000E+00 0. -1.
         21    1    1    2  504  503 -0.43563539581E+02  0.12921243590E+02 -0.62459237884E+02  0.77239218755E+02  0.00000000000E+00 0. -1.
<mgrwt>
<rscale>  1 0.13300227E+03</rscale>
<asrwt>0</asrwt>
<pdfrwt beam="1">  1       21 0.42607188E-02 0.13300227E+03</pdfrwt>
<pdfrwt beam="2">  1       21 0.44254039E-01 0.13300227E+03</pdfrwt>
<totfact> 0.17237589E+06</totfact>
</mgrwt>
</event>
<event>
 6    1  0.4244577E-002  0.1522083E+03  0.7546771E-02  0.1197785E+00
         21   -1    0    0  504  502  0.00000000000E+00  0.00000000000E+00  0.16045657555E+03  0.16045657555E+03  0.00000000000E+00 0.  1.
         21   -1    0    0  502  503 -0.00000000000E+00 -0.00000000000E+00 -0.96778427458E+02  0.96778427458E+02  0.00000000000E+00 0.  1.
         25    2    1    2    0    0 -0.60651674484E+02  0.62125678513E+02  0.74989272773E+02  0.16967835226E+03  0.12501650549E+03 0.  0.
          5    1    3    3  501    0 -0.75300927248E+02  0.69676337392E+02  0.10512769435E+02  0.10312880276E+03  0.10000000000E+00 0.  1.
         -5    1    3    3    0  501  0.14649252764E+02 -0.75506588782E+01  0.64476503337E+02  0.66549549500E+02  0.10000000000E+00 0.  1.
         21    1    1    2  504  503  0.60651674484E+02 -0.62125678513E+02 -0.11311124686E+02  0.87556650747E+02  0.00000000000E+00 0.  1.
<mgrwt>
<rscale>  1 0.15220825E+03</rscale>
<asrwt>0</asrwt>
<pdfrwt beam="1">  1       21 0.24685627E-01 0.15220825E+03</pdfrwt>
<pdfrwt beam="2">  1       21 0.14888989E-01 0.15220825E+03</pdfrwt>
<totfact> 0.61995810E+05</totfact>
</mgrwt>
</event>
<event>
 6    1  0.4244577E-002  0.1289347E+03  0.7546771E-02  0.1229045E+00
         21   -1    0    0  503  502  0.00000000000E+00  0.00000000000E+00  0.12972666775E+03  0.12972666775E+03  0.00000000000E+00 0. -1.
         21   -1    0    0  504  503 -0.00000000000E+00 -0.00000000000E+00 -0.50617411789E+02  0.50617411789E+02  0.00000000000E+00 0. -1.
         25    2    1    2    0    0 -0.34525606685E+00 -0.31592650610E+02  0.72994579990E+02  0.14816327724E+03  0.12500373291E+03 0.  0.
          5    1    3    3  501    0 -0.17490620231E+02  0.46081865039E+02  0.30784848908E+02  0.58113483839E+02  0.10000000000E+00 0. -1.
         -5    1    3    3    0  501  0.17145364164E+02 -0.77674515649E+02  0.42209731082E+02  0.90049793402E+02  0.10000000000E+00 0. -1.
         21    1    1    2  504  502  0.34525606685E+00  0.31592650610E+02  0.61146759714E+01  0.32180802298E+02  0.00000000000E+00 0.  1.
<mgrwt>
<rscale>  1 0.12893467E+03</rscale>
<asrwt>0</asrwt>
<pdfrwt beam="1">  1       21 0.19957949E-01 0.12893467E+03</pdfrwt>
<pdfrwt beam="2">  1       21 0.77872942E-02 0.12893467E+03</pdfrwt>
<totfact> 0.28867091E+06</totfact>
</mgrwt>
</event>
<event>
 6    1  0.4244577E-002  0.1311979E+03  0.7546771E-02  0.1225689E+00
         21   -1    0    0  504  502  0.00000000000E+00  0.00000000000E+00  0.43650676515E+02  0.43650676515E+02  0.00000000000E+00 0. -1.
         21   -1    0    0  502  503 -0.00000000000E+00 -0.00000000000E+00 -0.38303321326E+03  0.38303321326E+03  0.00000000000E+00 0. -1.
         25    2    1    2    0    0 -0.39850877028E+02  0.90551234513E-01 -0.59640510685E+02  0.14411761128E+03  0.12499917906E+03 0.  0.
          5    1    3    3  501    0 -0.65715808229E+02  0.49095545232E+01 -0.85015004467E+02  0.10756501365E+03  0.10000000000E+00 0. -1.
         -5    1    3    3    0  501  0.25864931201E+02 -0.48190032887E+01  0.25374493782E+02  0.36552597629E+02  0.10000000000E+00 0. -1.
         21    1    1    2  504  503  0.39850877028E+02 -0.90551234513E-01 -0.27974202606E+03  0.28256627850E+03  0.00000000000E+00 0. -1.
<mgrwt>
<rscale>  1 0.13119792E+03</rscale>
<asrwt>0</asrwt>
<pdfrwt beam="1">  1       21 0.67154890E-02 0.13119792E+03</pdfrwt>
<pdfrwt beam="2">  1       21 0.58928184E-01 0.13119792E+03</pdfrwt>
<totfact> 0.44208946E+05</totfact>
</mgrwt>
</event>
<event>
 6    1  0.4244577E-002  0.1271336E+03  0.7546771E-02  0.1231772E+00
         21   -1    0    0  504  502  0.00000000000E+00  0.00000000000E+00  0.11386700449E+03  0.11386700449E+03  0.00000000000E+00 0. -1.
         21   -1    0    0  502  503 -0.00000000000E+00 -0.00000000000E+00 -0.55361994309E+02  0.55361994309E+02  0.00000000000E+00 0. -1.
         25    2    1    2    0    0  0.18239603030E+02  0.14390549139E+02  0.67945701911E+02  0.14415116629E+03  0.12499267703E+03 0.  0.
          5    1    3    3  501    0 -0.29098849984E+02  0.16553334635E+02  0.86890438321E+02  0.93116669987E+02  0.10000000000E+00 0.  1.
         -5    1    3    3    0  501  0.47338453014E+02 -0.21627854959E+01 -0.18944736409E+02  0.51034496298E+02  0.10000000000E+00 0.  1.
         21    1    1    2  504  503 -0.18239603030E+02 -0.14390549139E+02 -0.94406917305E+01  0.25077832513E+02  0.00000000000E+00 0. -1.
<mgrwt>
<rscale>  1 0.12713355E+03</rscale>
<asrwt>0</asrwt>
<pdfrwt beam="1">  1       21 0.17518001E-01 0.12713355E+03</pdfrwt>
<pdfrwt beam="2">  1       21 0.85172299E-02 0.12713355E+03</pdfrwt>
<totfact> 0.31407903E+06</totfact>
</mgrwt>
</event>
<event>
 6    1  0.4244577E-002  0.1259196E+03  0.7546771E-02  0.1233639E+00
         21   -1    0    0  504  502  0.00000000000E+00  0.00000000000E+00  0.73652107124E+03  0.73652107124E+03  0.00000000000E+00 0.  1.
         21   -1    0    0  502  503 -0.00000000000E+00 -0.00000000000E+00 -0.43575769086E+02  0.43575769086E+02  0.00000000000E+00 0. -1.
         25    2    1    2    0    0 -0.10844926011E+02  0.10672215989E+02  0.72961220063E+03  0.74039835096E+03  0.12499698470E+03 0.  0.
          5    1    3    3  501    0 -0.47628042050E+02  0.40695160910E+02  0.22503501482E+03  0.23359215399E+03  0.10000000000E+00 0.  1.
         -5    1    3    3    0  501  0.36783116039E+02 -0.30022944921E+02  0.50457718581E+03  0.50680619697E+03  0.10000000000E+00 0.  1.
         21    1    1    2  504  503  0.10844926011E+02 -0.10672215989E+02 -0.36666898474E+02  0.39698489367E+02  0.00000000000E+00 0. -1.
<mgrwt>
<rscale>  1 0.12591964E+03</rscale>
<asrwt>0</asrwt>
<pdfrwt beam="1">  1       21 0.11331093E+00 0.12591964E+03</pdfrwt>
<pdfrwt beam="2">  1       21 0.67039650E-02 0.12591964E+03</pdfrwt>
<totfact> 0.10200371E+05</totfact>
</mgrwt>
</event>
<event>
 6    1  0.4244577E-002  0.1262258E+03  0.7546771E-02  0.1233166E+00
         21   -1    0    0  504  502  0.00000000000E+00  0.00000000000E+00  0.56840558365E+02  0.56840558365E+02  0.00000000000E+00 0.  1.
         21   -1    0    0  502  503 -0.00000000000E+00 -0.00000000000E+00 -0.16064190690E+03  0.16064190690E+03  0.00000000000E+00 0.  1.
         25    2    1    2    0    0 -0.14900078427E+02 -0.92112783117E+01 -0.15167081228E+02  0.12713373353E+03  0.12500434338E+03 0.  0.
          5    1    3    3  501    0 -0.14364351614E+02  0.48921990050E+02 -0.39110947057E+02  0.64260188978E+02  0.10000000000E+00 0. -1.
         -5    1    3    3    0  501 -0.53572681294E+00 -0.58133268362E+02  0.23943865828E+02  0.62873544552E+02  0.10000000000E+00 0. -1.
         21    1    1    2  504  503  0.14900078427E+02  0.92112783117E+01 -0.88634267307E+02  0.90348731736E+02  0.00000000000E+00 0.  1.
<mgrwt>
<rscale>  1 0.12622577E+03</rscale>
<asrwt>0</asrwt>
<pdfrwt beam="1">  1       21 0.87447015E-02 0.12622577E+03</pdfrwt>
<pdfrwt beam="2">  1       21 0.24714139E-01 0.12622577E+03</pdfrwt>
<totfact> 0.15843191E+06</totfact>
</mgrwt>
</event>
<event>
 6    1  0.4244577E-002  0.1277171E+03  0.7546771E-02  0.1230883E+00
         21   -1    0    0  503  502  0.00000000000E+00  0.00000000000E+00  0.68644923729E+02  0.68644923729E+02  0.00000000000E+00 0. -1.
         21   -1    0    0  504  503 -0.00000000000E+00 -0.00000000000E+00 -0.20909662330E+03  0.20909662330E+03  0.00000000000E+00 0. -1.
         25    2    1    2    0    0  0.34469901374E+01 -0.26043036170E+02  0.70569743044E+01  0.12791187593E+03  0.12498610180E+03 0.  0.
          5    1    3    3  501    0 -0.70294935937E+01  0.25270189720E+02  0.52425908088E+02  0.58621515739E+02  0.10000000000E+00 0. -1.
         -5    1    3    3    0  501  0.10476483731E+02 -0.51313225889E+02 -0.45368933783E+02  0.69290360189E+02  0.10000000000E+00 0. -1.
         21    1    1    2  504  502 -0.34469901374E+01  0.26043036170E+02 -0.14750867387E+03  0.14982967110E+03  0.00000000000E+00 0. -1.
<mgrwt>
<rscale>  1 0.12771706E+03</rscale>
<asrwt>0</asrwt>
<pdfrwt beam="1">  1       21 0.10560757E-01 0.12771706E+03</pdfrwt>
<pdfrwt beam="2">  1       21 0.32168711E-01 0.12771706E+03</pdfrwt>
<totfact> 0.68829041E+05</totfact>
</mgrwt>
</event>
<event>
 6    1  0.4244577E-002  0.1290703E+03  0.7546771E-02  0.1228842E+00
         21   -1    0    0  504  502  0.00000000000E+00  0.00000000000E+00  0.37267498524E+02  0.37267498524E+02  0.00000000000E+00 0.  1.
         21   -1    0    0  502  503 -0.00000000000E+00 -0.00000000000E+00 -0.53269961983E+03  0.53269961983E+03  0.00000000000E+00 0.  1.
         25    2    1    2    0    0  0.32069306123E+02  0.28266825921E+01 -0.76989977165E+02  0.15028836201E+03  0.12499081824E+03 0.  0.
          5    1    3    3  501    0 -0.26726507125E+02 -0.18177923941E+02  0.17711889992E+02  0.36857348643E+02  0.10000000000E+00 0.  1.
         -5    1    3    3    0  501  0.58795813248E+02  0.21004606533E+02 -0.94701867157E+02  0.11343101337E+03  0.10000000000E+00 0.  1.
         21    1    1    2  504  503 -0.32069306123E+02 -0.28266825921E+01 -0.41844214414E+03  0.41967875634E+03  0.00000000000E+00 0.  1.
<mgrwt>
<rscale>  1 0.12907027E+03</rscale>
<asrwt>0</asrwt>
<pdfrwt beam="1">  1       21 0.57334611E-02 0.12907027E+03</pdfrwt>
<pdfrwt beam="2">  1       21 0.81953791E-01 0.12907027E+03</pdfrwt>
<totfact> 0.28194986E+05</totfact>
</mgrwt>
</event>
<event>
 6    1  0.4244577E-002  0.1351690E+03  0.7546771E-02  0.1219981E+00
         21   -1    0    0  503  502  0.00000000000E+00  0.00000000000E+00  0.11483082655E+04  0.11483082655E+04  0.00000000000E+00 0.  1.
         21   -1    0    0  504  503 -0.00000000000E+00 -0.00000000000E+00 -0.76861032081E+01  0.76861032081E+01  0.00000000000E+00 0.  1.
         25    2    1    2    0    0  0.23874271375E+02  0.45535595273E+02  0.76176564926E+03  0.77366502281E+03  0.12500876710E+03 0.  0.
          5    1    3    3  501    0 -0.12545174106E+02 -0.38896127555E+02  0.30590794668E+03  0.30862594184E+03  0.10000000000E+00 0.  1.
         -5    1    3    3    0  501  0.36419445481E+02  0.84431722827E+02  0.45585770258E+03  0.46503908097E+03  0.10000000000E+00 0.  1.
         21    1    1    2  504  502 -0.23874271375E+02 -0.45535595273E+02  0.37885651302E+03  0.38232934589E+03  0.00000000000E+00 0.  1.
<mgrwt>
<rscale>  1 0.13516902E+03</rscale>
<asrwt>0</asrwt>
<pdfrwt beam="1">  1       21 0.17666267E+00 0.13516902E+03</pdfrwt>
<pdfrwt beam="2">  1       21 0.11824783E-02 0.13516902E+03</pdfrwt>
<totfact> 0.56104145E+05</totfact>
</mgrwt>
</event>
<event>
 6    1  0.4244577E-002  0.1272985E+03  0.7546771E-02  0.1231520E+00
         21   -1    0    0  504  502  0.00000000000E+00  0.00000000000E+00  0.27648740202E+03  0.27648740202E+03  0.00000000000E+00 0. -1.
         21   -1    0    0  502  503 -0.00000000000E+00 -0.00000000000E+00 -0.22955876066E+02  0.22955876066E+02  0.00000000000E+00 0. -1.
         25    2    1    2    0    0 -0.59393863843E+01  0.22922542053E+02  0.24123304279E+03  0.27276047589E+03  0.12507668459E+03 0.  0.
          5    1    3    3  501    0 -0.46578600794E+02  0.19014720616E+02  0.32097924017E+02  0.59677570143E+02  0.10000000000E+00 0. -1.
         -5    1    3    3    0  501  0.40639214409E+02  0.39078214374E+01  0.20913511878E+03  0.21308290575E+03  0.10000000000E+00 0. -1.
         21    1    1    2  504  503  0.59393863843E+01 -0.22922542053E+02  0.12298483157E+02  0.26682802191E+02  0.00000000000E+00 0. -1.
<mgrwt>
<rscale>  1 0.12729845E+03</rscale>
<asrwt>0</asrwt>
<pdfrwt beam="1">  1       21 0.42536521E-01 0.12729845E+03</pdfrwt>
<pdfrwt beam="2">  1       21 0.35316734E-02 0.12729845E+03</pdfrwt>
<totfact> 0.25466589E+06</totfact>
</mgrwt>
</event>
<event>
 6    1  0.4244577E-002  0.1318550E+03  0.7546771E-02  0.1224729E+00
         21   -1    0    0  504  502  0.00000000000E+00  0.00000000000E+00  0.15818459068E+03  0.15818459068E+03  0.00000000000E+00 0.  1.
         21   -1    0    0  502  503 -0.00000000000E+00 -0.00000000000E+00 -0.49546075630E+02  0.49546075630E+02  0.00000000000E+00 0.  1.
         25    2    1    2    0    0  0.39791976025E+02  0.13165006378E+02  0.98566916796E+02  0.16462433452E+03  0.12501606170E+03 0.  0.
          5    1    3    3  501    0 -0.40308609691E+02 -0.14733407359E+02  0.53462959901E+02  0.68557679285E+02  0.10000000000E+00 0.  1.
         -5    1    3    3    0  501  0.80100585716E+02  0.27898413737E+02  0.45103956895E+02  0.96066655239E+02  0.10000000000E+00 0.  1.
         21    1    1    2  504  503 -0.39791976025E+02 -0.13165006378E+02  0.10071598258E+02  0.43106331790E+02  0.00000000000E+00 0.  1.
<mgrwt>
<rscale>  1 0.13185497E+03</rscale>
<asrwt>0</asrwt>
<pdfrwt beam="1">  1       21 0.24336091E-01 0.13185497E+03</pdfrwt>
<pdfrwt beam="2">  1       21 0.76224732E-02 0.13185497E+03</pdfrwt>
<totfact> 0.20697472E+06</totfact>
</mgrwt>
</event>
<event>
 6    1  0.4244577E-002  0.1411003E+03  0.7546771E-02  0.1211856E+00
         21   -1    0    0  504  502  0.00000000000E+00  0.00000000000E+00  0.19199727061E+03  0.19199727061E+03  0.00000000000E+00 0.  1.
         21   -1    0    0  502  503 -0.00000000000E+00 -0.00000000000E+00 -0.10407456939E+03  0.10407456939E+03  0.00000000000E+00 0.  1.
         25    2    1    2    0    0 -0.43676194355E+02  0.48766778471E+02  0.14994212786E+03  0.20589302921E+03  0.12499395639E+03 0.  0.
          5    1    3    3  501    0 -0.84843284546E+02  0.33750232100E+02  0.71236058267E+02  0.11581039287E+03  0.10000000000E+00 0.  1.
         -5    1    3    3    0  501  0.41167090190E+02  0.15016546371E+02  0.78706069590E+02  0.90082636340E+02  0.10000000000E+00 0.  1.
         21    1    1    2  504  503  0.43676194355E+02 -0.48766778471E+02 -0.62019426634E+02  0.90178810791E+02  0.00000000000E+00 0.  1.
<mgrwt>
<rscale>  1 0.14110031E+03</rscale>
<asrwt>0</asrwt>
<pdfrwt beam="1">  1       21 0.29538041E-01 0.14110031E+03</pdfrwt>
<pdfrwt beam="2">  1       21 0.16011472E-01 0.14110031E+03</pdfrwt>
<totfact> 0.38593952E+05</totfact>
</mgrwt>
</event>
<event>
 6    1  0.4244577E-002  0.1399691E+03  0.7546771E-02  0.1213370E+00
         21   -1    0    0  503  502  0.00000000000E+00  0.00000000000E+00  0.13544675384E+03  0.13544675384E+03  0.00000000000E+00 0.  1.
         21   -1    0    0  504  503 -0.00000000000E+00 -0.00000000000E+00 -0.83462522658E+02  0.83462522658E+02  0.00000000000E+00 0.  1.
         25    2    1    2    0    0  0.46730032080E+02 -0.42127137286E+02  0.65533728641E+02  0.15455105655E+03  0.12503186753E+03 0.  0.
          5    1    3    3  501    0  0.23625722192E+02 -0.49272840379E+02 -0.25541988568E+02  0.60319074331E+02  0.10000000000E+00 0. -1.
         -5    1    3    3    0  501  0.23104309888E+02  0.71457030928E+01  0.91075717210E+02  0.94231982221E+02  0.10000000000E+00 0. -1.
         21    1    1    2  504  502 -0.46730032080E+02  0.42127137286E+02 -0.13549497454E+02  0.64358219951E+02  0.00000000000E+00 0.  1.
<mgrwt>
<rscale>  1 0.13996914E+03</rscale>
<asrwt>0</asrwt>
<pdfrwt beam="1">  1       21 0.20837962E-01 0.13996914E+03</pdfrwt>
<pdfrwt beam="2">  1       21 0.12840388E-01 0.13996914E+03</pdfrwt>
<totfact> 0.11117812E+06</totfact>
</mgrwt>
</event>
<event>
 6    1  0.4244577E-002  0.1355716E+03  0.7546771E-02  0.1219415E+00
         21   -1    0    0  503  502  0.00000000000E+00  0.00000000000E+00  0.12243002473E+03  0.12243002473E+03  0.00000000000E+00 0.  1.
         21   -1    0    0  504  503 -0.00000000000E+00 -0.00000000000E+00 -0.19469328468E+03  0.19469328468E+03  0.00000000000E+00 0.  1.
         25    2    1    2    0    0  0.43000648738E+02 -0.30086175466E+02  0.79072389548E+02  0.15694618072E+03  0.12500170842E+03 0.  0.
          5    1    3    3  501    0  0.32082744466E+02  0.24515043835E+02  0.91395091165E+02  0.99916778149E+02  0.10000000000E+00 0.  1.
         -5    1    3    3    0  501  0.10917904272E+02 -0.54601219301E+02 -0.12322701616E+02  0.57029402574E+02  0.10000000000E+00 0.  1.
         21    1    1    2  504  502 -0.43000648738E+02  0.30086175466E+02 -0.15133564950E+03  0.16017712869E+03  0.00000000000E+00 0.  1.
<mgrwt>
<rscale>  1 0.13557161E+03</rscale>
<asrwt>0</asrwt>
<pdfrwt beam="1">  1       21 0.18835389E-01 0.13557161E+03</pdfrwt>
<pdfrwt beam="2">  1       21 0.29952812E-01 0.13557161E+03</pdfrwt>
<totfact> 0.27942581E+05</totfact>
</mgrwt>
</event>
<event>
 6    1  0.4244577E-002  0.1418037E+03  0.7546771E-02  0.1210922E+00
         21   -1    0    0  504  502  0.00000000000E+00  0.00000000000E+00  0.11628138244E+03  0.11628138244E+03  0.00000000000E+00 0.  1.
         21   -1    0    0  502  503 -0.00000000000E+00 -0.00000000000E+00 -0.22196198376E+03  0.22196198376E+03  0.00000000000E+00 0.  1.
         25    2    1    2    0    0 -0.32310882583E+02 -0.58636989398E+02  0.64189999375E+02  0.15565554996E+03  0.12500401815E+03 0.  0.
          5    1    3    3  501    0  0.20972831695E+02  0.10203528441E+02 -0.22780404930E+02  0.32602584418E+02  0.10000000000E+00 0.  1.
         -5    1    3    3    0  501 -0.53283714278E+02 -0.68840517839E+02  0.86970404305E+02  0.12305296554E+03  0.10000000000E+00 0.  1.
         21    1    1    2  504  503  0.32310882583E+02  0.58636989398E+02 -0.16987060069E+03  0.18258781624E+03  0.00000000000E+00 0.  1.
<mgrwt>
<rscale>  1 0.14180372E+03</rscale>
<asrwt>0</asrwt>
<pdfrwt beam="1">  1       21 0.17889444E-01 0.14180372E+03</pdfrwt>
<pdfrwt beam="2">  1       21 0.34147997E-01 0.14180372E+03</pdfrwt>
<totfact> 0.23766161E+05</totfact>
</mgrwt>
</event>
<event>
 6    1  0.4244577E-002  0.1268206E+03  0.7546771E-02  0.1232251E+00
         21   -1    0    0  504  502  0.00000000000E+00  0.00000000000E+00  0.15272294687E+03  0.15272294687E+03  0.00000000000E+00 0. -1.
         21   -1    0    0  502  503 -0.00000000000E+00 -0.00000000000E+00 -0.39782606845E+02  0.39782606845E+02  0.00000000000E+00 0. -1.
         25    2    1    2    0    0  0.11356300581E+02  0.17912686456E+02  0.11499929398E+03  0.17119665440E+03  0.12503450309E+03 0.  0.
          5    1    3    3  501    0 -0.32698859651E+02  0.22908405251E+02 -0.77631552101E+01  0.40672927513E+02  0.10000000000E+00 0. -1.
         -5    1    3    3    0  501  0.44055160231E+02 -0.49957187955E+01  0.12276244919E+03  0.13052372689E+03  0.10000000000E+00 0. -1.
         21    1    1    2  504  503 -0.11356300581E+02 -0.17912686456E+02 -0.20589539489E+01  0.21308899322E+02  0.00000000000E+00 0. -1.
<mgrwt>
<rscale>  1 0.12682057E+03</rscale>
<asrwt>0</asrwt>
<pdfrwt beam="1">  1       21 0.23495838E-01 0.12682057E+03</pdfrwt>
<pdfrwt beam="2">  1       21 0.61204011E-02 0.12682057E+03</pdfrwt>
<totfact> 0.32128280E+06</totfact>
</mgrwt>
</event>
<event>
 6    1  0.4244577E-002  0.1326847E+03  0.7546771E-02  0.1223526E+00
         21   -1    0    0  503  502  0.00000000000E+00  0.00000000000E+00  0.29643719450E+03  0.29643719450E+03  0.00000000000E+00 0. -1.
         21   -1    0    0  504  503 -0.00000000000E+00 -0.00000000000E+00 -0.49610469529E+02  0.49610469529E+02  0.00000000000E+00 0. -1.
         25    2    1    2    0    0 -0.10396367190E+02  0.43270617804E+02  0.26625899277E+03  0.29748797038E+03  0.12499924190E+03 0.  0.
          5    1    3    3  501    0 -0.45729842107E+02  0.43842802955E+02  0.25121648860E+03  0.25908134625E+03  0.10000000000E+00 0.  1.
         -5    1    3    3    0  501  0.35333474917E+02 -0.57218515100E+00  0.15042504168E+02  0.38406624131E+02  0.10000000000E+00 0.  1.
         21    1    1    2  504  502  0.10396367190E+02 -0.43270617804E+02 -0.19432267794E+02  0.48559693651E+02  0.00000000000E+00 0. -1.
<mgrwt>
<rscale>  1 0.13268474E+03</rscale>
<asrwt>0</asrwt>
<pdfrwt beam="1">  1       21 0.45605721E-01 0.13268474E+03</pdfrwt>
<pdfrwt beam="2">  1       21 0.76323801E-02 0.13268474E+03</pdfrwt>
<totfact> 0.60435808E+05</totfact>
</mgrwt>
</event>
<event>
 6    1  0.4244577E-002  0.1318949E+03  0.7546771E-02  0.1224671E+00
         21   -1    0    0  503  502  0.00000000000E+00  0.00000000000E+00  0.51728163022E+03  0.51728163022E+03  0.00000000000E+00 0. -1.
         21   -1    0    0  504  503 -0.00000000000E+00 -0.00000000000E+00 -0.44072891902E+02  0.44072891902E+02  0.00000000000E+00 0.  1.
         25    2    1    2    0    0  0.29354054686E+02  0.30246364066E+02  0.49613958752E+03  0.51337195330E+03  0.12497907453E+03 0.  0.
          5    1    3    3  501    0 -0.41985565137E+02  0.41911696861E+02  0.20700670403E+03  0.21533964690E+03  0.10000000000E+00 0.  1.
         -5    1    3    3    0  501  0.71339619823E+02 -0.11665332795E+02  0.28913288349E+03  0.29803230640E+03  0.10000000000E+00 0.  1.
         21    1    1    2  504  502 -0.29354054686E+02 -0.30246364066E+02 -0.22930849198E+02  0.47982568821E+02  0.00000000000E+00 0.  1.
<mgrwt>
<rscale>  1 0.13189493E+03</rscale>
<asrwt>0</asrwt>
<pdfrwt beam="1">  1       21 0.79581785E-01 0.13189493E+03</pdfrwt>
<pdfrwt beam="2">  1       21 0.67804453E-02 0.13189493E+03</pdfrwt>
<totfact> 0.22626001E+05</totfact>
</mgrwt>
</event>
<event>
 6    1  0.4244577E-002  0.1260443E+03  0.7546771E-02  0.1233446E+00
         21   -1    0    0  504  502  0.00000000000E+00  0.00000000000E+00  0.10694162614E+04  0.10694162614E+04  0.00000000000E+00 0.  1.
         21   -1    0    0  502  503 -0.00000000000E+00 -0.00000000000E+00 -0.47540044733E+01  0.47540044733E+01  0.00000000000E+00 0.  1.
         25    2    1    2    0    0 -0.15848623832E+01 -0.16121991315E+02  0.96567402680E+03  0.97386523062E+03  0.12499892395E+03 0.  0.
          5    1    3    3  501    0  0.52044789910E+02 -0.41121523378E+02  0.55526736240E+03  0.55921506917E+03  0.10000000000E+00 0.  1.
         -5    1    3    3    0  501 -0.53629652293E+02  0.24999532062E+02  0.41040666440E+03  0.41465016145E+03  0.10000000000E+00 0.  1.
         21    1    1    2  504  503  0.15848623832E+01  0.16121991315E+02  0.98988230094E+02  0.10030503522E+03  0.00000000000E+00 0. -1.
<mgrwt>
<rscale>  1 0.12604428E+03</rscale>
<asrwt>0</asrwt>
<pdfrwt beam="1">  1       21 0.16452539E+00 0.12604428E+03</pdfrwt>
<pdfrwt beam="2">  1       21 0.73138615E-03 0.12604428E+03</pdfrwt>
<totfact> 0.14512632E+06</totfact>
</mgrwt>
</event>
<event>
 6    1  0.4244577E-002  0.1266866E+03  0.7546771E-02  0.1232457E+00
         21   -1    0    0  504  502  0.00000000000E+00  0.00000000000E+00  0.22062860614E+03  0.22062860614E+03  0.00000000000E+00 0.  1.
         21   -1    0    0  502  503 -0.00000000000E+00 -0.00000000000E+00 -0.32153239417E+02  0.32153239417E+02  0.00000000000E+00 0.  1.
         25    2    1    2    0    0  0.83900711592E+01  0.18830381257E+02  0.19375991106E+03  0.23150032867E+03  0.12499808993E+03 0.  0.
          5    1    3    3  501    0 -0.28587659765E+02  0.72450002903E+01  0.19032694388E+03  0.19259828630E+03  0.10000000000E+00 0.  1.
         -5    1    3    3    0  501  0.36977730924E+02  0.11585380967E+02  0.34329671789E+01  0.38902042364E+02  0.10000000000E+00 0.  1.
         21    1    1    2  504  503 -0.83900711592E+01 -0.18830381257E+02 -0.52845443345E+01  0.21281516891E+02  0.00000000000E+00 0.  1.
<mgrwt>
<rscale>  1 0.12668662E+03</rscale>
<asrwt>0</asrwt>
<pdfrwt beam="1">  1       21 0.33942861E-01 0.12668662E+03</pdfrwt>
<pdfrwt beam="2">  1       21 0.49466524E-02 0.12668662E+03</pdfrwt>
<totfact> 0.22746273E+06</totfact>
</mgrwt>
</event>
<event>
 6    1  0.4244577E-002  0.1272207E+03  0.7546771E-02  0.1231639E+00
         21   -1    0    0  503  502  0.00000000000E+00  0.00000000000E+00  0.45354591450E+02  0.45354591450E+02  0.00000000000E+00 0.  1.
         21   -1    0    0  504  503 -0.00000000000E+00 -0.00000000000E+00 -0.40028926098E+03  0.40028926098E+03  0.00000000000E+00 0.  1.
         25    2    1    2    0    0  0.23094375467E+02 -0.48899459409E+01 -0.45201068557E+02  0.13501197171E+03  0.12501133611E+03 0.  0.
          5    1    3    3  501    0  0.59150135197E+02  0.12796724385E+02 -0.66199560828E+02  0.89693291291E+02  0.10000000000E+00 0. -1.
         -5    1    3    3    0  501 -0.36055759730E+02 -0.17686670326E+02  0.20998492271E+02  0.45318680416E+02  0.10000000000E+00 0. -1.
         21    1    1    2  504  502 -0.23094375467E+02  0.48899459409E+01 -0.30973360098E+03  0.31063188073E+03  0.00000000000E+00 0.  1.
<mgrwt>
<rscale>  1 0.12722066E+03</rscale>
<asrwt>0</asrwt>
<pdfrwt beam="1">  1       21 0.69776294E-02 0.12722066E+03</pdfrwt>
<pdfrwt beam="2">  1       21 0.61582964E-01 0.12722066E+03</pdfrwt>
<totfact> 0.37726370E+05</totfact>
</mgrwt>
</event>
<event>
 6    1  0.4244577E-002  0.1260441E+03  0.7546771E-02  0.1233447E+00
         21   -1    0    0  504  502  0.00000000000E+00  0.00000000000E+00  0.18029317848E+03  0.18029317848E+03  0.00000000000E+00 0.  1.
         21   -1    0    0  502  503 -0.00000000000E+00 -0.00000000000E+00 -0.27680532985E+03  0.27680532985E+03  0.00000000000E+00 0.  1.
         25    2    1    2    0    0  0.20675708491E+01  0.16070351524E+02  0.15797446972E+03  0.20209660370E+03  0.12499829237E+03 0.  0.
          5    1    3    3  501    0  0.33363747978E+02  0.61627492264E+02  0.77703221135E+02  0.10463693448E+03  0.10000000000E+00 0. -1.
         -5    1    3    3    0  501 -0.31296177128E+02 -0.45557140740E+02  0.80271248587E+02  0.97459669222E+02  0.10000000000E+00 0. -1.
         21    1    1    2  504  503 -0.20675708491E+01 -0.16070351524E+02 -0.25448662109E+03  0.25500190463E+03  0.00000000000E+00 0.  1.
<mgrwt>
<rscale>  1 0.12604406E+03</rscale>
<asrwt>0</asrwt>
<pdfrwt beam="1">  1       21 0.27737412E-01 0.12604406E+03</pdfrwt>
<pdfrwt beam="2">  1       21 0.42585435E-01 0.12604406E+03</pdfrwt>
<totfact> 0.67826235E+04</totfact>
</mgrwt>
</event>
<event>
 6    1  0.4244577E-002  0.1266452E+03  0.7546771E-02  0.1232520E+00
         21   -1    0    0  504  502  0.00000000000E+00  0.00000000000E+00  0.83407668171E+02  0.83407668171E+02  0.00000000000E+00 0. -1.
         21   -1    0    0  502  503 -0.00000000000E+00 -0.00000000000E+00 -0.10641312829E+03  0.10641312829E+03  0.00000000000E+00 0. -1.
         25    2    1    2    0    0 -0.20320809958E+02  0.61020461769E-01  0.32469377032E+02  0.13074121794E+03  0.12500426626E+03 0.  0.
          5    1    3    3  501    0 -0.36369613382E+02  0.58534614910E+00  0.76047362828E+02  0.84298889677E+02  0.10000000000E+00 0.  1.
         -5    1    3    3    0  501  0.16048803424E+02 -0.52432568733E+00 -0.43577985796E+02  0.46442328266E+02  0.10000000000E+00 0.  1.
         21    1    1    2  504  503  0.20320809958E+02 -0.61020461769E-01 -0.55474837154E+02  0.59079578521E+02  0.00000000000E+00 0. -1.
<mgrwt>
<rscale>  1 0.12664520E+03</rscale>
<asrwt>0</asrwt>
<pdfrwt beam="1">  1       21 0.12831949E-01 0.12664520E+03</pdfrwt>
<pdfrwt beam="2">  1       21 0.16371251E-01 0.12664520E+03</pdfrwt>
<totfact> 0.17308918E+06</totfact>
</mgrwt>
</event>
<event>
 6    1  0.4244577E-002  0.1261592E+03  0.7546771E-02  0.1233269E+00
         21   -1    0    0  504  502  0.00000000000E+00  0.00000000000E+00  0.19909418234E+03  0.19909418234E+03  0.00000000000E+00 0.  1.
         21   -1    0    0  502  503 -0.00000000000E+00 -0.00000000000E+00 -0.30088334725E+02  0.30088334725E+02  0.00000000000E+00 0.  1.
         25    2    1    2    0    0  0.15450417620E+02  0.73559536477E+01  0.10880670509E+03  0.16659847581E+03  0.12499331027E+03 0.  0.
          5    1    3    3  501    0 -0.18239753844E+02 -0.52910123812E+02  0.59974475239E+02  0.82031198347E+02  0.10000000000E+00 0. -1.
         -5    1    3    3    0  501  0.33690171463E+02  0.60266077459E+02  0.48832229848E+02  0.84567277463E+02  0.10000000000E+00 0. -1.
         21    1    1    2  504  503 -0.15450417620E+02 -0.73559536477E+01  0.60199142524E+02  0.62584041251E+02  0.00000000000E+00 0.  1.
<mgrwt>
<rscale>  1 0.12615924E+03</rscale>
<asrwt>0</asrwt>
<pdfrwt beam="1">  1       21 0.30629873E-01 0.12615924E+03</pdfrwt>
<pdfrwt beam="2">  1       21 0.46289747E-02 0.12615924E+03</pdfrwt>
<totfact> 0.31034748E+06</totfact>
</mgrwt>
</event>
<event>
 6    1  0.4244577E-002  0.1490545E+03  0.7546771E-02  0.1201640E+00
         21   -1    0    0  503  502  0.00000000000E+00  0.00000000000E+00  0.52102532800E+02  0.52102532800E+02  0.00000000000E+00 0. -1.
         21   -1    0    0  504  503 -0.00000000000E+00 -0.00000000000E+00 -0.35861402532E+03  0.35861402532E+03  0.00000000000E+00 0. -1.
         25    2    1    2    0    0 -0.53635013949E+02  0.60953306797E+02 -0.78041610232E+02  0.16824901917E+03  0.12500087677E+03 0.  0.
          5    1    3    3  501    0  0.43133455575E+01  0.44935978046E+02  0.23007171489E+02  0.50667415691E+02  0.10000000000E+00 0.  1.
         -5    1    3    3    0  501 -0.57948359506E+02  0.16017328751E+02 -0.10104878172E+03  0.11758160348E+03  0.10000000000E+00 0.  1.
         21    1    1    2  504  502  0.53635013949E+02 -0.60953306797E+02 -0.22846988229E+03  0.24246753895E+03  0.00000000000E+00 0. -1.
<mgrwt>
<rscale>  1 0.14905449E+03</rscale>
<asrwt>0</asrwt>
<pdfrwt beam="1">  1       21 0.80157740E-02 0.14905449E+03</pdfrwt>
<pdfrwt beam="2">  1       21 0.55171390E-01 0.14905449E+03</pdfrwt>
<totfact> 0.37383410E+05</totfact>
</mgrwt>
</event>
<event>
 6    1  0.4244577E-002  0.1352664E+03  0.7546771E-02  0.1219844E+00
         21   -1    0    0  503  502  0.00000000000E+00  0.00000000000E+00  0.67660565651E+02  0.67660565651E+02  0.00000000000E+00 0. -1.
         21   -1    0    0  504  503 -0.00000000000E+00 -0.00000000000E+00 -0.14722425522E+03  0.14722425522E+03  0.00000000000E+00 0. -1.
         25    2    1    2    0    0 -0.37936948362E+02  0.35096446552E+02 -0.21182807948E+02  0.13691495521E+03  0.12500408392E+03 0.  0.
          5    1    3    3  501    0 -0.48581876764E+02  0.68301539326E+01 -0.66387511246E+02  0.82547933966E+02  0.10000000000E+00 0.  1.
         -5    1    3    3    0  501  0.10644928402E+02  0.28266292620E+02  0.45204703298E+02  0.54367021248E+02  0.10000000000E+00 0.  1.
         21    1    1    2  504  502  0.37936948362E+02 -0.35096446552E+02 -0.58380881617E+02  0.77969865653E+02  0.00000000000E+00 0. -1.
<mgrwt>
<rscale>  1 0.13526638E+03</rscale>
<asrwt>0</asrwt>
<pdfrwt beam="1">  1       21 0.10409318E-01 0.13526638E+03</pdfrwt>
<pdfrwt beam="2">  1       21 0.22649885E-01 0.13526638E+03</pdfrwt>
<totfact> 0.13790945E+06</totfact>
</mgrwt>
</event>
<event>
 6    1  0.4244577E-002  0.1293064E+03  0.7546771E-02  0.1228489E+00
         21   -1    0    0  503  502  0.00000000000E+00  0.00000000000E+00  0.30155731139E+03  0.30155731139E+03  0.00000000000E+00 0. -1.
         21   -1    0    0  504  503 -0.00000000000E+00 -0.00000000000E+00 -0.26069054652E+03  0.26069054652E+03  0.00000000000E+00 0. -1.
         25    2    1    2    0    0 -0.17584510356E+02 -0.28161896353E+02  0.28652759800E+03  0.31435362170E+03  0.12497130728E+03 0.  0.
          5    1    3    3  501    0  0.41842375520E+02 -0.50710312135E+02  0.14507444888E+03  0.15927625644E+03  0.10000000000E+00 0.  1.
         -5    1    3    3    0  501 -0.59426885876E+02  0.22548415782E+02  0.14145314912E+03  0.15507736526E+03  0.10000000000E+00 0.  1.
         21    1    1    2  504  502  0.17584510356E+02  0.28161896353E+02 -0.24566083314E+03  0.24789423621E+03  0.00000000000E+00 0. -1.
<mgrwt>
<rscale>  1 0.12930636E+03</rscale>
<asrwt>0</asrwt>
<pdfrwt beam="1">  1       21 0.46393433E-01 0.12930636E+03</pdfrwt>
<pdfrwt beam="2">  1       21 0.40106238E-01 0.12930636E+03</pdfrwt>
<totfact> 0.27690623E+04</totfact>
</mgrwt>
</event>
<event>
 6    1  0.4244577E-002  0.2090669E+03  0.7546771E-02  0.1142307E+00
         21   -1    0    0  504  502  0.00000000000E+00  0.00000000000E+00  0.11804760627E+03  0.11804760627E+03  0.00000000000E+00 0.  1.
         21   -1    0    0  502  503 -0.00000000000E+00 -0.00000000000E+00 -0.62659439685E+03  0.62659439685E+03  0.00000000000E+00 0.  1.
         25    2    1    2    0    0 -0.16752312366E+03  0.44720598392E+01  0.13449681819E+00  0.20906693981E+03  0.12499988381E+03 0.  0.
          5    1    3    3  501    0 -0.14829629446E+03  0.14645339457E+02  0.47944832834E+02  0.15654071009E+03  0.10000000000E+00 0.  1.
         -5    1    3    3    0  501 -0.19226829195E+02 -0.10173279618E+02 -0.47810336016E+02  0.52526229724E+02  0.10000000000E+00 0.  1.
         21    1    1    2  504  503  0.16752312366E+03 -0.44720598392E+01 -0.50868128741E+03  0.53557506331E+03  0.00000000000E+00 0.  1.
<mgrwt>
<rscale>  1 0.20906690E+03</rscale>
<asrwt>0</asrwt>
<pdfrwt beam="1">  1       21 0.18161170E-01 0.20906690E+03</pdfrwt>
<pdfrwt beam="2">  1       21 0.96399140E-01 0.20906690E+03</pdfrwt>
<totfact> 0.24482450E+04</totfact>
</mgrwt>
</event>
<event>
 6    1  0.4244577E-002  0.1303828E+03  0.7546771E-02  0.1226889E+00
         21   -1    0    0  503  502  0.00000000000E+00  0.00000000000E+00  0.81935635259E+03  0.81935635259E+03  0.00000000000E+00 0. -1.
         21   -1    0    0  504  503 -0.00000000000E+00 -0.00000000000E+00 -0.15448656740E+02  0.15448656740E+02  0.00000000000E+00 0.  1.
         25    2    1    2    0    0  0.36702092691E+02  0.52891356513E+01  0.77968912882E+03  0.79051553482E+03  0.12499861846E+03 0.  0.
          5    1    3    3  501    0  0.24972718092E+02  0.48730593993E+02  0.66597427010E+03  0.66822155448E+03  0.10000000000E+00 0. -1.
         -5    1    3    3    0  501  0.11729374599E+02 -0.43441458342E+02  0.11371485873E+03  0.12229398034E+03  0.10000000000E+00 0. -1.
         21    1    1    2  504  502 -0.36702092691E+02 -0.52891356513E+01  0.24218567023E+02  0.44289474511E+02  0.00000000000E+00 0.  1.
<mgrwt>
<rscale>  1 0.13038279E+03</rscale>
<asrwt>0</asrwt>
<pdfrwt beam="1">  1       21 0.12605479E+00 0.13038279E+03</pdfrwt>
<pdfrwt beam="2">  1       21 0.23767171E-02 0.13038279E+03</pdfrwt>
<totfact> 0.44033762E+05</totfact>
</mgrwt>
</event>
<event>
 6    1  0.4244577E-002  0.1270451E+03  0.7546771E-02  0.1231907E+00
         21   -1    0    0  504  502  0.00000000000E+00  0.00000000000E+00  0.49346884518E+03  0.49346884518E+03  0.00000000000E+00 0. -1.
         21   -1    0    0  502  503 -0.00000000000E+00 -0.00000000000E+00 -0.63483297097E+02  0.63483297097E+02  0.00000000000E+00 0. -1.
         25    2    1    2    0    0  0.11924184103E+02  0.19284302312E+02  0.48292772092E+03  0.49935922478E+03  0.12500552488E+03 0.  0.
          5    1    3    3  501    0 -0.26955756814E+02 -0.41368250581E+02  0.27257978464E+03  0.27701569265E+03  0.10000000000E+00 0.  1.
         -5    1    3    3    0  501  0.38879940917E+02  0.60652552893E+02  0.21034793628E+03  0.22234353212E+03  0.10000000000E+00 0.  1.
         21    1    1    2  504  503 -0.11924184103E+02 -0.19284302312E+02 -0.52942172837E+02  0.57592917506E+02  0.00000000000E+00 0. -1.
<mgrwt>
<rscale>  1 0.12704508E+03</rscale>
<asrwt>0</asrwt>
<pdfrwt beam="1">  1       21 0.75918281E-01 0.12704508E+03</pdfrwt>
<pdfrwt beam="2">  1       21 0.97666614E-02 0.12704508E+03</pdfrwt>
<totfact> 0.13400785E+05</totfact>
</mgrwt>
</event>
<event>
 6    1  0.4244577E-002  0.1259349E+03  0.7546771E-02  0.1233615E+00
         21   -1    0    0  504  502  0.00000000000E+00  0.00000000000E+00  0.27309201310E+03  0.27309201310E+03  0.00000000000E+00 0.  1.
         21   -1    0    0  502  503 -0.00000000000E+00 -0.00000000000E+00 -0.92235646463E+02  0.92235646463E+02  0.00000000000E+00 0. -1.
         25    2    1    2    0    0  0.89390493317E+01  0.12423920647E+02  0.25777931698E+03  0.28689679384E+03  0.12500133458E+03 0.  0.
          5    1    3    3  501    0 -0.47355678898E+02 -0.12301392929E+02  0.18626965820E+03  0.19258836974E+03  0.10000000000E+00 0. -1.
         -5    1    3    3    0  501  0.56294728230E+02  0.24725313576E+02  0.71509658779E+02  0.94308424102E+02  0.10000000000E+00 0. -1.
         21    1    1    2  504  503 -0.89390493317E+01 -0.12423920647E+02 -0.76922950348E+02  0.78430865719E+02  0.00000000000E+00 0. -1.
<mgrwt>
<rscale>  1 0.12593488E+03</rscale>
<asrwt>0</asrwt>
<pdfrwt beam="1">  1       21 0.42014155E-01 0.12593488E+03</pdfrwt>
<pdfrwt beam="2">  1       21 0.14190100E-01 0.12593488E+03</pdfrwt>
<totfact> 0.24050076E+05</totfact>
</mgrwt>
</event>
<event>
 6    1  0.4244577E-002  0.1270961E+03  0.7546771E-02  0.1231829E+00
         21   -1    0    0  503  502  0.00000000000E+00  0.00000000000E+00  0.44668380761E+02  0.44668380761E+02  0.00000000000E+00 0. -1.
         21   -1    0    0  504  503 -0.00000000000E+00 -0.00000000000E+00 -0.36463568389E+03  0.36463568389E+03  0.00000000000E+00 0. -1.
         25    2    1    2    0    0  0.16015016610E+02 -0.16475666757E+02 -0.47210357200E+02  0.13558106616E+03  0.12500191727E+03 0.  0.
          5    1    3    3  501    0  0.49532632376E+02 -0.32437299812E+02 -0.70261648443E+02  0.91882366813E+02  0.10000000000E+00 0. -1.
         -5    1    3    3    0  501 -0.33517615766E+02  0.15961633056E+02  0.23051291243E+02  0.43698699345E+02  0.10000000000E+00 0. -1.
         21    1    1    2  504  502 -0.16015016610E+02  0.16475666757E+02 -0.27275694593E+03  0.27372299849E+03  0.00000000000E+00 0. -1.
<mgrwt>
<rscale>  1 0.12709606E+03</rscale>
<asrwt>0</asrwt>
<pdfrwt beam="1">  1       21 0.68720586E-02 0.12709606E+03</pdfrwt>
<pdfrwt beam="2">  1       21 0.56097798E-01 0.12709606E+03</pdfrwt>
<totfact> 0.47171812E+05</totfact>
</mgrwt>
</event>
<event>
 6    1  0.4244577E-002  0.1274375E+03  0.7546771E-02  0.1231308E+00
         21   -1    0    0  504  502  0.00000000000E+00  0.00000000000E+00  0.26902643618E+03  0.26902643618E+03  0.00000000000E+00 0.  1.
         21   -1    0    0  502  503 -0.00000000000E+00 -0.00000000000E+00 -0.70423742113E+02  0.70423742113E+02  0.00000000000E+00 0.  1.
         25    2    1    2    0    0 -0.11419200362E+02 -0.22095912929E+02  0.25097265606E+03  0.28147397262E+03  0.12498678197E+03 0.  0.
          5    1    3    3  501    0  0.26600037350E+02 -0.50813115932E+02  0.21288404418E+03  0.22047485345E+03  0.10000000000E+00 0. -1.
         -5    1    3    3    0  501 -0.38019237713E+02  0.28717203002E+02  0.38088611877E+02  0.60999119168E+02  0.10000000000E+00 0. -1.
         21    1    1    2  504  503  0.11419200362E+02  0.22095912929E+02 -0.52369961993E+02  0.57976205673E+02  0.00000000000E+00 0.  1.
<mgrwt>
<rscale>  1 0.12743753E+03</rscale>
<asrwt>0</asrwt>
<pdfrwt beam="1">  1       21 0.41388682E-01 0.12743753E+03</pdfrwt>
<pdfrwt beam="2">  1       21 0.10834422E-01 0.12743753E+03</pdfrwt>
<totfact> 0.40007139E+05</totfact>
</mgrwt>
</event>
<event>
 6    1  0.4244577E-002  0.1608894E+03  0.7546771E-02  0.1187696E+00
         21   -1    0    0  504  502  0.00000000000E+00  0.00000000000E+00  0.20642801470E+03  0.20642801470E+03  0.00000000000E+00 0. -1.
         21   -1    0    0  502  503 -0.00000000000E+00 -0.00000000000E+00 -0.84291298154E+02  0.84291298154E+02  0.00000000000E+00 0. -1.
         25    2    1    2    0    0  0.92555002654E+02  0.41155410987E+02  0.90526708225E+02  0.18460904475E+03  0.12500087253E+03 0.  0.
          5    1    3    3  501    0  0.53340970745E+02 -0.42091330497E+02  0.48280218845E+02  0.83354236814E+02  0.10000000000E+00 0. -1.
         -5    1    3    3    0  501  0.39214031909E+02  0.83246741484E+02  0.42246489380E+02  0.10125480794E+03  0.10000000000E+00 0. -1.
         21    1    1    2  504  503 -0.92555002654E+02 -0.41155410987E+02  0.31610008320E+02  0.10611026810E+03  0.00000000000E+00 0. -1.
<mgrwt>
<rscale>  1 0.16088945E+03</rscale>
<asrwt>0</asrwt>
<pdfrwt beam="1">  1       21 0.31758156E-01 0.16088945E+03</pdfrwt>
<pdfrwt beam="2">  1       21 0.12967892E-01 0.16088945E+03</pdfrwt>
<totfact> 0.48939288E+05</totfact>
</mgrwt>
</event>
<event>
 6    1  0.4244577E-002  0.1355969E+03  0.7546771E-02  0.1219379E+00
         21   -1    0    0  503  502  0.00000000000E+00  0.00000000000E+00  0.33666334800E+03  0.33666334800E+03  0.00000000000E+00 0. -1.
         21   -1    0    0  504  503 -0.00000000000E+00 -0.00000000000E+00 -0.52858571854E+02  0.52858571854E+02  0.00000000000E+00 0. -1.
         25    2    1    2    0    0  0.25131278640E+02 -0.46167957890E+02  0.30426761980E+03  0.33311456686E+03  0.12499387461E+03 0.  0.
          5    1    3    3  501    0 -0.58477604379E+01 -0.15746540399E+02  0.28519893163E+03  0.28569317534E+03  0.10000000000E+00 0. -1.
         -5    1    3    3    0  501  0.30979039078E+02 -0.30421417491E+02  0.19068688176E+02  0.47421391514E+02  0.10000000000E+00 0. -1.
         21    1    1    2  504  502 -0.25131278640E+02  0.46167957890E+02 -0.20462843655E+02  0.56407352998E+02  0.00000000000E+00 0. -1.
<mgrwt>
<rscale>  1 0.13559694E+03</rscale>
<asrwt>0</asrwt>
<pdfrwt beam="1">  1       21 0.51794360E-01 0.13559694E+03</pdfrwt>
<pdfrwt beam="2">  1       21 0.81320882E-02 0.13559694E+03</pdfrwt>
<totfact> 0.41688031E+05</totfact>
</mgrwt>
</event>
<event>
 6    1  0.4244577E-002  0.1393735E+03  0.7546771E-02  0.1214174E+00
         21   -1    0    0  504  502  0.00000000000E+00  0.00000000000E+00  0.25135234674E+02  0.25135234674E+02  0.00000000000E+00 0. -1.
         21   -1    0    0  502  503 -0.00000000000E+00 -0.00000000000E+00 -0.23198807398E+04  0.23198807398E+04  0.00000000000E+00 0. -1.
         25    2    1    2    0    0 -0.52032248868E+02 -0.33109442001E+02 -0.17202226152E+03  0.22139699758E+03  0.12498552719E+03 0.  0.
          5    1    3    3  501    0 -0.22704400573E+02  0.47985408558E+02 -0.62609413800E+02  0.82085552543E+02  0.10000000000E+00 0.  1.
         -5    1    3    3    0  501 -0.29327848294E+02 -0.81094850559E+02 -0.10941284772E+03  0.13931144504E+03  0.10000000000E+00 0.  1.
         21    1    1    2  504  503  0.52032248868E+02  0.33109442001E+02 -0.21227232436E+04  0.21236189769E+04  0.00000000000E+00 0. -1.
<mgrwt>
<rscale>  1 0.13937350E+03</rscale>
<asrwt>0</asrwt>
<pdfrwt beam="1">  1       21 0.38669588E-02 0.13937350E+03</pdfrwt>
<pdfrwt beam="2">  1       21 0.35690477E+00 0.13937350E+03</pdfrwt>
<totfact> 0.71233312E+03</totfact>
</mgrwt>
</event>
<event>
 6    1  0.4244577E-002  0.1265214E+03  0.7546771E-02  0.1232711E+00
         21   -1    0    0  504  502  0.00000000000E+00  0.00000000000E+00  0.74123584407E+02  0.74123584407E+02  0.00000000000E+00 0. -1.
         21   -1    0    0  502  503 -0.00000000000E+00 -0.00000000000E+00 -0.82189633055E+02  0.82189633055E+02  0.00000000000E+00 0. -1.
         25    2    1    2    0    0  0.17654292262E+02 -0.85742426121E+01  0.13398076709E+02  0.12722885140E+03  0.12498992159E+03 0.  0.
          5    1    3    3  501    0 -0.40304350227E+02  0.35299849090E+02  0.17224514430E+01  0.53605007527E+02  0.10000000000E+00 0.  1.
         -5    1    3    3    0  501  0.57958642489E+02 -0.43874091702E+02  0.11675625266E+02  0.73623843877E+02  0.10000000000E+00 0.  1.
         21    1    1    2  504  503 -0.17654292262E+02  0.85742426121E+01 -0.21464125357E+02  0.29084366058E+02  0.00000000000E+00 0. -1.
<mgrwt>
<rscale>  1 0.12652143E+03</rscale>
<asrwt>0</asrwt>
<pdfrwt beam="1">  1       21 0.11403628E-01 0.12652143E+03</pdfrwt>
<pdfrwt beam="2">  1       21 0.12644559E-01 0.12652143E+03</pdfrwt>
<totfact> 0.33925670E+06</totfact>
</mgrwt>
</event>
<event>
 6    1  0.4244577E-002  0.1451434E+03  0.7546771E-02  0.1206571E+00
         21   -1    0    0  503  502  0.00000000000E+00  0.00000000000E+00  0.12210719881E+03  0.12210719881E+03  0.00000000000E+00 0.  1.
         21   -1    0    0  504  503 -0.00000000000E+00 -0.00000000000E+00 -0.19201737406E+03  0.19201737406E+03  0.00000000000E+00 0.  1.
         25    2    1    2    0    0  0.52614650824E+02  0.51785079071E+02 -0.14756177675E+03  0.20698089779E+03  0.12496646829E+03 0.  0.
          5    1    3    3  501    0 -0.61499288558E+01  0.43414703477E+02  0.41756061169E+01  0.44046609284E+02  0.10000000000E+00 0.  1.
         -5    1    3    3    0  501  0.58764579680E+02  0.83703755942E+01 -0.15173738287E+03  0.16293428851E+03  0.10000000000E+00 0.  1.
         21    1    1    2  504  502 -0.52614650824E+02 -0.51785079071E+02  0.77651601494E+02  0.10714367508E+03  0.00000000000E+00 0.  1.
<mgrwt>
<rscale>  1 0.14514343E+03</rscale>
<asrwt>0</asrwt>
<pdfrwt beam="1">  1       21 0.18785723E-01 0.14514343E+03</pdfrwt>
<pdfrwt beam="2">  1       21 0.29541134E-01 0.14514343E+03</pdfrwt>
<totfact> 0.28786586E+05</totfact>
</mgrwt>
</event>
<event>
 6    1  0.4244577E-002  0.1347692E+03  0.7546771E-02  0.1220546E+00
         21   -1    0    0  503  502  0.00000000000E+00  0.00000000000E+00  0.13383692499E+03  0.13383692499E+03  0.00000000000E+00 0.  1.
         21   -1    0    0  504  503 -0.00000000000E+00 -0.00000000000E+00 -0.68777834015E+02  0.68777834015E+02  0.00000000000E+00 0.  1.
         25    2    1    2    0    0 -0.49829609952E+02 -0.74294345090E+01  0.70228778222E+02  0.15196979685E+03  0.12499820535E+03 0.  0.
          5    1    3    3  501    0 -0.45043959657E+02  0.32399002551E+02 -0.15252413790E+02  0.57543894501E+02  0.10000000000E+00 0.  1.
         -5    1    3    3    0  501 -0.47856502950E+01 -0.39828437060E+02  0.85481192012E+02  0.94425902353E+02  0.10000000000E+00 0.  1.
         21    1    1    2  504  502  0.49829609952E+02  0.74294345090E+01 -0.51696872461E+01  0.50644962152E+02  0.00000000000E+00 0.  1.
<mgrwt>
<rscale>  1 0.13476920E+03</rscale>
<asrwt>0</asrwt>
<pdfrwt beam="1">  1       21 0.20590296E-01 0.13476920E+03</pdfrwt>
<pdfrwt beam="2">  1       21 0.10581205E-01 0.13476920E+03</pdfrwt>
<totfact> 0.16005812E+06</totfact>
</mgrwt>
</event>
<event>
 6    1  0.4244577E-002  0.1412197E+03  0.7546771E-02  0.1211697E+00
         21   -1    0    0  503  502  0.00000000000E+00  0.00000000000E+00  0.21193836873E+04  0.21193836873E+04  0.00000000000E+00 0. -1.
         21   -1    0    0  504  503 -0.00000000000E+00 -0.00000000000E+00 -0.11869761135E+02  0.11869761135E+02  0.00000000000E+00 0. -1.
         25    2    1    2    0    0  0.49374889271E+02 -0.43353822595E+02  0.20018540518E+04  0.20068290028E+04  0.12500227233E+03 0.  0.
          5    1    3    3  501    0 -0.34617671737E+02  0.10511877992E+01  0.96779149686E+03  0.96841100757E+03  0.10000000000E+00 0.  1.
         -5    1    3    3    0  501  0.83992561008E+02 -0.44405010394E+02  0.10340625549E+04  0.10384179952E+04  0.10000000000E+00 0.  1.
         21    1    1    2  504  502 -0.49374889271E+02  0.43353822595E+02  0.10565987435E+03  0.12442444564E+03  0.00000000000E+00 0. -1.
<mgrwt>
<rscale>  1 0.14121969E+03</rscale>
<asrwt>0</asrwt>
<pdfrwt beam="1">  1       21 0.32605873E+00 0.14121969E+03</pdfrwt>
<pdfrwt beam="2">  1       21 0.18261188E-02 0.14121969E+03</pdfrwt>
<totfact> 0.36484392E+04</totfact>
</mgrwt>
</event>
<event>
 6    1  0.4244577E-002  0.1411138E+03  0.7546771E-02  0.1211838E+00
         21   -1    0    0  503  502  0.00000000000E+00  0.00000000000E+00  0.40410647527E+03  0.40410647527E+03  0.00000000000E+00 0.  1.
         21   -1    0    0  504  503 -0.00000000000E+00 -0.00000000000E+00 -0.51516229612E+02  0.51516229612E+02  0.00000000000E+00 0.  1.
         25    2    1    2    0    0  0.36527835071E+02  0.54350528224E+02  0.36286375875E+03  0.38933690154E+03  0.12499941134E+03 0.  0.
          5    1    3    3  501    0  0.52064398141E+02  0.17727098301E+02  0.33795146638E+03  0.34239765653E+03  0.10000000000E+00 0.  1.
         -5    1    3    3    0  501 -0.15536563070E+02  0.36623429924E+02  0.24912292367E+02  0.46939245013E+02  0.10000000000E+00 0.  1.
         21    1    1    2  504  502 -0.36527835071E+02 -0.54350528224E+02 -0.10273513089E+02  0.66285803340E+02  0.00000000000E+00 0.  1.
<mgrwt>
<rscale>  1 0.14111384E+03</rscale>
<asrwt>0</asrwt>
<pdfrwt beam="1">  1       21 0.62170225E-01 0.14111384E+03</pdfrwt>
<pdfrwt beam="2">  1       21 0.79255740E-02 0.14111384E+03</pdfrwt>
<totfact> 0.29627985E+05</totfact>
</mgrwt>
</event>
<event>
 6    1  0.4244577E-002  0.1290287E+03  0.7546771E-02  0.1228904E+00
         21   -1    0    0  504  502  0.00000000000E+00  0.00000000000E+00  0.64941831859E+02  0.64941831859E+02  0.00000000000E+00 0.  1.
         21   -1    0    0  502  503 -0.00000000000E+00 -0.00000000000E+00 -0.73513994157E+03  0.73513994157E+03  0.00000000000E+00 0.  1.
         25    2    1    2    0    0  0.81012474537E+01  0.30938044740E+02  0.92431385204E-01  0.12902871867E+03  0.12500243547E+03 0.  0.
          5    1    3    3  501    0 -0.20399604304E+02 -0.43789159138E+02 -0.66669770469E+01  0.48765693850E+02  0.10000000000E+00 0. -1.
         -5    1    3    3    0  501  0.28500851758E+02  0.74727203877E+02  0.67594084321E+01  0.80263024816E+02  0.10000000000E+00 0. -1.
         21    1    1    2  504  503 -0.81012474537E+01 -0.30938044740E+02 -0.67029054110E+03  0.67105305476E+03  0.00000000000E+00 0.  1.
<mgrwt>
<rscale>  1 0.12902869E+03</rscale>
<asrwt>0</asrwt>
<pdfrwt beam="1">  1       21 0.99910513E-02 0.12902869E+03</pdfrwt>
<pdfrwt beam="2">  1       21 0.11309845E+00 0.12902869E+03</pdfrwt>
<totfact> 0.51365588E+04</totfact>
</mgrwt>
</event>
<event>
 6    1  0.4244577E-002  0.1262624E+03  0.7546771E-02  0.1233109E+00
         21   -1    0    0  504  502  0.00000000000E+00  0.00000000000E+00  0.42671425596E+03  0.42671425596E+03  0.00000000000E+00 0. -1.
         21   -1    0    0  502  503 -0.00000000000E+00 -0.00000000000E+00 -0.43492920090E+02  0.43492920090E+02  0.00000000000E+00 0. -1.
         25    2    1    2    0    0 -0.15038900117E+02  0.95080200812E+01  0.41500231251E+03  0.43378463579E+03  0.12500247957E+03 0.  0.
          5    1    3    3  501    0 -0.59562034711E+02 -0.99790923329E-01  0.34610320961E+03  0.35119095609E+03  0.10000000000E+00 0. -1.
         -5    1    3    3    0  501  0.44523134594E+02  0.96078110045E+01  0.68899102904E+02  0.82593679705E+02  0.10000000000E+00 0. -1.
         21    1    1    2  504  503  0.15038900117E+02 -0.95080200812E+01 -0.31780976641E+02  0.36422540258E+02  0.00000000000E+00 0. -1.
<mgrwt>
<rscale>  1 0.12626239E+03</rscale>
<asrwt>0</asrwt>
<pdfrwt beam="1">  1       21 0.65648344E-01 0.12626239E+03</pdfrwt>
<pdfrwt beam="2">  1       21 0.66912188E-02 0.12626239E+03</pdfrwt>
<totfact> 0.35341468E+05</totfact>
</mgrwt>
</event>
<event>
 6    1  0.4244577E-002  0.1277419E+03  0.7546771E-02  0.1230845E+00
         21   -1    0    0  504  502  0.00000000000E+00  0.00000000000E+00  0.22098161148E+02  0.22098161148E+02  0.00000000000E+00 0.  1.
         21   -1    0    0  502  503 -0.00000000000E+00 -0.00000000000E+00 -0.26835028844E+03  0.26835028844E+03  0.00000000000E+00 0.  1.
         25    2    1    2    0    0 -0.21490143183E+02  0.15084933211E+02 -0.20580942644E+03  0.24223026301E+03  0.12501439456E+03 0.  0.
          5    1    3    3  501    0  0.43904035294E+02  0.52006939394E+01 -0.14775576926E+03  0.15422836601E+03  0.10000000000E+00 0. -1.
         -5    1    3    3    0  501 -0.65394178477E+02  0.98842392711E+01 -0.58053657171E+02  0.88001897000E+02  0.10000000000E+00 0. -1.
         21    1    1    2  504  503  0.21490143183E+02 -0.15084933211E+02 -0.40442700857E+02  0.48218186575E+02  0.00000000000E+00 0.  1.
<mgrwt>
<rscale>  1 0.12774185E+03</rscale>
<asrwt>0</asrwt>
<pdfrwt beam="1">  1       21 0.33997171E-02 0.12774185E+03</pdfrwt>
<pdfrwt beam="2">  1       21 0.41284660E-01 0.12774185E+03</pdfrwt>
<totfact> 0.28800556E+06</totfact>
</mgrwt>
</event>
<event>
 6    1  0.4244577E-002  0.1331773E+03  0.7546771E-02  0.1222816E+00
         21   -1    0    0  504  502  0.00000000000E+00  0.00000000000E+00  0.98223385805E+01  0.98223385805E+01  0.00000000000E+00 0. -1.
         21   -1    0    0  502  503 -0.00000000000E+00 -0.00000000000E+00 -0.23172181183E+04  0.23172181183E+04  0.00000000000E+00 0.  1.
         25    2    1    2    0    0  0.45120337718E+02  0.86828369207E+01 -0.45537433114E+03  0.47444911432E+03  0.12499977634E+03 0.  0.
          5    1    3    3  501    0  0.88723086138E+02  0.70698496281E+01 -0.32501035677E+03  0.33697701821E+03  0.10000000000E+00 0.  1.
         -5    1    3    3    0  501 -0.43602748420E+02  0.16129872926E+01 -0.13036397437E+03  0.13747209611E+03  0.10000000000E+00 0.  1.
         21    1    1    2  504  503 -0.45120337718E+02 -0.86828369207E+01 -0.18520214486E+04  0.18525913426E+04  0.00000000000E+00 0.  1.
<mgrwt>
<rscale>  1 0.13317725E+03</rscale>
<asrwt>0</asrwt>
<pdfrwt beam="1">  1       21 0.15111289E-02 0.13317725E+03</pdfrwt>
<pdfrwt beam="2">  1       21 0.35649512E+00 0.13317725E+03</pdfrwt>
<totfact> 0.33389336E+04</totfact>
</mgrwt>
</event>
<event>
 6    1  0.4244577E-002  0.1398849E+03  0.7546771E-02  0.1213484E+00
         21   -1    0    0  503  502  0.00000000000E+00  0.00000000000E+00  0.22278024073E+03  0.22278024073E+03  0.00000000000E+00 0. -1.
         21   -1    0    0  504  503 -0.00000000000E+00 -0.00000000000E+00 -0.58668111883E+02  0.58668111883E+02  0.00000000000E+00 0. -1.
         25    2    1    2    0    0 -0.61377901813E+02  0.13224540566E+02  0.45248686300E+02  0.14702122262E+03  0.12500264391E+03 0.  0.
          5    1    3    3  501    0 -0.52330568617E+02  0.63356668394E+02  0.49451141533E+02  0.95906106378E+02  0.10000000000E+00 0. -1.
         -5    1    3    3    0  501 -0.90473331960E+01 -0.50132127827E+02 -0.42024552328E+01  0.51115116242E+02  0.10000000000E+00 0. -1.
         21    1    1    2  504  502  0.61377901813E+02 -0.13224540566E+02  0.11886344255E+03  0.13442713000E+03  0.00000000000E+00 0. -1.
<mgrwt>
<rscale>  1 0.13988494E+03</rscale>
<asrwt>0</asrwt>
<pdfrwt beam="1">  1       21 0.34273883E-01 0.13988494E+03</pdfrwt>
<pdfrwt beam="2">  1       21 0.90258635E-02 0.13988494E+03</pdfrwt>
<totfact> 0.80017660E+05</totfact>
</mgrwt>
</event>
<event>
 6    1  0.4244577E-002  0.1289214E+03  0.7546771E-02  0.1229065E+00
         21   -1    0    0  504  502  0.00000000000E+00  0.00000000000E+00  0.54070263788E+02  0.54070263788E+02  0.00000000000E+00 0. -1.
         21   -1    0    0  502  503 -0.00000000000E+00 -0.00000000000E+00 -0.76158237013E+03  0.76158237013E+03  0.00000000000E+00 0.  1.
         25    2    1    2    0    0 -0.18672153538E+01 -0.31137935923E+02 -0.23641688200E+02  0.13107115129E+03  0.12509060609E+03 0.  0.
          5    1    3    3  501    0  0.58415299169E+02 -0.15028856474E+02 -0.31724756115E+02  0.68151917467E+02  0.10000000000E+00 0.  1.
         -5    1    3    3    0  501 -0.60282514523E+02 -0.16109079449E+02  0.80830679151E+01  0.62919233822E+02  0.10000000000E+00 0.  1.
         21    1    1    2  504  503  0.18672153538E+01  0.31137935923E+02 -0.68387041814E+03  0.68458148263E+03  0.00000000000E+00 0.  1.
<mgrwt>
<rscale>  1 0.12892136E+03</rscale>
<asrwt>0</asrwt>
<pdfrwt beam="1">  1       21 0.83185024E-02 0.12892136E+03</pdfrwt>
<pdfrwt beam="2">  1       21 0.11716651E+00 0.12892136E+03</pdfrwt>
<totfact> 0.64879490E+04</totfact>
</mgrwt>
</event>
<event>
 6    1  0.4244577E-002  0.1461884E+03  0.7546771E-02  0.1205236E+00
         21   -1    0    0  504  502  0.00000000000E+00  0.00000000000E+00  0.16805609116E+03  0.16805609116E+03  0.00000000000E+00 0.  1.
         21   -1    0    0  502  503 -0.00000000000E+00 -0.00000000000E+00 -0.76459226334E+02  0.76459226334E+02  0.00000000000E+00 0.  1.
         25    2    1    2    0    0  0.56370700109E+02  0.50535506151E+02  0.35911334289E+02  0.15053461988E+03  0.12505820500E+03 0.  0.
          5    1    3    3  501    0 -0.32941104993E+02  0.99139663382E+01  0.39466071681E+02  0.52354407079E+02  0.10000000000E+00 0. -1.
         -5    1    3    3    0  501  0.89311805102E+02  0.40621539813E+02 -0.35547373916E+01  0.98180212799E+02  0.10000000000E+00 0. -1.
         21    1    1    2  504  503 -0.56370700109E+02 -0.50535506151E+02  0.55685530532E+02  0.93980697611E+02  0.00000000000E+00 0.  1.
<mgrwt>
<rscale>  1 0.14618840E+03</rscale>
<asrwt>0</asrwt>
<pdfrwt beam="1">  1       21 0.25854783E-01 0.14618840E+03</pdfrwt>
<pdfrwt beam="2">  1       21 0.11762958E-01 0.14618840E+03</pdfrwt>
<totfact> 0.86620291E+05</totfact>
</mgrwt>
</event>
<event>
 6    1  0.4244577E-002  0.1365064E+03  0.7546771E-02  0.1218109E+00
         21   -1    0    0  503  502  0.00000000000E+00  0.00000000000E+00  0.21972728221E+03  0.21972728221E+03  0.00000000000E+00 0.  1.
         21   -1    0    0  504  503 -0.00000000000E+00 -0.00000000000E+00 -0.44730167396E+02  0.44730167396E+02  0.00000000000E+00 0.  1.
         25    2    1    2    0    0 -0.48774338647E+02 -0.25090675969E+02  0.15383321261E+03  0.20566638832E+03  0.12500211138E+03 0.  0.
          5    1    3    3  501    0  0.69652902648E+00  0.30343777379E+02  0.12044434639E+03  0.12420982471E+03  0.10000000000E+00 0. -1.
         -5    1    3    3    0  501 -0.49470867674E+02 -0.55434453348E+02  0.33388866224E+02  0.81456563604E+02  0.10000000000E+00 0. -1.
         21    1    1    2  504  502  0.48774338647E+02  0.25090675969E+02  0.21163902200E+02  0.58791061288E+02  0.00000000000E+00 0.  1.
<mgrwt>
<rscale>  1 0.13650643E+03</rscale>
<asrwt>0</asrwt>
<pdfrwt beam="1">  1       21 0.33804197E-01 0.13650643E+03</pdfrwt>
<pdfrwt beam="2">  1       21 0.68815643E-02 0.13650643E+03</pdfrwt>
<totfact> 0.13127169E+06</totfact>
</mgrwt>
</event>
<event>
 6    1  0.4244577E-002  0.1273155E+03  0.7546771E-02  0.1231494E+00
         21   -1    0    0  504  502  0.00000000000E+00  0.00000000000E+00  0.44955947283E+03  0.44955947283E+03  0.00000000000E+00 0. -1.
         21   -1    0    0  502  503 -0.00000000000E+00 -0.00000000000E+00 -0.21539448552E+02  0.21539448552E+02  0.00000000000E+00 0. -1.
         25    2    1    2    0    0  0.15386853393E+02 -0.18629426341E+02  0.42841606441E+03  0.44693349917E+03  0.12500167059E+03 0.  0.
          5    1    3    3  501    0 -0.52235837613E+02 -0.78737754964E+01  0.25649664666E+03  0.26187997025E+03  0.10000000000E+00 0.  1.
         -5    1    3    3    0  501  0.67622691007E+02 -0.10755650845E+02  0.17191941775E+03  0.18505352892E+03  0.10000000000E+00 0.  1.
         21    1    1    2  504  503 -0.15386853393E+02  0.18629426341E+02 -0.39604012997E+00  0.24165422217E+02  0.00000000000E+00 0. -1.
<mgrwt>
<rscale>  1 0.12731547E+03</rscale>
<asrwt>0</asrwt>
<pdfrwt beam="1">  1       21 0.69162989E-01 0.12731547E+03</pdfrwt>
<pdfrwt beam="2">  1       21 0.33137617E-02 0.12731547E+03</pdfrwt>
<totfact> 0.10238358E+06</totfact>
</mgrwt>
</event>
<event>
 6    1  0.4244577E-002  0.1685662E+03  0.7546771E-02  0.1179351E+00
         21   -1    0    0  504  502  0.00000000000E+00  0.00000000000E+00  0.41713806697E+02  0.41713806697E+02  0.00000000000E+00 0.  1.
         21   -1    0    0  502  503 -0.00000000000E+00 -0.00000000000E+00 -0.60713077207E+03  0.60713077207E+03  0.00000000000E+00 0.  1.
         25    2    1    2    0    0 -0.11084972150E+03 -0.22408725061E+02 -0.17753729783E+03  0.24481432222E+03  0.12499899410E+03 0.  0.
          5    1    3    3  501    0 -0.88322965354E+02 -0.10004807789E+02 -0.19460866179E+03  0.21394761890E+03  0.10000000000E+00 0.  1.
         -5    1    3    3    0  501 -0.22526756147E+02 -0.12403917271E+02  0.17071363961E+02  0.30866703317E+02  0.10000000000E+00 0.  1.
         21    1    1    2  504  503  0.11084972150E+03  0.22408725061E+02 -0.38787966754E+03  0.40403025655E+03  0.00000000000E+00 0.  1.
<mgrwt>
<rscale>  1 0.16856619E+03</rscale>
<asrwt>0</asrwt>
<pdfrwt beam="1">  1       21 0.64175085E-02 0.16856619E+03</pdfrwt>
<pdfrwt beam="2">  1       21 0.93404737E-01 0.16856619E+03</pdfrwt>
<totfact> 0.17073581E+05</totfact>
</mgrwt>
</event>
<event>
 6    1  0.4244577E-002  0.1268659E+03  0.7546771E-02  0.1232182E+00
         21   -1    0    0  504  502  0.00000000000E+00  0.00000000000E+00  0.95545474927E+02  0.95545474927E+02  0.00000000000E+00 0.  1.
         21   -1    0    0  502  503 -0.00000000000E+00 -0.00000000000E+00 -0.10163797363E+03  0.10163797363E+03  0.00000000000E+00 0.  1.
         25    2    1    2    0    0  0.12873759419E+02 -0.17413427643E+02  0.50531970526E+02  0.13655926477E+03  0.12500396636E+03 0.  0.
          5    1    3    3  501    0 -0.40234235307E+02  0.15808616541E+02  0.59216937344E+02  0.73316858335E+02  0.10000000000E+00 0.  1.
         -5    1    3    3    0  501  0.53107994726E+02 -0.33222044184E+02 -0.86849668176E+01  0.63242406439E+02  0.10000000000E+00 0.  1.
         21    1    1    2  504  503 -0.12873759419E+02  0.17413427643E+02 -0.56624469232E+02  0.60624183785E+02  0.00000000000E+00 0.  1.
<mgrwt>
<rscale>  1 0.12686588E+03</rscale>
<asrwt>0</asrwt>
<pdfrwt beam="1">  1       21 0.14699304E-01 0.12686588E+03</pdfrwt>
<pdfrwt beam="2">  1       21 0.15636611E-01 0.12686588E+03</pdfrwt>
<totfact> 0.14750837E+06</totfact>
</mgrwt>
</event>
<event>
 6    1  0.4244577E-002  0.1262038E+03  0.7546771E-02  0.1233200E+00
         21   -1    0    0  503  502  0.00000000000E+00  0.00000000000E+00  0.11178403301E+03  0.11178403301E+03  0.00000000000E+00 0. -1.
         21   -1    0    0  504  503 -0.00000000000E+00 -0.00000000000E+00 -0.69372090343E+02  0.69372090343E+02  0.00000000000E+00 0. -1.
         25    2    1    2    0    0 -0.16886010899E+02  0.40722871366E+01  0.73134504470E+02  0.14586311144E+03  0.12500268256E+03 0.  0.
          5    1    3    3  501    0 -0.61007720506E+02  0.36126716852E+01  0.78467788906E+00  0.61119711038E+02  0.10000000000E+00 0.  1.
         -5    1    3    3    0  501  0.44121709607E+02  0.45961545139E+00  0.72349826581E+02  0.84743400400E+02  0.10000000000E+00 0.  1.
         21    1    1    2  504  502  0.16886010899E+02 -0.40722871366E+01 -0.30722561800E+02  0.35293011917E+02  0.00000000000E+00 0. -1.
<mgrwt>
<rscale>  1 0.12620377E+03</rscale>
<asrwt>0</asrwt>
<pdfrwt beam="1">  1       21 0.17197544E-01 0.12620377E+03</pdfrwt>
<pdfrwt beam="2">  1       21 0.10672629E-01 0.12620377E+03</pdfrwt>
<totfact> 0.21916824E+06</totfact>
</mgrwt>
</event>
<event>
 6    1  0.4244577E-002  0.1271014E+03  0.7546771E-02  0.1231821E+00
         21   -1    0    0  503  502  0.00000000000E+00  0.00000000000E+00  0.51682323574E+01  0.51682323574E+01  0.00000000000E+00 0. -1.
         21   -1    0    0  504  503 -0.00000000000E+00 -0.00000000000E+00 -0.11358303509E+04  0.11358303509E+04  0.00000000000E+00 0. -1.
         25    2    1    2    0    0 -0.18647114369E+02  0.13497724488E+02 -0.85753788490E+03  0.86690598860E+03  0.12499946239E+03 0.  0.
          5    1    3    3  501    0  0.30347146493E+02 -0.17385161156E+02 -0.66320684433E+03  0.66412839232E+03  0.10000000000E+00 0. -1.
         -5    1    3    3    0  501 -0.48994260861E+02  0.30882885645E+02 -0.19433104057E+03  0.20277759628E+03  0.10000000000E+00 0. -1.
         21    1    1    2  504  502  0.18647114369E+02 -0.13497724488E+02 -0.27312423360E+03  0.27409259461E+03  0.00000000000E+00 0. -1.
<mgrwt>
<rscale>  1 0.12710141E+03</rscale>
<asrwt>0</asrwt>
<pdfrwt beam="1">  1       21 0.79511269E-03 0.12710141E+03</pdfrwt>
<pdfrwt beam="2">  1       21 0.17474313E+00 0.12710141E+03</pdfrwt>
<totfact> 0.10823583E+06</totfact>
</mgrwt>
</event>
<event>
 6    1  0.4244577E-002  0.1262133E+03  0.7546771E-02  0.1233185E+00
         21   -1    0    0  504  502  0.00000000000E+00  0.00000000000E+00  0.69805562034E+02  0.69805562034E+02  0.00000000000E+00 0. -1.
         21   -1    0    0  502  503 -0.00000000000E+00 -0.00000000000E+00 -0.76188938172E+02  0.76188938172E+02  0.00000000000E+00 0. -1.
         25    2    1    2    0    0 -0.14478469581E+02 -0.97497377176E+01  0.28545017181E+01  0.12624552924E+03  0.12500040802E+03 0.  0.
          5    1    3    3  501    0 -0.26980105109E+02 -0.11581451447E+02 -0.57510731235E+02  0.64572055074E+02  0.10000000000E+00 0. -1.
         -5    1    3    3    0  501  0.12501635528E+02  0.18317137292E+01  0.60365232953E+02  0.61673474165E+02  0.10000000000E+00 0. -1.
         21    1    1    2  504  503  0.14478469581E+02  0.97497377176E+01 -0.92378778566E+01  0.19748970967E+02  0.00000000000E+00 0. -1.
<mgrwt>
<rscale>  1 0.12621325E+03</rscale>
<asrwt>0</asrwt>
<pdfrwt beam="1">  1       21 0.10739317E-01 0.12621325E+03</pdfrwt>
<pdfrwt beam="2">  1       21 0.11721375E-01 0.12621325E+03</pdfrwt>
<totfact> 0.43124627E+06</totfact>
</mgrwt>
</event>
<event>
 6    1  0.4244577E-002  0.1470359E+03  0.7546771E-02  0.1204163E+00
         21   -1    0    0  504  502  0.00000000000E+00  0.00000000000E+00  0.64724688181E+02  0.64724688181E+02  0.00000000000E+00 0. -1.
         21   -1    0    0  502  503 -0.00000000000E+00 -0.00000000000E+00 -0.32477186493E+03  0.32477186493E+03  0.00000000000E+00 0. -1.
         25    2    1    2    0    0 -0.60712885149E+02  0.48049263604E+02 -0.34498852749E+02  0.15102887686E+03  0.12499905859E+03 0.  0.
          5    1    3    3  501    0 -0.93399825885E+01 -0.28805388872E+02  0.26528081541E+02  0.40258350849E+02  0.10000000000E+00 0.  1.
         -5    1    3    3    0  501 -0.51372902560E+02  0.76854652476E+02 -0.61026934290E+02  0.11077052601E+03  0.10000000000E+00 0.  1.
         21    1    1    2  504  503  0.60712885149E+02 -0.48049263604E+02 -0.22554832400E+03  0.23846767625E+03  0.00000000000E+00 0. -1.
<mgrwt>
<rscale>  1 0.14703588E+03</rscale>
<asrwt>0</asrwt>
<pdfrwt beam="1">  1       21 0.99576443E-02 0.14703588E+03</pdfrwt>
<pdfrwt beam="2">  1       21 0.49964902E-01 0.14703588E+03</pdfrwt>
<totfact> 0.31512065E+05</totfact>
</mgrwt>
</event>
<event>
 6    1  0.4244577E-002  0.1352943E+03  0.7546771E-02  0.1219805E+00
         21   -1    0    0  503  502  0.00000000000E+00  0.00000000000E+00  0.17323378983E+02  0.17323378983E+02  0.00000000000E+00 0. -1.
         21   -1    0    0  504  503 -0.00000000000E+00 -0.00000000000E+00 -0.13491897362E+04  0.13491897362E+04  0.00000000000E+00 0. -1.
         25    2    1    2    0    0  0.51043117285E+02 -0.78996072746E+01 -0.25726664451E+03  0.29067281748E+03  0.12504701846E+03 0.  0.
          5    1    3    3  501    0 -0.94988150427E+01 -0.53294363069E+02 -0.68531268312E+02  0.87333048490E+02  0.10000000000E+00 0.  1.
         -5    1    3    3    0  501  0.60541932328E+02  0.45394755794E+02 -0.18873537620E+03  0.20333976899E+03  0.10000000000E+00 0.  1.
         21    1    1    2  504  502 -0.51043117285E+02  0.78996072746E+01 -0.10745997127E+04  0.10758402977E+04  0.00000000000E+00 0. -1.
<mgrwt>
<rscale>  1 0.13529435E+03</rscale>
<asrwt>0</asrwt>
<pdfrwt beam="1">  1       21 0.26651354E-02 0.13529435E+03</pdfrwt>
<pdfrwt beam="2">  1       21 0.20756764E+00 0.13529435E+03</pdfrwt>
<totfact> 0.95898294E+04</totfact>
</mgrwt>
</event>
<event>
 6    1  0.4244577E-002  0.1269259E+03  0.7546771E-02  0.1232090E+00
         21   -1    0    0  504  502  0.00000000000E+00  0.00000000000E+00  0.93113455031E+01  0.93113455031E+01  0.00000000000E+00 0.  1.
         21   -1    0    0  502  503 -0.00000000000E+00 -0.00000000000E+00 -0.59617223279E+03  0.59617223279E+03  0.00000000000E+00 0.  1.
         25    2    1    2    0    0 -0.44623652082E+01 -0.21548963327E+02 -0.49286887533E+03  0.50894980785E+03  0.12500363243E+03 0.  0.
          5    1    3    3  501    0 -0.13419481234E+02 -0.73190676697E+02 -0.29916726743E+03  0.30828237305E+03  0.10000000000E+00 0.  1.
         -5    1    3    3    0  501  0.89571160256E+01  0.51641713370E+02 -0.19370160790E+03  0.20066743481E+03  0.10000000000E+00 0.  1.
         21    1    1    2  504  503  0.44623652082E+01  0.21548963327E+02 -0.93992011962E+02  0.96533770446E+02  0.00000000000E+00 0.  1.
<mgrwt>
<rscale>  1 0.12692588E+03</rscale>
<asrwt>0</asrwt>
<pdfrwt beam="1">  1       21 0.14325145E-02 0.12692588E+03</pdfrwt>
<pdfrwt beam="2">  1       21 0.91718819E-01 0.12692588E+03</pdfrwt>
<totfact> 0.21193598E+06</totfact>
</mgrwt>
</event>
<event>
 6    1  0.4244577E-002  0.1305214E+03  0.7546771E-02  0.1226684E+00
         21   -1    0    0  504  502  0.00000000000E+00  0.00000000000E+00  0.63253237201E+02  0.63253237201E+02  0.00000000000E+00 0.  1.
         21   -1    0    0  502  503 -0.00000000000E+00 -0.00000000000E+00 -0.11293231428E+03  0.11293231428E+03  0.00000000000E+00 0.  1.
         25    2    1    2    0    0  0.37672345850E+02 -0.36517643513E+01 -0.44938043035E+02  0.13804084768E+03  0.12491319742E+03 0.  0.
          5    1    3    3  501    0  0.43301485626E+02 -0.57422595324E+02 -0.75649332545E+01  0.72316051650E+02  0.10000000000E+00 0. -1.
         -5    1    3    3    0  501 -0.56291397759E+01  0.53770830973E+02 -0.37373109781E+02  0.65724796027E+02  0.10000000000E+00 0. -1.
         21    1    1    2  504  503 -0.37672345850E+02  0.36517643513E+01 -0.47410340476E+01  0.38144703808E+02  0.00000000000E+00 0.  1.
<mgrwt>
<rscale>  1 0.13052145E+03</rscale>
<asrwt>0</asrwt>
<pdfrwt beam="1">  1       21 0.97312674E-02 0.13052145E+03</pdfrwt>
<pdfrwt beam="2">  1       21 0.17374202E-01 0.13052145E+03</pdfrwt>
<totfact> 0.25316178E+06</totfact>
</mgrwt>
</event>
<event>
 6    1  0.4244577E-002  0.1363332E+03  0.7546771E-02  0.1218350E+00
         21   -1    0    0  504  502  0.00000000000E+00  0.00000000000E+00  0.60541644512E+02  0.60541644512E+02  0.00000000000E+00 0.  1.
         21   -1    0    0  502  503 -0.00000000000E+00 -0.00000000000E+00 -0.19258256659E+03  0.19258256659E+03  0.00000000000E+00 0.  1.
         25    2    1    2    0    0  0.50951840918E+02 -0.19061158637E+02 -0.33224788549E+02  0.14032329751E+03  0.12500929321E+03 0.  0.
          5    1    3    3  501    0  0.29438173859E+02 -0.71441098219E+02 -0.32141134422E+02  0.83686911263E+02  0.10000000000E+00 0.  1.
         -5    1    3    3    0  501  0.21513667060E+02  0.52379939582E+02 -0.10836541275E+01  0.56636386248E+02  0.10000000000E+00 0.  1.
         21    1    1    2  504  503 -0.50951840918E+02  0.19061158637E+02 -0.98816133529E+02  0.11280091359E+03  0.00000000000E+00 0.  1.
<mgrwt>
<rscale>  1 0.13633320E+03</rscale>
<asrwt>0</asrwt>
<pdfrwt beam="1">  1       21 0.93140992E-02 0.13633320E+03</pdfrwt>
<pdfrwt beam="2">  1       21 0.29628087E-01 0.13633320E+03</pdfrwt>
<totfact> 0.10057334E+06</totfact>
</mgrwt>
</event>
<event>
 6    1  0.4244577E-002  0.1504098E+03  0.7546771E-02  0.1199970E+00
         21   -1    0    0  504  502  0.00000000000E+00  0.00000000000E+00  0.44286680608E+02  0.44286680608E+02  0.00000000000E+00 0. -1.
         21   -1    0    0  502  503 -0.00000000000E+00 -0.00000000000E+00 -0.14644553187E+04  0.14644553187E+04  0.00000000000E+00 0. -1.
         25    2    1    2    0    0  0.46556122419E+02  0.69504894365E+02 -0.88635238013E+02  0.17458323874E+03  0.12499879582E+03 0.  0.
          5    1    3    3  501    0  0.68830251053E+02  0.65220717049E+02 -0.10873754018E+03  0.14427476577E+03  0.10000000000E+00 0. -1.
         -5    1    3    3    0  501 -0.22274128634E+02  0.42841773155E+01  0.20102302167E+02  0.30308472975E+02  0.10000000000E+00 0. -1.
         21    1    1    2  504  503 -0.46556122419E+02 -0.69504894365E+02 -0.13315334001E+04  0.13341587606E+04  0.00000000000E+00 0. -1.
<mgrwt>
<rscale>  1 0.15040978E+03</rscale>
<asrwt>0</asrwt>
<pdfrwt beam="1">  1       21 0.68133366E-02 0.15040978E+03</pdfrwt>
<pdfrwt beam="2">  1       21 0.22530078E+00 0.15040978E+03</pdfrwt>
<totfact> 0.15383726E+04</totfact>
</mgrwt>
</event>
<event>
 6    1  0.4244577E-002  0.1297089E+03  0.7546771E-02  0.1227888E+00
         21   -1    0    0  504  502  0.00000000000E+00  0.00000000000E+00  0.71646915610E+02  0.71646915610E+02  0.00000000000E+00 0.  1.
         21   -1    0    0  502  503 -0.00000000000E+00 -0.00000000000E+00 -0.11385383180E+03  0.11385383180E+03  0.00000000000E+00 0.  1.
         25    2    1    2    0    0 -0.26911142779E+02 -0.21803298920E+02  0.15210694104E+01  0.12971786317E+03  0.12499926769E+03 0.  0.
          5    1    3    3  501    0 -0.59035255476E+02 -0.30932895902E+02 -0.38990237306E+02  0.77215633412E+02  0.10000000000E+00 0. -1.
         -5    1    3    3    0  501  0.32124112697E+02  0.91295969820E+01  0.40511306716E+02  0.52502229757E+02  0.10000000000E+00 0. -1.
         21    1    1    2  504  503  0.26911142779E+02  0.21803298920E+02 -0.43727985597E+02  0.55782884238E+02  0.00000000000E+00 0.  1.
<mgrwt>
<rscale>  1 0.12970894E+03</rscale>
<asrwt>0</asrwt>
<pdfrwt beam="1">  1       21 0.11022603E-01 0.12970894E+03</pdfrwt>
<pdfrwt beam="2">  1       21 0.17515974E-01 0.12970894E+03</pdfrwt>
<totfact> 0.20042680E+06</totfact>
</mgrwt>
</event>
<event>
 6    1  0.4244577E-002  0.1269742E+03  0.7546771E-02  0.1232016E+00
         21   -1    0    0  504  502  0.00000000000E+00  0.00000000000E+00  0.25260420798E+02  0.25260420798E+02  0.00000000000E+00 0. -1.
         21   -1    0    0  502  503 -0.00000000000E+00 -0.00000000000E+00 -0.22429073687E+03  0.22429073687E+03  0.00000000000E+00 0. -1.
         25    2    1    2    0    0  0.19315922857E+02 -0.11197372992E+02 -0.15663121829E+03  0.20163279449E+03  0.12499583685E+03 0.  0.
          5    1    3    3  501    0 -0.47791347035E+02 -0.60230499507E+01 -0.10902411899E+03  0.11919126857E+03  0.10000000000E+00 0.  1.
         -5    1    3    3    0  501  0.67107269891E+02 -0.51743230413E+01 -0.47607099308E+02  0.82441525918E+02  0.10000000000E+00 0.  1.
         21    1    1    2  504  503 -0.19315922857E+02  0.11197372992E+02 -0.42399097781E+02  0.47918363186E+02  0.00000000000E+00 0. -1.
<mgrwt>
<rscale>  1 0.12697419E+03</rscale>
<asrwt>0</asrwt>
<pdfrwt beam="1">  1       21 0.38862188E-02 0.12697419E+03</pdfrwt>
<pdfrwt beam="2">  1       21 0.34506265E-01 0.12697419E+03</pdfrwt>
<totfact> 0.32939890E+06</totfact>
</mgrwt>
</event>
<event>
 6    1  0.4244577E-002  0.1284302E+03  0.7546771E-02  0.1229804E+00
         21   -1    0    0  503  502  0.00000000000E+00  0.00000000000E+00  0.18726252792E+03  0.18726252792E+03  0.00000000000E+00 0.  1.
         21   -1    0    0  504  503 -0.00000000000E+00 -0.00000000000E+00 -0.13229291992E+03  0.13229291992E+03  0.00000000000E+00 0.  1.
         25    2    1    2    0    0  0.52823676521E+01  0.29015213451E+02  0.16303126717E+03  0.20754157280E+03  0.12499809736E+03 0.  0.
          5    1    3    3  501    0  0.51740828419E+02  0.54092700460E+02  0.10669110151E+03  0.13033086630E+03  0.10000000000E+00 0. -1.
         -5    1    3    3    0  501 -0.46458460767E+02 -0.25077487009E+02  0.56340165656E+02  0.77210706496E+02  0.10000000000E+00 0. -1.
         21    1    1    2  504  502 -0.52823676521E+01 -0.29015213451E+02 -0.10806165917E+03  0.11201387504E+03  0.00000000000E+00 0.  1.
<mgrwt>
<rscale>  1 0.12843018E+03</rscale>
<asrwt>0</asrwt>
<pdfrwt beam="1">  1       21 0.28809620E-01 0.12843018E+03</pdfrwt>
<pdfrwt beam="2">  1       21 0.20352757E-01 0.12843018E+03</pdfrwt>
<totfact> 0.26138988E+05</totfact>
</mgrwt>
</event>
<event>
 6    1  0.4244577E-002  0.1259048E+03  0.7546771E-02  0.1233662E+00
         21   -1    0    0  503  502  0.00000000000E+00  0.00000000000E+00  0.38352451263E+02  0.38352451263E+02  0.00000000000E+00 0. -1.
         21   -1    0    0  504  503 -0.00000000000E+00 -0.00000000000E+00 -0.15088026386E+03  0.15088026386E+03  0.00000000000E+00 0. -1.
         25    2    1    2    0    0 -0.14528209386E+02  0.38704782354E+01 -0.69847254132E+02  0.14398142187E+03  0.12500384580E+03 0.  0.
          5    1    3    3  501    0 -0.28396751506E+02  0.19246262787E+02 -0.10094830848E+03  0.10661784613E+03  0.10000000000E+00 0. -1.
         -5    1    3    3    0  501  0.13868542119E+02 -0.15375784552E+02  0.31101054349E+02  0.37363575749E+02  0.10000000000E+00 0. -1.
         21    1    1    2  504  502  0.14528209386E+02 -0.38704782354E+01 -0.42680558470E+02  0.45251293253E+02  0.00000000000E+00 0. -1.
<mgrwt>
<rscale>  1 0.12590477E+03</rscale>
<asrwt>0</asrwt>
<pdfrwt beam="1">  1       21 0.59003771E-02 0.12590477E+03</pdfrwt>
<pdfrwt beam="2">  1       21 0.23212348E-01 0.12590477E+03</pdfrwt>
<totfact> 0.34961666E+06</totfact>
</mgrwt>
</event>
<event>
 6    1  0.4244577E-002  0.1262389E+03  0.7546771E-02  0.1233146E+00
         21   -1    0    0  504  502  0.00000000000E+00  0.00000000000E+00  0.41896985801E+02  0.41896985801E+02  0.00000000000E+00 0. -1.
         21   -1    0    0  502  503 -0.00000000000E+00 -0.00000000000E+00 -0.12420986755E+04  0.12420986755E+04  0.00000000000E+00 0. -1.
         25    2    1    2    0    0 -0.17353204048E+02 -0.31412081173E+01 -0.53416783487E+02  0.13707516624E+03  0.12500099024E+03 0.  0.
          5    1    3    3  501    0  0.43620061623E+02 -0.36335038931E+02 -0.25844831812E+02  0.62377160576E+02  0.10000000000E+00 0. -1.
         -5    1    3    3    0  501 -0.60973265671E+02  0.33193830814E+02 -0.27571951674E+02  0.74698005662E+02  0.10000000000E+00 0. -1.
         21    1    1    2  504  503  0.17353204048E+02  0.31412081173E+01 -0.11467849062E+04  0.11469204951E+04  0.00000000000E+00 0. -1.
<mgrwt>
<rscale>  1 0.12623885E+03</rscale>
<asrwt>0</asrwt>
<pdfrwt beam="1">  1       21 0.64456906E-02 0.12623885E+03</pdfrwt>
<pdfrwt beam="2">  1       21 0.19109209E+00 0.12623885E+03</pdfrwt>
<totfact> 0.28187188E+04</totfact>
</mgrwt>
</event>
<event>
 6    1  0.4244577E-002  0.1268541E+03  0.7546771E-02  0.1232200E+00
         21   -1    0    0  504  502  0.00000000000E+00  0.00000000000E+00  0.29419255950E+02  0.29419255950E+02  0.00000000000E+00 0. -1.
         21   -1    0    0  502  503 -0.00000000000E+00 -0.00000000000E+00 -0.10002666430E+04  0.10002666430E+04  0.00000000000E+00 0. -1.
         25    2    1    2    0    0 -0.77822607607E+01 -0.19856864027E+02 -0.10807478487E+03  0.16664973418E+03  0.12504845519E+03 0.  0.
          5    1    3    3  501    0 -0.32100982199E+02 -0.27340433809E+02  0.12054490647E+02  0.43855365963E+02  0.10000000000E+00 0. -1.
         -5    1    3    3    0  501  0.24318721438E+02  0.74835697815E+01 -0.12012927552E+03  0.12279436822E+03  0.10000000000E+00 0. -1.
         21    1    1    2  504  503  0.77822607607E+01  0.19856864027E+02 -0.86277260218E+03  0.86303616478E+03  0.00000000000E+00 0. -1.
<mgrwt>
<rscale>  1 0.12685415E+03</rscale>
<asrwt>0</asrwt>
<pdfrwt beam="1">  1       21 0.45260396E-02 0.12685415E+03</pdfrwt>
<pdfrwt beam="2">  1       21 0.15388717E+00 0.12685415E+03</pdfrwt>
<totfact> 0.92048196E+04</totfact>
</mgrwt>
</event>
<event>
 6    1  0.4244577E-002  0.2007951E+03  0.7546771E-02  0.1149070E+00
         21   -1    0    0  504  502  0.00000000000E+00  0.00000000000E+00  0.66239077321E+03  0.66239077321E+03  0.00000000000E+00 0.  1.
         21   -1    0    0  502  503 -0.00000000000E+00 -0.00000000000E+00 -0.19726613423E+03  0.19726613423E+03  0.00000000000E+00 0.  1.
         25    2    1    2    0    0 -0.14943006032E+03  0.48620261118E+02  0.61228412194E+03  0.64436829617E+03  0.12500152963E+03 0.  0.
          5    1    3    3  501    0 -0.12948075201E+03 -0.94427202931E+01  0.31307507551E+03  0.33892542397E+03  0.10000000000E+00 0. -1.
         -5    1    3    3    0  501 -0.19949308308E+02  0.58062981411E+02  0.29920904642E+03  0.30544287219E+03  0.10000000000E+00 0. -1.
         21    1    1    2  504  503  0.14943006032E+03 -0.48620261118E+02 -0.14715948296E+03  0.21528861127E+03  0.00000000000E+00 0.  1.
<mgrwt>
<rscale>  1 0.20079506E+03</rscale>
<asrwt>0</asrwt>
<pdfrwt beam="1">  1       21 0.10190627E+00 0.20079506E+03</pdfrwt>
<pdfrwt beam="2">  1       21 0.30348636E-01 0.20079506E+03</pdfrwt>
<totfact> 0.81284688E+03</totfact>
</mgrwt>
</event>
<event>
 6    1  0.4244577E-002  0.1291682E+03  0.7546771E-02  0.1228695E+00
         21   -1    0    0  504  502  0.00000000000E+00  0.00000000000E+00  0.11975006923E+03  0.11975006923E+03  0.00000000000E+00 0.  1.
         21   -1    0    0  502  503 -0.00000000000E+00 -0.00000000000E+00 -0.62405316639E+02  0.62405316639E+02  0.00000000000E+00 0.  1.
         25    2    1    2    0    0  0.18434254080E+02 -0.26830120321E+02  0.70370540412E+02  0.14709332334E+03  0.12499902293E+03 0.  0.
          5    1    3    3  501    0 -0.51757815601E+02  0.50582394236E+01  0.30688962761E+02  0.60384432573E+02  0.10000000000E+00 0. -1.
         -5    1    3    3    0  501  0.70192069681E+02 -0.31888359745E+02  0.39681577652E+02  0.86708890768E+02  0.10000000000E+00 0. -1.
         21    1    1    2  504  503 -0.18434254080E+02  0.26830120321E+02 -0.13025787825E+02  0.35062062523E+02  0.00000000000E+00 0.  1.
<mgrwt>
<rscale>  1 0.12916823E+03</rscale>
<asrwt>0</asrwt>
<pdfrwt beam="1">  1       21 0.18423087E-01 0.12916823E+03</pdfrwt>
<pdfrwt beam="2">  1       21 0.96008180E-02 0.12916823E+03</pdfrwt>
<totfact> 0.23275412E+06</totfact>
</mgrwt>
</event>
<event>
 6    1  0.4244577E-002  0.1358051E+03  0.7546771E-02  0.1219088E+00
         21   -1    0    0  503  502  0.00000000000E+00  0.00000000000E+00  0.33051027283E+03  0.33051027283E+03  0.00000000000E+00 0.  1.
         21   -1    0    0  504  503 -0.00000000000E+00 -0.00000000000E+00 -0.41211015326E+02  0.41211015326E+02  0.00000000000E+00 0.  1.
         25    2    1    2    0    0  0.40913150321E+02 -0.33813255230E+02  0.28824320982E+03  0.31863327317E+03  0.12500317061E+03 0.  0.
          5    1    3    3  501    0  0.46475662773E+01 -0.14878064995E+01 -0.12798072287E+02  0.13697229455E+02  0.10000000000E+00 0. -1.
         -5    1    3    3    0  501  0.36265584044E+02 -0.32325448730E+02  0.30104128211E+03  0.30493604371E+03  0.10000000000E+00 0. -1.
         21    1    1    2  504  502 -0.40913150321E+02  0.33813255230E+02  0.10560476801E+01  0.53088014986E+02  0.00000000000E+00 0.  1.
<mgrwt>
<rscale>  1 0.13580506E+03</rscale>
<asrwt>0</asrwt>
<pdfrwt beam="1">  1       21 0.50847732E-01 0.13580506E+03</pdfrwt>
<pdfrwt beam="2">  1       21 0.63401564E-02 0.13580506E+03</pdfrwt>
<totfact> 0.66383219E+05</totfact>
</mgrwt>
</event>
<event>
 6    1  0.4244577E-002  0.1259360E+03  0.7546771E-02  0.1233614E+00
         21   -1    0    0  503  502  0.00000000000E+00  0.00000000000E+00  0.17298524914E+03  0.17298524914E+03  0.00000000000E+00 0.  1.
         21   -1    0    0  504  503 -0.00000000000E+00 -0.00000000000E+00 -0.39625301221E+02  0.39625301221E+02  0.00000000000E+00 0.  1.
         25    2    1    2    0    0  0.12077474144E+01 -0.15306977885E+02  0.14593679966E+03  0.19276264303E+03  0.12499649925E+03 0.  0.
          5    1    3    3  501    0 -0.19720647273E+02 -0.11578852028E+02 -0.16968266155E+02  0.28476407770E+02  0.10000000000E+00 0.  1.
         -5    1    3    3    0  501  0.20928394688E+02 -0.37281258561E+01  0.16290506582E+03  0.16428623526E+03  0.10000000000E+00 0.  1.
         21    1    1    2  504  502 -0.12077474144E+01  0.15306977885E+02 -0.12576851742E+02  0.19847907334E+02  0.00000000000E+00 0.  1.
<mgrwt>
<rscale>  1 0.12593604E+03</rscale>
<asrwt>0</asrwt>
<pdfrwt beam="1">  1       21 0.26613115E-01 0.12593604E+03</pdfrwt>
<pdfrwt beam="2">  1       21 0.60962002E-02 0.12593604E+03</pdfrwt>
<totfact> 0.25556478E+06</totfact>
</mgrwt>
</event>
<event>
 6    1  0.4244577E-002  0.1340070E+03  0.7546771E-02  0.1221628E+00
         21   -1    0    0  503  502  0.00000000000E+00  0.00000000000E+00  0.21663031924E+02  0.21663031924E+02  0.00000000000E+00 0. -1.
         21   -1    0    0  504  503 -0.00000000000E+00 -0.00000000000E+00 -0.39463310628E+03  0.39463310628E+03  0.00000000000E+00 0. -1.
         25    2    1    2    0    0  0.37626653102E+02 -0.30293532056E+02 -0.24082342104E+03  0.27559716489E+03  0.12499765625E+03 0.  0.
          5    1    3    3  501    0  0.44111686599E+02 -0.48810893263E+02 -0.47171212030E+02  0.80953551127E+02  0.10000000000E+00 0.  1.
         -5    1    3    3    0  501 -0.64850334970E+01  0.18517361207E+02 -0.19365220901E+03  0.19464361376E+03  0.10000000000E+00 0.  1.
         21    1    1    2  504  502 -0.37626653102E+02  0.30293532056E+02 -0.13214665332E+03  0.14069897331E+03  0.00000000000E+00 0. -1.
<mgrwt>
<rscale>  1 0.13400700E+03</rscale>
<asrwt>0</asrwt>
<pdfrwt beam="1">  1       21 0.33327744E-02 0.13400700E+03</pdfrwt>
<pdfrwt beam="2">  1       21 0.60712781E-01 0.13400700E+03</pdfrwt>
<totfact> 0.13431128E+06</totfact>
</mgrwt>
</event>
<event>
 6    1  0.4244577E-002  0.1269781E+03  0.7546771E-02  0.1232010E+00
         21   -1    0    0  504  502  0.00000000000E+00  0.00000000000E+00  0.26710400266E+03  0.26710400266E+03  0.00000000000E+00 0. -1.
         21   -1    0    0  502  503 -0.00000000000E+00 -0.00000000000E+00 -0.20964645101E+02  0.20964645101E+02  0.00000000000E+00 0. -1.
         25    2    1    2    0    0  0.21746075810E+02  0.50393620879E+01  0.21608195811E+03  0.25062890624E+03  0.12500059616E+03 0.  0.
          5    1    3    3  501    0  0.10977868049E+02  0.39872987684E+02  0.11643266717E+02  0.42964455002E+02  0.10000000000E+00 0.  1.
         -5    1    3    3    0  501  0.10768207761E+02 -0.34833625596E+02  0.20443869139E+03  0.20766445124E+03  0.10000000000E+00 0.  1.
         21    1    1    2  504  503 -0.21746075810E+02 -0.50393620879E+01  0.30057399448E+02  0.37439741519E+02  0.00000000000E+00 0.  1.
<mgrwt>
<rscale>  1 0.12697809E+03</rscale>
<asrwt>0</asrwt>
<pdfrwt beam="1">  1       21 0.41092921E-01 0.12697809E+03</pdfrwt>
<pdfrwt beam="2">  1       21 0.32253302E-02 0.12697809E+03</pdfrwt>
<totfact> 0.31697222E+06</totfact>
</mgrwt>
</event>
<event>
 6    1  0.4244577E-002  0.1295346E+03  0.7546771E-02  0.1228148E+00
         21   -1    0    0  504  502  0.00000000000E+00  0.00000000000E+00  0.18578551383E+04  0.18578551383E+04  0.00000000000E+00 0. -1.
         21   -1    0    0  502  503 -0.00000000000E+00 -0.00000000000E+00 -0.12388425681E+02  0.12388425681E+02  0.00000000000E+00 0.  1.
         25    2    1    2    0    0 -0.27703893794E+02 -0.19650719134E+02  0.18269928155E+04  0.18315790923E+04  0.12500226808E+03 0.  0.
          5    1    3    3  501    0  0.46013693181E+02  0.11593986119E+02  0.53128943623E+03  0.53340430775E+03  0.10000000000E+00 0. -1.
         -5    1    3    3    0  501 -0.73717586975E+02 -0.31244705253E+02  0.12957033793E+04  0.12981747846E+04  0.10000000000E+00 0. -1.
         21    1    1    2  504  503  0.27703893794E+02  0.19650719134E+02  0.18473897105E+02  0.38664471651E+02  0.00000000000E+00 0.  1.
<mgrwt>
<rscale>  1 0.12953464E+03</rscale>
<asrwt>0</asrwt>
<pdfrwt beam="1">  1       21 0.28582365E+00 0.12953464E+03</pdfrwt>
<pdfrwt beam="2">  1       21 0.19059131E-02 0.12953464E+03</pdfrwt>
<totfact> 0.58261106E+04</totfact>
</mgrwt>
</event>
<event>
 6    1  0.4244577E-002  0.1262941E+03  0.7546771E-02  0.1233061E+00
         21   -1    0    0  504  502  0.00000000000E+00  0.00000000000E+00  0.34562625959E+02  0.34562625959E+02  0.00000000000E+00 0. -1.
         21   -1    0    0  502  503 -0.00000000000E+00 -0.00000000000E+00 -0.15446571679E+03  0.15446571679E+03  0.00000000000E+00 0. -1.
         25    2    1    2    0    0 -0.12561188635E+02 -0.12742250639E+02 -0.93520005461E+02  0.15715020596E+03  0.12502018798E+03 0.  0.
          5    1    3    3  501    0  0.44101821228E+02 -0.80468934082E+01  0.32128671305E+01  0.44945029139E+02  0.10000000000E+00 0.  1.
         -5    1    3    3    0  501 -0.56663009863E+02 -0.46953572310E+01 -0.96732872592E+02  0.11220517682E+03  0.10000000000E+00 0.  1.
         21    1    1    2  504  503  0.12561188635E+02  0.12742250639E+02 -0.26383085365E+02  0.31878136782E+02  0.00000000000E+00 0. -1.
<mgrwt>
<rscale>  1 0.12629408E+03</rscale>
<asrwt>0</asrwt>
<pdfrwt beam="1">  1       21 0.53173271E-02 0.12629408E+03</pdfrwt>
<pdfrwt beam="2">  1       21 0.23763956E-01 0.12629408E+03</pdfrwt>
<totfact> 0.39884132E+06</totfact>
</mgrwt>
</event>
<event>
 6    1  0.4244577E-002  0.1268857E+03  0.7546771E-02  0.1232151E+00
         21   -1    0    0  503  502  0.00000000000E+00  0.00000000000E+00  0.18059841116E+03  0.18059841116E+03  0.00000000000E+00 0. -1.
         21   -1    0    0  504  503 -0.00000000000E+00 -0.00000000000E+00 -0.33453024068E+02  0.33453024068E+02  0.00000000000E+00 0. -1.
         25    2    1    2    0    0  0.29182111550E+01 -0.21590263863E+02  0.14418299843E+03  0.19206436638E+03  0.12500131338E+03 0.  0.
          5    1    3    3  501    0  0.53215463227E+01  0.43013690297E+02  0.11149215687E+03  0.11962026355E+03  0.10000000000E+00 0.  1.
         -5    1    3    3    0  501 -0.24033351677E+01 -0.64603954160E+02  0.32690841562E+02  0.72444102832E+02  0.10000000000E+00 0.  1.
         21    1    1    2  504  502 -0.29182111550E+01  0.21590263863E+02  0.29623886633E+01  0.21987068850E+02  0.00000000000E+00 0. -1.
<mgrwt>
<rscale>  1 0.12688571E+03</rscale>
<asrwt>0</asrwt>
<pdfrwt beam="1">  1       21 0.27784370E-01 0.12688571E+03</pdfrwt>
<pdfrwt beam="2">  1       21 0.51466192E-02 0.12688571E+03</pdfrwt>
<totfact> 0.31342283E+06</totfact>
</mgrwt>
</event>
<event>
 6    1  0.4244577E-002  0.1259065E+03  0.7546771E-02  0.1233659E+00
         21   -1    0    0  503  502  0.00000000000E+00  0.00000000000E+00  0.18157632396E+02  0.18157632396E+02  0.00000000000E+00 0.  1.
         21   -1    0    0  504  503 -0.00000000000E+00 -0.00000000000E+00 -0.36571518080E+03  0.36571518080E+03  0.00000000000E+00 0.  1.
         25    2    1    2    0    0  0.14292923929E+02  0.50534132931E+01 -0.20546392610E+03  0.24097277065E+03  0.12499050606E+03 0.  0.
          5    1    3    3  501    0  0.58692180467E+02  0.26254814840E+02 -0.62055007206E+02  0.89358386678E+02  0.10000000000E+00 0.  1.
         -5    1    3    3    0  501 -0.44399256537E+02 -0.21201401547E+02 -0.14340891889E+03  0.15161438397E+03  0.10000000000E+00 0.  1.
         21    1    1    2  504  502 -0.14292923929E+02 -0.50534132931E+01 -0.14209362231E+03  0.14290004255E+03  0.00000000000E+00 0. -1.
<mgrwt>
<rscale>  1 0.12590652E+03</rscale>
<asrwt>0</asrwt>
<pdfrwt beam="1">  1       21 0.27934820E-02 0.12590652E+03</pdfrwt>
<pdfrwt beam="2">  1       21 0.56263873E-01 0.12590652E+03</pdfrwt>
<totfact> 0.21056172E+06</totfact>
</mgrwt>
</event>
<event>
 6    1  0.4244577E-002  0.1430739E+03  0.7546771E-02  0.1209252E+00
         21   -1    0    0  503  502  0.00000000000E+00  0.00000000000E+00  0.70080846419E+03  0.70080846419E+03  0.00000000000E+00 0.  1.
         21   -1    0    0  504  503 -0.00000000000E+00 -0.00000000000E+00 -0.31296741728E+02  0.31296741728E+02  0.00000000000E+00 0.  1.
         25    2    1    2    0    0 -0.36950798869E+01 -0.69635080214E+02  0.64099202113E+03  0.65676549942E+03  0.12492978852E+03 0.  0.
          5    1    3    3  501    0 -0.32588806803E+02  0.18059252698E+02  0.80308926880E+02  0.88530789409E+02  0.10000000000E+00 0.  1.
         -5    1    3    3    0  501  0.28893726916E+02 -0.87694332912E+02  0.56068309425E+03  0.56823471001E+03  0.10000000000E+00 0.  1.
         21    1    1    2  504  502  0.36950798869E+01  0.69635080214E+02  0.28519701334E+02  0.75339706503E+02  0.00000000000E+00 0.  1.
<mgrwt>
<rscale>  1 0.14307393E+03</rscale>
<asrwt>0</asrwt>
<pdfrwt beam="1">  1       21 0.10781667E+00 0.14307393E+03</pdfrwt>
<pdfrwt beam="2">  1       21 0.48148839E-02 0.14307393E+03</pdfrwt>
<totfact> 0.19982978E+05</totfact>
</mgrwt>
</event>
<event>
 6    1  0.4244577E-002  0.1660800E+03  0.7546771E-02  0.1181999E+00
         21   -1    0    0  504  502  0.00000000000E+00  0.00000000000E+00  0.12187213221E+03  0.12187213221E+03  0.00000000000E+00 0. -1.
         21   -1    0    0  502  503 -0.00000000000E+00 -0.00000000000E+00 -0.16940052370E+03  0.16940052370E+03  0.00000000000E+00 0. -1.
         25    2    1    2    0    0  0.83792646766E+02 -0.70244101542E+02  0.12478020384E+02  0.16654811574E+03  0.12500852935E+03 0.  0.
          5    1    3    3  501    0  0.47813942421E+02 -0.69350172929E+02 -0.47422560842E+02  0.96667103256E+02  0.10000000000E+00 0.  1.
         -5    1    3    3    0  501  0.35978704345E+02 -0.89392861222E+00  0.59900581226E+02  0.69881012485E+02  0.10000000000E+00 0.  1.
         21    1    1    2  504  503 -0.83792646766E+02  0.70244101542E+02 -0.60006411876E+02  0.12472454017E+03  0.00000000000E+00 0. -1.
<mgrwt>
<rscale>  1 0.16608002E+03</rscale>
<asrwt>0</asrwt>
<pdfrwt beam="1">  1       21 0.18749559E-01 0.16608002E+03</pdfrwt>
<pdfrwt beam="2">  1       21 0.26061619E-01 0.16608002E+03</pdfrwt>
<totfact> 0.36615061E+05</totfact>
</mgrwt>
</event>
<event>
 6    1  0.4244577E-002  0.1282654E+03  0.7546771E-02  0.1230052E+00
         21   -1    0    0  504  502  0.00000000000E+00  0.00000000000E+00  0.59689767367E+03  0.59689767367E+03  0.00000000000E+00 0. -1.
         21   -1    0    0  502  503 -0.00000000000E+00 -0.00000000000E+00 -0.34266411182E+02  0.34266411182E+02  0.00000000000E+00 0.  1.
         25    2    1    2    0    0 -0.16265974913E+02 -0.23705696735E+02  0.58234589071E+03  0.59630424315E+03  0.12500188789E+03 0.  0.
          5    1    3    3  501    0  0.49041263315E+02  0.97777458781E+01  0.16010574658E+03  0.16773344899E+03  0.10000000000E+00 0.  1.
         -5    1    3    3    0  501 -0.65307238228E+02 -0.33483442613E+02  0.42224014413E+03  0.42857079416E+03  0.10000000000E+00 0.  1.
         21    1    1    2  504  503  0.16265974913E+02  0.23705696735E+02 -0.19714628221E+02  0.34859841702E+02  0.00000000000E+00 0.  1.
<mgrwt>
<rscale>  1 0.12826540E+03</rscale>
<asrwt>0</asrwt>
<pdfrwt beam="1">  1       21 0.91830404E-01 0.12826540E+03</pdfrwt>
<pdfrwt beam="2">  1       21 0.52717560E-02 0.12826540E+03</pdfrwt>
<totfact> 0.25097222E+05</totfact>
</mgrwt>
</event>
<event>
 6    1  0.4244577E-002  0.1498719E+03  0.7546771E-02  0.1200631E+00
         21   -1    0    0  503  502  0.00000000000E+00  0.00000000000E+00  0.23560101435E+03  0.23560101435E+03  0.00000000000E+00 0.  1.
         21   -1    0    0  504  503 -0.00000000000E+00 -0.00000000000E+00 -0.15190801125E+03  0.15190801125E+03  0.00000000000E+00 0.  1.
         25    2    1    2    0    0 -0.51518716154E+02 -0.64662303986E+02  0.19682319305E+03  0.24738825073E+03  0.12500474232E+03 0.  0.
          5    1    3    3  501    0  0.37420797229E+02 -0.29782026787E+02  0.10263310788E+03  0.11322919243E+03  0.10000000000E+00 0.  1.
         -5    1    3    3    0  501 -0.88939513383E+02 -0.34880277199E+02  0.94190085170E+02  0.13415905829E+03  0.10000000000E+00 0.  1.
         21    1    1    2  504  502  0.51518716154E+02  0.64662303986E+02 -0.11313018996E+03  0.14012077487E+03  0.00000000000E+00 0.  1.
<mgrwt>
<rscale>  1 0.14987187E+03</rscale>
<asrwt>0</asrwt>
<pdfrwt beam="1">  1       21 0.36246310E-01 0.14987187E+03</pdfrwt>
<pdfrwt beam="2">  1       21 0.23370463E-01 0.14987187E+03</pdfrwt>
<totfact> 0.12828701E+05</totfact>
</mgrwt>
</event>
<event>
 6    1  0.4244577E-002  0.1289225E+03  0.7546771E-02  0.1229063E+00
         21   -1    0    0  504  502  0.00000000000E+00  0.00000000000E+00  0.35721426521E+03  0.35721426521E+03  0.00000000000E+00 0. -1.
         21   -1    0    0  502  503 -0.00000000000E+00 -0.00000000000E+00 -0.27740382247E+02  0.27740382247E+02  0.00000000000E+00 0.  1.
         25    2    1    2    0    0 -0.36406472810E+01 -0.31356062803E+02  0.32902858120E+03  0.35338479980E+03  0.12499820998E+03 0.  0.
          5    1    3    3  501    0 -0.19234490037E+02  0.40307976750E+02  0.61635240431E+02  0.76115776680E+02  0.10000000000E+00 0.  1.
         -5    1    3    3    0  501  0.15593842755E+02 -0.71664039552E+02  0.26739334077E+03  0.27726902312E+03  0.10000000000E+00 0.  1.
         21    1    1    2  504  503  0.36406472810E+01  0.31356062803E+02  0.44530176340E+00  0.31569847652E+02  0.00000000000E+00 0.  1.
<mgrwt>
<rscale>  1 0.12892249E+03</rscale>
<asrwt>0</asrwt>
<pdfrwt beam="1">  1       21 0.54956038E-01 0.12892249E+03</pdfrwt>
<pdfrwt beam="2">  1       21 0.42677514E-02 0.12892249E+03</pdfrwt>
<totfact> 0.10997934E+06</totfact>
</mgrwt>
</event>
<event>
 6    1  0.4244577E-002  0.1310345E+03  0.7546771E-02  0.1225929E+00
         21   -1    0    0  503  502  0.00000000000E+00  0.00000000000E+00  0.16611872744E+02  0.16611872744E+02  0.00000000000E+00 0.  1.
         21   -1    0    0  504  503 -0.00000000000E+00 -0.00000000000E+00 -0.19363291000E+04  0.19363291000E+04  0.00000000000E+00 0.  1.
         25    2    1    2    0    0 -0.86140014144E+01  0.38348890603E+02 -0.24565751462E+03  0.27841991886E+03  0.12500079319E+03 0.  0.
          5    1    3    3  501    0  0.52608632696E+02  0.40139826128E+02 -0.15975672452E+03  0.17291933063E+03  0.10000000000E+00 0.  1.
         -5    1    3    3    0  501 -0.61222634110E+02 -0.17909355253E+01 -0.85900790102E+02  0.10550058823E+03  0.10000000000E+00 0.  1.
         21    1    1    2  504  502  0.86140014144E+01 -0.38348890603E+02 -0.16740597127E+04  0.16745210539E+04  0.00000000000E+00 0.  1.
<mgrwt>
<rscale>  1 0.13103449E+03</rscale>
<asrwt>0</asrwt>
<pdfrwt beam="1">  1       21 0.25556721E-02 0.13103449E+03</pdfrwt>
<pdfrwt beam="2">  1       21 0.29789685E+00 0.13103449E+03</pdfrwt>
<totfact> 0.30924533E+04</totfact>
</mgrwt>
</event>
<event>
 6    1  0.4244577E-002  0.1272518E+03  0.7546771E-02  0.1231591E+00
         21   -1    0    0  504  502  0.00000000000E+00  0.00000000000E+00  0.37703906552E+03  0.37703906552E+03  0.00000000000E+00 0. -1.
         21   -1    0    0  502  503 -0.00000000000E+00 -0.00000000000E+00 -0.15255700755E+02  0.15255700755E+02  0.00000000000E+00 0. -1.
         25    2    1    2    0    0 -0.61132594439E+01  0.23071047731E+02  0.31609886107E+03  0.34075139558E+03  0.12499351358E+03 0.  0.
          5    1    3    3  501    0  0.39064259006E+02  0.31682952570E+01  0.27300116318E+02  0.47763592594E+02  0.10000000000E+00 0.  1.
         -5    1    3    3    0  501 -0.45177518450E+02  0.19902752474E+02  0.28879874475E+03  0.29298780298E+03  0.10000000000E+00 0.  1.
         21    1    1    2  504  503  0.61132594439E+01 -0.23071047731E+02  0.45684503696E+02  0.51543370693E+02  0.00000000000E+00 0. -1.
<mgrwt>
<rscale>  1 0.12725181E+03</rscale>
<asrwt>0</asrwt>
<pdfrwt beam="1">  1       21 0.58006003E-01 0.12725181E+03</pdfrwt>
<pdfrwt beam="2">  1       21 0.23470312E-02 0.12725181E+03</pdfrwt>
<totfact> 0.26228605E+06</totfact>
</mgrwt>
</event>
<event>
 6    1  0.4244577E-002  0.1263953E+03  0.7546771E-02  0.1232905E+00
         21   -1    0    0  503  502  0.00000000000E+00  0.00000000000E+00  0.11109567855E+04  0.11109567855E+04  0.00000000000E+00 0.  1.
         21   -1    0    0  504  503 -0.00000000000E+00 -0.00000000000E+00 -0.47646071717E+01  0.47646071717E+01  0.00000000000E+00 0.  1.
         25    2    1    2    0    0  0.10681573590E+02  0.15440036722E+02  0.98685686227E+03  0.99491821222E+03  0.12499316641E+03 0.  0.
          5    1    3    3  501    0 -0.95830893069E+01 -0.31679441945E+01  0.94359634253E+03  0.94365032671E+03  0.10000000000E+00 0. -1.
         -5    1    3    3    0  501  0.20264662897E+02  0.18607980916E+02  0.43260519737E+02  0.51267885504E+02  0.10000000000E+00 0. -1.
         21    1    1    2  504  502 -0.10681573590E+02 -0.15440036722E+02  0.11933531601E+03  0.12080318041E+03  0.00000000000E+00 0.  1.
<mgrwt>
<rscale>  1 0.12639534E+03</rscale>
<asrwt>0</asrwt>
<pdfrwt beam="1">  1       21 0.17091622E+00 0.12639534E+03</pdfrwt>
<pdfrwt beam="2">  1       21 0.73301737E-03 0.12639534E+03</pdfrwt>
<totfact> 0.13053897E+06</totfact>
</mgrwt>
</event>
<event>
 6    1  0.4244577E-002  0.1270654E+03  0.7546771E-02  0.1231876E+00
         21   -1    0    0  503  502  0.00000000000E+00  0.00000000000E+00  0.57319700198E+02  0.57319700198E+02  0.00000000000E+00 0.  1.
         21   -1    0    0  504  503 -0.00000000000E+00 -0.00000000000E+00 -0.10164565133E+03  0.10164565133E+03  0.00000000000E+00 0.  1.
         25    2    1    2    0    0 -0.17988911454E+02 -0.13844322998E+02 -0.25783129419E+02  0.12965490200E+03  0.12502142870E+03 0.  0.
          5    1    3    3  501    0  0.43454001836E+02 -0.99936411575E+01 -0.46764121832E+02  0.64614365507E+02  0.10000000000E+00 0. -1.
         -5    1    3    3    0  501 -0.61442913290E+02 -0.38506818403E+01  0.20980992413E+02  0.65040536489E+02  0.10000000000E+00 0. -1.
         21    1    1    2  504  502  0.17988911454E+02  0.13844322998E+02 -0.18542821710E+02  0.29310449528E+02  0.00000000000E+00 0.  1.
<mgrwt>
<rscale>  1 0.12706543E+03</rscale>
<asrwt>0</asrwt>
<pdfrwt beam="1">  1       21 0.88184155E-02 0.12706543E+03</pdfrwt>
<pdfrwt beam="2">  1       21 0.15637792E-01 0.12706543E+03</pdfrwt>
<totfact> 0.36346939E+06</totfact>
</mgrwt>
</event>
<event>
 6    1  0.4244577E-002  0.1274738E+03  0.7546771E-02  0.1231253E+00
         21   -1    0    0  504  502  0.00000000000E+00  0.00000000000E+00  0.33822418324E+03  0.33822418324E+03  0.00000000000E+00 0. -1.
         21   -1    0    0  502  503 -0.00000000000E+00 -0.00000000000E+00 -0.19409671277E+02  0.19409671277E+02  0.00000000000E+00 0. -1.
         25    2    1    2    0    0  0.16955791361E+01 -0.24948909866E+02  0.30114816725E+03  0.32701649298E+03  0.12499697977E+03 0.  0.
          5    1    3    3  501    0  0.48083436635E+02 -0.41685108614E+02  0.90252641353E+02  0.11043194479E+03  0.10000000000E+00 0.  1.
         -5    1    3    3    0  501 -0.46387857499E+02  0.16736198748E+02  0.21089552589E+03  0.21658454819E+03  0.10000000000E+00 0.  1.
         21    1    1    2  504  503 -0.16955791361E+01  0.24948909866E+02  0.17666344721E+02  0.30617361543E+02  0.00000000000E+00 0. -1.
<mgrwt>
<rscale>  1 0.12747379E+03</rscale>
<asrwt>0</asrwt>
<pdfrwt beam="1">  1       21 0.52034486E-01 0.12747379E+03</pdfrwt>
<pdfrwt beam="2">  1       21 0.29861035E-02 0.12747379E+03</pdfrwt>
<totfact> 0.22230083E+06</totfact>
</mgrwt>
</event>
<event>
 6    1  0.4244577E-002  0.1289270E+03  0.7546771E-02  0.1229057E+00
         21   -1    0    0  503  502  0.00000000000E+00  0.00000000000E+00  0.13581794129E+03  0.13581794129E+03  0.00000000000E+00 0. -1.
         21   -1    0    0  504  503 -0.00000000000E+00 -0.00000000000E+00 -0.87498930851E+02  0.87498930851E+02  0.00000000000E+00 0. -1.
         25    2    1    2    0    0 -0.13520547135E+02 -0.28493214961E+02  0.99733675561E+02  0.16299990700E+03  0.12500998019E+03 0.  0.
          5    1    3    3  501    0 -0.46972742514E+02 -0.52452089181E+01  0.11107531742E+03  0.12071324243E+03  0.10000000000E+00 0. -1.
         -5    1    3    3    0  501  0.33452195380E+02 -0.23248006043E+02 -0.11341641864E+02  0.42286664575E+02  0.10000000000E+00 0. -1.
         21    1    1    2  504  502  0.13520547135E+02  0.28493214961E+02 -0.51414665124E+02  0.60316965138E+02  0.00000000000E+00 0. -1.
<mgrwt>
<rscale>  1 0.12892697E+03</rscale>
<asrwt>0</asrwt>
<pdfrwt beam="1">  1       21 0.20895068E-01 0.12892697E+03</pdfrwt>
<pdfrwt beam="2">  1       21 0.13461374E-01 0.12892697E+03</pdfrwt>
<totfact> 0.10159324E+06</totfact>
</mgrwt>
</event>
<event>
 6    1  0.4244577E-002  0.1260813E+03  0.7546771E-02  0.1233389E+00
         21   -1    0    0  503  502  0.00000000000E+00  0.00000000000E+00  0.20197175704E+03  0.20197175704E+03  0.00000000000E+00 0. -1.
         21   -1    0    0  504  503 -0.00000000000E+00 -0.00000000000E+00 -0.43472269034E+02  0.43472269034E+02  0.00000000000E+00 0. -1.
         25    2    1    2    0    0  0.12019207750E+02 -0.11257760527E+02  0.17912630625E+03  0.21904962975E+03  0.12500123269E+03 0.  0.
          5    1    3    3  501    0 -0.37277682512E+02 -0.47893763569E+02  0.11632996300E+03  0.13121016917E+03  0.10000000000E+00 0.  1.
         -5    1    3    3    0  501  0.49296890262E+02  0.36636003042E+02  0.62796343251E+02  0.87839460575E+02  0.10000000000E+00 0.  1.
         21    1    1    2  504  502 -0.12019207750E+02  0.11257760527E+02 -0.20626818240E+02  0.26394396332E+02  0.00000000000E+00 0. -1.
<mgrwt>
<rscale>  1 0.12608135E+03</rscale>
<asrwt>0</asrwt>
<pdfrwt beam="1">  1       21 0.31072578E-01 0.12608135E+03</pdfrwt>
<pdfrwt beam="2">  1       21 0.66880415E-02 0.12608135E+03</pdfrwt>
<totfact> 0.16218058E+06</totfact>
</mgrwt>
</event>
<event>
 6    1  0.4244577E-002  0.1359124E+03  0.7546771E-02  0.1218937E+00
         21   -1    0    0  504  502  0.00000000000E+00  0.00000000000E+00  0.14117680719E+04  0.14117680719E+04  0.00000000000E+00 0. -1.
         21   -1    0    0  502  503 -0.00000000000E+00 -0.00000000000E+00 -0.18757760108E+02  0.18757760108E+02  0.00000000000E+00 0. -1.
         25    2    1    2    0    0  0.47497553226E+02  0.24326923877E+02  0.13620822733E+04  0.13688463350E+04  0.12499741135E+03 0.  0.
          5    1    3    3  501    0 -0.42011388749E+02 -0.26964975785E+01  0.46718824086E+03  0.46908111269E+03  0.10000000000E+00 0. -1.
         -5    1    3    3    0  501  0.89508941975E+02  0.27023421456E+02  0.89489403241E+03  0.89976522229E+03  0.10000000000E+00 0. -1.
         21    1    1    2  504  503 -0.47497553226E+02 -0.24326923877E+02  0.30928038537E+02  0.61679497044E+02  0.00000000000E+00 0. -1.
<mgrwt>
<rscale>  1 0.13591236E+03</rscale>
<asrwt>0</asrwt>
<pdfrwt beam="1">  1       21 0.21719500E+00 0.13591236E+03</pdfrwt>
<pdfrwt beam="2">  1       21 0.28858104E-02 0.13591236E+03</pdfrwt>
<totfact> 0.73483722E+04</totfact>
</mgrwt>
</event>
<event>
 6    1  0.4244577E-002  0.1425710E+03  0.7546771E-02  0.1209911E+00
         21   -1    0    0  503  502  0.00000000000E+00  0.00000000000E+00  0.19344849824E+02  0.19344849824E+02  0.00000000000E+00 0.  1.
         21   -1    0    0  504  503 -0.00000000000E+00 -0.00000000000E+00 -0.58050248341E+03  0.58050248341E+03  0.00000000000E+00 0.  1.
         25    2    1    2    0    0 -0.43525332079E+02  0.52973409593E+02 -0.35365500950E+03  0.38131135070E+03  0.12500337506E+03 0.  0.
          5    1    3    3  501    0  0.42569874163E+02  0.41848822130E+01 -0.88587933428E+02  0.98374485384E+02  0.10000000000E+00 0.  1.
         -5    1    3    3    0  501 -0.86095206242E+02  0.48788527380E+02 -0.26506707607E+03  0.28293686532E+03  0.10000000000E+00 0.  1.
         21    1    1    2  504  502  0.43525332079E+02 -0.52973409593E+02 -0.20750262409E+03  0.21853598253E+03  0.00000000000E+00 0.  1.
<mgrwt>
<rscale>  1 0.14257097E+03</rscale>
<asrwt>0</asrwt>
<pdfrwt beam="1">  1       21 0.29761317E-02 0.14257097E+03</pdfrwt>
<pdfrwt beam="2">  1       21 0.89308045E-01 0.14257097E+03</pdfrwt>
<totfact> 0.69052427E+05</totfact>
</mgrwt>
</event>
<event>
 6    1  0.4244577E-002  0.1261721E+03  0.7546771E-02  0.1233249E+00
         21   -1    0    0  503  502  0.00000000000E+00  0.00000000000E+00  0.79847929087E+03  0.79847929087E+03  0.00000000000E+00 0. -1.
         21   -1    0    0  504  503 -0.00000000000E+00 -0.00000000000E+00 -0.10636700481E+02  0.10636700481E+02  0.00000000000E+00 0. -1.
         25    2    1    2    0    0  0.10337615572E+02 -0.13728597180E+02  0.78015078696E+03  0.79028770103E+03  0.12499623728E+03 0.  0.
          5    1    3    3  501    0  0.21203376956E+02  0.42194523349E+02  0.58737920576E+03  0.58927438630E+03  0.10000000000E+00 0. -1.
         -5    1    3    3    0  501 -0.10865761384E+02 -0.55923120529E+02  0.19277158120E+03  0.20101331473E+03  0.10000000000E+00 0. -1.
         21    1    1    2  504  502 -0.10337615572E+02  0.13728597180E+02  0.76918034254E+01  0.18828290315E+02  0.00000000000E+00 0. -1.
<mgrwt>
<rscale>  1 0.12617210E+03</rscale>
<asrwt>0</asrwt>
<pdfrwt beam="1">  1       21 0.12284292E+00 0.12617210E+03</pdfrwt>
<pdfrwt beam="2">  1       21 0.16364161E-02 0.12617210E+03</pdfrwt>
<totfact> 0.85718254E+05</totfact>
</mgrwt>
</event>
<event>
 6    1  0.4244577E-002  0.2271598E+03  0.7546771E-02  0.1128655E+00
         21   -1    0    0  504  502  0.00000000000E+00  0.00000000000E+00  0.29919562360E+03  0.29919562360E+03  0.00000000000E+00 0.  1.
         21   -1    0    0  502  503 -0.00000000000E+00 -0.00000000000E+00 -0.15713828322E+03  0.15713828322E+03  0.00000000000E+00 0.  1.
         25    2    1    2    0    0 -0.14646576002E+03  0.12051646936E+03  0.13963294788E+03  0.26664385456E+03  0.12500058719E+03 0.  0.
          5    1    3    3  501    0 -0.10735467465E+03  0.11386976649E+03  0.43171040082E+02  0.16234253475E+03  0.10000000000E+00 0.  1.
         -5    1    3    3    0  501 -0.39111085376E+02  0.66467028673E+01  0.96461907794E+02  0.10430131981E+03  0.10000000000E+00 0.  1.
         21    1    1    2  504  503  0.14646576002E+03 -0.12051646936E+03  0.24243924999E+01  0.18969005225E+03  0.00000000000E+00 0.  1.
<mgrwt>
<rscale>  1 0.22715982E+03</rscale>
<asrwt>0</asrwt>
<pdfrwt beam="1">  1       21 0.46030096E-01 0.22715982E+03</pdfrwt>
<pdfrwt beam="2">  1       21 0.24175121E-01 0.22715982E+03</pdfrwt>
<totfact> 0.71970881E+04</totfact>
</mgrwt>
</event>
<event>
 6    1  0.4244577E-002  0.1273224E+03  0.7546771E-02  0.1231484E+00
         21   -1    0    0  503  502  0.00000000000E+00  0.00000000000E+00  0.66739678330E+03  0.66739678330E+03  0.00000000000E+00 0. -1.
         21   -1    0    0  504  503 -0.00000000000E+00 -0.00000000000E+00 -0.93263268524E+01  0.93263268524E+01  0.00000000000E+00 0. -1.
         25    2    1    2    0    0 -0.22686825661E+02 -0.84155101565E+01  0.60700793798E+03  0.62021741432E+03  0.12500196551E+03 0.  0.
          5    1    3    3  501    0  0.22135669655E+02 -0.37002764016E+02  0.48768173266E+03  0.48958418560E+03  0.10000000000E+00 0. -1.
         -5    1    3    3    0  501 -0.44822495316E+02  0.28587253859E+02  0.11932620532E+03  0.13063322872E+03  0.10000000000E+00 0. -1.
         21    1    1    2  504  502  0.22686825661E+02  0.84155101565E+01  0.51062518472E+02  0.56505695841E+02  0.00000000000E+00 0. -1.
<mgrwt>
<rscale>  1 0.12732244E+03</rscale>
<asrwt>0</asrwt>
<pdfrwt beam="1">  1       21 0.10267639E+00 0.12732244E+03</pdfrwt>
<pdfrwt beam="2">  1       21 0.14348200E-02 0.12732244E+03</pdfrwt>
<totfact> 0.16262824E+06</totfact>
</mgrwt>
</event>
<event>
 6    1  0.4244577E-002  0.1732771E+03  0.7546771E-02  0.1174473E+00
         21   -1    0    0  504  502  0.00000000000E+00  0.00000000000E+00  0.34057247306E+03  0.34057247306E+03  0.00000000000E+00 0. -1.
         21   -1    0    0  502  503 -0.00000000000E+00 -0.00000000000E+00 -0.42904216059E+03  0.42904216059E+03  0.00000000000E+00 0. -1.
         25    2    1    2    0    0 -0.29017655394E+02 -0.11643448523E+03  0.30908652937E+03  0.35434368684E+03  0.12500380832E+03 0.  0.
          5    1    3    3  501    0 -0.28264109006E+02  0.21247388337E+02  0.70821616891E+02  0.79158213649E+02  0.10000000000E+00 0. -1.
         -5    1    3    3    0  501 -0.75354638763E+00 -0.13768187357E+03  0.23826491247E+03  0.27518547319E+03  0.10000000000E+00 0. -1.
         21    1    1    2  504  503  0.29017655394E+02  0.11643448523E+03 -0.39755621689E+03  0.41527094681E+03  0.00000000000E+00 0. -1.
<mgrwt>
<rscale>  1 0.17327714E+03</rscale>
<asrwt>0</asrwt>
<pdfrwt beam="1">  1       21 0.52395765E-01 0.17327714E+03</pdfrwt>
<pdfrwt beam="2">  1       21 0.66006486E-01 0.17327714E+03</pdfrwt>
<totfact> 0.73884931E+03</totfact>
</mgrwt>
</event>
<event>
 6    1  0.4244577E-002  0.1269865E+03  0.7546771E-02  0.1231997E+00
         21   -1    0    0  503  502  0.00000000000E+00  0.00000000000E+00  0.60985589703E+02  0.60985589703E+02  0.00000000000E+00 0.  1.
         21   -1    0    0  504  503 -0.00000000000E+00 -0.00000000000E+00 -0.94873903376E+02  0.94873903376E+02  0.00000000000E+00 0.  1.
         25    2    1    2    0    0  0.31686716507E+01  0.22147676604E+02 -0.17633726868E+02  0.12820498800E+03  0.12500004226E+03 0.  0.
          5    1    3    3  501    0  0.36919815833E+02  0.63539151091E+02 -0.78033800924E+01  0.73899927357E+02  0.10000000000E+00 0. -1.
         -5    1    3    3    0  501 -0.33751144182E+02 -0.41391474487E+02 -0.98303467759E+01  0.54305060644E+02  0.10000000000E+00 0. -1.
         21    1    1    2  504  502 -0.31686716507E+01 -0.22147676604E+02 -0.16254586805E+02  0.27654505079E+02  0.00000000000E+00 0.  1.
<mgrwt>
<rscale>  1 0.12698650E+03</rscale>
<asrwt>0</asrwt>
<pdfrwt beam="1">  1       21 0.93823984E-02 0.12698650E+03</pdfrwt>
<pdfrwt beam="2">  1       21 0.14595985E-01 0.12698650E+03</pdfrwt>
<totfact> 0.36953532E+06</totfact>
</mgrwt>
</event>
<event>
 6    1  0.4244577E-002  0.1344864E+03  0.7546771E-02  0.1220947E+00
         21   -1    0    0  503  502  0.00000000000E+00  0.00000000000E+00  0.84379616014E+02  0.84379616014E+02  0.00000000000E+00 0.  1.
         21   -1    0    0  504  503 -0.00000000000E+00 -0.00000000000E+00 -0.14462064857E+03  0.14462064857E+03  0.00000000000E+00 0.  1.
         25    2    1    2    0    0 -0.41350598479E+02 -0.27412742198E+02  0.18683384992E+02  0.13577798122E+03  0.12500104352E+03 0.  0.
          5    1    3    3  501    0 -0.21466585826E+00 -0.51346881016E+01  0.67772849556E+02  0.67967493997E+02  0.10000000000E+00 0.  1.
         -5    1    3    3    0  501 -0.41135932621E+02 -0.22278054096E+02 -0.49089464564E+02  0.67810487228E+02  0.10000000000E+00 0.  1.
         21    1    1    2  504  502  0.41350598479E+02  0.27412742198E+02 -0.78924417550E+02  0.93222283360E+02  0.00000000000E+00 0.  1.
<mgrwt>
<rscale>  1 0.13448640E+03</rscale>
<asrwt>0</asrwt>
<pdfrwt beam="1">  1       21 0.12981480E-01 0.13448640E+03</pdfrwt>
<pdfrwt beam="2">  1       21 0.22249330E-01 0.13448640E+03</pdfrwt>
<totfact> 0.96463166E+05</totfact>
</mgrwt>
</event>
<event>
 6    1  0.4244577E-002  0.1292506E+03  0.7546771E-02  0.1228572E+00
         21   -1    0    0  504  502  0.00000000000E+00  0.00000000000E+00  0.16700709265E+02  0.16700709265E+02  0.00000000000E+00 0. -1.
         21   -1    0    0  502  503 -0.00000000000E+00 -0.00000000000E+00 -0.71862895901E+03  0.71862895901E+03  0.00000000000E+00 0. -1.
         25    2    1    2    0    0  0.56170264041E+01  0.32403454828E+02 -0.24309717993E+03  0.27532153194E+03  0.12499668871E+03 0.  0.
          5    1    3    3  501    0  0.45380706398E+02  0.47218260717E+02 -0.21418628479E+03  0.22397488085E+03  0.10000000000E+00 0. -1.
         -5    1    3    3    0  501 -0.39763679994E+02 -0.14814805889E+02 -0.28910895139E+02  0.51346651088E+02  0.10000000000E+00 0. -1.
         21    1    1    2  504  503 -0.56170264041E+01 -0.32403454828E+02 -0.45883106982E+03  0.46000813634E+03  0.00000000000E+00 0. -1.
<mgrwt>
<rscale>  1 0.12925056E+03</rscale>
<asrwt>0</asrwt>
<pdfrwt beam="1">  1       21 0.25693403E-02 0.12925056E+03</pdfrwt>
<pdfrwt beam="2">  1       21 0.11055828E+00 0.12925056E+03</pdfrwt>
<totfact> 0.53356597E+05</totfact>
</mgrwt>
</event>
<event>
 6    1  0.4244577E-002  0.1295078E+03  0.7546771E-02  0.1228188E+00
         21   -1    0    0  503  502  0.00000000000E+00  0.00000000000E+00  0.15538812665E+02  0.15538812665E+02  0.00000000000E+00 0.  1.
         21   -1    0    0  504  503 -0.00000000000E+00 -0.00000000000E+00 -0.55372474348E+03  0.55372474348E+03  0.00000000000E+00 0.  1.
         25    2    1    2    0    0  0.26714720036E+02  0.20792193259E+02 -0.27568773289E+03  0.30459150345E+03  0.12500506525E+03 0.  0.
          5    1    3    3  501    0  0.46610980501E+02 -0.40441982689E+02 -0.10035054396E+03  0.11780653267E+03  0.10000000000E+00 0. -1.
         -5    1    3    3    0  501 -0.19896260465E+02  0.61234175947E+02 -0.17533718893E+03  0.18678497077E+03  0.10000000000E+00 0. -1.
         21    1    1    2  504  502 -0.26714720036E+02 -0.20792193259E+02 -0.26249819792E+03  0.26467205270E+03  0.00000000000E+00 0.  1.
<mgrwt>
<rscale>  1 0.12950775E+03</rscale>
<asrwt>0</asrwt>
<pdfrwt beam="1">  1       21 0.23905867E-02 0.12950775E+03</pdfrwt>
<pdfrwt beam="2">  1       21 0.85188417E-01 0.12950775E+03</pdfrwt>
<totfact> 0.11003411E+06</totfact>
</mgrwt>
</event>
<event>
 6    1  0.4244577E-002  0.1281138E+03  0.7546771E-02  0.1230282E+00
         21   -1    0    0  503  502  0.00000000000E+00  0.00000000000E+00  0.79355831931E+02  0.79355831931E+02  0.00000000000E+00 0.  1.
         21   -1    0    0  504  503 -0.00000000000E+00 -0.00000000000E+00 -0.87307621226E+02  0.87307621226E+02  0.00000000000E+00 0. -1.
         25    2    1    2    0    0 -0.14318926796E+02  0.24146536352E+02  0.16833317323E+02  0.12921497665E+03  0.12500025095E+03 0.  0.
          5    1    3    3  501    0  0.53299985340E+02  0.17380452527E+02  0.23794229524E+02  0.60902741531E+02  0.10000000000E+00 0. -1.
         -5    1    3    3    0  501 -0.67618912136E+02  0.67660838243E+01 -0.69609122018E+01  0.68312235122E+02  0.10000000000E+00 0. -1.
         21    1    1    2  504  502  0.14318926796E+02 -0.24146536352E+02 -0.24785106618E+02  0.37448476504E+02  0.00000000000E+00 0. -1.
<mgrwt>
<rscale>  1 0.12811382E+03</rscale>
<asrwt>0</asrwt>
<pdfrwt beam="1">  1       21 0.12208590E-01 0.12811382E+03</pdfrwt>
<pdfrwt beam="2">  1       21 0.13431942E-01 0.12811382E+03</pdfrwt>
<totfact> 0.27014195E+06</totfact>
</mgrwt>
</event>
<event>
 6    1  0.4244577E-002  0.1333052E+03  0.7546771E-02  0.1222632E+00
         21   -1    0    0  504  502  0.00000000000E+00  0.00000000000E+00  0.11693869640E+03  0.11693869640E+03  0.00000000000E+00 0.  1.
         21   -1    0    0  502  503 -0.00000000000E+00 -0.00000000000E+00 -0.63720764297E+03  0.63720764297E+03  0.00000000000E+00 0.  1.
         25    2    1    2    0    0  0.29774916519E+02 -0.35467021852E+02  0.77759936819E+02  0.15432719940E+03  0.12500328559E+03 0.  0.
          5    1    3    3  501    0  0.67960415904E+02  0.29999752910E+01  0.11947264126E+02  0.69067829716E+02  0.10000000000E+00 0.  1.
         -5    1    3    3    0  501 -0.38185499385E+02 -0.38466997143E+02  0.65812672693E+02  0.85259369687E+02  0.10000000000E+00 0.  1.
         21    1    1    2  504  503 -0.29774916519E+02  0.35467021852E+02 -0.59802888339E+03  0.59981913996E+03  0.00000000000E+00 0.  1.
<mgrwt>
<rscale>  1 0.13330520E+03</rscale>
<asrwt>0</asrwt>
<pdfrwt beam="1">  1       21 0.17990569E-01 0.13330520E+03</pdfrwt>
<pdfrwt beam="2">  1       21 0.98031946E-01 0.13330520E+03</pdfrwt>
<totfact> 0.25106330E+04</totfact>
</mgrwt>
</event>
<event>
 6    1  0.4244577E-002  0.1762986E+03  0.7546771E-02  0.1171434E+00
         21   -1    0    0  503  502  0.00000000000E+00  0.00000000000E+00  0.84858832116E+03  0.84858832116E+03  0.00000000000E+00 0. -1.
         21   -1    0    0  504  503 -0.00000000000E+00 -0.00000000000E+00 -0.30084933456E+02  0.30084933456E+02  0.00000000000E+00 0. -1.
         25    2    1    2    0    0  0.35409638144E+02 -0.11917801084E+03  0.61886521002E+03  0.64348685465E+03  0.12499577269E+03 0.  0.
          5    1    3    3  501    0 -0.30862649158E+02 -0.76323591091E+02  0.44495299580E+03  0.45250521781E+03  0.10000000000E+00 0.  1.
         -5    1    3    3    0  501  0.66272287302E+02 -0.42854419747E+02  0.17391221422E+03  0.19098163685E+03  0.10000000000E+00 0.  1.
         21    1    1    2  504  502 -0.35409638144E+02  0.11917801084E+03  0.19963817768E+03  0.23518639997E+03  0.00000000000E+00 0. -1.
<mgrwt>
<rscale>  1 0.17629856E+03</rscale>
<asrwt>0</asrwt>
<pdfrwt beam="1">  1       21 0.13055203E+00 0.17629856E+03</pdfrwt>
<pdfrwt beam="2">  1       21 0.46284520E-02 0.17629856E+03</pdfrwt>
<totfact> 0.13198529E+05</totfact>
</mgrwt>
</event>
<event>
 6    1  0.4244577E-002  0.1561369E+03  0.7546771E-02  0.1193128E+00
         21   -1    0    0  504  502  0.00000000000E+00  0.00000000000E+00  0.33560305896E+03  0.33560305896E+03  0.00000000000E+00 0.  1.
         21   -1    0    0  502  503 -0.00000000000E+00 -0.00000000000E+00 -0.46580362670E+02  0.46580362670E+02  0.00000000000E+00 0.  1.
         25    2    1    2    0    0 -0.43131887943E+02 -0.83024898374E+02  0.19058861970E+03  0.24637929452E+03  0.12500096519E+03 0.  0.
          5    1    3    3  501    0 -0.64331278379E+02 -0.85693653157E+01  0.13884473036E+03  0.15326387881E+03  0.10000000000E+00 0.  1.
         -5    1    3    3    0  501  0.21199390435E+02 -0.74455533058E+02  0.51743889348E+02  0.93115415709E+02  0.10000000000E+00 0.  1.
         21    1    1    2  504  503  0.43131887943E+02  0.83024898374E+02  0.98434076587E+02  0.13580412711E+03  0.00000000000E+00 0.  1.
<mgrwt>
<rscale>  1 0.15613691E+03</rscale>
<asrwt>0</asrwt>
<pdfrwt beam="1">  1       21 0.51631238E-01 0.15613691E+03</pdfrwt>
<pdfrwt beam="2">  1       21 0.71662099E-02 0.15613691E+03</pdfrwt>
<totfact> 0.52066876E+05</totfact>
</mgrwt>
</event>
<event>
 6    1  0.4244577E-002  0.1265137E+03  0.7546771E-02  0.1232722E+00
         21   -1    0    0  504  502  0.00000000000E+00  0.00000000000E+00  0.14630377169E+04  0.14630377169E+04  0.00000000000E+00 0.  1.
         21   -1    0    0  502  503 -0.00000000000E+00 -0.00000000000E+00 -0.83330974046E+01  0.83330974046E+01  0.00000000000E+00 0.  1.
         25    2    1    2    0    0  0.15453289896E+02  0.11912096458E+02  0.14431700931E+04  0.14487048153E+04  0.12500008843E+03 0.  0.
          5    1    3    3  501    0  0.12589089732E+01  0.33268339088E+02  0.13816913808E+04  0.13820924170E+04  0.10000000000E+00 0.  1.
         -5    1    3    3    0  501  0.14194380923E+02 -0.21356242630E+02  0.61478712241E+02  0.66612398304E+02  0.10000000000E+00 0.  1.
         21    1    1    2  504  503 -0.15453289896E+02 -0.11912096458E+02  0.11534526392E+02  0.22665998979E+02  0.00000000000E+00 0.  1.
<mgrwt>
<rscale>  1 0.12651373E+03</rscale>
<asrwt>0</asrwt>
<pdfrwt beam="1">  1       21 0.22508252E+00 0.12651373E+03</pdfrwt>
<pdfrwt beam="2">  1       21 0.12820162E-02 0.12651373E+03</pdfrwt>
<totfact> 0.24546771E+05</totfact>
</mgrwt>
</event>
<event>
 6    1  0.4244577E-002  0.1262073E+03  0.7546771E-02  0.1233195E+00
         21   -1    0    0  503  502  0.00000000000E+00  0.00000000000E+00  0.58861232185E+02  0.58861232185E+02  0.00000000000E+00 0. -1.
         21   -1    0    0  504  503 -0.00000000000E+00 -0.00000000000E+00 -0.13589540043E+03  0.13589540043E+03  0.00000000000E+00 0. -1.
         25    2    1    2    0    0  0.91042396089E+01  0.14933625168E+02 -0.11273406439E+02  0.12670975074E+03  0.12498948316E+03 0.  0.
          5    1    3    3  501    0 -0.47090690172E+02 -0.17002440300E+02 -0.31296931569E+02  0.59043407783E+02  0.10000000000E+00 0. -1.
         -5    1    3    3    0  501  0.56194929781E+02  0.31936065468E+02  0.20023525131E+02  0.67666342958E+02  0.10000000000E+00 0. -1.
         21    1    1    2  504  502 -0.91042396089E+01 -0.14933625168E+02 -0.65760761806E+02  0.68046881874E+02  0.00000000000E+00 0. -1.
<mgrwt>
<rscale>  1 0.12620726E+03</rscale>
<asrwt>0</asrwt>
<pdfrwt beam="1">  1       21 0.90555744E-02 0.12620726E+03</pdfrwt>
<pdfrwt beam="2">  1       21 0.20906984E-01 0.12620726E+03</pdfrwt>
<totfact> 0.20391053E+06</totfact>
</mgrwt>
</event>
<event>
 6    1  0.4244577E-002  0.1317327E+03  0.7546771E-02  0.1224907E+00
         21   -1    0    0  504  502  0.00000000000E+00  0.00000000000E+00  0.70645896722E+02  0.70645896722E+02  0.00000000000E+00 0.  1.
         21   -1    0    0  502  503 -0.00000000000E+00 -0.00000000000E+00 -0.28958018930E+03  0.28958018930E+03  0.00000000000E+00 0.  1.
         25    2    1    2    0    0  0.22039740410E+02  0.35245015037E+02  0.56240021483E+01  0.13185273168E+03  0.12500220882E+03 0.  0.
          5    1    3    3  501    0  0.29344754237E+02  0.79319609700E+02 -0.84936621717E+01  0.84999219886E+02  0.10000000000E+00 0. -1.
         -5    1    3    3    0  501 -0.73050138265E+01 -0.44074594662E+02  0.14117664320E+02  0.46853511795E+02  0.10000000000E+00 0. -1.
         21    1    1    2  504  503 -0.22039740410E+02 -0.35245015037E+02 -0.22455829473E+03  0.22837335435E+03  0.00000000000E+00 0.  1.
<mgrwt>
<rscale>  1 0.13173273E+03</rscale>
<asrwt>0</asrwt>
<pdfrwt beam="1">  1       21 0.10868600E-01 0.13173273E+03</pdfrwt>
<pdfrwt beam="2">  1       21 0.44550797E-01 0.13173273E+03</pdfrwt>
<totfact> 0.34270765E+05</totfact>
</mgrwt>
</event>
<event>
 6    1  0.4244577E-002  0.1331997E+03  0.7546771E-02  0.1222784E+00
         21   -1    0    0  504  502  0.00000000000E+00  0.00000000000E+00  0.74976601498E+02  0.74976601498E+02  0.00000000000E+00 0. -1.
         21   -1    0    0  502  503 -0.00000000000E+00 -0.00000000000E+00 -0.13162384975E+03  0.13162384975E+03  0.00000000000E+00 0. -1.
         25    2    1    2    0    0  0.16206193873E+02  0.43098958253E+02  0.51366526416E+00  0.13320064909E+03  0.12498795200E+03 0.  0.
          5    1    3    3  501    0  0.56470864257E+02  0.18782256313E+02  0.40066861003E+02  0.71743257612E+02  0.10000000000E+00 0. -1.
         -5    1    3    3    0  501 -0.40264670385E+02  0.24316701940E+02 -0.39553195739E+02  0.61457391480E+02  0.10000000000E+00 0. -1.
         21    1    1    2  504  503 -0.16206193873E+02 -0.43098958253E+02 -0.57160913512E+02  0.73399802151E+02  0.00000000000E+00 0. -1.
<mgrwt>
<rscale>  1 0.13319966E+03</rscale>
<asrwt>0</asrwt>
<pdfrwt beam="1">  1       21 0.11534862E-01 0.13319966E+03</pdfrwt>
<pdfrwt beam="2">  1       21 0.20249823E-01 0.13319966E+03</pdfrwt>
<totfact> 0.14176071E+06</totfact>
</mgrwt>
</event>
<event>
 6    1  0.4244577E-002  0.1266615E+03  0.7546771E-02  0.1232495E+00
         21   -1    0    0  504  502  0.00000000000E+00  0.00000000000E+00  0.13184783362E+04  0.13184783362E+04  0.00000000000E+00 0.  1.
         21   -1    0    0  502  503 -0.00000000000E+00 -0.00000000000E+00 -0.67519695922E+01  0.67519695922E+01  0.00000000000E+00 0.  1.
         25    2    1    2    0    0 -0.76635125852E-01  0.20312513728E+02  0.12870565442E+04  0.12932740196E+04  0.12502214936E+03 0.  0.
          5    1    3    3  501    0  0.55807730582E+02 -0.12787616619E+01  0.36192688928E+03  0.36620652808E+03  0.10000000000E+00 0. -1.
         -5    1    3    3    0  501 -0.55884365708E+02  0.21591275390E+02  0.92512965490E+03  0.92706749155E+03  0.10000000000E+00 0. -1.
         21    1    1    2  504  503  0.76635125852E-01 -0.20312513728E+02  0.24669822418E+02  0.31956286158E+02  0.00000000000E+00 0.  1.
<mgrwt>
<rscale>  1 0.12666153E+03</rscale>
<asrwt>0</asrwt>
<pdfrwt beam="1">  1       21 0.20284262E+00 0.12666153E+03</pdfrwt>
<pdfrwt beam="2">  1       21 0.10387656E-02 0.12666153E+03</pdfrwt>
<totfact> 0.46734303E+05</totfact>
</mgrwt>
</event>
<event>
 6    1  0.4244577E-002  0.1269565E+03  0.7546771E-02  0.1232043E+00
         21   -1    0    0  503  502  0.00000000000E+00  0.00000000000E+00  0.17195938345E+03  0.17195938345E+03  0.00000000000E+00 0.  1.
         21   -1    0    0  504  503 -0.00000000000E+00 -0.00000000000E+00 -0.32482557754E+02  0.32482557754E+02  0.00000000000E+00 0.  1.
         25    2    1    2    0    0 -0.16180709183E+02 -0.15081268054E+02  0.12384130774E+03  0.17735450099E+03  0.12501475722E+03 0.  0.
          5    1    3    3  501    0 -0.59061526696E+02 -0.45339267104E+02  0.71194240382E+02  0.10301719731E+03  0.10000000000E+00 0. -1.
         -5    1    3    3    0  501  0.42880817513E+02  0.30257999050E+02  0.52647067357E+02  0.74337303680E+02  0.10000000000E+00 0. -1.
         21    1    1    2  504  502  0.16180709183E+02  0.15081268054E+02  0.15635517959E+02  0.27087440219E+02  0.00000000000E+00 0.  1.
<mgrwt>
<rscale>  1 0.12695649E+03</rscale>
<asrwt>0</asrwt>
<pdfrwt beam="1">  1       21 0.26455289E-01 0.12695649E+03</pdfrwt>
<pdfrwt beam="2">  1       21 0.49973167E-02 0.12695649E+03</pdfrwt>
<totfact> 0.36156754E+06</totfact>
</mgrwt>
</event>
<event>
 6    1  0.4244577E-002  0.1298609E+03  0.7546771E-02  0.1227662E+00
         21   -1    0    0  503  502  0.00000000000E+00  0.00000000000E+00  0.13101825795E+03  0.13101825795E+03  0.00000000000E+00 0. -1.
         21   -1    0    0  504  503 -0.00000000000E+00 -0.00000000000E+00 -0.54109748668E+02  0.54109748668E+02  0.00000000000E+00 0. -1.
         25    2    1    2    0    0 -0.35015016111E+02 -0.34559299936E+01  0.74838164589E+02  0.14988199787E+03  0.12500347036E+03 0.  0.
          5    1    3    3  501    0 -0.15031543928E+02 -0.59042353344E+01  0.10902102200E+03  0.11021070976E+03  0.10000000000E+00 0.  1.
         -5    1    3    3    0  501 -0.19983472183E+02  0.24483053408E+01 -0.34182857411E+02  0.39671288110E+02  0.10000000000E+00 0.  1.
         21    1    1    2  504  502  0.35015016111E+02  0.34559299936E+01  0.20703446893E+01  0.35246008745E+02  0.00000000000E+00 0. -1.
<mgrwt>
<rscale>  1 0.12986093E+03</rscale>
<asrwt>0</asrwt>
<pdfrwt beam="1">  1       21 0.20156655E-01 0.12986093E+03</pdfrwt>
<pdfrwt beam="2">  1       21 0.83245768E-02 0.12986093E+03</pdfrwt>
<totfact> 0.25268431E+06</totfact>
</mgrwt>
</event>
<event>
 6    1  0.4244577E-002  0.1880520E+03  0.7546771E-02  0.1160230E+00
         21   -1    0    0  504  502  0.00000000000E+00  0.00000000000E+00  0.11541083919E+03  0.11541083919E+03  0.00000000000E+00 0. -1.
         21   -1    0    0  502  503 -0.00000000000E+00 -0.00000000000E+00 -0.31529354456E+03  0.31529354456E+03  0.00000000000E+00 0. -1.
         25    2    1    2    0    0  0.14003897121E+03 -0.11306801417E+02 -0.20546186556E+01  0.18806327201E+03  0.12499926241E+03 0.  0.
          5    1    3    3  501    0  0.76749536761E+02 -0.51814283628E+01 -0.63419348464E+02  0.99696350748E+02  0.10000000000E+00 0.  1.
         -5    1    3    3    0  501  0.63289434451E+02 -0.61253730539E+01  0.61364729809E+02  0.88366921259E+02  0.10000000000E+00 0.  1.
         21    1    1    2  504  503 -0.14003897121E+03  0.11306801417E+02 -0.19782808671E+03  0.24264111174E+03  0.00000000000E+00 0. -1.
<mgrwt>
<rscale>  1 0.18805205E+03</rscale>
<asrwt>0</asrwt>
<pdfrwt beam="1">  1       21 0.17755514E-01 0.18805205E+03</pdfrwt>
<pdfrwt beam="2">  1       21 0.48506699E-01 0.18805205E+03</pdfrwt>
<totfact> 0.11705538E+05</totfact>
</mgrwt>
</event>
<event>
 6    1  0.4244577E-002  0.1278005E+03  0.7546771E-02  0.1230756E+00
         21   -1    0    0  503  502  0.00000000000E+00  0.00000000000E+00  0.30474523448E+03  0.30474523448E+03  0.00000000000E+00 0. -1.
         21   -1    0    0  504  503 -0.00000000000E+00 -0.00000000000E+00 -0.19411344053E+03  0.19411344053E+03  0.00000000000E+00 0. -1.
         25    2    1    2    0    0 -0.25988918662E+02 -0.56988818432E+01  0.29032362368E+03  0.31720776029E+03  0.12500022231E+03 0.  0.
          5    1    3    3  501    0 -0.62653700742E+02 -0.36117978815E+02  0.11780271484E+03  0.13822982397E+03  0.10000000000E+00 0.  1.
         -5    1    3    3    0  501  0.36664782080E+02  0.30419096972E+02  0.17252090884E+03  0.17897793632E+03  0.10000000000E+00 0.  1.
         21    1    1    2  504  502  0.25988918662E+02  0.56988818432E+01 -0.17969182972E+03  0.18165091471E+03  0.00000000000E+00 0. -1.
<mgrwt>
<rscale>  1 0.12780046E+03</rscale>
<asrwt>0</asrwt>
<pdfrwt beam="1">  1       21 0.46883882E-01 0.12780046E+03</pdfrwt>
<pdfrwt beam="2">  1       21 0.29863606E-01 0.12780046E+03</pdfrwt>
<totfact> 0.48383466E+04</totfact>
</mgrwt>
</event>
<event>
 6    1  0.4244577E-002  0.1321067E+03  0.7546771E-02  0.1224363E+00
         21   -1    0    0  503  502  0.00000000000E+00  0.00000000000E+00  0.23815050956E+02  0.23815050956E+02  0.00000000000E+00 0.  1.
         21   -1    0    0  504  503 -0.00000000000E+00 -0.00000000000E+00 -0.42063783133E+03  0.42063783133E+03  0.00000000000E+00 0.  1.
         25    2    1    2    0    0  0.79531355252E+01 -0.42000015670E+02 -0.17897301402E+03  0.22244888597E+03  0.12499965376E+03 0.  0.
          5    1    3    3  501    0 -0.32060575795E+02 -0.74125445361E+02 -0.11176252742E+03  0.13788884910E+03  0.10000000000E+00 0.  1.
         -5    1    3    3    0  501  0.40013711320E+02  0.32125429691E+02 -0.67210486601E+02  0.84560036871E+02  0.10000000000E+00 0.  1.
         21    1    1    2  504  502 -0.79531355252E+01  0.42000015670E+02 -0.21784976636E+03  0.22200399632E+03  0.00000000000E+00 0.  1.
<mgrwt>
<rscale>  1 0.13210665E+03</rscale>
<asrwt>0</asrwt>
<pdfrwt beam="1">  1       21 0.36638545E-02 0.13210665E+03</pdfrwt>
<pdfrwt beam="2">  1       21 0.64713503E-01 0.13210665E+03</pdfrwt>
<totfact> 0.10017789E+06</totfact>
</mgrwt>
</event>
<event>
 6    1  0.4244577E-002  0.1407219E+03  0.7546771E-02  0.1212361E+00
         21   -1    0    0  503  502  0.00000000000E+00  0.00000000000E+00  0.50522727944E+03  0.50522727944E+03  0.00000000000E+00 0. -1.
         21   -1    0    0  504  503 -0.00000000000E+00 -0.00000000000E+00 -0.22760818837E+02  0.22760818837E+02  0.00000000000E+00 0. -1.
         25    2    1    2    0    0 -0.63424612871E+02  0.12428012371E+02  0.39438257088E+03  0.41873651413E+03  0.12500207616E+03 0.  0.
          5    1    3    3  501    0  0.16753261876E+02 -0.12688152311E+01  0.78254667184E+00  0.16819751927E+02  0.10000000000E+00 0.  1.
         -5    1    3    3    0  501 -0.80177874747E+02  0.13696827602E+02  0.39360002421E+03  0.40191676220E+03  0.10000000000E+00 0.  1.
         21    1    1    2  504  502  0.63424612871E+02 -0.12428012371E+02  0.88083889726E+02  0.10925158415E+03  0.00000000000E+00 0. -1.
<mgrwt>
<rscale>  1 0.14072191E+03</rscale>
<asrwt>0</asrwt>
<pdfrwt beam="1">  1       21 0.77727265E-01 0.14072191E+03</pdfrwt>
<pdfrwt beam="2">  1       21 0.35016648E-02 0.14072191E+03</pdfrwt>
<totfact> 0.72276828E+05</totfact>
</mgrwt>
</event>
<event>
 6    1  0.4244577E-002  0.1273908E+03  0.7546771E-02  0.1231380E+00
         21   -1    0    0  504  502  0.00000000000E+00  0.00000000000E+00  0.11762510237E+03  0.11762510237E+03  0.00000000000E+00 0.  1.
         21   -1    0    0  502  503 -0.00000000000E+00 -0.00000000000E+00 -0.87192850506E+02  0.87192850506E+02  0.00000000000E+00 0.  1.
         25    2    1    2    0    0 -0.23016232492E+02  0.84740682210E+01  0.79359238152E+02  0.15008764338E+03  0.12500742067E+03 0.  0.
          5    1    3    3  501    0 -0.42754107484E+02 -0.34971244095E+02  0.85691276809E+02  0.10195051026E+03  0.10000000000E+00 0.  1.
         -5    1    3    3    0  501  0.19737874993E+02  0.43445312316E+02 -0.63320386568E+01  0.48137133120E+02  0.10000000000E+00 0.  1.
         21    1    1    2  504  503  0.23016232492E+02 -0.84740682210E+01 -0.48926986290E+02  0.54730309498E+02  0.00000000000E+00 0.  1.
<mgrwt>
<rscale>  1 0.12739078E+03</rscale>
<asrwt>0</asrwt>
<pdfrwt beam="1">  1       21 0.18096170E-01 0.12739078E+03</pdfrwt>
<pdfrwt beam="2">  1       21 0.13414285E-01 0.12739078E+03</pdfrwt>
<totfact> 0.13324830E+06</totfact>
</mgrwt>
</event>
<event>
 6    1  0.4244577E-002  0.1271658E+03  0.7546771E-02  0.1231723E+00
         21   -1    0    0  503  502  0.00000000000E+00  0.00000000000E+00  0.75484856502E+02  0.75484856502E+02  0.00000000000E+00 0. -1.
         21   -1    0    0  504  503 -0.00000000000E+00 -0.00000000000E+00 -0.99653596865E+02  0.99653596865E+02  0.00000000000E+00 0. -1.
         25    2    1    2    0    0 -0.21820335678E+02 -0.84052559895E+01  0.16494815313E+02  0.12823109640E+03  0.12499743907E+03 0.  0.
          5    1    3    3  501    0 -0.62463116503E+02  0.31350371266E+02  0.38936042741E+01  0.69997548928E+02  0.10000000000E+00 0.  1.
         -5    1    3    3    0  501  0.40642780824E+02 -0.39755627256E+02  0.12601211038E+02  0.58233547473E+02  0.10000000000E+00 0.  1.
         21    1    1    2  504  502  0.21820335678E+02  0.84052559895E+01 -0.40663555676E+02  0.46907356966E+02  0.00000000000E+00 0. -1.
<mgrwt>
<rscale>  1 0.12716578E+03</rscale>
<asrwt>0</asrwt>
<pdfrwt beam="1">  1       21 0.11613055E-01 0.12716578E+03</pdfrwt>
<pdfrwt beam="2">  1       21 0.15331323E-01 0.12716578E+03</pdfrwt>
<totfact> 0.23268039E+06</totfact>
</mgrwt>
</event>
<event>
 6    1  0.4244577E-002  0.1293448E+03  0.7546771E-02  0.1228431E+00
         21   -1    0    0  504  502  0.00000000000E+00  0.00000000000E+00  0.45360404612E+03  0.45360404612E+03  0.00000000000E+00 0.  1.
         21   -1    0    0  502  503 -0.00000000000E+00 -0.00000000000E+00 -0.19781940857E+02  0.19781940857E+02  0.00000000000E+00 0.  1.
         25    2    1    2    0    0 -0.32586726329E+02 -0.62646629175E+01  0.41615518682E+03  0.43579262664E+03  0.12501573173E+03 0.  0.
          5    1    3    3  501    0  0.39237663840E+02 -0.15636923003E+02  0.66997745812E+02  0.79201108380E+02  0.10000000000E+00 0. -1.
         -5    1    3    3    0  501 -0.71824390168E+02  0.93722600860E+01  0.34915744101E+03  0.35659151826E+03  0.10000000000E+00 0. -1.
         21    1    1    2  504  503  0.32586726329E+02  0.62646629175E+01  0.17666918443E+02  0.37593360339E+02  0.00000000000E+00 0.  1.
<mgrwt>
<rscale>  1 0.12934479E+03</rscale>
<asrwt>0</asrwt>
<pdfrwt beam="1">  1       21 0.69785230E-01 0.12934479E+03</pdfrwt>
<pdfrwt beam="2">  1       21 0.30433759E-02 0.12934479E+03</pdfrwt>
<totfact> 0.11549744E+06</totfact>
</mgrwt>
</event>
<event>
 6    1  0.4244577E-002  0.1260195E+03  0.7546771E-02  0.1233485E+00
         21   -1    0    0  503  502  0.00000000000E+00  0.00000000000E+00  0.89290719600E+02  0.89290719600E+02  0.00000000000E+00 0.  1.
         21   -1    0    0  504  503 -0.00000000000E+00 -0.00000000000E+00 -0.60134909164E+02  0.60134909164E+02  0.00000000000E+00 0.  1.
         25    2    1    2    0    0 -0.11007658682E+02 -0.11569588030E+02  0.12965571734E+02  0.12668474606E+03  0.12500357962E+03 0.  0.
          5    1    3    3  501    0  0.84357870741E+01 -0.64622185855E+02 -0.95382951143E+01  0.65864850125E+02  0.10000000000E+00 0.  1.
         -5    1    3    3    0  501 -0.19443445756E+02  0.53052597825E+02  0.22503866849E+02  0.60819895939E+02  0.10000000000E+00 0.  1.
         21    1    1    2  504  502  0.11007658682E+02  0.11569588030E+02  0.16190238701E+02  0.22740882701E+02  0.00000000000E+00 0.  1.
<mgrwt>
<rscale>  1 0.12601952E+03</rscale>
<asrwt>0</asrwt>
<pdfrwt beam="1">  1       21 0.13737034E-01 0.12601952E+03</pdfrwt>
<pdfrwt beam="2">  1       21 0.92515245E-02 0.12601952E+03</pdfrwt>
<totfact> 0.42205060E+06</totfact>
</mgrwt>
</event>
<event>
 6    1  0.4244577E-002  0.1267607E+03  0.7546771E-02  0.1232343E+00
         21   -1    0    0  504  502  0.00000000000E+00  0.00000000000E+00  0.10712294331E+03  0.10712294331E+03  0.00000000000E+00 0. -1.
         21   -1    0    0  502  503 -0.00000000000E+00 -0.00000000000E+00 -0.55943083324E+02  0.55943083324E+02  0.00000000000E+00 0. -1.
         25    2    1    2    0    0 -0.17404888892E+01  0.20957343764E+02  0.60022227818E+02  0.14025315684E+03  0.12500416238E+03 0.  0.
          5    1    3    3  501    0  0.61397707206E+02  0.48395318270E+01  0.28310023991E+02  0.67783235220E+02  0.10000000000E+00 0.  1.
         -5    1    3    3    0  501 -0.63138196096E+02  0.16117811937E+02  0.31712203827E+02  0.72469921619E+02  0.10000000000E+00 0.  1.
         21    1    1    2  504  503  0.17404888892E+01 -0.20957343764E+02 -0.88423678359E+01  0.22812869792E+02  0.00000000000E+00 0.  1.
<mgrwt>
<rscale>  1 0.12676072E+03</rscale>
<asrwt>0</asrwt>
<pdfrwt beam="1">  1       21 0.16480453E-01 0.12676072E+03</pdfrwt>
<pdfrwt beam="2">  1       21 0.86066282E-02 0.12676072E+03</pdfrwt>
<totfact> 0.34467621E+06</totfact>
</mgrwt>
</event>
<event>
 6    1  0.4244577E-002  0.1613445E+03  0.7546771E-02  0.1187187E+00
         21   -1    0    0  504  502  0.00000000000E+00  0.00000000000E+00  0.33496886165E+03  0.33496886165E+03  0.00000000000E+00 0.  1.
         21   -1    0    0  502  503 -0.00000000000E+00 -0.00000000000E+00 -0.61350368891E+02  0.61350368891E+02  0.00000000000E+00 0.  1.
         25    2    1    2    0    0  0.11875334174E+01  0.10200871756E+03  0.23944565312E+03  0.28873218828E+03  0.12499946823E+03 0.  0.
          5    1    3    3  501    0 -0.53646551826E+02  0.86802752824E+02  0.12890986927E+03  0.16440935137E+03  0.10000000000E+00 0.  1.
         -5    1    3    3    0  501  0.54834085243E+02  0.15205964732E+02  0.11053578385E+03  0.12432283692E+03  0.10000000000E+00 0.  1.
         21    1    1    2  504  503 -0.11875334174E+01 -0.10200871756E+03  0.34172839637E+02  0.10758704226E+03  0.00000000000E+00 0.  1.
<mgrwt>
<rscale>  1 0.16134453E+03</rscale>
<asrwt>0</asrwt>
<pdfrwt beam="1">  1       21 0.51533670E-01 0.16134453E+03</pdfrwt>
<pdfrwt beam="2">  1       21 0.94385185E-02 0.16134453E+03</pdfrwt>
<totfact> 0.32379664E+05</totfact>
</mgrwt>
</event>
<event>
 6    1  0.4244577E-002  0.1338735E+03  0.7546771E-02  0.1221819E+00
         21   -1    0    0  503  502  0.00000000000E+00  0.00000000000E+00  0.39150102587E+03  0.39150102587E+03  0.00000000000E+00 0. -1.
         21   -1    0    0  504  503 -0.00000000000E+00 -0.00000000000E+00 -0.25093198294E+02  0.25093198294E+02  0.00000000000E+00 0. -1.
         25    2    1    2    0    0  0.25061057449E+02  0.40657085788E+02  0.18097187485E+03  0.22510650187E+03  0.12506423339E+03 0.  0.
          5    1    3    3  501    0  0.13401025151E+02 -0.82838708550E+01 -0.15616039403E+02  0.22182891563E+02  0.10000000000E+00 0.  1.
         -5    1    3    3    0  501  0.11660032298E+02  0.48940956643E+02  0.19658791425E+03  0.20292361031E+03  0.10000000000E+00 0.  1.
         21    1    1    2  504  502 -0.25061057449E+02 -0.40657085788E+02  0.18543595273E+03  0.19148772230E+03  0.00000000000E+00 0. -1.
<mgrwt>
<rscale>  1 0.13387351E+03</rscale>
<asrwt>0</asrwt>
<pdfrwt beam="1">  1       21 0.60230923E-01 0.13387351E+03</pdfrwt>
<pdfrwt beam="2">  1       21 0.38604923E-02 0.13387351E+03</pdfrwt>
<totfact> 0.10711905E+06</totfact>
</mgrwt>
</event>
<event>
 6    1  0.4244577E-002  0.1271689E+03  0.7546771E-02  0.1231718E+00
         21   -1    0    0  504  502  0.00000000000E+00  0.00000000000E+00  0.23745450144E+02  0.23745450144E+02  0.00000000000E+00 0. -1.
         21   -1    0    0  502  503 -0.00000000000E+00 -0.00000000000E+00 -0.38022950594E+03  0.38022950594E+03  0.00000000000E+00 0.  1.
         25    2    1    2    0    0  0.36364988691E+01 -0.23094440617E+02 -0.15210073434E+03  0.19825884247E+03  0.12500143167E+03 0.  0.
          5    1    3    3  501    0  0.54161583418E+02  0.18319562142E+02 -0.97897988913E+02  0.11337155599E+03  0.10000000000E+00 0.  1.
         -5    1    3    3    0  501 -0.50525084548E+02 -0.41414002758E+02 -0.54202745422E+02  0.84887286471E+02  0.10000000000E+00 0.  1.
         21    1    1    2  504  503 -0.36364988691E+01  0.23094440617E+02 -0.20438332146E+03  0.20571611362E+03  0.00000000000E+00 0.  1.
<mgrwt>
<rscale>  1 0.12716892E+03</rscale>
<asrwt>0</asrwt>
<pdfrwt beam="1">  1       21 0.36531461E-02 0.12716892E+03</pdfrwt>
<pdfrwt beam="2">  1       21 0.58496848E-01 0.12716892E+03</pdfrwt>
<totfact> 0.12482744E+06</totfact>
</mgrwt>
</event>
<event>
 6    1  0.4244577E-002  0.1267701E+03  0.7546771E-02  0.1232329E+00
         21   -1    0    0  503  502  0.00000000000E+00  0.00000000000E+00  0.38439612004E+03  0.38439612004E+03  0.00000000000E+00 0.  1.
         21   -1    0    0  504  503 -0.00000000000E+00 -0.00000000000E+00 -0.45484350364E+02  0.45484350364E+02  0.00000000000E+00 0. -1.
         25    2    1    2    0    0  0.20263534351E+02  0.58725349881E+01  0.37067266755E+03  0.39175105754E+03  0.12500226846E+03 0.  0.
          5    1    3    3  501    0  0.20447151015E+02  0.64744999872E+02  0.19815973018E+03  0.20946906611E+03  0.10000000000E+00 0. -1.
         -5    1    3    3    0  501 -0.18361666405E+00 -0.58872464884E+02  0.17251293737E+03  0.18228199143E+03  0.10000000000E+00 0. -1.
         21    1    1    2  504  502 -0.20263534351E+02 -0.58725349881E+01 -0.31760897877E+02  0.38129412866E+02  0.00000000000E+00 0. -1.
<mgrwt>
<rscale>  1 0.12677013E+03</rscale>
<asrwt>0</asrwt>
<pdfrwt beam="1">  1       21 0.59137862E-01 0.12677013E+03</pdfrwt>
<pdfrwt beam="2">  1       21 0.69975926E-02 0.12677013E+03</pdfrwt>
<totfact> 0.40920394E+05</totfact>
</mgrwt>
</event>
<event>
 6    1  0.4244577E-002  0.1265047E+03  0.7546771E-02  0.1232736E+00
         21   -1    0    0  504  502  0.00000000000E+00  0.00000000000E+00  0.20324308016E+03  0.20324308016E+03  0.00000000000E+00 0.  1.
         21   -1    0    0  502  503 -0.00000000000E+00 -0.00000000000E+00 -0.18344710772E+03  0.18344710772E+03  0.00000000000E+00 0. -1.
         25    2    1    2    0    0  0.11875946346E+02  0.15282555879E+02  0.18293038169E+03  0.22241167408E+03  0.12501533348E+03 0.  0.
          5    1    3    3  501    0  0.32005228755E+02 -0.25721320752E+01 -0.50605447051E+01  0.32504917224E+02  0.10000000000E+00 0.  1.
         -5    1    3    3    0  501 -0.20129282409E+02  0.17854687955E+02  0.18799092640E+03  0.18990675686E+03  0.10000000000E+00 0.  1.
         21    1    1    2  504  503 -0.11875946346E+02 -0.15282555879E+02 -0.16313440925E+03  0.16427851380E+03  0.00000000000E+00 0. -1.
<mgrwt>
<rscale>  1 0.12650466E+03</rscale>
<asrwt>0</asrwt>
<pdfrwt beam="1">  1       21 0.31268166E-01 0.12650466E+03</pdfrwt>
<pdfrwt beam="2">  1       21 0.28222632E-01 0.12650466E+03</pdfrwt>
<totfact> 0.12072343E+05</totfact>
</mgrwt>
</event>
<event>
 6    1  0.4244577E-002  0.1749406E+03  0.7546771E-02  0.1172791E+00
         21   -1    0    0  503  502  0.00000000000E+00  0.00000000000E+00  0.60013344536E+02  0.60013344536E+02  0.00000000000E+00 0. -1.
         21   -1    0    0  504  503 -0.00000000000E+00 -0.00000000000E+00 -0.72147329946E+03  0.72147329946E+03  0.00000000000E+00 0. -1.
         25    2    1    2    0    0  0.56331848988E+02 -0.10866102511E+03 -0.89362468131E+02  0.19644303025E+03  0.12499487123E+03 0.  0.
          5    1    3    3  501    0  0.47558487330E+02 -0.18347042103E+01  0.11823609345E+02  0.49040632078E+02  0.10000000000E+00 0.  1.
         -5    1    3    3    0  501  0.87733616587E+01 -0.10682632090E+03 -0.10118607748E+03  0.14740239817E+03  0.10000000000E+00 0.  1.
         21    1    1    2  504  502 -0.56331848988E+02  0.10866102511E+03 -0.57209748680E+03  0.58504361375E+03  0.00000000000E+00 0. -1.
<mgrwt>
<rscale>  1 0.17494060E+03</rscale>
<asrwt>0</asrwt>
<pdfrwt beam="1">  1       21 0.92328224E-02 0.17494060E+03</pdfrwt>
<pdfrwt beam="2">  1       21 0.11099589E+00 0.17494060E+03</pdfrwt>
<totfact> 0.60204030E+04</totfact>
</mgrwt>
</event>
<event>
 6    1  0.4244577E-002  0.1269260E+03  0.7546771E-02  0.1232090E+00
         21   -1    0    0  504  502  0.00000000000E+00  0.00000000000E+00  0.51486822832E+03  0.51486822832E+03  0.00000000000E+00 0. -1.
         21   -1    0    0  502  503 -0.00000000000E+00 -0.00000000000E+00 -0.22912836053E+02  0.22912836053E+02  0.00000000000E+00 0. -1.
         25    2    1    2    0    0  0.10742522544E+02  0.19370080473E+02  0.49872270877E+03  0.51462078845E+03  0.12497845356E+03 0.  0.
          5    1    3    3  501    0  0.62602865480E+02  0.33565121449E+02  0.32915958688E+03  0.33673695933E+03  0.10000000000E+00 0.  1.
         -5    1    3    3    0  501 -0.51860342936E+02 -0.14195040975E+02  0.16956312190E+03  0.17788382913E+03  0.10000000000E+00 0.  1.
         21    1    1    2  504  503 -0.10742522544E+02 -0.19370080473E+02 -0.67673165022E+01  0.23160275922E+02  0.00000000000E+00 0. -1.
<mgrwt>
<rscale>  1 0.12692602E+03</rscale>
<asrwt>0</asrwt>
<pdfrwt beam="1">  1       21 0.79210488E-01 0.12692602E+03</pdfrwt>
<pdfrwt beam="2">  1       21 0.35250521E-02 0.12692602E+03</pdfrwt>
<totfact> 0.68594180E+05</totfact>
</mgrwt>
</event>
<event>
 6    1  0.4244577E-002  0.1538046E+03  0.7546771E-02  0.1195874E+00
         21   -1    0    0  504  502  0.00000000000E+00  0.00000000000E+00  0.70410932600E+02  0.70410932600E+02  0.00000000000E+00 0. -1.
         21   -1    0    0  502  503 -0.00000000000E+00 -0.00000000000E+00 -0.64601332214E+03  0.64601332214E+03  0.00000000000E+00 0.  1.
         25    2    1    2    0    0 -0.12475088640E+02  0.88758769455E+02 -0.21713061495E+02  0.15532966850E+03  0.12498840700E+03 0.  0.
          5    1    3    3  501    0 -0.57340930580E+02  0.36906888354E+02  0.24703339309E+02  0.72528378589E+02  0.10000000000E+00 0.  1.
         -5    1    3    3    0  501  0.44865841939E+02  0.51851881101E+02 -0.46416400804E+02  0.82801289907E+02  0.10000000000E+00 0.  1.
         21    1    1    2  504  503  0.12475088640E+02 -0.88758769455E+02 -0.55388932805E+03  0.56109458625E+03  0.00000000000E+00 0.  1.
<mgrwt>
<rscale>  1 0.15380458E+03</rscale>
<asrwt>0</asrwt>
<pdfrwt beam="1">  1       21 0.10832451E-01 0.15380458E+03</pdfrwt>
<pdfrwt beam="2">  1       21 0.99386664E-01 0.15380458E+03</pdfrwt>
<totfact> 0.59805730E+04</totfact>
</mgrwt>
</event>
<event>
 6    1  0.4244577E-002  0.1261078E+03  0.7546771E-02  0.1233348E+00
         21   -1    0    0  503  502  0.00000000000E+00  0.00000000000E+00  0.14713777588E+03  0.14713777588E+03  0.00000000000E+00 0.  1.
         21   -1    0    0  504  503 -0.00000000000E+00 -0.00000000000E+00 -0.52902518229E+02  0.52902518229E+02  0.00000000000E+00 0. -1.
         25    2    1    2    0    0 -0.15752826776E+02  0.55769008773E+01  0.11684964295E+03  0.17192154953E+03  0.12499570696E+03 0.  0.
          5    1    3    3  501    0 -0.65783937257E+02 -0.65046485571E+01  0.33872399928E+02  0.74277764713E+02  0.10000000000E+00 0.  1.
         -5    1    3    3    0  501  0.50031110480E+02  0.12081549434E+02  0.82977243024E+02  0.97643784812E+02  0.10000000000E+00 0.  1.
         21    1    1    2  504  502  0.15752826776E+02 -0.55769008773E+01 -0.22614385298E+02  0.28118744588E+02  0.00000000000E+00 0. -1.
<mgrwt>
<rscale>  1 0.12610781E+03</rscale>
<asrwt>0</asrwt>
<pdfrwt beam="1">  1       21 0.22636581E-01 0.12610781E+03</pdfrwt>
<pdfrwt beam="2">  1       21 0.81388491E-02 0.12610781E+03</pdfrwt>
<totfact> 0.21152062E+06</totfact>
</mgrwt>
</event>
<event>
 6    1  0.4244577E-002  0.1311274E+03  0.7546771E-02  0.1225792E+00
         21   -1    0    0  504  502  0.00000000000E+00  0.00000000000E+00  0.45581784611E+03  0.45581784611E+03  0.00000000000E+00 0.  1.
         21   -1    0    0  502  503 -0.00000000000E+00 -0.00000000000E+00 -0.18369544280E+02  0.18369544280E+02  0.00000000000E+00 0.  1.
         25    2    1    2    0    0 -0.18010129013E+02  0.35280717937E+02  0.39468220630E+03  0.41589474306E+03  0.12500119814E+03 0.  0.
          5    1    3    3  501    0 -0.31626100243E+01  0.80754814410E+02  0.20712806609E+03  0.22233620469E+03  0.10000000000E+00 0. -1.
         -5    1    3    3    0  501 -0.14847518989E+02 -0.45474096473E+02  0.18755414020E+03  0.19355853837E+03  0.10000000000E+00 0. -1.
         21    1    1    2  504  503  0.18010129013E+02 -0.35280717937E+02  0.42766095538E+02  0.58292647331E+02  0.00000000000E+00 0.  1.
<mgrwt>
<rscale>  1 0.13112739E+03</rscale>
<asrwt>0</asrwt>
<pdfrwt beam="1">  1       21 0.70125814E-01 0.13112739E+03</pdfrwt>
<pdfrwt beam="2">  1       21 0.28260841E-02 0.13112739E+03</pdfrwt>
<totfact> 0.12904220E+06</totfact>
</mgrwt>
</event>
<event>
 6    1  0.4244577E-002  0.1325563E+03  0.7546771E-02  0.1223711E+00
         21   -1    0    0  503  502  0.00000000000E+00  0.00000000000E+00  0.53726287853E+03  0.53726287853E+03  0.00000000000E+00 0. -1.
         21   -1    0    0  504  503 -0.00000000000E+00 -0.00000000000E+00 -0.17682308981E+02  0.17682308981E+02  0.00000000000E+00 0. -1.
         25    2    1    2    0    0 -0.20516742279E+02 -0.39050262874E+02  0.47112559421E+03  0.48941851829E+03  0.12500120311E+03 0.  0.
          5    1    3    3  501    0  0.52471840238E+02 -0.13978449496E+02  0.16454677396E+03  0.17327533549E+03  0.10000000000E+00 0. -1.
         -5    1    3    3    0  501 -0.72988582518E+02 -0.25071813378E+02  0.30657882025E+03  0.31614318280E+03  0.10000000000E+00 0. -1.
         21    1    1    2  504  502  0.20516742279E+02  0.39050262874E+02  0.48454975333E+02  0.65526669218E+02  0.00000000000E+00 0. -1.
<mgrwt>
<rscale>  1 0.13255625E+03</rscale>
<asrwt>0</asrwt>
<pdfrwt beam="1">  1       21 0.82655815E-01 0.13255625E+03</pdfrwt>
<pdfrwt beam="2">  1       21 0.27203556E-02 0.13255625E+03</pdfrwt>
<totfact> 0.95425398E+05</totfact>
</mgrwt>
</event>
<event>
 6    1  0.4244577E-002  0.1269610E+03  0.7546771E-02  0.1232036E+00
         21   -1    0    0  504  502  0.00000000000E+00  0.00000000000E+00  0.34065334330E+02  0.34065334330E+02  0.00000000000E+00 0. -1.
         21   -1    0    0  502  503 -0.00000000000E+00 -0.00000000000E+00 -0.21423243394E+03  0.21423243394E+03  0.00000000000E+00 0. -1.
         25    2    1    2    0    0  0.10395566557E+02  0.20190626094E+02 -0.90796166211E+02  0.15608663596E+03  0.12491342978E+03 0.  0.
          5    1    3    3  501    0 -0.13062221121E+01 -0.36101373334E+02  0.12199730653E+02  0.38129500400E+02  0.10000000000E+00 0.  1.
         -5    1    3    3    0  501  0.11701788669E+02  0.56291999428E+02 -0.10299589686E+03  0.11795713556E+03  0.10000000000E+00 0.  1.
         21    1    1    2  504  503 -0.10395566557E+02 -0.20190626094E+02 -0.89370933402E+02  0.92211132318E+02  0.00000000000E+00 0. -1.
<mgrwt>
<rscale>  1 0.12696099E+03</rscale>
<asrwt>0</asrwt>
<pdfrwt beam="1">  1       21 0.52408207E-02 0.12696099E+03</pdfrwt>
<pdfrwt beam="2">  1       21 0.32958836E-01 0.12696099E+03</pdfrwt>
<totfact> 0.21863982E+06</totfact>
</mgrwt>
</event>
<event>
 6    1  0.4244577E-002  0.1312057E+03  0.7546771E-02  0.1225678E+00
         21   -1    0    0  504  502  0.00000000000E+00  0.00000000000E+00  0.72467698032E+03  0.72467698032E+03  0.00000000000E+00 0.  1.
         21   -1    0    0  502  503 -0.00000000000E+00 -0.00000000000E+00 -0.15260150086E+02  0.15260150086E+02  0.00000000000E+00 0.  1.
         25    2    1    2    0    0 -0.86704796958E+01  0.38922447531E+02  0.67384665743E+03  0.68650145568E+03  0.12499918713E+03 0.  0.
          5    1    3    3  501    0  0.12931527346E+02 -0.43680448747E+02  0.21388278315E+03  0.21868027101E+03  0.10000000000E+00 0.  1.
         -5    1    3    3    0  501 -0.21602007042E+02  0.82602896278E+02  0.45996387428E+03  0.46782118467E+03  0.10000000000E+00 0.  1.
         21    1    1    2  504  503  0.86704796958E+01 -0.38922447531E+02  0.35570172802E+02  0.53435674723E+02  0.00000000000E+00 0.  1.
<mgrwt>
<rscale>  1 0.13120568E+03</rscale>
<asrwt>0</asrwt>
<pdfrwt beam="1">  1       21 0.11148874E+00 0.13120568E+03</pdfrwt>
<pdfrwt beam="2">  1       21 0.23477160E-02 0.13120568E+03</pdfrwt>
<totfact> 0.60546593E+05</totfact>
</mgrwt>
</event>
<event>
 6    1  0.4244577E-002  0.1271887E+03  0.7546771E-02  0.1231688E+00
         21   -1    0    0  504  502  0.00000000000E+00  0.00000000000E+00  0.35501805714E+03  0.35501805714E+03  0.00000000000E+00 0. -1.
         21   -1    0    0  502  503 -0.00000000000E+00 -0.00000000000E+00 -0.53876169349E+03  0.53876169349E+03  0.00000000000E+00 0. -1.
         25    2    1    2    0    0 -0.36131839804E+01  0.23215332337E+02  0.34335632045E+03  0.36615642741E+03  0.12499983914E+03 0.  0.
          5    1    3    3  501    0  0.56452610926E+02 -0.59099573796E+01  0.11503517645E+03  0.12827675821E+03  0.10000000000E+00 0. -1.
         -5    1    3    3    0  501 -0.60065794907E+02  0.29125289717E+02  0.22832114400E+03  0.23787966920E+03  0.10000000000E+00 0. -1.
         21    1    1    2  504  503  0.36131839804E+01 -0.23215332337E+02 -0.52709995680E+03  0.52762332322E+03  0.00000000000E+00 0. -1.
<mgrwt>
<rscale>  1 0.12718870E+03</rscale>
<asrwt>0</asrwt>
<pdfrwt beam="1">  1       21 0.54618163E-01 0.12718870E+03</pdfrwt>
<pdfrwt beam="2">  1       21 0.82886414E-01 0.12718870E+03</pdfrwt>
<totfact> 0.42678718E+03</totfact>
</mgrwt>
</event>
<event>
 6    1  0.4244577E-002  0.1348298E+03  0.7546771E-02  0.1220460E+00
         21   -1    0    0  504  502  0.00000000000E+00  0.00000000000E+00  0.48636744410E+02  0.48636744410E+02  0.00000000000E+00 0.  1.
         21   -1    0    0  502  503 -0.00000000000E+00 -0.00000000000E+00 -0.53779476490E+03  0.53779476490E+03  0.00000000000E+00 0. -1.
         25    2    1    2    0    0  0.31707644663E+02 -0.39567489372E+02 -0.49145743350E+02  0.14350740184E+03  0.12493241912E+03 0.  0.
          5    1    3    3  501    0 -0.21451371397E+02 -0.69149440788E+02 -0.15696467858E+02  0.74082356869E+02  0.10000000000E+00 0.  1.
         -5    1    3    3    0  501  0.53159016060E+02  0.29581951416E+02 -0.33449275492E+02  0.69425044970E+02  0.10000000000E+00 0.  1.
         21    1    1    2  504  503 -0.31707644663E+02  0.39567489372E+02 -0.44001227714E+03  0.44292410747E+03  0.00000000000E+00 0. -1.
<mgrwt>
<rscale>  1 0.13482978E+03</rscale>
<asrwt>0</asrwt>
<pdfrwt beam="1">  1       21 0.74825764E-02 0.13482978E+03</pdfrwt>
<pdfrwt beam="2">  1       21 0.82737653E-01 0.13482978E+03</pdfrwt>
<totfact> 0.17499169E+05</totfact>
</mgrwt>
</event>
<event>
 6    1  0.4244577E-002  0.1598777E+03  0.7546771E-02  0.1188835E+00
         21   -1    0    0  504  502  0.00000000000E+00  0.00000000000E+00  0.85481908168E+02  0.85481908168E+02  0.00000000000E+00 0.  1.
         21   -1    0    0  502  503 -0.00000000000E+00 -0.00000000000E+00 -0.13759375351E+04  0.13759375351E+04  0.00000000000E+00 0.  1.
         25    2    1    2    0    0  0.51390229609E+02 -0.85414146255E+02  0.71050639456E+01  0.16003545743E+03  0.12499733446E+03 0.  0.
          5    1    3    3  501    0 -0.25631690411E+02 -0.24595602464E+02  0.42786279147E+02  0.55611176009E+02  0.10000000000E+00 0.  1.
         -5    1    3    3    0  501  0.77021920021E+02 -0.60818543791E+02 -0.35681215201E+02  0.10442428142E+03  0.10000000000E+00 0.  1.
         21    1    1    2  504  503 -0.51390229609E+02  0.85414146255E+02 -0.12975606909E+04  0.13013839858E+04  0.00000000000E+00 0.  1.
<mgrwt>
<rscale>  1 0.15987766E+03</rscale>
<asrwt>0</asrwt>
<pdfrwt beam="1">  1       21 0.13151063E-01 0.15987766E+03</pdfrwt>
<pdfrwt beam="2">  1       21 0.21168270E+00 0.15987766E+03</pdfrwt>
<totfact> 0.58269509E+03</totfact>
</mgrwt>
</event>
<event>
 6    1  0.4244577E-002  0.1267288E+03  0.7546771E-02  0.1232392E+00
         21   -1    0    0  504  502  0.00000000000E+00  0.00000000000E+00  0.27013355252E+02  0.27013355252E+02  0.00000000000E+00 0. -1.
         21   -1    0    0  502  503 -0.00000000000E+00 -0.00000000000E+00 -0.21228475671E+03  0.21228475671E+03  0.00000000000E+00 0. -1.
         25    2    1    2    0    0 -0.14130848870E+02 -0.15340035446E+02 -0.13652545855E+03  0.18627769582E+03  0.12500072621E+03 0.  0.
          5    1    3    3  501    0  0.31961647660E+02  0.79571216181E+01 -0.13013440938E+03  0.13423798721E+03  0.10000000000E+00 0. -1.
         -5    1    3    3    0  501 -0.46092496530E+02 -0.23297157064E+02 -0.63910491734E+01  0.52039708619E+02  0.10000000000E+00 0. -1.
         21    1    1    2  504  503  0.14130848870E+02  0.15340035446E+02 -0.48745942905E+02  0.53020416133E+02  0.00000000000E+00 0.  1.
<mgrwt>
<rscale>  1 0.12672876E+03</rscale>
<asrwt>0</asrwt>
<pdfrwt beam="1">  1       21 0.41559010E-02 0.12672876E+03</pdfrwt>
<pdfrwt beam="2">  1       21 0.32659191E-01 0.12672876E+03</pdfrwt>
<totfact> 0.32807685E+06</totfact>
</mgrwt>
</event>
<event>
 6    1  0.4244577E-002  0.1364318E+03  0.7546771E-02  0.1218213E+00
         21   -1    0    0  504  502  0.00000000000E+00  0.00000000000E+00  0.30191630636E+02  0.30191630636E+02  0.00000000000E+00 0. -1.
         21   -1    0    0  502  503 -0.00000000000E+00 -0.00000000000E+00 -0.52152950117E+03  0.52152950117E+03  0.00000000000E+00 0.  1.
         25    2    1    2    0    0  0.31803760346E+02 -0.44443544518E+02 -0.13754598513E+03  0.19373313481E+03  0.12500768646E+03 0.  0.
          5    1    3    3  501    0 -0.36007535797E+02  0.15415208258E+02 -0.72221698416E+02  0.82159326931E+02  0.10000000000E+00 0. -1.
         -5    1    3    3    0  501  0.67811296143E+02 -0.59858752776E+02 -0.65324286718E+02  0.11157380787E+03  0.10000000000E+00 0. -1.
         21    1    1    2  504  503 -0.31803760346E+02  0.44443544518E+02 -0.35379188540E+03  0.35798799700E+03  0.00000000000E+00 0.  1.
<mgrwt>
<rscale>  1 0.13643178E+03</rscale>
<asrwt>0</asrwt>
<pdfrwt beam="1">  1       21 0.46448661E-02 0.13643178E+03</pdfrwt>
<pdfrwt beam="2">  1       21 0.80235310E-01 0.13643178E+03</pdfrwt>
<totfact> 0.42085396E+05</totfact>
</mgrwt>
</event>
<event>
 6    1  0.4244577E-002  0.1274676E+03  0.7546771E-02  0.1231263E+00
         21   -1    0    0  504  502  0.00000000000E+00  0.00000000000E+00  0.19590355672E+02  0.19590355672E+02  0.00000000000E+00 0.  1.
         21   -1    0    0  502  503 -0.00000000000E+00 -0.00000000000E+00 -0.74553115596E+03  0.74553115596E+03  0.00000000000E+00 0.  1.
         25    2    1    2    0    0 -0.10480179658E+02  0.22690106556E+02 -0.19118423770E+03  0.22978119340E+03  0.12499323578E+03 0.  0.
          5    1    3    3  501    0 -0.11516187865E+01 -0.50834882972E+02 -0.56201987451E+02  0.75790401412E+02  0.10000000000E+00 0. -1.
         -5    1    3    3    0  501 -0.93285608713E+01  0.73524989529E+02 -0.13498225025E+03  0.15399079199E+03  0.10000000000E+00 0. -1.
         21    1    1    2  504  503  0.10480179658E+02 -0.22690106556E+02 -0.53475656258E+03  0.53534031823E+03  0.00000000000E+00 0.  1.
<mgrwt>
<rscale>  1 0.12746758E+03</rscale>
<asrwt>0</asrwt>
<pdfrwt beam="1">  1       21 0.30139009E-02 0.12746758E+03</pdfrwt>
<pdfrwt beam="2">  1       21 0.11469710E+00 0.12746758E+03</pdfrwt>
<totfact> 0.37652402E+05</totfact>
</mgrwt>
</event>
<event>
 6    1  0.4244577E-002  0.2245781E+03  0.7546771E-02  0.1130515E+00
         21   -1    0    0  504  502  0.00000000000E+00  0.00000000000E+00  0.34755383736E+02  0.34755383736E+02  0.00000000000E+00 0. -1.
         21   -1    0    0  502  503 -0.00000000000E+00 -0.00000000000E+00 -0.25626871438E+04  0.25626871438E+04  0.00000000000E+00 0.  1.
         25    2    1    2    0    0  0.15443332302E+03 -0.10469083040E+03 -0.37984251867E+03  0.44126600178E+03  0.12500209642E+03 0.  0.
          5    1    3    3  501    0  0.22155158228E+02 -0.75568445497E+02 -0.80028406541E+02  0.11227643049E+03  0.10000000000E+00 0.  1.
         -5    1    3    3    0  501  0.13227816479E+03 -0.29122384902E+02 -0.29981411213E+03  0.32898957128E+03  0.10000000000E+00 0.  1.
         21    1    1    2  504  503 -0.15443332302E+03  0.10469083040E+03 -0.21480892414E+04  0.21561765257E+04  0.00000000000E+00 0.  1.
<mgrwt>
<rscale>  1 0.22457815E+03</rscale>
<asrwt>0</asrwt>
<pdfrwt beam="1">  1       21 0.53469798E-02 0.22457815E+03</pdfrwt>
<pdfrwt beam="2">  1       21 0.39425973E+00 0.22457815E+03</pdfrwt>
<totfact> 0.21740943E+03</totfact>
</mgrwt>
</event>
<event>
 6    1  0.4244577E-002  0.1401849E+03  0.7546771E-02  0.1213080E+00
         21   -1    0    0  503  502  0.00000000000E+00  0.00000000000E+00  0.38113477980E+02  0.38113477980E+02  0.00000000000E+00 0.  1.
         21   -1    0    0  504  503 -0.00000000000E+00 -0.00000000000E+00 -0.31007938650E+03  0.31007938650E+03  0.00000000000E+00 0.  1.
         25    2    1    2    0    0  0.20357296314E+02  0.60106239730E+02 -0.12386201271E+03  0.18706576086E+03  0.12499848449E+03 0.  0.
          5    1    3    3  501    0  0.10672500386E+02 -0.33316368906E+02 -0.46387916955E+01  0.35290382400E+02  0.10000000000E+00 0.  1.
         -5    1    3    3    0  501  0.96847959276E+01  0.93422608636E+02 -0.11922322101E+03  0.15177537846E+03  0.10000000000E+00 0.  1.
         21    1    1    2  504  502 -0.20357296314E+02 -0.60106239730E+02 -0.14810389581E+03  0.16112710362E+03  0.00000000000E+00 0.  1.
<mgrwt>
<rscale>  1 0.14018488E+03</rscale>
<asrwt>0</asrwt>
<pdfrwt beam="1">  1       21 0.58636118E-02 0.14018488E+03</pdfrwt>
<pdfrwt beam="2">  1       21 0.47704523E-01 0.14018488E+03</pdfrwt>
<totfact> 0.86465721E+05</totfact>
</mgrwt>
</event>
<event>
 6    1  0.4244577E-002  0.1276967E+03  0.7546771E-02  0.1230914E+00
         21   -1    0    0  503  502  0.00000000000E+00  0.00000000000E+00  0.24476947044E+02  0.24476947044E+02  0.00000000000E+00 0.  1.
         21   -1    0    0  504  503 -0.00000000000E+00 -0.00000000000E+00 -0.26125252299E+03  0.26125252299E+03  0.00000000000E+00 0.  1.
         25    2    1    2    0    0  0.10013831155E+02 -0.24127389632E+02 -0.16048233043E+03  0.20508787372E+03  0.12499619923E+03 0.  0.
          5    1    3    3  501    0 -0.23314744075E+02  0.38813210694E+02 -0.10648738744E+03  0.11571350958E+03  0.10000000000E+00 0.  1.
         -5    1    3    3    0  501  0.33328575231E+02 -0.62940600326E+02 -0.53994942986E+02  0.89374364134E+02  0.10000000000E+00 0.  1.
         21    1    1    2  504  502 -0.10013831155E+02  0.24127389632E+02 -0.76293245519E+02  0.80641596318E+02  0.00000000000E+00 0.  1.
<mgrwt>
<rscale>  1 0.12769674E+03</rscale>
<asrwt>0</asrwt>
<pdfrwt beam="1">  1       21 0.37656841E-02 0.12769674E+03</pdfrwt>
<pdfrwt beam="2">  1       21 0.40192696E-01 0.12769674E+03</pdfrwt>
<totfact> 0.25666077E+06</totfact>
</mgrwt>
</event>
<event>
 6    1  0.4244577E-002  0.1260368E+03  0.7546771E-02  0.1233458E+00
         21   -1    0    0  504  502  0.00000000000E+00  0.00000000000E+00  0.47297954276E+03  0.47297954276E+03  0.00000000000E+00 0. -1.
         21   -1    0    0  502  503 -0.00000000000E+00 -0.00000000000E+00 -0.24073961728E+02  0.24073961728E+02  0.00000000000E+00 0. -1.
         25    2    1    2    0    0 -0.15929910635E+02 -0.26135742516E+01  0.46033296299E+03  0.47727528714E+03  0.12499868028E+03 0.  0.
          5    1    3    3  501    0  0.26475687678E+01 -0.27007069316E+02  0.43919600652E+03  0.44003355958E+03  0.10000000000E+00 0. -1.
         -5    1    3    3    0  501 -0.18577479403E+02  0.24393495064E+02  0.21136956470E+02  0.37241727554E+02  0.10000000000E+00 0. -1.
         21    1    1    2  504  503  0.15929910635E+02  0.26135742516E+01 -0.11427381959E+02  0.19778217353E+02  0.00000000000E+00 0. -1.
<mgrwt>
<rscale>  1 0.12603675E+03</rscale>
<asrwt>0</asrwt>
<pdfrwt beam="1">  1       21 0.72766077E-01 0.12603675E+03</pdfrwt>
<pdfrwt beam="2">  1       21 0.37036868E-02 0.12603675E+03</pdfrwt>
<totfact> 0.76262920E+05</totfact>
</mgrwt>
</event>
<event>
 6    1  0.4244577E-002  0.1259716E+03  0.7546771E-02  0.1233559E+00
         21   -1    0    0  504  502  0.00000000000E+00  0.00000000000E+00  0.12986246049E+02  0.12986246049E+02  0.00000000000E+00 0. -1.
         21   -1    0    0  502  503 -0.00000000000E+00 -0.00000000000E+00 -0.57321004880E+03  0.57321004880E+03  0.00000000000E+00 0. -1.
         25    2    1    2    0    0  0.28062295160E+01  0.15351426705E+02 -0.29830230898E+03  0.32381030032E+03  0.12500120729E+03 0.  0.
          5    1    3    3  501    0 -0.15843536493E+02  0.53217004806E+02 -0.26296040706E+03  0.26875872624E+03  0.10000000000E+00 0. -1.
         -5    1    3    3    0  501  0.18649766009E+02 -0.37865578101E+02 -0.35341901914E+02  0.55051574074E+02  0.10000000000E+00 0. -1.
         21    1    1    2  504  503 -0.28062295160E+01 -0.15351426705E+02 -0.26192149378E+03  0.26238599454E+03  0.00000000000E+00 0. -1.
<mgrwt>
<rscale>  1 0.12597160E+03</rscale>
<asrwt>0</asrwt>
<pdfrwt beam="1">  1       21 0.19978843E-02 0.12597160E+03</pdfrwt>
<pdfrwt beam="2">  1       21 0.88186150E-01 0.12597160E+03</pdfrwt>
<totfact> 0.13600303E+06</totfact>
</mgrwt>
</event>
<event>
 6    1  0.4244577E-002  0.1327061E+03  0.7546771E-02  0.1223495E+00
         21   -1    0    0  504  502  0.00000000000E+00  0.00000000000E+00  0.30228660186E+02  0.30228660186E+02  0.00000000000E+00 0.  1.
         21   -1    0    0  502  503 -0.00000000000E+00 -0.00000000000E+00 -0.40366931539E+03  0.40366931539E+03  0.00000000000E+00 0.  1.
         25    2    1    2    0    0  0.43550748184E+02  0.94239005913E+01 -0.12776448070E+03  0.18421365430E+03  0.12500172132E+03 0.  0.
          5    1    3    3  501    0  0.54026756683E+02  0.49678028651E+02 -0.32508557216E+02  0.80272120070E+02  0.10000000000E+00 0. -1.
         -5    1    3    3    0  501 -0.10476008499E+02 -0.40254128060E+02 -0.95255923482E+02  0.10394153423E+03  0.10000000000E+00 0. -1.
         21    1    1    2  504  503 -0.43550748184E+02 -0.94239005913E+01 -0.24567617451E+03  0.24968432127E+03  0.00000000000E+00 0.  1.
<mgrwt>
<rscale>  1 0.13270610E+03</rscale>
<asrwt>0</asrwt>
<pdfrwt beam="1">  1       21 0.46505634E-02 0.13270610E+03</pdfrwt>
<pdfrwt beam="2">  1       21 0.62102968E-01 0.13270610E+03</pdfrwt>
<totfact> 0.73571693E+05</totfact>
</mgrwt>
</event>
<event>
 6    1  0.4244577E-002  0.1260588E+03  0.7546771E-02  0.1233424E+00
         21   -1    0    0  503  502  0.00000000000E+00  0.00000000000E+00  0.11224337957E+03  0.11224337957E+03  0.00000000000E+00 0. -1.
         21   -1    0    0  504  503 -0.00000000000E+00 -0.00000000000E+00 -0.77874741264E+02  0.77874741264E+02  0.00000000000E+00 0. -1.
         25    2    1    2    0    0  0.15128294772E+02 -0.60287399645E+01  0.74764960708E+02  0.14656270932E+03  0.12500246959E+03 0.  0.
          5    1    3    3  501    0 -0.26546344728E+02  0.46755248913E+02  0.13146223869E+02  0.55349750870E+02  0.10000000000E+00 0. -1.
         -5    1    3    3    0  501  0.41674639500E+02 -0.52783988878E+02  0.61618736839E+02  0.91212958448E+02  0.10000000000E+00 0. -1.
         21    1    1    2  504  502 -0.15128294772E+02  0.60287399645E+01 -0.40396322405E+02  0.43555411513E+02  0.00000000000E+00 0. -1.
<mgrwt>
<rscale>  1 0.12605883E+03</rscale>
<asrwt>0</asrwt>
<pdfrwt beam="1">  1       21 0.17268212E-01 0.12605883E+03</pdfrwt>
<pdfrwt beam="2">  1       21 0.11980729E-01 0.12605883E+03</pdfrwt>
<totfact> 0.17741546E+06</totfact>
</mgrwt>
</event>
<event>
 6    1  0.4244577E-002  0.1276013E+03  0.7546771E-02  0.1231059E+00
         21   -1    0    0  503  502  0.00000000000E+00  0.00000000000E+00  0.13395900532E+02  0.13395900532E+02  0.00000000000E+00 0.  1.
         21   -1    0    0  504  503 -0.00000000000E+00 -0.00000000000E+00 -0.18782768699E+04  0.18782768699E+04  0.00000000000E+00 0.  1.
         25    2    1    2    0    0  0.11739850829E+02  0.22762181564E+02 -0.29295670606E+03  0.31953987828E+03  0.12500464463E+03 0.  0.
          5    1    3    3  501    0 -0.44799823117E+02  0.48022802963E+02 -0.15096931550E+03  0.16463583443E+03  0.10000000000E+00 0. -1.
         -5    1    3    3    0  501  0.56539673946E+02 -0.25260621399E+02 -0.14198739056E+03  0.15490404385E+03  0.10000000000E+00 0. -1.
         21    1    1    2  504  502 -0.11739850829E+02 -0.22762181564E+02 -0.15719242633E+04  0.15721328922E+04  0.00000000000E+00 0.  1.
<mgrwt>
<rscale>  1 0.12760134E+03</rscale>
<asrwt>0</asrwt>
<pdfrwt beam="1">  1       21 0.20609081E-02 0.12760134E+03</pdfrwt>
<pdfrwt beam="2">  1       21 0.28896562E+00 0.12760134E+03</pdfrwt>
<totfact> 0.49427363E+04</totfact>
</mgrwt>
</event>
<event>
 6    1  0.4244577E-002  0.1509945E+03  0.7546771E-02  0.1199256E+00
         21   -1    0    0  503  502  0.00000000000E+00  0.00000000000E+00  0.16437497051E+03  0.16437497051E+03  0.00000000000E+00 0.  1.
         21   -1    0    0  504  503 -0.00000000000E+00 -0.00000000000E+00 -0.92770702254E+02  0.92770702254E+02  0.00000000000E+00 0.  1.
         25    2    1    2    0    0  0.78406779575E+02  0.32014136641E+02  0.79558958652E+01  0.15120397495E+03  0.12500727072E+03 0.  0.
          5    1    3    3  501    0  0.10589756810E+03  0.48656433031E+02 -0.47740319902E+01  0.11663852188E+03  0.10000000000E+00 0. -1.
         -5    1    3    3    0  501 -0.27490788524E+02 -0.16642296389E+02  0.12729927855E+02  0.34565453071E+02  0.10000000000E+00 0. -1.
         21    1    1    2  504  502 -0.78406779575E+02 -0.32014136641E+02  0.63648372394E+02  0.10594169782E+03  0.00000000000E+00 0.  1.
<mgrwt>
<rscale>  1 0.15099452E+03</rscale>
<asrwt>0</asrwt>
<pdfrwt beam="1">  1       21 0.25288457E-01 0.15099452E+03</pdfrwt>
<pdfrwt beam="2">  1       21 0.14272416E-01 0.15099452E+03</pdfrwt>
<totfact> 0.63925713E+05</totfact>
</mgrwt>
</event>
<event>
 6    1  0.4244577E-002  0.1268066E+03  0.7546771E-02  0.1232273E+00
         21   -1    0    0  504  502  0.00000000000E+00  0.00000000000E+00  0.23124010149E+04  0.23124010149E+04  0.00000000000E+00 0. -1.
         21   -1    0    0  502  503 -0.00000000000E+00 -0.00000000000E+00 -0.11004376985E+03  0.11004376985E+03  0.00000000000E+00 0. -1.
         25    2    1    2    0    0  0.62230247372E+01  0.20385156266E+02  0.23096131631E+04  0.23130916294E+04  0.12500256809E+03 0.  0.
          5    1    3    3  501    0 -0.36162005359E+02  0.58211205775E+02  0.14350253446E+04  0.14366607063E+04  0.10000000000E+00 0.  1.
         -5    1    3    3    0  501  0.42385030096E+02 -0.37826049509E+02  0.87458781849E+03  0.87643092315E+03  0.10000000000E+00 0.  1.
         21    1    1    2  504  503 -0.62230247372E+01 -0.20385156266E+02 -0.10725591806E+03  0.10935315538E+03  0.00000000000E+00 0. -1.
<mgrwt>
<rscale>  1 0.12680663E+03</rscale>
<asrwt>0</asrwt>
<pdfrwt beam="1">  1       21 0.35575397E+00 0.12680663E+03</pdfrwt>
<pdfrwt beam="2">  1       21 0.16929812E-01 0.12680663E+03</pdfrwt>
<totfact> 0.57518720E+02</totfact>
</mgrwt>
</event>
<event>
 6    1  0.4244577E-002  0.1266140E+03  0.7546771E-02  0.1232568E+00
         21   -1    0    0  504  502  0.00000000000E+00  0.00000000000E+00  0.86494140595E+03  0.86494140595E+03  0.00000000000E+00 0.  1.
         21   -1    0    0  502  503 -0.00000000000E+00 -0.00000000000E+00 -0.69243353653E+01  0.69243353653E+01  0.00000000000E+00 0.  1.
         25    2    1    2    0    0  0.12344668630E+02 -0.15912806085E+02  0.80938525003E+03  0.81922866112E+03  0.12500203195E+03 0.  0.
          5    1    3    3  501    0  0.68320112570E+02 -0.17178445413E+02  0.42929975896E+03  0.43504141161E+03  0.10000000000E+00 0. -1.
         -5    1    3    3    0  501 -0.55975443940E+02  0.12656393282E+01  0.38008549107E+03  0.38418724951E+03  0.10000000000E+00 0. -1.
         21    1    1    2  504  503 -0.12344668630E+02  0.15912806085E+02  0.48631820553E+02  0.52637080194E+02  0.00000000000E+00 0.  1.
<mgrwt>
<rscale>  1 0.12661404E+03</rscale>
<asrwt>0</asrwt>
<pdfrwt beam="1">  1       21 0.13306782E+00 0.12661404E+03</pdfrwt>
<pdfrwt beam="2">  1       21 0.10652830E-02 0.12661404E+03</pdfrwt>
<totfact> 0.13911845E+06</totfact>
</mgrwt>
</event>
<event>
 6    1  0.4244577E-002  0.1262729E+03  0.7546771E-02  0.1233093E+00
         21   -1    0    0  503  502  0.00000000000E+00  0.00000000000E+00  0.14170029568E+02  0.14170029568E+02  0.00000000000E+00 0. -1.
         21   -1    0    0  504  503 -0.00000000000E+00 -0.00000000000E+00 -0.37025108999E+03  0.37025108999E+03  0.00000000000E+00 0. -1.
         25    2    1    2    0    0 -0.17919335869E+02  0.88571633448E-02 -0.29830807207E+03  0.32393293179E+03  0.12499494293E+03 0.  0.
          5    1    3    3  501    0 -0.52641649727E+02  0.32800244704E+02 -0.24331683647E+03  0.25109777428E+03  0.10000000000E+00 0.  1.
         -5    1    3    3    0  501  0.34722313857E+02 -0.32791387541E+02 -0.54991235598E+02  0.72835157507E+02  0.10000000000E+00 0.  1.
         21    1    1    2  504  502  0.17919335869E+02 -0.88571633448E-02 -0.57772988355E+02  0.60488187771E+02  0.00000000000E+00 0.  1.
<mgrwt>
<rscale>  1 0.12627287E+03</rscale>
<asrwt>0</asrwt>
<pdfrwt beam="1">  1       21 0.21800047E-02 0.12627287E+03</pdfrwt>
<pdfrwt beam="2">  1       21 0.56961702E-01 0.12627287E+03</pdfrwt>
<totfact> 0.30708670E+06</totfact>
</mgrwt>
</event>
<event>
 6    1  0.4244577E-002  0.1268435E+03  0.7546771E-02  0.1232216E+00
         21   -1    0    0  503  502  0.00000000000E+00  0.00000000000E+00  0.18488010559E+03  0.18488010559E+03  0.00000000000E+00 0.  1.
         21   -1    0    0  504  503 -0.00000000000E+00 -0.00000000000E+00 -0.65127438244E+02  0.65127438244E+02  0.00000000000E+00 0.  1.
         25    2    1    2    0    0  0.18629722027E+02  0.10819312636E+02  0.16010655372E+03  0.20426303362E+03  0.12500061717E+03 0.  0.
          5    1    3    3  501    0  0.22960449222E+02 -0.23462328946E+02 -0.70465819295E+01  0.33575696939E+02  0.10000000000E+00 0.  1.
         -5    1    3    3    0  501 -0.43307271945E+01  0.34281641582E+02  0.16715313565E+03  0.17068733668E+03  0.10000000000E+00 0.  1.
         21    1    1    2  504  502 -0.18629722027E+02 -0.10819312636E+02 -0.40353886374E+02  0.45744510208E+02  0.00000000000E+00 0.  1.
<mgrwt>
<rscale>  1 0.12684352E+03</rscale>
<asrwt>0</asrwt>
<pdfrwt beam="1">  1       21 0.28443093E-01 0.12684352E+03</pdfrwt>
<pdfrwt beam="2">  1       21 0.10019606E-01 0.12684352E+03</pdfrwt>
<totfact> 0.95711019E+05</totfact>
</mgrwt>
</event>
<event>
 6    1  0.4244577E-002  0.1267191E+03  0.7546771E-02  0.1232407E+00
         21   -1    0    0  503  502  0.00000000000E+00  0.00000000000E+00  0.48103050236E+03  0.48103050236E+03  0.00000000000E+00 0.  1.
         21   -1    0    0  504  503 -0.00000000000E+00 -0.00000000000E+00 -0.20406872618E+02  0.20406872618E+02  0.00000000000E+00 0.  1.
         25    2    1    2    0    0  0.12266913009E+02  0.16660759657E+02  0.46353508696E+03  0.48054396333E+03  0.12501866173E+03 0.  0.
          5    1    3    3  501    0  0.25692687157E+02  0.17680872358E+02  0.46584031267E+03  0.46688321273E+03  0.10000000000E+00 0. -1.
         -5    1    3    3    0  501 -0.13425774148E+02 -0.10201127017E+01 -0.23052257088E+01  0.13660750600E+02  0.10000000000E+00 0. -1.
         21    1    1    2  504  502 -0.12266913009E+02 -0.16660759657E+02 -0.29114572200E+01  0.20893411647E+02  0.00000000000E+00 0.  1.
<mgrwt>
<rscale>  1 0.12671907E+03</rscale>
<asrwt>0</asrwt>
<pdfrwt beam="1">  1       21 0.74004684E-01 0.12671907E+03</pdfrwt>
<pdfrwt beam="2">  1       21 0.31395192E-02 0.12671907E+03</pdfrwt>
<totfact> 0.96497092E+05</totfact>
</mgrwt>
</event>
<event>
 6    1  0.4244577E-002  0.1286130E+03  0.7546771E-02  0.1229528E+00
         21   -1    0    0  504  502  0.00000000000E+00  0.00000000000E+00  0.76679687082E+02  0.76679687082E+02  0.00000000000E+00 0. -1.
         21   -1    0    0  502  503 -0.00000000000E+00 -0.00000000000E+00 -0.22448027072E+03  0.22448027072E+03  0.00000000000E+00 0. -1.
         25    2    1    2    0    0 -0.50226643044E+01  0.29872777724E+02  0.20428576777E+02  0.13022529069E+03  0.12499475822E+03 0.  0.
          5    1    3    3  501    0  0.44029370652E+02  0.47480967460E+02  0.38176165976E+02  0.75169524407E+02  0.10000000000E+00 0.  1.
         -5    1    3    3    0  501 -0.49052034956E+02 -0.17608189736E+02 -0.17747589199E+02  0.55055766287E+02  0.10000000000E+00 0.  1.
         21    1    1    2  504  503  0.50226643044E+01 -0.29872777724E+02 -0.16822916042E+03  0.17093466711E+03  0.00000000000E+00 0. -1.
<mgrwt>
<rscale>  1 0.12861298E+03</rscale>
<asrwt>0</asrwt>
<pdfrwt beam="1">  1       21 0.11796875E-01 0.12861298E+03</pdfrwt>
<pdfrwt beam="2">  1       21 0.34535426E-01 0.12861298E+03</pdfrwt>
<totfact> 0.49300264E+05</totfact>
</mgrwt>
</event>
<event>
 6    1  0.4244577E-002  0.1259898E+03  0.7546771E-02  0.1233530E+00
         21   -1    0    0  503  502  0.00000000000E+00  0.00000000000E+00  0.10477303974E+04  0.10477303974E+04  0.00000000000E+00 0.  1.
         21   -1    0    0  504  503 -0.00000000000E+00 -0.00000000000E+00 -0.71984711346E+02  0.71984711346E+02  0.00000000000E+00 0.  1.
         25    2    1    2    0    0 -0.98937116855E+01  0.12303969782E+02  0.10430256767E+04  0.10506074367E+04  0.12499660254E+03 0.  0.
          5    1    3    3  501    0 -0.57872496471E+02  0.37761079415E+02  0.68636946326E+03  0.68983923856E+03  0.10000000000E+00 0. -1.
         -5    1    3    3    0  501  0.47978784785E+02 -0.25457109633E+02  0.35665621343E+03  0.36076819815E+03  0.10000000000E+00 0. -1.
         21    1    1    2  504  502  0.98937116855E+01 -0.12303969782E+02 -0.67279990600E+02  0.69107672066E+02  0.00000000000E+00 0.  1.
<mgrwt>
<rscale>  1 0.12598978E+03</rscale>
<asrwt>0</asrwt>
<pdfrwt beam="1">  1       21 0.16118928E+00 0.12598978E+03</pdfrwt>
<pdfrwt beam="2">  1       21 0.11074572E-01 0.12598978E+03</pdfrwt>
<totfact> 0.17613191E+04</totfact>
</mgrwt>
</event>
<event>
 6    1  0.4244577E-002  0.1614166E+03  0.7546771E-02  0.1187107E+00
         21   -1    0    0  504  502  0.00000000000E+00  0.00000000000E+00  0.93669934886E+02  0.93669934886E+02  0.00000000000E+00 0.  1.
         21   -1    0    0  502  503 -0.00000000000E+00 -0.00000000000E+00 -0.23175450199E+03  0.23175450199E+03  0.00000000000E+00 0.  1.
         25    2    1    2    0    0 -0.48441058571E+02 -0.89908935290E+02 -0.10164019792E+02  0.16173626007E+03  0.12500063089E+03 0.  0.
          5    1    3    3  501    0 -0.62927797358E+02 -0.59350720492E+02 -0.57274739597E+02  0.10374401910E+03  0.10000000000E+00 0.  1.
         -5    1    3    3    0  501  0.14486738787E+02 -0.30558214797E+02  0.47110719806E+02  0.57992240971E+02  0.10000000000E+00 0.  1.
         21    1    1    2  504  503  0.48441058571E+02  0.89908935290E+02 -0.12792054731E+03  0.16368817680E+03  0.00000000000E+00 0.  1.
<mgrwt>
<rscale>  1 0.16141657E+03</rscale>
<asrwt>0</asrwt>
<pdfrwt beam="1">  1       21 0.14410759E-01 0.16141657E+03</pdfrwt>
<pdfrwt beam="2">  1       21 0.35654538E-01 0.16141657E+03</pdfrwt>
<totfact> 0.32233227E+05</totfact>
</mgrwt>
</event>
<event>
 6    1  0.4244577E-002  0.1263870E+03  0.7546771E-02  0.1232917E+00
         21   -1    0    0  504  502  0.00000000000E+00  0.00000000000E+00  0.46464821541E+03  0.46464821541E+03  0.00000000000E+00 0. -1.
         21   -1    0    0  502  503 -0.00000000000E+00 -0.00000000000E+00 -0.66466805963E+02  0.66466805963E+02  0.00000000000E+00 0. -1.
         25    2    1    2    0    0 -0.15697956655E+02  0.10118384567E+02  0.45451821004E+03  0.47176316672E+03  0.12499949864E+03 0.  0.
          5    1    3    3  501    0  0.51769431119E+02  0.12376860795E+02  0.27204806206E+03  0.27720645510E+03  0.10000000000E+00 0.  1.
         -5    1    3    3    0  501 -0.67467387774E+02 -0.22584762270E+01  0.18247014798E+03  0.19455671161E+03  0.10000000000E+00 0.  1.
         21    1    1    2  504  503  0.15697956655E+02 -0.10118384567E+02 -0.56336800598E+02  0.59351854655E+02  0.00000000000E+00 0. -1.
<mgrwt>
<rscale>  1 0.12638703E+03</rscale>
<asrwt>0</asrwt>
<pdfrwt beam="1">  1       21 0.71484339E-01 0.12638703E+03</pdfrwt>
<pdfrwt beam="2">  1       21 0.10225663E-01 0.12638703E+03</pdfrwt>
<totfact> 0.14120036E+05</totfact>
</mgrwt>
</event>
<event>
 6    1  0.4244577E-002  0.1264208E+03  0.7546771E-02  0.1232865E+00
         21   -1    0    0  503  502  0.00000000000E+00  0.00000000000E+00  0.11229633190E+03  0.11229633190E+03  0.00000000000E+00 0.  1.
         21   -1    0    0  504  503 -0.00000000000E+00 -0.00000000000E+00 -0.50615958944E+02  0.50615958944E+02  0.00000000000E+00 0.  1.
         25    2    1    2    0    0 -0.16859889844E+02 -0.84451407489E+01  0.67323266801E+02  0.14322934038E+03  0.12500658145E+03 0.  0.
          5    1    3    3  501    0 -0.63120675492E+02  0.26408943904E+02  0.38943924264E+02  0.78729227291E+02  0.10000000000E+00 0. -1.
         -5    1    3    3    0  501  0.46260785648E+02 -0.34854084653E+02  0.28379342537E+02  0.64500113090E+02  0.10000000000E+00 0. -1.
         21    1    1    2  504  502  0.16859889844E+02  0.84451407489E+01 -0.56428938482E+01  0.19682950460E+02  0.00000000000E+00 0.  1.
<mgrwt>
<rscale>  1 0.12642081E+03</rscale>
<asrwt>0</asrwt>
<pdfrwt beam="1">  1       21 0.17276359E-01 0.12642081E+03</pdfrwt>
<pdfrwt beam="2">  1       21 0.77870706E-02 0.12642081E+03</pdfrwt>
<totfact> 0.37591462E+06</totfact>
</mgrwt>
</event>
<event>
 6    1  0.4244577E-002  0.1301260E+03  0.7546771E-02  0.1227269E+00
         21   -1    0    0  503  502  0.00000000000E+00  0.00000000000E+00  0.83922735022E+02  0.83922735022E+02  0.00000000000E+00 0. -1.
         21   -1    0    0  504  503 -0.00000000000E+00 -0.00000000000E+00 -0.13227853604E+03  0.13227853604E+03  0.00000000000E+00 0. -1.
         25    2    1    2    0    0  0.19143664649E+02  0.30661622392E+02  0.26752315854E+02  0.13284754167E+03  0.12500467167E+03 0.  0.
          5    1    3    3  501    0 -0.53339208045E+02  0.79986541730E+01  0.15150103023E+02  0.56023077433E+02  0.10000000000E+00 0. -1.
         -5    1    3    3    0  501  0.72482872694E+02  0.22662968219E+02  0.11602212831E+02  0.76824464236E+02  0.10000000000E+00 0. -1.
         21    1    1    2  504  502 -0.19143664649E+02 -0.30661622392E+02 -0.75108116870E+02  0.83353729392E+02  0.00000000000E+00 0. -1.
<mgrwt>
<rscale>  1 0.13012603E+03</rscale>
<asrwt>0</asrwt>
<pdfrwt beam="1">  1       21 0.12911190E-01 0.13012603E+03</pdfrwt>
<pdfrwt beam="2">  1       21 0.20350544E-01 0.13012603E+03</pdfrwt>
<totfact> 0.11495556E+06</totfact>
</mgrwt>
</event>
<event>
 6    1  0.4244577E-002  0.1272231E+03  0.7546771E-02  0.1231635E+00
         21   -1    0    0  504  502  0.00000000000E+00  0.00000000000E+00  0.11866660859E+03  0.11866660859E+03  0.00000000000E+00 0.  1.
         21   -1    0    0  502  503 -0.00000000000E+00 -0.00000000000E+00 -0.48080199976E+02  0.48080199976E+02  0.00000000000E+00 0.  1.
         25    2    1    2    0    0 -0.12386046305E+01 -0.23599453343E+02  0.56225712213E+02  0.13909363622E+03  0.12500896202E+03 0.  0.
          5    1    3    3  501    0 -0.53827643646E+02  0.60781081241E+01 -0.33411205957E+01  0.54272752885E+02  0.10000000000E+00 0.  1.
         -5    1    3    3    0  501  0.52589039016E+02 -0.29677561467E+02  0.59566832808E+02  0.84820883337E+02  0.10000000000E+00 0.  1.
         21    1    1    2  504  503  0.12386046305E+01  0.23599453343E+02  0.14360696399E+02  0.27653172342E+02  0.00000000000E+00 0.  1.
<mgrwt>
<rscale>  1 0.12722307E+03</rscale>
<asrwt>0</asrwt>
<pdfrwt beam="1">  1       21 0.18256401E-01 0.12722307E+03</pdfrwt>
<pdfrwt beam="2">  1       21 0.73969539E-02 0.12722307E+03</pdfrwt>
<totfact> 0.37133709E+06</totfact>
</mgrwt>
</event>
<event>
 6    1  0.4244577E-002  0.1303298E+03  0.7546771E-02  0.1226967E+00
         21   -1    0    0  504  502  0.00000000000E+00  0.00000000000E+00  0.42544333834E+02  0.42544333834E+02  0.00000000000E+00 0. -1.
         21   -1    0    0  502  503 -0.00000000000E+00 -0.00000000000E+00 -0.35673814707E+03  0.35673814707E+03  0.00000000000E+00 0.  1.
         25    2    1    2    0    0 -0.18350810944E+02  0.32002136438E+02 -0.61858445614E+02  0.14426478200E+03  0.12499988414E+03 0.  0.
          5    1    3    3  501    0 -0.27209696238E+02 -0.10120477827E+02  0.30659771504E+02  0.42223491441E+02  0.10000000000E+00 0.  1.
         -5    1    3    3    0  501  0.88588852941E+01  0.42122614265E+02 -0.92518217118E+02  0.10204129056E+03  0.10000000000E+00 0.  1.
         21    1    1    2  504  503  0.18350810944E+02 -0.32002136438E+02 -0.25233536763E+03  0.25501769890E+03  0.00000000000E+00 0.  1.
<mgrwt>
<rscale>  1 0.13032981E+03</rscale>
<asrwt>0</asrwt>
<pdfrwt beam="1">  1       21 0.65452819E-02 0.13032981E+03</pdfrwt>
<pdfrwt beam="2">  1       21 0.54882793E-01 0.13032981E+03</pdfrwt>
<totfact> 0.53653659E+05</totfact>
</mgrwt>
</event>
<event>
 6    1  0.4244577E-002  0.1276230E+03  0.7546771E-02  0.1231026E+00
         21   -1    0    0  503  502  0.00000000000E+00  0.00000000000E+00  0.10704126986E+04  0.10704126986E+04  0.00000000000E+00 0.  1.
         21   -1    0    0  504  503 -0.00000000000E+00 -0.00000000000E+00 -0.16990385239E+03  0.16990385239E+03  0.00000000000E+00 0.  1.
         25    2    1    2    0    0 -0.12448164365E+02 -0.22556525343E+02  0.10656060443E+04  0.10732212535E+04  0.12499545491E+03 0.  0.
          5    1    3    3  501    0 -0.64394437206E+02 -0.34557526291E+02  0.54119584454E+03  0.54610788157E+03  0.10000000000E+00 0. -1.
         -5    1    3    3    0  501  0.51946272842E+02  0.12001000949E+02  0.52441019977E+03  0.52711337196E+03  0.10000000000E+00 0. -1.
         21    1    1    2  504  502  0.12448164365E+02  0.22556525343E+02 -0.16509719807E+03  0.16709529748E+03  0.00000000000E+00 0.  1.
<mgrwt>
<rscale>  1 0.12762295E+03</rscale>
<asrwt>0</asrwt>
<pdfrwt beam="1">  1       21 0.16467887E+00 0.12762295E+03</pdfrwt>
<pdfrwt beam="2">  1       21 0.26139055E-01 0.12762295E+03</pdfrwt>
<totfact> 0.34679642E+03</totfact>
</mgrwt>
</event>
<event>
 6    1  0.4244577E-002  0.1347549E+03  0.7546771E-02  0.1220566E+00
         21   -1    0    0  504  502  0.00000000000E+00  0.00000000000E+00  0.13161517981E+03  0.13161517981E+03  0.00000000000E+00 0.  1.
         21   -1    0    0  502  503 -0.00000000000E+00 -0.00000000000E+00 -0.78929076578E+02  0.78929076578E+02  0.00000000000E+00 0.  1.
         25    2    1    2    0    0 -0.32411563866E+02  0.38483468377E+02  0.76417449041E+02  0.15491455583E+03  0.12500962475E+03 0.  0.
          5    1    3    3  501    0  0.35800883681E+02  0.31841427842E+02 -0.53652919486E+01  0.48211784421E+02  0.10000000000E+00 0.  1.
         -5    1    3    3    0  501 -0.68212447547E+02  0.66420405344E+01  0.81782740989E+02  0.10670277141E+03  0.10000000000E+00 0.  1.
         21    1    1    2  504  503  0.32411563866E+02 -0.38483468377E+02 -0.23731345807E+02  0.55629700560E+02  0.00000000000E+00 0.  1.
<mgrwt>
<rscale>  1 0.13475494E+03</rscale>
<asrwt>0</asrwt>
<pdfrwt beam="1">  1       21 0.20248489E-01 0.13475494E+03</pdfrwt>
<pdfrwt beam="2">  1       21 0.12142935E-01 0.13475494E+03</pdfrwt>
<totfact> 0.12946483E+06</totfact>
</mgrwt>
</event>
<event>
 6    1  0.4244577E-002  0.1301785E+03  0.7546771E-02  0.1227191E+00
         21   -1    0    0  503  502  0.00000000000E+00  0.00000000000E+00  0.82622840913E+02  0.82622840913E+02  0.00000000000E+00 0. -1.
         21   -1    0    0  504  503 -0.00000000000E+00 -0.00000000000E+00 -0.14536628479E+03  0.14536628479E+03  0.00000000000E+00 0. -1.
         25    2    1    2    0    0 -0.34773644886E+02  0.10269063562E+02  0.25441317228E+02  0.13264127761E+03  0.12502714848E+03 0.  0.
          5    1    3    3  501    0 -0.43951176983E+02 -0.37242684012E+02 -0.24948802767E+02  0.62778788059E+02  0.10000000000E+00 0. -1.
         -5    1    3    3    0  501  0.91775320966E+01  0.47511747574E+02  0.50390119996E+02  0.69862489549E+02  0.10000000000E+00 0. -1.
         21    1    1    2  504  502  0.34773644886E+02 -0.10269063562E+02 -0.88184761100E+02  0.95347848090E+02  0.00000000000E+00 0. -1.
<mgrwt>
<rscale>  1 0.13017852E+03</rscale>
<asrwt>0</asrwt>
<pdfrwt beam="1">  1       21 0.12711206E-01 0.13017852E+03</pdfrwt>
<pdfrwt beam="2">  1       21 0.22364044E-01 0.13017852E+03</pdfrwt>
<totfact> 0.99165159E+05</totfact>
</mgrwt>
</event>
<event>
 6    1  0.4244577E-002  0.1643651E+03  0.7546771E-02  0.1183855E+00
         21   -1    0    0  503  502  0.00000000000E+00  0.00000000000E+00  0.91019332456E+03  0.91019332456E+03  0.00000000000E+00 0.  1.
         21   -1    0    0  504  503 -0.00000000000E+00 -0.00000000000E+00 -0.79107423001E+02  0.79107423001E+02  0.00000000000E+00 0.  1.
         25    2    1    2    0    0 -0.39305618132E+02  0.99145996978E+02  0.86257573939E+03  0.87809611538E+03  0.12506406884E+03 0.  0.
          5    1    3    3  501    0  0.25565232315E+02 -0.12487032802E+02  0.27688491330E+03  0.27834290417E+03  0.10000000000E+00 0.  1.
         -5    1    3    3    0  501 -0.64870850447E+02  0.11163302978E+03  0.58569082610E+03  0.59975321120E+03  0.10000000000E+00 0.  1.
         21    1    1    2  504  502  0.39305618132E+02 -0.99145996978E+02 -0.31489837831E+02  0.11120463219E+03  0.00000000000E+00 0.  1.
<mgrwt>
<rscale>  1 0.16436509E+03</rscale>
<asrwt>0</asrwt>
<pdfrwt beam="1">  1       21 0.14002973E+00 0.16436509E+03</pdfrwt>
<pdfrwt beam="2">  1       21 0.12170373E-01 0.16436509E+03</pdfrwt>
<totfact> 0.20862582E+04</totfact>
</mgrwt>
</event>
<event>
 6    1  0.4244577E-002  0.1432250E+03  0.7546771E-02  0.1209054E+00
         21   -1    0    0  504  502  0.00000000000E+00  0.00000000000E+00  0.43412196767E+02  0.43412196767E+02  0.00000000000E+00 0.  1.
         21   -1    0    0  502  503 -0.00000000000E+00 -0.00000000000E+00 -0.41223473519E+03  0.41223473519E+03  0.00000000000E+00 0.  1.
         25    2    1    2    0    0  0.51104899887E+02  0.47712555144E+02 -0.92223344605E+02  0.17034829416E+03  0.12500078928E+03 0.  0.
          5    1    3    3  501    0  0.12446042601E+01  0.32886724186E+02 -0.11043502822E+03  0.11523450492E+03  0.10000000000E+00 0.  1.
         -5    1    3    3    0  501  0.49860295627E+02  0.14825830958E+02  0.18211683612E+02  0.55113789233E+02  0.10000000000E+00 0.  1.
         21    1    1    2  504  503 -0.51104899887E+02 -0.47712555144E+02 -0.27659919382E+03  0.28529863781E+03  0.00000000000E+00 0.  1.
<mgrwt>
<rscale>  1 0.14322498E+03</rscale>
<asrwt>0</asrwt>
<pdfrwt beam="1">  1       21 0.66787994E-02 0.14322498E+03</pdfrwt>
<pdfrwt beam="2">  1       21 0.63420730E-01 0.14322498E+03</pdfrwt>
<totfact> 0.38082928E+05</totfact>
</mgrwt>
</event>
<event>
 6    1  0.4244577E-002  0.1261532E+03  0.7546771E-02  0.1233278E+00
         21   -1    0    0  503  502  0.00000000000E+00  0.00000000000E+00  0.19175863585E+03  0.19175863585E+03  0.00000000000E+00 0. -1.
         21   -1    0    0  504  503 -0.00000000000E+00 -0.00000000000E+00 -0.26784011314E+02  0.26784011314E+02  0.00000000000E+00 0. -1.
         25    2    1    2    0    0  0.16997532802E+02 -0.14262714350E+01  0.14814460589E+03  0.19458017861E+03  0.12499468501E+03 0.  0.
          5    1    3    3  501    0  0.36119135807E+02 -0.44186843906E+02  0.13400426829E+03  0.14565103181E+03  0.10000000000E+00 0.  1.
         -5    1    3    3    0  501 -0.19121603005E+02  0.42760572471E+02  0.14140337599E+02  0.48929146804E+02  0.10000000000E+00 0.  1.
         21    1    1    2  504  502 -0.16997532802E+02  0.14262714350E+01  0.16830018646E+02  0.23962468554E+02  0.00000000000E+00 0. -1.
<mgrwt>
<rscale>  1 0.12615317E+03</rscale>
<asrwt>0</asrwt>
<pdfrwt beam="1">  1       21 0.29501328E-01 0.12615317E+03</pdfrwt>
<pdfrwt beam="2">  1       21 0.41206172E-02 0.12615317E+03</pdfrwt>
<totfact> 0.40506836E+06</totfact>
</mgrwt>
</event>
<event>
 6    1  0.4244577E-002  0.1597847E+03  0.7546771E-02  0.1188940E+00
         21   -1    0    0  504  502  0.00000000000E+00  0.00000000000E+00  0.96022283183E+02  0.96022283183E+02  0.00000000000E+00 0. -1.
         21   -1    0    0  502  503 -0.00000000000E+00 -0.00000000000E+00 -0.69412572600E+03  0.69412572600E+03  0.00000000000E+00 0. -1.
         25    2    1    2    0    0 -0.76640840683E+02  0.63506387138E+02  0.22723922122E+02  0.16139249491E+03  0.12499712441E+03 0.  0.
          5    1    3    3  501    0 -0.43824519043E+02  0.52785805351E+02  0.73144783288E+02  0.10028508881E+03  0.10000000000E+00 0. -1.
         -5    1    3    3    0  501 -0.32816321639E+02  0.10720581787E+02 -0.50420861166E+02  0.61107406102E+02  0.10000000000E+00 0. -1.
         21    1    1    2  504  503  0.76640840683E+02 -0.63506387138E+02 -0.62082736494E+03  0.62875551427E+03  0.00000000000E+00 0. -1.
<mgrwt>
<rscale>  1 0.15978473E+03</rscale>
<asrwt>0</asrwt>
<pdfrwt beam="1">  1       21 0.14772659E-01 0.15978473E+03</pdfrwt>
<pdfrwt beam="2">  1       21 0.10678857E+00 0.15978473E+03</pdfrwt>
<totfact> 0.28864967E+04</totfact>
</mgrwt>
</event>
<event>
 6    1  0.4244577E-002  0.1259807E+03  0.7546771E-02  0.1233545E+00
         21   -1    0    0  503  502  0.00000000000E+00  0.00000000000E+00  0.20192595626E+02  0.20192595626E+02  0.00000000000E+00 0.  1.
         21   -1    0    0  504  503 -0.00000000000E+00 -0.00000000000E+00 -0.32570852477E+03  0.32570852477E+03  0.00000000000E+00 0.  1.
         25    2    1    2    0    0  0.15129131505E+02 -0.42051766369E+01 -0.18174943601E+03  0.22114247759E+03  0.12499825509E+03 0.  0.
          5    1    3    3  501    0 -0.24834840201E+02  0.51243303416E+02 -0.94175313123E+02  0.11005291925E+03  0.10000000000E+00 0.  1.
         -5    1    3    3    0  501  0.39963971706E+02 -0.55448480052E+02 -0.87574122883E+02  0.11108955835E+03  0.10000000000E+00 0.  1.
         21    1    1    2  504  502 -0.15129131505E+02  0.42051766369E+01 -0.12376649314E+03  0.12475864281E+03  0.00000000000E+00 0.  1.
<mgrwt>
<rscale>  1 0.12598070E+03</rscale>
<asrwt>0</asrwt>
<pdfrwt beam="1">  1       21 0.31065532E-02 0.12598070E+03</pdfrwt>
<pdfrwt beam="2">  1       21 0.50109004E-01 0.12598070E+03</pdfrwt>
<totfact> 0.22516594E+06</totfact>
</mgrwt>
</event>
<event>
 6    1  0.4244577E-002  0.1260585E+03  0.7546771E-02  0.1233424E+00
         21   -1    0    0  504  502  0.00000000000E+00  0.00000000000E+00  0.53962562956E+01  0.53962562956E+01  0.00000000000E+00 0. -1.
         21   -1    0    0  502  503 -0.00000000000E+00 -0.00000000000E+00 -0.94600732183E+03  0.94600732183E+03  0.00000000000E+00 0. -1.
         25    2    1    2    0    0  0.12057759412E+02 -0.11027205841E+02 -0.80470804436E+03  0.81452180434E+03  0.12499497692E+03 0.  0.
          5    1    3    3  501    0 -0.51301002779E+02  0.83873370589E+01 -0.21937612189E+03  0.22545073334E+03  0.10000000000E+00 0.  1.
         -5    1    3    3    0  501  0.63358762191E+02 -0.19414542900E+02 -0.58533192248E+03  0.58907107100E+03  0.10000000000E+00 0.  1.
         21    1    1    2  504  503 -0.12057759412E+02  0.11027205841E+02 -0.13590302117E+03  0.13688177378E+03  0.00000000000E+00 0.  1.
<mgrwt>
<rscale>  1 0.12605845E+03</rscale>
<asrwt>0</asrwt>
<pdfrwt beam="1">  1       21 0.83019253E-03 0.12605845E+03</pdfrwt>
<pdfrwt beam="2">  1       21 0.14553972E+00 0.12605845E+03</pdfrwt>
<totfact> 0.16407325E+06</totfact>
</mgrwt>
</event>
<event>
 6    1  0.4244577E-002  0.1363576E+03  0.7546771E-02  0.1218316E+00
         21   -1    0    0  503  502  0.00000000000E+00  0.00000000000E+00  0.43551122405E+02  0.43551122405E+02  0.00000000000E+00 0. -1.
         21   -1    0    0  504  503 -0.00000000000E+00 -0.00000000000E+00 -0.23882234940E+03  0.23882234940E+03  0.00000000000E+00 0. -1.
         25    2    1    2    0    0 -0.48869727090E+01 -0.54264921237E+02 -0.88660688229E+02  0.16264723761E+03  0.12499936834E+03 0.  0.
          5    1    3    3  501    0 -0.40591374307E+02  0.51820052792E+00 -0.88378087145E+02  0.97255459935E+02  0.10000000000E+00 0.  1.
         -5    1    3    3    0  501  0.35704401598E+02 -0.54783121765E+02 -0.28260108399E+00  0.65391777672E+02  0.10000000000E+00 0.  1.
         21    1    1    2  504  502  0.48869727090E+01  0.54264921237E+02 -0.10661053877E+03  0.11972623420E+03  0.00000000000E+00 0. -1.
<mgrwt>
<rscale>  1 0.13635764E+03</rscale>
<asrwt>0</asrwt>
<pdfrwt beam="1">  1       21 0.67001727E-02 0.13635764E+03</pdfrwt>
<pdfrwt beam="2">  1       21 0.36741900E-01 0.13635764E+03</pdfrwt>
<totfact> 0.11661236E+06</totfact>
</mgrwt>
</event>
<event>
 6    1  0.4244577E-002  0.1555759E+03  0.7546771E-02  0.1193784E+00
         21   -1    0    0  504  502  0.00000000000E+00  0.00000000000E+00  0.97512105913E+03  0.97512105913E+03  0.00000000000E+00 0.  1.
         21   -1    0    0  502  503 -0.00000000000E+00 -0.00000000000E+00 -0.49634666041E+02  0.49634666041E+02  0.00000000000E+00 0.  1.
         25    2    1    2    0    0 -0.79579390811E+02  0.47389111918E+02  0.91881700926E+03  0.93189514122E+03  0.12500100145E+03 0.  0.
          5    1    3    3  501    0 -0.76706578129E+01 -0.22118084709E+02  0.52686773877E+03  0.52738759259E+03  0.10000000000E+00 0. -1.
         -5    1    3    3    0  501 -0.71908732998E+02  0.69507196626E+02  0.39194927049E+03  0.40450754863E+03  0.10000000000E+00 0. -1.
         21    1    1    2  504  503  0.79579390811E+02 -0.47389111918E+02  0.66693838299E+01  0.92860583946E+02  0.00000000000E+00 0.  1.
<mgrwt>
<rscale>  1 0.15557589E+03</rscale>
<asrwt>0</asrwt>
<pdfrwt beam="1">  1       21 0.15001861E+00 0.15557589E+03</pdfrwt>
<pdfrwt beam="2">  1       21 0.76361032E-02 0.15557589E+03</pdfrwt>
<totfact> 0.39780281E+04</totfact>
</mgrwt>
</event>
<event>
 6    1  0.4244577E-002  0.1263605E+03  0.7546771E-02  0.1232958E+00
         21   -1    0    0  503  502  0.00000000000E+00  0.00000000000E+00  0.19699396540E+03  0.19699396540E+03  0.00000000000E+00 0.  1.
         21   -1    0    0  504  503 -0.00000000000E+00 -0.00000000000E+00 -0.33907081360E+02  0.33907081360E+02  0.00000000000E+00 0.  1.
         25    2    1    2    0    0 -0.42328440985E+01 -0.17997757189E+02  0.16942406773E+03  0.21135632548E+03  0.12500058144E+03 0.  0.
          5    1    3    3  501    0 -0.51897644268E+02 -0.96162669319E+01  0.23796333492E+02  0.57897439994E+02  0.10000000000E+00 0.  1.
         -5    1    3    3    0  501  0.47664800169E+02 -0.83814902566E+01  0.14562773424E+03  0.15345888548E+03  0.10000000000E+00 0.  1.
         21    1    1    2  504  502  0.42328440985E+01  0.17997757189E+02 -0.63371836890E+01  0.19544721284E+02  0.00000000000E+00 0.  1.
<mgrwt>
<rscale>  1 0.12636052E+03</rscale>
<asrwt>0</asrwt>
<pdfrwt beam="1">  1       21 0.30306763E-01 0.12636052E+03</pdfrwt>
<pdfrwt beam="2">  1       21 0.52164742E-02 0.12636052E+03</pdfrwt>
<totfact> 0.25925787E+06</totfact>
</mgrwt>
</event>
<event>
 6    1  0.4244577E-002  0.1314981E+03  0.7546771E-02  0.1225250E+00
         21   -1    0    0  503  502  0.00000000000E+00  0.00000000000E+00  0.51764440553E+02  0.51764440553E+02  0.00000000000E+00 0. -1.
         21   -1    0    0  504  503 -0.00000000000E+00 -0.00000000000E+00 -0.14553154683E+03  0.14553154683E+03  0.00000000000E+00 0. -1.
         25    2    1    2    0    0  0.16138331204E+02 -0.37498067360E+02 -0.61043833153E+02  0.14497616902E+03  0.12500075691E+03 0.  0.
          5    1    3    3  501    0 -0.10161889736E+00 -0.73221201768E+02 -0.97778395874E+00  0.73227868849E+02  0.10000000000E+00 0.  1.
         -5    1    3    3    0  501  0.16239950101E+02  0.35723134408E+02 -0.60066049194E+02  0.71748300168E+02  0.10000000000E+00 0.  1.
         21    1    1    2  504  502 -0.16138331204E+02  0.37498067360E+02 -0.32723273121E+02  0.52319818363E+02  0.00000000000E+00 0. -1.
<mgrwt>
<rscale>  1 0.13149806E+03</rscale>
<asrwt>0</asrwt>
<pdfrwt beam="1">  1       21 0.79637602E-02 0.13149806E+03</pdfrwt>
<pdfrwt beam="2">  1       21 0.22389468E-01 0.13149806E+03</pdfrwt>
<totfact> 0.22444374E+06</totfact>
</mgrwt>
</event>
<event>
 6    1  0.4244577E-002  0.2193256E+03  0.7546771E-02  0.1134387E+00
         21   -1    0    0  503  502  0.00000000000E+00  0.00000000000E+00  0.29256094910E+03  0.29256094910E+03  0.00000000000E+00 0. -1.
         21   -1    0    0  504  503 -0.00000000000E+00 -0.00000000000E+00 -0.14438444684E+03  0.14438444684E+03  0.00000000000E+00 0. -1.
         25    2    1    2    0    0  0.84082450100E+02  0.15939931448E+03  0.29831803638E+02  0.22134514649E+03  0.12500294995E+03 0.  0.
          5    1    3    3  501    0  0.11479814595E+03  0.99177894726E+02  0.21896333374E+02  0.15327859776E+03  0.10000000000E+00 0.  1.
         -5    1    3    3    0  501 -0.30715695845E+02  0.60221419751E+02  0.79354702647E+01  0.68066548733E+02  0.10000000000E+00 0.  1.
         21    1    1    2  504  502 -0.84082450100E+02 -0.15939931448E+03  0.11834469862E+03  0.21560024945E+03  0.00000000000E+00 0. -1.
<mgrwt>
<rscale>  1 0.21932564E+03</rscale>
<asrwt>0</asrwt>
<pdfrwt beam="1">  1       21 0.45009377E-01 0.21932564E+03</pdfrwt>
<pdfrwt beam="2">  1       21 0.22212992E-01 0.21932564E+03</pdfrwt>
<totfact> 0.88814856E+04</totfact>
</mgrwt>
</event>
<event>
 6    1  0.4244577E-002  0.1344939E+03  0.7546771E-02  0.1220936E+00
         21   -1    0    0  503  502  0.00000000000E+00  0.00000000000E+00  0.17012034384E+02  0.17012034384E+02  0.00000000000E+00 0. -1.
         21   -1    0    0  504  503 -0.00000000000E+00 -0.00000000000E+00 -0.62125015954E+03  0.62125015954E+03  0.00000000000E+00 0. -1.
         25    2    1    2    0    0  0.45298484914E+02 -0.20285800501E+02 -0.28442686727E+03  0.31462241406E+03  0.12500061667E+03 0.  0.
          5    1    3    3  501    0  0.44963741837E+02 -0.15614649164E+02 -0.29721561579E+03  0.30100280333E+03  0.10000000000E+00 0.  1.
         -5    1    3    3    0  501  0.33474307704E+00 -0.46711513373E+01  0.12788748517E+02  0.13619610727E+02  0.10000000000E+00 0.  1.
         21    1    1    2  504  502 -0.45298484914E+02  0.20285800501E+02 -0.31981125789E+03  0.32363977986E+03  0.00000000000E+00 0. -1.
<mgrwt>
<rscale>  1 0.13449394E+03</rscale>
<asrwt>0</asrwt>
<pdfrwt beam="1">  1       21 0.26172364E-02 0.13449394E+03</pdfrwt>
<pdfrwt beam="2">  1       21 0.95576937E-01 0.13449394E+03</pdfrwt>
<totfact> 0.72942596E+05</totfact>
</mgrwt>
</event>
<event>
 6    1  0.4244577E-002  0.1259086E+03  0.7546771E-02  0.1233656E+00
         21   -1    0    0  504  502  0.00000000000E+00  0.00000000000E+00  0.38468065967E+03  0.38468065967E+03  0.00000000000E+00 0.  1.
         21   -1    0    0  502  503 -0.00000000000E+00 -0.00000000000E+00 -0.13108635123E+02  0.13108635123E+02  0.00000000000E+00 0.  1.
         25    2    1    2    0    0 -0.14657800538E+02 -0.39827127342E+01  0.34387462556E+03  0.36620038807E+03  0.12498901152E+03 0.  0.
          5    1    3    3  501    0 -0.16543963890E+02  0.19711842402E+02  0.46589399061E+01  0.26152919399E+02  0.10000000000E+00 0. -1.
         -5    1    3    3    0  501  0.18861633514E+01 -0.23694555136E+02  0.33921568565E+03  0.34004746867E+03  0.10000000000E+00 0. -1.
         21    1    1    2  504  503  0.14657800538E+02  0.39827127342E+01  0.27697398983E+02  0.31588906720E+02  0.00000000000E+00 0. -1.
<mgrwt>
<rscale>  1 0.12590856E+03</rscale>
<asrwt>0</asrwt>
<pdfrwt beam="1">  1       21 0.59181631E-01 0.12590856E+03</pdfrwt>
<pdfrwt beam="2">  1       21 0.20167134E-02 0.12590856E+03</pdfrwt>
<totfact> 0.32122003E+06</totfact>
</mgrwt>
</event>
<event>
 6    1  0.4244577E-002  0.1269998E+03  0.7546771E-02  0.1231977E+00
         21   -1    0    0  503  502  0.00000000000E+00  0.00000000000E+00  0.16364183792E+03  0.16364183792E+03  0.00000000000E+00 0.  1.
         21   -1    0    0  504  503 -0.00000000000E+00 -0.00000000000E+00 -0.54018035664E+02  0.54018035664E+02  0.00000000000E+00 0.  1.
         25    2    1    2    0    0 -0.12171396517E+02 -0.18947619717E+02  0.13389868072E+03  0.18454756605E+03  0.12498716835E+03 0.  0.
          5    1    3    3  501    0 -0.40311572238E+02  0.16853326082E+02  0.13192053325E+03  0.13896796231E+03  0.10000000000E+00 0.  1.
         -5    1    3    3    0  501  0.28140175721E+02 -0.35800945799E+02  0.19781474710E+01  0.45579603740E+02  0.10000000000E+00 0.  1.
         21    1    1    2  504  502  0.12171396517E+02  0.18947619717E+02 -0.24274878460E+02  0.33112307536E+02  0.00000000000E+00 0.  1.
<mgrwt>
<rscale>  1 0.12699979E+03</rscale>
<asrwt>0</asrwt>
<pdfrwt beam="1">  1       21 0.25175667E-01 0.12699979E+03</pdfrwt>
<pdfrwt beam="2">  1       21 0.83104671E-02 0.12699979E+03</pdfrwt>
<totfact> 0.16710686E+06</totfact>
</mgrwt>
</event>
<event>
 6    1  0.4244577E-002  0.1377373E+03  0.7546771E-02  0.1216406E+00
         21   -1    0    0  503  502  0.00000000000E+00  0.00000000000E+00  0.61535372211E+02  0.61535372211E+02  0.00000000000E+00 0. -1.
         21   -1    0    0  504  503 -0.00000000000E+00 -0.00000000000E+00 -0.23389944007E+03  0.23389944007E+03  0.00000000000E+00 0. -1.
         25    2    1    2    0    0 -0.51193435750E+02  0.26864608587E+02 -0.28868099773E+02  0.14073003564E+03  0.12501640168E+03 0.  0.
          5    1    3    3  501    0  0.36357534869E+02 -0.17113899562E+01 -0.32166286509E+02  0.48574470508E+02  0.10000000000E+00 0.  1.
         -5    1    3    3    0  501 -0.87550970619E+02  0.28575998543E+02  0.32981867364E+01  0.92155565132E+02  0.10000000000E+00 0.  1.
         21    1    1    2  504  502  0.51193435750E+02 -0.26864608587E+02 -0.14349596809E+03  0.15470477664E+03  0.00000000000E+00 0. -1.
<mgrwt>
<rscale>  1 0.13773734E+03</rscale>
<asrwt>0</asrwt>
<pdfrwt beam="1">  1       21 0.94669802E-02 0.13773734E+03</pdfrwt>
<pdfrwt beam="2">  1       21 0.35984530E-01 0.13773734E+03</pdfrwt>
<totfact> 0.66899910E+05</totfact>
</mgrwt>
</event>
<event>
 6    1  0.4244577E-002  0.1286582E+03  0.7546771E-02  0.1229460E+00
         21   -1    0    0  504  502  0.00000000000E+00  0.00000000000E+00  0.67249037415E+03  0.67249037415E+03  0.00000000000E+00 0.  1.
         21   -1    0    0  502  503 -0.00000000000E+00 -0.00000000000E+00 -0.99693098904E+02  0.99693098904E+02  0.00000000000E+00 0.  1.
         25    2    1    2    0    0  0.26791712357E+02 -0.14465201843E+02  0.66383574870E+03  0.67618846503E+03  0.12500360426E+03 0.  0.
          5    1    3    3  501    0  0.54727244492E+02  0.22301665842E+02  0.16581128286E+03  0.17602791572E+03  0.10000000000E+00 0. -1.
         -5    1    3    3    0  501 -0.27935532135E+02 -0.36766867685E+02  0.49802446584E+03  0.50016054932E+03  0.10000000000E+00 0. -1.
         21    1    1    2  504  503 -0.26791712357E+02  0.14465201843E+02 -0.91038473456E+02  0.95995008019E+02  0.00000000000E+00 0.  1.
<mgrwt>
<rscale>  1 0.12865823E+03</rscale>
<asrwt>0</asrwt>
<pdfrwt beam="1">  1       21 0.10346005E+00 0.12865823E+03</pdfrwt>
<pdfrwt beam="2">  1       21 0.15337400E-01 0.12865823E+03</pdfrwt>
<totfact> 0.29665836E+04</totfact>
</mgrwt>
</event>
<event>
 6    1  0.4244577E-002  0.1259627E+03  0.7546771E-02  0.1233572E+00
         21   -1    0    0  504  502  0.00000000000E+00  0.00000000000E+00  0.45180533667E+03  0.45180533667E+03  0.00000000000E+00 0.  1.
         21   -1    0    0  502  503 -0.00000000000E+00 -0.00000000000E+00 -0.11219232550E+02  0.11219232550E+02  0.00000000000E+00 0.  1.
         25    2    1    2    0    0  0.51357832994E+01  0.14661855097E+02  0.40641764815E+03  0.42549018966E+03  0.12500100204E+03 0.  0.
          5    1    3    3  501    0  0.14203423943E+02  0.45836984232E+02  0.38164848772E+03  0.38465353834E+03  0.10000000000E+00 0. -1.
         -5    1    3    3    0  501 -0.90676406435E+01 -0.31175129135E+02  0.24769160422E+02  0.40836651325E+02  0.10000000000E+00 0. -1.
         21    1    1    2  504  503 -0.51357832994E+01 -0.14661855097E+02  0.34168455977E+02  0.37534379559E+02  0.00000000000E+00 0. -1.
<mgrwt>
<rscale>  1 0.12596268E+03</rscale>
<asrwt>0</asrwt>
<pdfrwt beam="1">  1       21 0.69508499E-01 0.12596268E+03</pdfrwt>
<pdfrwt beam="2">  1       21 0.17260361E-02 0.12596268E+03</pdfrwt>
<totfact> 0.29214567E+06</totfact>
</mgrwt>
</event>
<event>
 6    1  0.4244577E-002  0.1479732E+03  0.7546771E-02  0.1202986E+00
         21   -1    0    0  504  502  0.00000000000E+00  0.00000000000E+00  0.20815404572E+02  0.20815404572E+02  0.00000000000E+00 0. -1.
         21   -1    0    0  502  503 -0.00000000000E+00 -0.00000000000E+00 -0.61982923969E+03  0.61982923969E+03  0.00000000000E+00 0. -1.
         25    2    1    2    0    0  0.67889543361E+02 -0.40766815446E+02 -0.39327117276E+03  0.42018837547E+03  0.12500052884E+03 0.  0.
          5    1    3    3  501    0  0.40319374839E+02 -0.82339760131E+02 -0.30843721719E+03  0.32177478931E+03  0.10000000000E+00 0.  1.
         -5    1    3    3    0  501  0.27570168522E+02  0.41572944685E+02 -0.84833955571E+02  0.98413586155E+02  0.10000000000E+00 0.  1.
         21    1    1    2  504  503 -0.67889543361E+02  0.40766815446E+02 -0.20574266235E+03  0.22045626880E+03  0.00000000000E+00 0. -1.
<mgrwt>
<rscale>  1 0.14797316E+03</rscale>
<asrwt>0</asrwt>
<pdfrwt beam="1">  1       21 0.32023695E-02 0.14797316E+03</pdfrwt>
<pdfrwt beam="2">  1       21 0.95358359E-01 0.14797316E+03</pdfrwt>
<totfact> 0.52583206E+05</totfact>
</mgrwt>
</event>
<event>
 6    1  0.4244577E-002  0.1263619E+03  0.7546771E-02  0.1232956E+00
         21   -1    0    0  503  502  0.00000000000E+00  0.00000000000E+00  0.11771318227E+03  0.11771318227E+03  0.00000000000E+00 0. -1.
         21   -1    0    0  504  503 -0.00000000000E+00 -0.00000000000E+00 -0.44570764076E+02  0.44570764076E+02  0.00000000000E+00 0. -1.
         25    2    1    2    0    0 -0.40419505453E+01  0.18054273753E+02  0.64164895424E+02  0.14171965496E+03  0.12500013053E+03 0.  0.
          5    1    3    3  501    0  0.84866845485E+01  0.66563436870E+02  0.62330513275E+02  0.91585030588E+02  0.10000000000E+00 0. -1.
         -5    1    3    3    0  501 -0.12528635094E+02 -0.48509163116E+02  0.18343821486E+01  0.50134624377E+02  0.10000000000E+00 0. -1.
         21    1    1    2  504  502  0.40419505453E+01 -0.18054273753E+02  0.89775227730E+01  0.20564291384E+02  0.00000000000E+00 0. -1.
<mgrwt>
<rscale>  1 0.12636189E+03</rscale>
<asrwt>0</asrwt>
<pdfrwt beam="1">  1       21 0.18109720E-01 0.12636189E+03</pdfrwt>
<pdfrwt beam="2">  1       21 0.68570407E-02 0.12636189E+03</pdfrwt>
<totfact> 0.42893060E+06</totfact>
</mgrwt>
</event>
<event>
 6    1  0.4244577E-002  0.1365327E+03  0.7546771E-02  0.1218072E+00
         21   -1    0    0  503  502  0.00000000000E+00  0.00000000000E+00  0.11624042880E+04  0.11624042880E+04  0.00000000000E+00 0. -1.
         21   -1    0    0  504  503 -0.00000000000E+00 -0.00000000000E+00 -0.12518092228E+02  0.12518092228E+02  0.00000000000E+00 0. -1.
         25    2    1    2    0    0 -0.54298945513E+02  0.81676491488E+01  0.10657083723E+04  0.10744186890E+04  0.12500439441E+03 0.  0.
          5    1    3    3  501    0  0.18394603072E+02 -0.43434978102E+02  0.39803655355E+03  0.40082173931E+03  0.10000000000E+00 0. -1.
         -5    1    3    3    0  501 -0.72693548585E+02  0.51602627251E+02  0.66767181871E+03  0.67359694970E+03  0.10000000000E+00 0. -1.
         21    1    1    2  504  502  0.54298945513E+02 -0.81676491488E+01  0.84177823516E+02  0.10050369122E+03  0.00000000000E+00 0. -1.
<mgrwt>
<rscale>  1 0.13653272E+03</rscale>
<asrwt>0</asrwt>
<pdfrwt beam="1">  1       21 0.17883134E+00 0.13653272E+03</pdfrwt>
<pdfrwt beam="2">  1       21 0.19258613E-02 0.13653272E+03</pdfrwt>
<totfact> 0.24852686E+05</totfact>
</mgrwt>
</event>
<event>
 6    1  0.4244577E-002  0.1367226E+03  0.7546771E-02  0.1217808E+00
         21   -1    0    0  503  502  0.00000000000E+00  0.00000000000E+00  0.10049485518E+03  0.10049485518E+03  0.00000000000E+00 0. -1.
         21   -1    0    0  504  503 -0.00000000000E+00 -0.00000000000E+00 -0.10203963084E+03  0.10203963084E+03  0.00000000000E+00 0. -1.
         25    2    1    2    0    0  0.48114509468E+02  0.27450741067E+02 -0.30420054599E+02  0.14006584637E+03  0.12499804954E+03 0.  0.
          5    1    3    3  501    0  0.15046770632E+02 -0.42016466630E+02 -0.43156125577E+02  0.62082605852E+02  0.10000000000E+00 0. -1.
         -5    1    3    3    0  501  0.33067738835E+02  0.69467207697E+02  0.12736070978E+02  0.77983240513E+02  0.10000000000E+00 0. -1.
         21    1    1    2  504  502 -0.48114509468E+02 -0.27450741067E+02  0.28875278944E+02  0.62468639656E+02  0.00000000000E+00 0. -1.
<mgrwt>
<rscale>  1 0.13672257E+03</rscale>
<asrwt>0</asrwt>
<pdfrwt beam="1">  1       21 0.15460747E-01 0.13672257E+03</pdfrwt>
<pdfrwt beam="2">  1       21 0.15698405E-01 0.13672257E+03</pdfrwt>
<totfact> 0.13387577E+06</totfact>
</mgrwt>
</event>
<event>
 6    1  0.4244577E-002  0.1259595E+03  0.7546771E-02  0.1233577E+00
         21   -1    0    0  504  502  0.00000000000E+00  0.00000000000E+00  0.78183905751E+02  0.78183905751E+02  0.00000000000E+00 0. -1.
         21   -1    0    0  502  503 -0.00000000000E+00 -0.00000000000E+00 -0.69659456798E+02  0.69659456798E+02  0.00000000000E+00 0. -1.
         25    2    1    2    0    0 -0.46024113821E+01 -0.14790001734E+02  0.21321514658E+02  0.12775129366E+03  0.12500343876E+03 0.  0.
          5    1    3    3  501    0  0.11713115459E+02 -0.59026812468E+02  0.44854178922E+02  0.75055106626E+02  0.10000000000E+00 0. -1.
         -5    1    3    3    0  501 -0.16315526841E+02  0.44236810734E+02 -0.23532664264E+02  0.52696187029E+02  0.10000000000E+00 0. -1.
         21    1    1    2  504  503  0.46024113821E+01  0.14790001734E+02 -0.12797065705E+02  0.20092068894E+02  0.00000000000E+00 0.  1.
<mgrwt>
<rscale>  1 0.12595946E+03</rscale>
<asrwt>0</asrwt>
<pdfrwt beam="1">  1       21 0.12028293E-01 0.12595946E+03</pdfrwt>
<pdfrwt beam="2">  1       21 0.10716840E-01 0.12595946E+03</pdfrwt>
<totfact> 0.41344966E+06</totfact>
</mgrwt>
</event>
<event>
 6    1  0.4244577E-002  0.1283114E+03  0.7546771E-02  0.1229983E+00
         21   -1    0    0  503  502  0.00000000000E+00  0.00000000000E+00  0.43033776055E+02  0.43033776055E+02  0.00000000000E+00 0.  1.
         21   -1    0    0  504  503 -0.00000000000E+00 -0.00000000000E+00 -0.40233987399E+03  0.40233987399E+03  0.00000000000E+00 0.  1.
         25    2    1    2    0    0 -0.16799154902E+02 -0.23592008023E+02 -0.54850276179E+02  0.13954339999E+03  0.12500005294E+03 0.  0.
          5    1    3    3  501    0 -0.13131415610E+02 -0.69831617914E+02 -0.46702236844E+01  0.71208917459E+02  0.10000000000E+00 0. -1.
         -5    1    3    3    0  501 -0.36677392922E+01  0.46239609891E+02 -0.50180052495E+02  0.68334482531E+02  0.10000000000E+00 0. -1.
         21    1    1    2  504  502  0.16799154902E+02  0.23592008023E+02 -0.30445582176E+03  0.30583025006E+03  0.00000000000E+00 0.  1.
<mgrwt>
<rscale>  1 0.12831137E+03</rscale>
<asrwt>0</asrwt>
<pdfrwt beam="1">  1       21 0.66205811E-02 0.12831137E+03</pdfrwt>
<pdfrwt beam="2">  1       21 0.61898441E-01 0.12831137E+03</pdfrwt>
<totfact> 0.40812527E+05</totfact>
</mgrwt>
</event>
<event>
 6    1  0.4244577E-002  0.1472551E+03  0.7546771E-02  0.1203887E+00
         21   -1    0    0  504  502  0.00000000000E+00  0.00000000000E+00  0.15913521457E+02  0.15913521457E+02  0.00000000000E+00 0.  1.
         21   -1    0    0  502  503 -0.00000000000E+00 -0.00000000000E+00 -0.10025083500E+04  0.10025083500E+04  0.00000000000E+00 0.  1.
         25    2    1    2    0    0  0.40696317325E+02 -0.66350069986E+02 -0.39185206812E+03  0.41860733920E+03  0.12500215643E+03 0.  0.
          5    1    3    3  501    0  0.23934966321E+02  0.28667984485E+02 -0.20437253623E+03  0.20775677970E+03  0.10000000000E+00 0. -1.
         -5    1    3    3    0  501  0.16761351004E+02 -0.95018054471E+02 -0.18747953189E+03  0.21085055950E+03  0.10000000000E+00 0. -1.
         21    1    1    2  504  503 -0.40696317325E+02  0.66350069986E+02 -0.59474276044E+03  0.59981453227E+03  0.00000000000E+00 0.  1.
<mgrwt>
<rscale>  1 0.14725509E+03</rscale>
<asrwt>0</asrwt>
<pdfrwt beam="1">  1       21 0.24482334E-02 0.14725509E+03</pdfrwt>
<pdfrwt beam="2">  1       21 0.15423210E+00 0.14725509E+03</pdfrwt>
<totfact> 0.24987819E+05</totfact>
</mgrwt>
</event>
<event>
 6    1  0.4244577E-002  0.1358642E+03  0.7546771E-02  0.1219005E+00
         21   -1    0    0  503  502  0.00000000000E+00  0.00000000000E+00  0.27903344428E+02  0.27903344428E+02  0.00000000000E+00 0. -1.
         21   -1    0    0  504  503 -0.00000000000E+00 -0.00000000000E+00 -0.32175728089E+03  0.32175728089E+03  0.00000000000E+00 0. -1.
         25    2    1    2    0    0  0.42357826170E+02 -0.32247446178E+02 -0.20056746159E+03  0.24225275960E+03  0.12500003866E+03 0.  0.
          5    1    3    3  501    0 -0.40274945805E+02  0.11164461624E+02 -0.50851925573E+02  0.65822828847E+02  0.10000000000E+00 0.  1.
         -5    1    3    3    0  501  0.82632771974E+02 -0.43411907802E+02 -0.14971553601E+03  0.17642993076E+03  0.10000000000E+00 0.  1.
         21    1    1    2  504  502 -0.42357826170E+02  0.32247446178E+02 -0.93286474877E+02  0.10740786572E+03  0.00000000000E+00 0. -1.
<mgrwt>
<rscale>  1 0.13586424E+03</rscale>
<asrwt>0</asrwt>
<pdfrwt beam="1">  1       21 0.42928220E-02 0.13586424E+03</pdfrwt>
<pdfrwt beam="2">  1       21 0.49501123E-01 0.13586424E+03</pdfrwt>
<totfact> 0.13539769E+06</totfact>
</mgrwt>
</event>
<event>
 6    1  0.4244577E-002  0.1339155E+03  0.7546771E-02  0.1221759E+00
         21   -1    0    0  503  502  0.00000000000E+00  0.00000000000E+00  0.29852550477E+02  0.29852550477E+02  0.00000000000E+00 0.  1.
         21   -1    0    0  504  503 -0.00000000000E+00 -0.00000000000E+00 -0.76956253184E+03  0.76956253184E+03  0.00000000000E+00 0.  1.
         25    2    1    2    0    0  0.99430013990E+01  0.46997019428E+02 -0.12614533334E+03  0.18397283449E+03  0.12500310234E+03 0.  0.
          5    1    3    3  501    0 -0.33901224096E+02 -0.25476960020E+02 -0.16697401007E+02  0.45576108736E+02  0.10000000000E+00 0.  1.
         -5    1    3    3    0  501  0.43844225495E+02  0.72473979448E+02 -0.10944793234E+03  0.13839672575E+03  0.10000000000E+00 0.  1.
         21    1    1    2  504  502 -0.99430013990E+01 -0.46997019428E+02 -0.61356464802E+03  0.61544224783E+03  0.00000000000E+00 0.  1.
<mgrwt>
<rscale>  1 0.13391549E+03</rscale>
<asrwt>0</asrwt>
<pdfrwt beam="1">  1       21 0.45927002E-02 0.13391549E+03</pdfrwt>
<pdfrwt beam="2">  1       21 0.11839423E+00 0.13391549E+03</pdfrwt>
<totfact> 0.17325635E+05</totfact>
</mgrwt>
</event>
<event>
 6    1  0.4244577E-002  0.1271792E+03  0.7546771E-02  0.1231702E+00
         21   -1    0    0  503  502  0.00000000000E+00  0.00000000000E+00  0.13573777286E+03  0.13573777286E+03  0.00000000000E+00 0. -1.
         21   -1    0    0  504  503 -0.00000000000E+00 -0.00000000000E+00 -0.44230927761E+02  0.44230927761E+02  0.00000000000E+00 0. -1.
         25    2    1    2    0    0 -0.15702142596E+02 -0.17399652010E+02  0.91252982370E+02  0.15653006545E+03  0.12500099770E+03 0.  0.
          5    1    3    3  501    0 -0.46758060843E+02 -0.27199300063E+02  0.10734596841E+03  0.12020517922E+03  0.10000000000E+00 0.  1.
         -5    1    3    3    0  501  0.31055918248E+02  0.97996480524E+01 -0.16092986039E+02  0.36324886233E+02  0.10000000000E+00 0.  1.
         21    1    1    2  504  502  0.15702142596E+02  0.17399652010E+02  0.25386272767E+00  0.23438635166E+02  0.00000000000E+00 0.  1.
<mgrwt>
<rscale>  1 0.12717922E+03</rscale>
<asrwt>0</asrwt>
<pdfrwt beam="1">  1       21 0.20882734E-01 0.12717922E+03</pdfrwt>
<pdfrwt beam="2">  1       21 0.68047582E-02 0.12717922E+03</pdfrwt>
<totfact> 0.33430313E+06</totfact>
</mgrwt>
</event>
<event>
 6    1  0.4244577E-002  0.1261918E+03  0.7546771E-02  0.1233218E+00
         21   -1    0    0  503  502  0.00000000000E+00  0.00000000000E+00  0.14474571270E+03  0.14474571270E+03  0.00000000000E+00 0.  1.
         21   -1    0    0  504  503 -0.00000000000E+00 -0.00000000000E+00 -0.19134786891E+03  0.19134786891E+03  0.00000000000E+00 0.  1.
         25    2    1    2    0    0  0.14789798753E+02  0.89912303069E+01  0.11669713210E+03  0.17187958121E+03  0.12499915770E+03 0.  0.
          5    1    3    3  501    0 -0.13121827943E+02 -0.54805400264E+02  0.57051458561E+02  0.80191602993E+02  0.10000000000E+00 0. -1.
         -5    1    3    3    0  501  0.27911626696E+02  0.63796630571E+02  0.59645673538E+02  0.91687978213E+02  0.10000000000E+00 0. -1.
         21    1    1    2  504  502 -0.14789798753E+02 -0.89912303069E+01 -0.16329928831E+03  0.16421400041E+03  0.00000000000E+00 0.  1.
<mgrwt>
<rscale>  1 0.12619180E+03</rscale>
<asrwt>0</asrwt>
<pdfrwt beam="1">  1       21 0.22268571E-01 0.12619180E+03</pdfrwt>
<pdfrwt beam="2">  1       21 0.29438134E-01 0.12619180E+03</pdfrwt>
<totfact> 0.21225254E+05</totfact>
</mgrwt>
</event>
<event>
 6    1  0.4244577E-002  0.1278318E+03  0.7546771E-02  0.1230709E+00
         21   -1    0    0  503  502  0.00000000000E+00  0.00000000000E+00  0.15412417096E+03  0.15412417096E+03  0.00000000000E+00 0. -1.
         21   -1    0    0  504  503 -0.00000000000E+00 -0.00000000000E+00 -0.48021286262E+02  0.48021286262E+02  0.00000000000E+00 0. -1.
         25    2    1    2    0    0 -0.24051080269E+02 -0.11725678392E+02  0.11696466529E+03  0.17326771020E+03  0.12500008191E+03 0.  0.
          5    1    3    3  501    0 -0.36219383355E+02 -0.24259393739E+02 -0.10313210997E+02  0.44796587329E+02  0.10000000000E+00 0. -1.
         -5    1    3    3    0  501  0.12168303086E+02  0.12533715348E+02  0.12727787628E+03  0.12847112287E+03  0.10000000000E+00 0. -1.
         21    1    1    2  504  502  0.24051080269E+02  0.11725678392E+02 -0.10861780585E+02  0.28877747027E+02  0.00000000000E+00 0.  1.
<mgrwt>
<rscale>  1 0.12783179E+03</rscale>
<asrwt>0</asrwt>
<pdfrwt beam="1">  1       21 0.23711411E-01 0.12783179E+03</pdfrwt>
<pdfrwt beam="2">  1       21 0.73878903E-02 0.12783179E+03</pdfrwt>
<totfact> 0.22913436E+06</totfact>
</mgrwt>
</event>
<event>
 6    1  0.4244577E-002  0.1539754E+03  0.7546771E-02  0.1195671E+00
         21   -1    0    0  504  502  0.00000000000E+00  0.00000000000E+00  0.13283113834E+02  0.13283113834E+02  0.00000000000E+00 0.  1.
         21   -1    0    0  502  503 -0.00000000000E+00 -0.00000000000E+00 -0.12303200304E+04  0.12303200304E+04  0.00000000000E+00 0.  1.
         25    2    1    2    0    0 -0.64879638639E+02 -0.62229542896E+02 -0.57321562438E+03  0.59353565559E+03  0.12500615546E+03 0.  0.
          5    1    3    3  501    0 -0.73340724894E+02 -0.92457445164E+02 -0.50240366529E+03  0.51607818593E+03  0.10000000000E+00 0.  1.
         -5    1    3    3    0  501  0.84610862553E+01  0.30227902268E+02 -0.70811959086E+02  0.77457469658E+02  0.10000000000E+00 0.  1.
         21    1    1    2  504  503  0.64879638639E+02  0.62229542896E+02 -0.64382129214E+03  0.65006748860E+03  0.00000000000E+00 0.  1.
<mgrwt>
<rscale>  1 0.15397540E+03</rscale>
<asrwt>0</asrwt>
<pdfrwt beam="1">  1       21 0.20435560E-02 0.15397540E+03</pdfrwt>
<pdfrwt beam="2">  1       21 0.18928000E+00 0.15397540E+03</pdfrwt>
<totfact> 0.19099743E+05</totfact>
</mgrwt>
</event>
<event>
 6    1  0.4244577E-002  0.1275987E+03  0.7546771E-02  0.1231063E+00
         21   -1    0    0  504  502  0.00000000000E+00  0.00000000000E+00  0.63526019318E+03  0.63526019318E+03  0.00000000000E+00 0. -1.
         21   -1    0    0  502  503 -0.00000000000E+00 -0.00000000000E+00 -0.95058931583E+01  0.95058931583E+01  0.00000000000E+00 0. -1.
         25    2    1    2    0    0  0.14665514885E+02 -0.21015636195E+02  0.55598787118E+03  0.57044187168E+03  0.12499872709E+03 0.  0.
          5    1    3    3  501    0 -0.11937091383E+02  0.49337361469E+02  0.26990073423E+03  0.27463263777E+03  0.10000000000E+00 0. -1.
         -5    1    3    3    0  501  0.26602606268E+02 -0.70352997664E+02  0.28608713695E+03  0.29580923391E+03  0.10000000000E+00 0. -1.
         21    1    1    2  504  503 -0.14665514885E+02  0.21015636195E+02  0.69766428845E+02  0.74324214663E+02  0.00000000000E+00 0. -1.
<mgrwt>
<rscale>  1 0.12759865E+03</rscale>
<asrwt>0</asrwt>
<pdfrwt beam="1">  1       21 0.97732304E-01 0.12759865E+03</pdfrwt>
<pdfrwt beam="2">  1       21 0.14624456E-02 0.12759865E+03</pdfrwt>
<totfact> 0.17709866E+06</totfact>
</mgrwt>
</event>
<event>
 6    1  0.4244577E-002  0.1270531E+03  0.7546771E-02  0.1231895E+00
         21   -1    0    0  504  502  0.00000000000E+00  0.00000000000E+00  0.33067962881E+02  0.33067962881E+02  0.00000000000E+00 0.  1.
         21   -1    0    0  502  503 -0.00000000000E+00 -0.00000000000E+00 -0.23944298786E+03  0.23944298786E+03  0.00000000000E+00 0.  1.
         25    2    1    2    0    0 -0.19934280396E+02  0.10966986649E+02 -0.94494434973E+02  0.15834039083E+03  0.12499932318E+03 0.  0.
          5    1    3    3  501    0 -0.63718566452E+02 -0.23575466982E+02 -0.33694686185E+02  0.75836668118E+02  0.10000000000E+00 0.  1.
         -5    1    3    3    0  501  0.43784286056E+02  0.34542453631E+02 -0.60799748788E+02  0.82503722709E+02  0.10000000000E+00 0.  1.
         21    1    1    2  504  503  0.19934280396E+02 -0.10966986649E+02 -0.11188059001E+03  0.11417055992E+03  0.00000000000E+00 0.  1.
<mgrwt>
<rscale>  1 0.12705306E+03</rscale>
<asrwt>0</asrwt>
<pdfrwt beam="1">  1       21 0.50873789E-02 0.12705306E+03</pdfrwt>
<pdfrwt beam="2">  1       21 0.36837383E-01 0.12705306E+03</pdfrwt>
<totfact> 0.18476351E+06</totfact>
</mgrwt>
</event>
<event>
 6    1  0.4244577E-002  0.1264516E+03  0.7546771E-02  0.1232818E+00
         21   -1    0    0  503  502  0.00000000000E+00  0.00000000000E+00  0.35830869898E+03  0.35830869898E+03  0.00000000000E+00 0. -1.
         21   -1    0    0  504  503 -0.00000000000E+00 -0.00000000000E+00 -0.17318028160E+02  0.17318028160E+02  0.00000000000E+00 0. -1.
         25    2    1    2    0    0  0.16352782994E+02  0.99260541369E+01  0.33037731694E+03  0.35375017935E+03  0.12499631109E+03 0.  0.
          5    1    3    3  501    0 -0.33295889875E+02 -0.27527506717E+02  0.47885261346E+02  0.64493318745E+02  0.10000000000E+00 0.  1.
         -5    1    3    3    0  501  0.49648672869E+02  0.37453560854E+02  0.28249205559E+03  0.28925686061E+03  0.10000000000E+00 0.  1.
         21    1    1    2  504  502 -0.16352782994E+02 -0.99260541369E+01  0.10613353888E+02  0.21876547788E+02  0.00000000000E+00 0. -1.
<mgrwt>
<rscale>  1 0.12645164E+03</rscale>
<asrwt>0</asrwt>
<pdfrwt beam="1">  1       21 0.55124410E-01 0.12645164E+03</pdfrwt>
<pdfrwt beam="2">  1       21 0.26643123E-02 0.12645164E+03</pdfrwt>
<totfact> 0.23747238E+06</totfact>
</mgrwt>
</event>
<event>
 6    1  0.4244577E-002  0.1336965E+03  0.7546771E-02  0.1222072E+00
         21   -1    0    0  503  502  0.00000000000E+00  0.00000000000E+00  0.54650016343E+03  0.54650016343E+03  0.00000000000E+00 0.  1.
         21   -1    0    0  504  503 -0.00000000000E+00 -0.00000000000E+00 -0.15585329413E+02  0.15585329413E+02  0.00000000000E+00 0.  1.
         25    2    1    2    0    0  0.12889464484E+02 -0.45640332527E+02  0.43506920465E+03  0.45514830138E+03  0.12500234067E+03 0.  0.
          5    1    3    3  501    0  0.44495269668E+02 -0.61372827555E+02  0.15167544182E+03  0.16956386005E+03  0.10000000000E+00 0.  1.
         -5    1    3    3    0  501 -0.31605805184E+02  0.15732495027E+02  0.28339376283E+03  0.28558444133E+03  0.10000000000E+00 0.  1.
         21    1    1    2  504  502 -0.12889464484E+02  0.45640332527E+02  0.95845629373E+02  0.10693719146E+03  0.00000000000E+00 0.  1.
<mgrwt>
<rscale>  1 0.13369653E+03</rscale>
<asrwt>0</asrwt>
<pdfrwt beam="1">  1       21 0.84076934E-01 0.13369653E+03</pdfrwt>
<pdfrwt beam="2">  1       21 0.23977434E-02 0.13369653E+03</pdfrwt>
<totfact> 0.11280882E+06</totfact>
</mgrwt>
</event>
<event>
 6    1  0.4244577E-002  0.1287147E+03  0.7546771E-02  0.1229375E+00
         21   -1    0    0  504  502  0.00000000000E+00  0.00000000000E+00  0.88678371779E+03  0.88678371779E+03  0.00000000000E+00 0. -1.
         21   -1    0    0  502  503 -0.00000000000E+00 -0.00000000000E+00 -0.11343551213E+02  0.11343551213E+02  0.00000000000E+00 0. -1.
         25    2    1    2    0    0  0.20658934212E+02 -0.22692171367E+02  0.84554272212E+03  0.85528356014E+03  0.12500298841E+03 0.  0.
          5    1    3    3  501    0  0.60796544144E+02 -0.50847468491E+02  0.55565545723E+03  0.56127950433E+03  0.10000000000E+00 0. -1.
         -5    1    3    3    0  501 -0.40137609932E+02  0.28155297124E+02  0.28988726489E+03  0.29400405581E+03  0.10000000000E+00 0. -1.
         21    1    1    2  504  503 -0.20658934212E+02  0.22692171367E+02  0.29897444456E+02  0.42843708862E+02  0.00000000000E+00 0. -1.
<mgrwt>
<rscale>  1 0.12871470E+03</rscale>
<asrwt>0</asrwt>
<pdfrwt beam="1">  1       21 0.13642821E+00 0.12871470E+03</pdfrwt>
<pdfrwt beam="2">  1       21 0.17451624E-02 0.12871470E+03</pdfrwt>
<totfact> 0.59564476E+05</totfact>
</mgrwt>
</event>
<event>
 6    1  0.4244577E-002  0.1269434E+03  0.7546771E-02  0.1232063E+00
         21   -1    0    0  504  502  0.00000000000E+00  0.00000000000E+00  0.71055231318E+03  0.71055231318E+03  0.00000000000E+00 0. -1.
         21   -1    0    0  502  503 -0.00000000000E+00 -0.00000000000E+00 -0.58462608642E+02  0.58462608642E+02  0.00000000000E+00 0.  1.
         25    2    1    2    0    0 -0.16686751378E+02  0.14550689175E+02  0.70254196096E+03  0.71391863878E+03  0.12499778263E+03 0.  0.
          5    1    3    3  501    0 -0.30428709003E+02 -0.47705864764E+02  0.44591239643E+03  0.44948818801E+03  0.10000000000E+00 0.  1.
         -5    1    3    3    0  501  0.13741957625E+02  0.62256553939E+02  0.25662956453E+03  0.26443045078E+03  0.10000000000E+00 0.  1.
         21    1    1    2  504  503  0.16686751378E+02 -0.14550689175E+02 -0.50452256421E+02  0.55096283041E+02  0.00000000000E+00 0.  1.
<mgrwt>
<rscale>  1 0.12694336E+03</rscale>
<asrwt>0</asrwt>
<pdfrwt beam="1">  1       21 0.10931573E+00 0.12694336E+03</pdfrwt>
<pdfrwt beam="2">  1       21 0.89942480E-02 0.12694336E+03</pdfrwt>
<totfact> 0.67002821E+04</totfact>
</mgrwt>
</event>
<event>
 6    1  0.4244577E-002  0.1423133E+03  0.7546771E-02  0.1210250E+00
         21   -1    0    0  503  502  0.00000000000E+00  0.00000000000E+00  0.40496758722E+02  0.40496758722E+02  0.00000000000E+00 0.  1.
         21   -1    0    0  504  503 -0.00000000000E+00 -0.00000000000E+00 -0.27320279908E+03  0.27320279908E+03  0.00000000000E+00 0.  1.
         25    2    1    2    0    0 -0.10817264073E+02  0.67156977713E+02 -0.15481577984E+03  0.21028792624E+03  0.12500405345E+03 0.  0.
          5    1    3    3  501    0  0.32728034949E+02  0.86015225120E+02 -0.81363827375E+02  0.12284065137E+03  0.10000000000E+00 0.  1.
         -5    1    3    3    0  501 -0.43545299022E+02 -0.18858247407E+02 -0.73451952463E+02  0.87447274873E+02  0.10000000000E+00 0.  1.
         21    1    1    2  504  502  0.10817264073E+02 -0.67156977713E+02 -0.77890260525E+02  0.10341163156E+03  0.00000000000E+00 0.  1.
<mgrwt>
<rscale>  1 0.14231334E+03</rscale>
<asrwt>0</asrwt>
<pdfrwt beam="1">  1       21 0.62302704E-02 0.14231334E+03</pdfrwt>
<pdfrwt beam="2">  1       21 0.42031201E-01 0.14231334E+03</pdfrwt>
<totfact> 0.10092776E+06</totfact>
</mgrwt>
</event>
<event>
 6    1  0.4244577E-002  0.1465627E+03  0.7546771E-02  0.1204762E+00
         21   -1    0    0  503  502  0.00000000000E+00  0.00000000000E+00  0.76985578544E+02  0.76985578544E+02  0.00000000000E+00 0. -1.
         21   -1    0    0  504  503 -0.00000000000E+00 -0.00000000000E+00 -0.19181777574E+03  0.19181777574E+03  0.00000000000E+00 0. -1.
         25    2    1    2    0    0  0.41410859178E+01  0.76407220422E+02 -0.12367992624E+03  0.19177417647E+03  0.12500159471E+03 0.  0.
          5    1    3    3  501    0  0.64137220270E+01  0.63266129600E+02 -0.14963868497E+03  0.16258992904E+03  0.10000000000E+00 0.  1.
         -5    1    3    3    0  501 -0.22726361092E+01  0.13141090823E+02  0.25958758735E+02  0.29184247428E+02  0.10000000000E+00 0.  1.
         21    1    1    2  504  502 -0.41410859178E+01 -0.76407220422E+02  0.88477290442E+01  0.77029177813E+02  0.00000000000E+00 0. -1.
<mgrwt>
<rscale>  1 0.14656265E+03</rscale>
<asrwt>0</asrwt>
<pdfrwt beam="1">  1       21 0.11843935E-01 0.14656265E+03</pdfrwt>
<pdfrwt beam="2">  1       21 0.29510427E-01 0.14656265E+03</pdfrwt>
<totfact> 0.66407773E+05</totfact>
</mgrwt>
</event>
<event>
 6    1  0.4244577E-002  0.1265532E+03  0.7546771E-02  0.1232662E+00
         21   -1    0    0  503  502  0.00000000000E+00  0.00000000000E+00  0.33358812065E+02  0.33358812065E+02  0.00000000000E+00 0.  1.
         21   -1    0    0  504  503 -0.00000000000E+00 -0.00000000000E+00 -0.18755096862E+03  0.18755096862E+03  0.00000000000E+00 0.  1.
         25    2    1    2    0    0 -0.18696156689E+02 -0.63790226804E+01 -0.94241580922E+02  0.15778839188E+03  0.12500185132E+03 0.  0.
          5    1    3    3  501    0 -0.72441596499E+02 -0.23475556646E+01 -0.58155636960E+02  0.92926767033E+02  0.10000000000E+00 0. -1.
         -5    1    3    3    0  501  0.53745439811E+02 -0.40314670158E+01 -0.36085943961E+02  0.64861624851E+02  0.10000000000E+00 0. -1.
         21    1    1    2  504  502  0.18696156689E+02  0.63790226804E+01 -0.59950575634E+02  0.63121388801E+02  0.00000000000E+00 0.  1.
<mgrwt>
<rscale>  1 0.12655315E+03</rscale>
<asrwt>0</asrwt>
<pdfrwt beam="1">  1       21 0.51321250E-02 0.12655315E+03</pdfrwt>
<pdfrwt beam="2">  1       21 0.28853995E-01 0.12655315E+03</pdfrwt>
<totfact> 0.29290206E+06</totfact>
</mgrwt>
</event>
<event>
 6    1  0.4244577E-002  0.1278248E+03  0.7546771E-02  0.1230720E+00
         21   -1    0    0  503  502  0.00000000000E+00  0.00000000000E+00  0.15834024422E+02  0.15834024422E+02  0.00000000000E+00 0.  1.
         21   -1    0    0  504  503 -0.00000000000E+00 -0.00000000000E+00 -0.49032668387E+03  0.49032668387E+03  0.00000000000E+00 0.  1.
         25    2    1    2    0    0  0.19046658416E+02 -0.18744826774E+02 -0.25701003956E+03  0.28704239851E+03  0.12500013752E+03 0.  0.
          5    1    3    3  501    0 -0.39449334935E+02  0.13526797770E+02 -0.32701863246E+02  0.52996661635E+02  0.10000000000E+00 0. -1.
         -5    1    3    3    0  501  0.58495993351E+02 -0.32271624544E+02 -0.22430817631E+03  0.23404573688E+03  0.10000000000E+00 0. -1.
         21    1    1    2  504  502 -0.19046658416E+02  0.18744826774E+02 -0.21748261989E+03  0.21911830978E+03  0.00000000000E+00 0.  1.
<mgrwt>
<rscale>  1 0.12782479E+03</rscale>
<asrwt>0</asrwt>
<pdfrwt beam="1">  1       21 0.24360037E-02 0.12782479E+03</pdfrwt>
<pdfrwt beam="2">  1       21 0.75434876E-01 0.12782479E+03</pdfrwt>
<totfact> 0.14003443E+06</totfact>
</mgrwt>
</event>
<event>
 6    1  0.4244577E-002  0.1261134E+03  0.7546771E-02  0.1233339E+00
         21   -1    0    0  504  502  0.00000000000E+00  0.00000000000E+00  0.11128623381E+04  0.11128623381E+04  0.00000000000E+00 0.  1.
         21   -1    0    0  502  503 -0.00000000000E+00 -0.00000000000E+00 -0.84247275645E+01  0.84247275645E+01  0.00000000000E+00 0.  1.
         25    2    1    2    0    0 -0.16673924437E+02 -0.12488088533E+01  0.10946943420E+04  0.11019347903E+04  0.12500000159E+03 0.  0.
          5    1    3    3  501    0  0.50128670521E+01  0.29592671191E+02  0.65492391272E+02  0.72042475935E+02  0.10000000000E+00 0. -1.
         -5    1    3    3    0  501 -0.21686791489E+02 -0.30841480045E+02  0.10292019508E+04  0.10298923144E+04  0.10000000000E+00 0. -1.
         21    1    1    2  504  503  0.16673924437E+02  0.12488088533E+01  0.97432685274E+01  0.19352275351E+02  0.00000000000E+00 0.  1.
<mgrwt>
<rscale>  1 0.12611336E+03</rscale>
<asrwt>0</asrwt>
<pdfrwt beam="1">  1       21 0.17120947E+00 0.12611336E+03</pdfrwt>
<pdfrwt beam="2">  1       21 0.12961128E-02 0.12611336E+03</pdfrwt>
<totfact> 0.52985527E+05</totfact>
</mgrwt>
</event>
<event>
 6    1  0.4244577E-002  0.1263793E+03  0.7546771E-02  0.1232929E+00
         21   -1    0    0  503  502  0.00000000000E+00  0.00000000000E+00  0.21664099722E+03  0.21664099722E+03  0.00000000000E+00 0. -1.
         21   -1    0    0  504  503 -0.00000000000E+00 -0.00000000000E+00 -0.28626032335E+02  0.28626032335E+02  0.00000000000E+00 0. -1.
         25    2    1    2    0    0  0.34225878213E+01 -0.18242659147E+02  0.18821117738E+03  0.22670504637E+03  0.12500888784E+03 0.  0.
          5    1    3    3  501    0 -0.42447735036E+02 -0.46128233394E+02  0.56177152538E+02  0.84175451249E+02  0.10000000000E+00 0. -1.
         -5    1    3    3    0  501  0.45870322857E+02  0.27885574246E+02  0.13203402484E+03  0.14252959512E+03  0.10000000000E+00 0. -1.
         21    1    1    2  504  502 -0.34225878213E+01  0.18242659147E+02 -0.19621249953E+00  0.18561983178E+02  0.00000000000E+00 0. -1.
<mgrwt>
<rscale>  1 0.12637931E+03</rscale>
<asrwt>0</asrwt>
<pdfrwt beam="1">  1       21 0.33329383E-01 0.12637931E+03</pdfrwt>
<pdfrwt beam="2">  1       21 0.44040051E-02 0.12637931E+03</pdfrwt>
<totfact> 0.28627435E+06</totfact>
</mgrwt>
</event>
<event>
 6    1  0.4244577E-002  0.1355528E+03  0.7546771E-02  0.1219441E+00
         21   -1    0    0  503  502  0.00000000000E+00  0.00000000000E+00  0.40777368185E+03  0.40777368185E+03  0.00000000000E+00 0. -1.
         21   -1    0    0  504  503 -0.00000000000E+00 -0.00000000000E+00 -0.23567387015E+02  0.23567387015E+02  0.00000000000E+00 0. -1.
         25    2    1    2    0    0 -0.19511089044E+02 -0.48675843659E+02  0.32564790029E+03  0.35273377962E+03  0.12499817586E+03 0.  0.
          5    1    3    3  501    0  0.19471917495E+02 -0.43020373596E+02  0.30427560887E+03  0.30791811293E+03  0.10000000000E+00 0.  1.
         -5    1    3    3    0  501 -0.38983006538E+02 -0.56554700625E+01  0.21372291424E+02  0.44815666693E+02  0.10000000000E+00 0.  1.
         21    1    1    2  504  502  0.19511089044E+02  0.48675843659E+02  0.58558394545E+02  0.78607289250E+02  0.00000000000E+00 0. -1.
<mgrwt>
<rscale>  1 0.13555281E+03</rscale>
<asrwt>0</asrwt>
<pdfrwt beam="1">  1       21 0.62734408E-01 0.13555281E+03</pdfrwt>
<pdfrwt beam="2">  1       21 0.36257521E-02 0.13555281E+03</pdfrwt>
<totfact> 0.10896496E+06</totfact>
</mgrwt>
</event>
<event>
 6    1  0.4244577E-002  0.1302379E+03  0.7546771E-02  0.1227103E+00
         21   -1    0    0  504  502  0.00000000000E+00  0.00000000000E+00  0.33944083758E+02  0.33944083758E+02  0.00000000000E+00 0. -1.
         21   -1    0    0  502  503 -0.00000000000E+00 -0.00000000000E+00 -0.20539102667E+03  0.20539102667E+03  0.00000000000E+00 0. -1.
         25    2    1    2    0    0  0.18811688400E+02 -0.31355255547E+02 -0.13849490511E+03  0.19011246862E+03  0.12499952126E+03 0.  0.
          5    1    3    3  501    0  0.10721624550E+00  0.43829056536E+02 -0.86006750192E+02  0.96530662334E+02  0.10000000000E+00 0. -1.
         -5    1    3    3    0  501  0.18704472155E+02 -0.75184312083E+02 -0.52488154916E+02  0.93581806290E+02  0.10000000000E+00 0. -1.
         21    1    1    2  504  503 -0.18811688400E+02  0.31355255547E+02 -0.32952037806E+02  0.49222641807E+02  0.00000000000E+00 0. -1.
<mgrwt>
<rscale>  1 0.13023791E+03</rscale>
<asrwt>0</asrwt>
<pdfrwt beam="1">  1       21 0.52221669E-02 0.13023791E+03</pdfrwt>
<pdfrwt beam="2">  1       21 0.31598619E-01 0.13023791E+03</pdfrwt>
<totfact> 0.23893106E+06</totfact>
</mgrwt>
</event>
<event>
 6    1  0.4244577E-002  0.1702932E+03  0.7546771E-02  0.1177542E+00
         21   -1    0    0  504  502  0.00000000000E+00  0.00000000000E+00  0.77244213928E+03  0.77244213928E+03  0.00000000000E+00 0. -1.
         21   -1    0    0  502  503 -0.00000000000E+00 -0.00000000000E+00 -0.35562038720E+03  0.35562038720E+03  0.00000000000E+00 0.  1.
         25    2    1    2    0    0 -0.96859190834E+02  0.63190148912E+02  0.75327696326E+03  0.77228618256E+03  0.12500026655E+03 0.  0.
          5    1    3    3  501    0 -0.67257044632E+02  0.59097422710E+02  0.21129740115E+03  0.22948337011E+03  0.10000000000E+00 0.  1.
         -5    1    3    3    0  501 -0.29602146202E+02  0.40927262019E+01  0.54197956211E+03  0.54280281246E+03  0.10000000000E+00 0.  1.
         21    1    1    2  504  503  0.96859190834E+02 -0.63190148912E+02 -0.33645521118E+03  0.35577634393E+03  0.00000000000E+00 0.  1.
<mgrwt>
<rscale>  1 0.17029317E+03</rscale>
<asrwt>0</asrwt>
<pdfrwt beam="1">  1       21 0.11883725E+00 0.17029317E+03</pdfrwt>
<pdfrwt beam="2">  1       21 0.54710829E-01 0.17029317E+03</pdfrwt>
<totfact> 0.17445983E+03</totfact>
</mgrwt>
</event>
<event>
 6    1  0.4244577E-002  0.1266785E+03  0.7546771E-02  0.1232469E+00
         21   -1    0    0  503  502  0.00000000000E+00  0.00000000000E+00  0.16963366358E+03  0.16963366358E+03  0.00000000000E+00 0.  1.
         21   -1    0    0  504  503 -0.00000000000E+00 -0.00000000000E+00 -0.85821443764E+02  0.85821443764E+02  0.00000000000E+00 0.  1.
         25    2    1    2    0    0  0.20144264330E+02  0.39418651374E+01  0.14404321360E+03  0.19182255045E+03  0.12500445508E+03 0.  0.
          5    1    3    3  501    0  0.47084875956E+02 -0.39276302626E+02  0.12156864642E+03  0.13615637805E+03  0.10000000000E+00 0. -1.
         -5    1    3    3    0  501 -0.26940611626E+02  0.43218167763E+02  0.22474567179E+02  0.55666172398E+02  0.10000000000E+00 0. -1.
         21    1    1    2  504  502 -0.20144264330E+02 -0.39418651374E+01 -0.60230993777E+02  0.63632556899E+02  0.00000000000E+00 0.  1.
<mgrwt>
<rscale>  1 0.12667850E+03</rscale>
<asrwt>0</asrwt>
<pdfrwt beam="1">  1       21 0.26097487E-01 0.12667850E+03</pdfrwt>
<pdfrwt beam="2">  1       21 0.13203299E-01 0.12667850E+03</pdfrwt>
<totfact> 0.69287131E+05</totfact>
</mgrwt>
</event>
<event>
 6    1  0.4244577E-002  0.1923044E+03  0.7546771E-02  0.1156399E+00
         21   -1    0    0  503  502  0.00000000000E+00  0.00000000000E+00  0.23114618058E+04  0.23114618058E+04  0.00000000000E+00 0.  1.
         21   -1    0    0  504  503 -0.00000000000E+00 -0.00000000000E+00 -0.16858537994E+02  0.16858537994E+02  0.00000000000E+00 0. -1.
         25    2    1    2    0    0  0.50340347869E+02  0.13718989468E+03  0.18576709131E+04  0.18675979758E+04  0.12500303930E+03 0.  0.
          5    1    3    3  501    0  0.54432848937E+02  0.10888783046E+03  0.17899757700E+04  0.17941105768E+04  0.10000000000E+00 0. -1.
         -5    1    3    3    0  501 -0.40925010671E+01  0.28302064211E+02  0.67695143173E+02  0.73487399007E+02  0.10000000000E+00 0. -1.
         21    1    1    2  504  502 -0.50340347869E+02 -0.13718989468E+03  0.43693235469E+03  0.46072236803E+03  0.00000000000E+00 0. -1.
<mgrwt>
<rscale>  1 0.19230439E+03</rscale>
<asrwt>0</asrwt>
<pdfrwt beam="1">  1       21 0.35560926E+00 0.19230439E+03</pdfrwt>
<pdfrwt beam="2">  1       21 0.25936231E-02 0.19230439E+03</pdfrwt>
<totfact> 0.13037435E+04</totfact>
</mgrwt>
</event>
<event>
 6    1  0.4244577E-002  0.1533902E+03  0.7546771E-02  0.1196368E+00
         21   -1    0    0  503  502  0.00000000000E+00  0.00000000000E+00  0.14527065802E+03  0.14527065802E+03  0.00000000000E+00 0. -1.
         21   -1    0    0  504  503 -0.00000000000E+00 -0.00000000000E+00 -0.62911837241E+03  0.62911837241E+03  0.00000000000E+00 0.  1.
         25    2    1    2    0    0 -0.30105619867E+01  0.88846885816E+02  0.10045858258E+03  0.18335884399E+03  0.12500282498E+03 0.  0.
          5    1    3    3  501    0 -0.30940473907E+02 -0.22494150705E+02  0.30557566753E+02  0.48959928793E+02  0.10000000000E+00 0.  1.
         -5    1    3    3    0  501  0.27929911921E+02  0.11134103652E+03  0.69901015825E+02  0.13439891520E+03  0.10000000000E+00 0.  1.
         21    1    1    2  504  502  0.30105619867E+01 -0.88846885816E+02 -0.58430629697E+03  0.59103018643E+03  0.00000000000E+00 0.  1.
<mgrwt>
<rscale>  1 0.15339015E+03</rscale>
<asrwt>0</asrwt>
<pdfrwt beam="1">  1       21 0.22349332E-01 0.15339015E+03</pdfrwt>
<pdfrwt beam="2">  1       21 0.96787441E-01 0.15339015E+03</pdfrwt>
<totfact> 0.17058908E+04</totfact>
</mgrwt>
</event>
<event>
 6    1  0.4244577E-002  0.1289415E+03  0.7546771E-02  0.1229035E+00
         21   -1    0    0  504  502  0.00000000000E+00  0.00000000000E+00  0.13358496261E+03  0.13358496261E+03  0.00000000000E+00 0.  1.
         21   -1    0    0  502  503 -0.00000000000E+00 -0.00000000000E+00 -0.22281675447E+03  0.22281675447E+03  0.00000000000E+00 0.  1.
         25    2    1    2    0    0 -0.23677651182E+02 -0.20932200552E+02  0.10085862053E+03  0.16370207237E+03  0.12500847562E+03 0.  0.
          5    1    3    3  501    0  0.36475611034E+02 -0.12726644258E+02  0.95186326409E+02  0.10272723305E+03  0.10000000000E+00 0. -1.
         -5    1    3    3    0  501 -0.60153262216E+02 -0.82055562943E+01  0.56722941246E+01  0.60974839319E+02  0.10000000000E+00 0. -1.
         21    1    1    2  504  503  0.23677651182E+02  0.20932200552E+02 -0.19009041240E+03  0.19269964471E+03  0.00000000000E+00 0.  1.
<mgrwt>
<rscale>  1 0.12894149E+03</rscale>
<asrwt>0</asrwt>
<pdfrwt beam="1">  1       21 0.20551533E-01 0.12894149E+03</pdfrwt>
<pdfrwt beam="2">  1       21 0.34279500E-01 0.12894149E+03</pdfrwt>
<totfact> 0.18323351E+05</totfact>
</mgrwt>
</event>
<event>
 6    1  0.4244577E-002  0.1288976E+03  0.7546771E-02  0.1229101E+00
         21   -1    0    0  504  502  0.00000000000E+00  0.00000000000E+00  0.37207131012E+02  0.37207131012E+02  0.00000000000E+00 0.  1.
         21   -1    0    0  502  503 -0.00000000000E+00 -0.00000000000E+00 -0.21745640997E+04  0.21745640997E+04  0.00000000000E+00 0.  1.
         25    2    1    2    0    0 -0.26434583602E+02  0.17011260211E+02 -0.74909001615E+02  0.14908371510E+03  0.12500570147E+03 0.  0.
          5    1    3    3  501    0 -0.42217224078E+02 -0.37420235004E+02 -0.16190375262E+01  0.56437569749E+02  0.10000000000E+00 0.  1.
         -5    1    3    3    0  501  0.15782640476E+02  0.54431495216E+02 -0.73289964089E+02  0.92646145348E+02  0.10000000000E+00 0.  1.
         21    1    1    2  504  503  0.26434583602E+02 -0.17011260211E+02 -0.20624479670E+04  0.20626875156E+04  0.00000000000E+00 0.  1.
<mgrwt>
<rscale>  1 0.12889762E+03</rscale>
<asrwt>0</asrwt>
<pdfrwt beam="1">  1       21 0.57241736E-02 0.12889762E+03</pdfrwt>
<pdfrwt beam="2">  1       21 0.33454834E+00 0.12889762E+03</pdfrwt>
<totfact> 0.50558837E+03</totfact>
</mgrwt>
</event>
<event>
 6    1  0.4244577E-002  0.1267501E+03  0.7546771E-02  0.1232359E+00
         21   -1    0    0  503  502  0.00000000000E+00  0.00000000000E+00  0.20188340253E+02  0.20188340253E+02  0.00000000000E+00 0. -1.
         21   -1    0    0  504  503 -0.00000000000E+00 -0.00000000000E+00 -0.27865492565E+03  0.27865492565E+03  0.00000000000E+00 0. -1.
         25    2    1    2    0    0 -0.19847433794E+02  0.68796896043E+01 -0.20067177857E+03  0.23734944139E+03  0.12499737540E+03 0.  0.
          5    1    3    3  501    0 -0.41079219841E+02 -0.10191293776E+02 -0.83912170595E+01  0.43148433289E+02  0.10000000000E+00 0. -1.
         -5    1    3    3    0  501  0.21231786047E+02  0.17070983380E+02 -0.19228056151E+03  0.19420100810E+03  0.10000000000E+00 0. -1.
         21    1    1    2  504  502  0.19847433794E+02 -0.68796896043E+01 -0.57794806831E+02  0.61493824518E+02  0.00000000000E+00 0. -1.
<mgrwt>
<rscale>  1 0.12675013E+03</rscale>
<asrwt>0</asrwt>
<pdfrwt beam="1">  1       21 0.31058986E-02 0.12675013E+03</pdfrwt>
<pdfrwt beam="2">  1       21 0.42869987E-01 0.12675013E+03</pdfrwt>
<totfact> 0.30969573E+06</totfact>
</mgrwt>
</event>
<event>
 6    1  0.4244577E-002  0.1303567E+03  0.7546771E-02  0.1226927E+00
         21   -1    0    0  504  502  0.00000000000E+00  0.00000000000E+00  0.60490151493E+01  0.60490151493E+01  0.00000000000E+00 0. -1.
         21   -1    0    0  502  503 -0.00000000000E+00 -0.00000000000E+00 -0.24251391694E+04  0.24251391694E+04  0.00000000000E+00 0. -1.
         25    2    1    2    0    0  0.30639661183E+02 -0.20717449001E+02 -0.72063192322E+03  0.73232728263E+03  0.12499951433E+03 0.  0.
          5    1    3    3  501    0  0.28909785017E+01 -0.14871828062E+02 -0.69152188393E+03  0.69168783058E+03  0.10000000000E+00 0.  1.
         -5    1    3    3    0  501  0.27748682682E+02 -0.58456209389E+01 -0.29110039296E+02  0.40639452045E+02  0.10000000000E+00 0.  1.
         21    1    1    2  504  503 -0.30639661183E+02  0.20717449001E+02 -0.16984582311E+04  0.16988609020E+04  0.00000000000E+00 0. -1.
<mgrwt>
<rscale>  1 0.13035674E+03</rscale>
<asrwt>0</asrwt>
<pdfrwt beam="1">  1       21 0.93061796E-03 0.13035674E+03</pdfrwt>
<pdfrwt beam="2">  1       21 0.37309824E+00 0.13035674E+03</pdfrwt>
<totfact> 0.57784802E+04</totfact>
</mgrwt>
</event>
<event>
 6    1  0.4244577E-002  0.1331870E+03  0.7546771E-02  0.1222802E+00
         21   -1    0    0  503  502  0.00000000000E+00  0.00000000000E+00  0.19157597072E+02  0.19157597072E+02  0.00000000000E+00 0. -1.
         21   -1    0    0  504  503 -0.00000000000E+00 -0.00000000000E+00 -0.44646058699E+03  0.44646058699E+03  0.00000000000E+00 0. -1.
         25    2    1    2    0    0  0.36739350152E+02 -0.27640761329E+02 -0.26020396467E+03  0.29230956981E+03  0.12499995934E+03 0.  0.
          5    1    3    3  501    0 -0.15282527907E+01 -0.12343219128E+02 -0.24939318694E+03  0.24970314838E+03  0.10000000000E+00 0.  1.
         -5    1    3    3    0  501  0.38267602942E+02 -0.15297542200E+02 -0.10810777730E+02  0.42606421434E+02  0.10000000000E+00 0.  1.
         21    1    1    2  504  502 -0.36739350152E+02  0.27640761329E+02 -0.16709902525E+03  0.17330861425E+03  0.00000000000E+00 0. -1.
<mgrwt>
<rscale>  1 0.13318702E+03</rscale>
<asrwt>0</asrwt>
<pdfrwt beam="1">  1       21 0.29473226E-02 0.13318702E+03</pdfrwt>
<pdfrwt beam="2">  1       21 0.68686244E-01 0.13318702E+03</pdfrwt>
<totfact> 0.12604656E+06</totfact>
</mgrwt>
</event>
<event>
 6    1  0.4244577E-002  0.1262576E+03  0.7546771E-02  0.1233117E+00
         21   -1    0    0  503  502  0.00000000000E+00  0.00000000000E+00  0.19800909859E+03  0.19800909859E+03  0.00000000000E+00 0.  1.
         21   -1    0    0  504  503 -0.00000000000E+00 -0.00000000000E+00 -0.27267702019E+02  0.27267702019E+02  0.00000000000E+00 0.  1.
         25    2    1    2    0    0  0.13013680234E+02  0.12091732464E+02  0.16225110554E+03  0.20558794820E+03  0.12500166931E+03 0.  0.
          5    1    3    3  501    0  0.33776136532E+02  0.29705087068E+02  0.17113543503E+03  0.17694792093E+03  0.10000000000E+00 0.  1.
         -5    1    3    3    0  501 -0.20762456298E+02 -0.17613354604E+02 -0.88843294892E+01  0.28640027277E+02  0.10000000000E+00 0.  1.
         21    1    1    2  504  502 -0.13013680234E+02 -0.12091732464E+02  0.84902910257E+01  0.19688852402E+02  0.00000000000E+00 0.  1.
<mgrwt>
<rscale>  1 0.12625761E+03</rscale>
<asrwt>0</asrwt>
<pdfrwt beam="1">  1       21 0.30462937E-01 0.12625761E+03</pdfrwt>
<pdfrwt beam="2">  1       21 0.41950312E-02 0.12625761E+03</pdfrwt>
<totfact> 0.36962782E+06</totfact>
</mgrwt>
</event>
<event>
 6    1  0.4244577E-002  0.1273741E+03  0.7546771E-02  0.1231405E+00
         21   -1    0    0  503  502  0.00000000000E+00  0.00000000000E+00  0.29298119982E+02  0.29298119982E+02  0.00000000000E+00 0.  1.
         21   -1    0    0  504  503 -0.00000000000E+00 -0.00000000000E+00 -0.19973511973E+03  0.19973511973E+03  0.00000000000E+00 0.  1.
         25    2    1    2    0    0 -0.94286572621E+01  0.22622104122E+02 -0.15230239648E+03  0.19854515994E+03  0.12499400541E+03 0.  0.
          5    1    3    3  501    0  0.37072281555E+02  0.54647876306E+02 -0.54529042676E+02  0.85639774285E+02  0.10000000000E+00 0. -1.
         -5    1    3    3    0  501 -0.46500938817E+02 -0.32025772183E+02 -0.97773353804E+02  0.11290538565E+03  0.10000000000E+00 0. -1.
         21    1    1    2  504  502  0.94286572621E+01 -0.22622104122E+02 -0.18134603266E+02  0.30488079774E+02  0.00000000000E+00 0.  1.
<mgrwt>
<rscale>  1 0.12737410E+03</rscale>
<asrwt>0</asrwt>
<pdfrwt beam="1">  1       21 0.45074032E-02 0.12737410E+03</pdfrwt>
<pdfrwt beam="2">  1       21 0.30728479E-01 0.12737410E+03</pdfrwt>
<totfact> 0.32257361E+06</totfact>
</mgrwt>
</event>
<event>
 6    1  0.4244577E-002  0.1418028E+03  0.7546771E-02  0.1210924E+00
         21   -1    0    0  503  502  0.00000000000E+00  0.00000000000E+00  0.51167309412E+03  0.51167309412E+03  0.00000000000E+00 0.  1.
         21   -1    0    0  504  503 -0.00000000000E+00 -0.00000000000E+00 -0.24396302586E+02  0.24396302586E+02  0.00000000000E+00 0.  1.
         25    2    1    2    0    0  0.41384070176E+02  0.52629152307E+02  0.22979484480E+03  0.27002537435E+03  0.12500225262E+03 0.  0.
          5    1    3    3  501    0  0.14937163568E+02 -0.25211149270E+01 -0.12804027505E+02  0.19835019443E+02  0.10000000000E+00 0.  1.
         -5    1    3    3    0  501  0.26446906608E+02  0.55150267234E+02  0.24259887231E+03  0.25019035491E+03  0.10000000000E+00 0.  1.
         21    1    1    2  504  502 -0.41384070176E+02 -0.52629152307E+02  0.25748194674E+03  0.26604402236E+03  0.00000000000E+00 0.  1.
<mgrwt>
<rscale>  1 0.14180279E+03</rscale>
<asrwt>0</asrwt>
<pdfrwt beam="1">  1       21 0.78718929E-01 0.14180279E+03</pdfrwt>
<pdfrwt beam="2">  1       21 0.37532777E-02 0.14180279E+03</pdfrwt>
<totfact> 0.62623876E+05</totfact>
</mgrwt>
</event>
<event>
 6    1  0.4244577E-002  0.1286848E+03  0.7546771E-02  0.1229420E+00
         21   -1    0    0  504  502  0.00000000000E+00  0.00000000000E+00  0.17401794672E+03  0.17401794672E+03  0.00000000000E+00 0. -1.
         21   -1    0    0  502  503 -0.00000000000E+00 -0.00000000000E+00 -0.37945235734E+02  0.37945235734E+02  0.00000000000E+00 0. -1.
         25    2    1    2    0    0 -0.11409081511E+02  0.28364348908E+02  0.12512762024E+03  0.17949014069E+03  0.12500034332E+03 0.  0.
          5    1    3    3  501    0  0.13329066117E+02  0.74839103596E+02  0.72397208858E+02  0.10497581284E+03  0.10000000000E+00 0. -1.
         -5    1    3    3    0  501 -0.24738147629E+02 -0.46474754688E+02  0.52730411380E+02  0.74514327855E+02  0.10000000000E+00 0. -1.
         21    1    1    2  504  503  0.11409081511E+02 -0.28364348908E+02  0.10945090752E+02  0.32473041766E+02  0.00000000000E+00 0. -1.
<mgrwt>
<rscale>  1 0.12868484E+03</rscale>
<asrwt>0</asrwt>
<pdfrwt beam="1">  1       21 0.26771991E-01 0.12868484E+03</pdfrwt>
<pdfrwt beam="2">  1       21 0.58377287E-02 0.12868484E+03</pdfrwt>
<totfact> 0.27213772E+06</totfact>
</mgrwt>
</event>
<event>
 6    1  0.4244577E-002  0.1308274E+03  0.7546771E-02  0.1226233E+00
         21   -1    0    0  503  502  0.00000000000E+00  0.00000000000E+00  0.14616358580E+02  0.14616358580E+02  0.00000000000E+00 0.  1.
         21   -1    0    0  504  503 -0.00000000000E+00 -0.00000000000E+00 -0.54253830150E+03  0.54253830150E+03  0.00000000000E+00 0.  1.
         25    2    1    2    0    0  0.26036745298E+02  0.28524597180E+02 -0.32059777926E+03  0.34626399270E+03  0.12499700727E+03 0.  0.
          5    1    3    3  501    0 -0.32269564507E+02  0.57279348883E+02 -0.16694803302E+03  0.17942659872E+03  0.10000000000E+00 0. -1.
         -5    1    3    3    0  501  0.58306309805E+02 -0.28754751703E+02 -0.15364974624E+03  0.16683739398E+03  0.10000000000E+00 0. -1.
         21    1    1    2  504  502 -0.26036745298E+02 -0.28524597180E+02 -0.20732416366E+03  0.21089066738E+03  0.00000000000E+00 0.  1.
<mgrwt>
<rscale>  1 0.13082743E+03</rscale>
<asrwt>0</asrwt>
<pdfrwt beam="1">  1       21 0.22486707E-02 0.13082743E+03</pdfrwt>
<pdfrwt beam="2">  1       21 0.83467424E-01 0.13082743E+03</pdfrwt>
<totfact> 0.12726267E+06</totfact>
</mgrwt>
</event>
<event>
 6    1  0.4244577E-002  0.1274094E+03  0.7546771E-02  0.1231351E+00
         21   -1    0    0  504  502  0.00000000000E+00  0.00000000000E+00  0.28074417786E+02  0.28074417786E+02  0.00000000000E+00 0.  1.
         21   -1    0    0  502  503 -0.00000000000E+00 -0.00000000000E+00 -0.48597621719E+03  0.48597621719E+03  0.00000000000E+00 0.  1.
         25    2    1    2    0    0  0.27843848985E+01 -0.24489249305E+02 -0.11927179209E+03  0.17452485100E+03  0.12500274836E+03 0.  0.
          5    1    3    3  501    0 -0.28410617560E+02  0.43158798644E+02 -0.61027371399E+02  0.79963711460E+02  0.10000000000E+00 0. -1.
         -5    1    3    3    0  501  0.31195002459E+02 -0.67648047949E+02 -0.58244420692E+02  0.94561139542E+02  0.10000000000E+00 0. -1.
         21    1    1    2  504  503 -0.27843848985E+01  0.24489249305E+02 -0.33863000731E+03  0.33952578397E+03  0.00000000000E+00 0.  1.
<mgrwt>
<rscale>  1 0.12740943E+03</rscale>
<asrwt>0</asrwt>
<pdfrwt beam="1">  1       21 0.43191412E-02 0.12740943E+03</pdfrwt>
<pdfrwt beam="2">  1       21 0.74765573E-01 0.12740943E+03</pdfrwt>
<totfact> 0.55658422E+05</totfact>
</mgrwt>
</event>
<event>
 6    1  0.4244577E-002  0.1271873E+03  0.7546771E-02  0.1231690E+00
         21   -1    0    0  504  502  0.00000000000E+00  0.00000000000E+00  0.10739068834E+03  0.10739068834E+03  0.00000000000E+00 0.  1.
         21   -1    0    0  502  503 -0.00000000000E+00 -0.00000000000E+00 -0.87036916301E+02  0.87036916301E+02  0.00000000000E+00 0.  1.
         25    2    1    2    0    0  0.17592114979E+02 -0.15634853228E+02  0.65836035045E+02  0.14321659612E+03  0.12499071465E+03 0.  0.
          5    1    3    3  501    0  0.45994439490E+02 -0.74045268634E+01 -0.21281247475E+02  0.51217350343E+02  0.10000000000E+00 0.  1.
         -5    1    3    3    0  501 -0.28402324511E+02 -0.82303263641E+01  0.87117282521E+02  0.91999245777E+02  0.10000000000E+00 0.  1.
         21    1    1    2  504  503 -0.17592114979E+02  0.15634853228E+02 -0.45482263010E+02  0.51211008517E+02  0.00000000000E+00 0.  1.
<mgrwt>
<rscale>  1 0.12718730E+03</rscale>
<asrwt>0</asrwt>
<pdfrwt beam="1">  1       21 0.16521644E-01 0.12718730E+03</pdfrwt>
<pdfrwt beam="2">  1       21 0.13390295E-01 0.12718730E+03</pdfrwt>
<totfact> 0.15780540E+06</totfact>
</mgrwt>
</event>
<event>
 6    1  0.4244577E-002  0.1263995E+03  0.7546771E-02  0.1232898E+00
         21   -1    0    0  503  502  0.00000000000E+00  0.00000000000E+00  0.34517960002E+03  0.34517960002E+03  0.00000000000E+00 0. -1.
         21   -1    0    0  504  503 -0.00000000000E+00 -0.00000000000E+00 -0.12108488265E+03  0.12108488265E+03  0.00000000000E+00 0. -1.
         25    2    1    2    0    0 -0.16048935354E+02 -0.97137930504E+01  0.33277762181E+03  0.35597441142E+03  0.12499963962E+03 0.  0.
          5    1    3    3  501    0  0.50603612258E+02  0.14494872004E+02  0.10570050761E+03  0.11808231958E+03  0.10000000000E+00 0. -1.
         -5    1    3    3    0  501 -0.66652547612E+02 -0.24208665054E+02  0.22707711420E+03  0.23789209184E+03  0.10000000000E+00 0. -1.
         21    1    1    2  504  502  0.16048935354E+02  0.97137930504E+01 -0.10868290444E+03  0.11029007126E+03  0.00000000000E+00 0. -1.
<mgrwt>
<rscale>  1 0.12639951E+03</rscale>
<asrwt>0</asrwt>
<pdfrwt beam="1">  1       21 0.53104553E-01 0.12639951E+03</pdfrwt>
<pdfrwt beam="2">  1       21 0.18628444E-01 0.12639951E+03</pdfrwt>
<totfact> 0.90909591E+04</totfact>
</mgrwt>
</event>
<event>
 6    1  0.4244577E-002  0.1277887E+03  0.7546771E-02  0.1230774E+00
         21   -1    0    0  504  502  0.00000000000E+00  0.00000000000E+00  0.12074887520E+03  0.12074887520E+03  0.00000000000E+00 0. -1.
         21   -1    0    0  502  503 -0.00000000000E+00 -0.00000000000E+00 -0.49621043267E+02  0.49621043267E+02  0.00000000000E+00 0. -1.
         25    2    1    2    0    0 -0.17702698775E+02  0.19781329166E+02  0.63806928257E+02  0.14283299493E+03  0.12500101527E+03 0.  0.
          5    1    3    3  501    0  0.47019200501E+02  0.18384011184E+02  0.59385663559E+02  0.77945135315E+02  0.10000000000E+00 0.  1.
         -5    1    3    3    0  501 -0.64721899276E+02  0.13973179824E+01  0.44212646977E+01  0.64887859612E+02  0.10000000000E+00 0.  1.
         21    1    1    2  504  503  0.17702698775E+02 -0.19781329166E+02  0.73209036778E+01  0.27536923542E+02  0.00000000000E+00 0.  1.
<mgrwt>
<rscale>  1 0.12778865E+03</rscale>
<asrwt>0</asrwt>
<pdfrwt beam="1">  1       21 0.18576750E-01 0.12778865E+03</pdfrwt>
<pdfrwt beam="2">  1       21 0.76340067E-02 0.12778865E+03</pdfrwt>
<totfact> 0.34078150E+06</totfact>
</mgrwt>
</event>
<event>
 6    1  0.4244577E-002  0.1274842E+03  0.7546771E-02  0.1231237E+00
         21   -1    0    0  504  502  0.00000000000E+00  0.00000000000E+00  0.67374299097E+02  0.67374299097E+02  0.00000000000E+00 0.  1.
         21   -1    0    0  502  503 -0.00000000000E+00 -0.00000000000E+00 -0.11229089820E+03  0.11229089820E+03  0.00000000000E+00 0.  1.
         25    2    1    2    0    0 -0.23598317298E+02  0.83647512642E+01  0.86219059400E+00  0.12748716332E+03  0.12500153518E+03 0.  0.
          5    1    3    3  501    0 -0.22470767938E+01  0.46871077522E+02  0.45091482339E+02  0.65078406877E+02  0.10000000000E+00 0.  1.
         -5    1    3    3    0  501 -0.21351240505E+02 -0.38506326257E+02 -0.44229291745E+02  0.62408756447E+02  0.10000000000E+00 0.  1.
         21    1    1    2  504  503  0.23598317298E+02 -0.83647512642E+01 -0.45778789694E+02  0.52178033969E+02  0.00000000000E+00 0.  1.
<mgrwt>
<rscale>  1 0.12748425E+03</rscale>
<asrwt>0</asrwt>
<pdfrwt beam="1">  1       21 0.10365277E-01 0.12748425E+03</pdfrwt>
<pdfrwt beam="2">  1       21 0.17275523E-01 0.12748425E+03</pdfrwt>
<totfact> 0.22887654E+06</totfact>
</mgrwt>
</event>
<event>
 6    1  0.4244577E-002  0.1261823E+03  0.7546771E-02  0.1233233E+00
         21   -1    0    0  503  502  0.00000000000E+00  0.00000000000E+00  0.14397316732E+02  0.14397316732E+02  0.00000000000E+00 0. -1.
         21   -1    0    0  504  503 -0.00000000000E+00 -0.00000000000E+00 -0.46461924698E+03  0.46461924698E+03  0.00000000000E+00 0. -1.
         25    2    1    2    0    0  0.81482163406E+01 -0.15203829102E+02 -0.27066249536E+03  0.29863047638E+03  0.12499770068E+03 0.  0.
          5    1    3    3  501    0 -0.20039637622E+02 -0.43543085194E+02 -0.34372599810E+02  0.58983666908E+02  0.10000000000E+00 0. -1.
         -5    1    3    3    0  501  0.28187853963E+02  0.28339256092E+02 -0.23628989556E+03  0.23964680947E+03  0.10000000000E+00 0. -1.
         21    1    1    2  504  502 -0.81482163406E+01  0.15203829102E+02 -0.17955943489E+03  0.18038608734E+03  0.00000000000E+00 0. -1.
<mgrwt>
<rscale>  1 0.12618231E+03</rscale>
<asrwt>0</asrwt>
<pdfrwt beam="1">  1       21 0.22149721E-02 0.12618231E+03</pdfrwt>
<pdfrwt beam="2">  1       21 0.71479876E-01 0.12618231E+03</pdfrwt>
<totfact> 0.18389947E+06</totfact>
</mgrwt>
</event>
<event>
 6    1  0.4244577E-002  0.1364825E+03  0.7546771E-02  0.1218142E+00
         21   -1    0    0  504  502  0.00000000000E+00  0.00000000000E+00  0.82415138314E+02  0.82415138314E+02  0.00000000000E+00 0. -1.
         21   -1    0    0  502  503 -0.00000000000E+00 -0.00000000000E+00 -0.20552875501E+03  0.20552875501E+03  0.00000000000E+00 0. -1.
         25    2    1    2    0    0  0.36900654191E+02 -0.40502491759E+02  0.16963001938E+02  0.13753255995E+03  0.12500140597E+03 0.  0.
          5    1    3    3  501    0  0.61468990708E+02 -0.19957887044E+01 -0.33034205329E+02  0.69811809265E+02  0.10000000000E+00 0. -1.
         -5    1    3    3    0  501 -0.24568336517E+02 -0.38506703054E+02  0.49997207267E+02  0.67720750689E+02  0.10000000000E+00 0. -1.
         21    1    1    2  504  503 -0.36900654191E+02  0.40502491759E+02 -0.14007661863E+03  0.15041133337E+03  0.00000000000E+00 0. -1.
<mgrwt>
<rscale>  1 0.13648246E+03</rscale>
<asrwt>0</asrwt>
<pdfrwt beam="1">  1       21 0.12679252E-01 0.13648246E+03</pdfrwt>
<pdfrwt beam="2">  1       21 0.31619808E-01 0.13648246E+03</pdfrwt>
<totfact> 0.51493491E+05</totfact>
</mgrwt>
</event>
<event>
 6    1  0.4244577E-002  0.1304674E+03  0.7546771E-02  0.1226764E+00
         21   -1    0    0  504  502  0.00000000000E+00  0.00000000000E+00  0.93901130583E+01  0.93901130583E+01  0.00000000000E+00 0.  1.
         21   -1    0    0  502  503 -0.00000000000E+00 -0.00000000000E+00 -0.75226358691E+03  0.75226358691E+03  0.00000000000E+00 0.  1.
         25    2    1    2    0    0 -0.26848919081E+02  0.26005261007E+02 -0.55962888842E+03  0.57463574322E+03  0.12499842630E+03 0.  0.
          5    1    3    3  501    0  0.41487658446E+02 -0.11419221084E+02 -0.10662702988E+03  0.11498242437E+03  0.10000000000E+00 0. -1.
         -5    1    3    3    0  501 -0.68336577527E+02  0.37424482090E+02 -0.45300185854E+03  0.45965331885E+03  0.10000000000E+00 0. -1.
         21    1    1    2  504  503  0.26848919081E+02 -0.26005261007E+02 -0.18324458543E+03  0.18701795675E+03  0.00000000000E+00 0.  1.
<mgrwt>
<rscale>  1 0.13046741E+03</rscale>
<asrwt>0</asrwt>
<pdfrwt beam="1">  1       21 0.14446328E-02 0.13046741E+03</pdfrwt>
<pdfrwt beam="2">  1       21 0.11573286E+00 0.13046741E+03</pdfrwt>
<totfact> 0.12093025E+06</totfact>
</mgrwt>
</event>
<event>
 6    1  0.4244577E-002  0.1369591E+03  0.7546771E-02  0.1217480E+00
         21   -1    0    0  504  502  0.00000000000E+00  0.00000000000E+00  0.94934617328E+03  0.94934617328E+03  0.00000000000E+00 0.  1.
         21   -1    0    0  502  503 -0.00000000000E+00 -0.00000000000E+00 -0.10745944194E+02  0.10745944194E+02  0.00000000000E+00 0.  1.
         25    2    1    2    0    0  0.52715284056E+02  0.18778626470E+02  0.77942505917E+03  0.79136668162E+03  0.12500505564E+03 0.  0.
          5    1    3    3  501    0  0.57178433941E+02 -0.43858106459E+02  0.34678191099E+03  0.35419007694E+03  0.10000000000E+00 0.  1.
         -5    1    3    3    0  501 -0.44631498847E+01  0.62636732929E+02  0.43264314818E+03  0.43717660468E+03  0.10000000000E+00 0.  1.
         21    1    1    2  504  503 -0.52715284056E+02 -0.18778626470E+02  0.15917516991E+03  0.16872543585E+03  0.00000000000E+00 0.  1.
<mgrwt>
<rscale>  1 0.13695913E+03</rscale>
<asrwt>0</asrwt>
<pdfrwt beam="1">  1       21 0.14605319E+00 0.13695913E+03</pdfrwt>
<pdfrwt beam="2">  1       21 0.16532229E-02 0.13695913E+03</pdfrwt>
<totfact> 0.54501161E+05</totfact>
</mgrwt>
</event>
<event>
 6    1  0.4244577E-002  0.1272726E+03  0.7546771E-02  0.1231560E+00
         21   -1    0    0  504  502  0.00000000000E+00  0.00000000000E+00  0.66664886789E+03  0.66664886789E+03  0.00000000000E+00 0.  1.
         21   -1    0    0  502  503 -0.00000000000E+00 -0.00000000000E+00 -0.85787213444E+01  0.85787213444E+01  0.00000000000E+00 0.  1.
         25    2    1    2    0    0  0.20306789546E+02  0.12640639030E+02  0.56048612097E+03  0.57475473964E+03  0.12500466987E+03 0.  0.
          5    1    3    3  501    0  0.35465580371E+02  0.42581750950E+02  0.51631672997E+03  0.51928218586E+03  0.10000000000E+00 0.  1.
         -5    1    3    3    0  501 -0.15158790825E+02 -0.29941111919E+02  0.44169390999E+02  0.55472553785E+02  0.10000000000E+00 0.  1.
         21    1    1    2  504  503 -0.20306789546E+02 -0.12640639030E+02  0.97584025580E+02  0.10047284959E+03  0.00000000000E+00 0. -1.
<mgrwt>
<rscale>  1 0.12727262E+03</rscale>
<asrwt>0</asrwt>
<pdfrwt beam="1">  1       21 0.10256132E+00 0.12727262E+03</pdfrwt>
<pdfrwt beam="2">  1       21 0.13198038E-02 0.12727262E+03</pdfrwt>
<totfact> 0.18625270E+06</totfact>
</mgrwt>
</event>
<event>
 6    1  0.4244577E-002  0.1491204E+03  0.7546771E-02  0.1201558E+00
         21   -1    0    0  504  502  0.00000000000E+00  0.00000000000E+00  0.28853396932E+03  0.28853396932E+03  0.00000000000E+00 0.  1.
         21   -1    0    0  502  503 -0.00000000000E+00 -0.00000000000E+00 -0.15018659060E+03  0.15018659060E+03  0.00000000000E+00 0. -1.
         25    2    1    2    0    0  0.80474409641E+02 -0.11389574503E+02  0.25567930605E+03  0.29598782302E+03  0.12502412096E+03 0.  0.
          5    1    3    3  501    0 -0.16527419817E+02 -0.16951059802E+02  0.13297937198E+01  0.23712283432E+02  0.10000000000E+00 0. -1.
         -5    1    3    3    0  501  0.97001829458E+02  0.55614852990E+01  0.25434951233E+03  0.27227553959E+03  0.10000000000E+00 0. -1.
         21    1    1    2  504  503 -0.80474409641E+02  0.11389574503E+02 -0.11733192732E+03  0.14273273690E+03  0.00000000000E+00 0. -1.
<mgrwt>
<rscale>  1 0.14912037E+03</rscale>
<asrwt>0</asrwt>
<pdfrwt beam="1">  1       21 0.44389841E-01 0.14912037E+03</pdfrwt>
<pdfrwt beam="2">  1       21 0.23105629E-01 0.14912037E+03</pdfrwt>
<totfact> 0.87273773E+04</totfact>
</mgrwt>
</event>
<event>
 6    1  0.4244577E-002  0.1261118E+03  0.7546771E-02  0.1233342E+00
         21   -1    0    0  504  502  0.00000000000E+00  0.00000000000E+00  0.18028766058E+02  0.18028766058E+02  0.00000000000E+00 0. -1.
         21   -1    0    0  502  503 -0.00000000000E+00 -0.00000000000E+00 -0.28375249905E+03  0.28375249905E+03  0.00000000000E+00 0. -1.
         25    2    1    2    0    0  0.12224205914E+02  0.11447504397E+02 -0.22930442494E+03  0.26169582429E+03  0.12499483423E+03 0.  0.
          5    1    3    3  501    0  0.42009819291E+02 -0.34216878589E+02 -0.18072681257E+03  0.18867382033E+03  0.10000000000E+00 0.  1.
         -5    1    3    3    0  501 -0.29785613377E+02  0.45664382986E+02 -0.48577612377E+02  0.73022003957E+02  0.10000000000E+00 0.  1.
         21    1    1    2  504  503 -0.12224205914E+02 -0.11447504397E+02 -0.36419308044E+02  0.40085440818E+02  0.00000000000E+00 0. -1.
<mgrwt>
<rscale>  1 0.12611180E+03</rscale>
<asrwt>0</asrwt>
<pdfrwt beam="1">  1       21 0.27736564E-02 0.12611180E+03</pdfrwt>
<pdfrwt beam="2">  1       21 0.43654229E-01 0.12611180E+03</pdfrwt>
<totfact> 0.35926808E+06</totfact>
</mgrwt>
</event>
<event>
 6    1  0.4244577E-002  0.1259916E+03  0.7546771E-02  0.1233528E+00
         21   -1    0    0  503  502  0.00000000000E+00  0.00000000000E+00  0.18473653521E+03  0.18473653521E+03  0.00000000000E+00 0. -1.
         21   -1    0    0  504  503 -0.00000000000E+00 -0.00000000000E+00 -0.29883075725E+02  0.29883075725E+02  0.00000000000E+00 0. -1.
         25    2    1    2    0    0  0.10299297676E+02 -0.11878136198E+02  0.15386422607E+03  0.19886701639E+03  0.12500689779E+03 0.  0.
          5    1    3    3  501    0  0.59866926628E+02 -0.67065492744E+01  0.13068948755E+03  0.14390545113E+03  0.10000000000E+00 0. -1.
         -5    1    3    3    0  501 -0.49567628952E+02 -0.51715869231E+01  0.23174738511E+02  0.54961565264E+02  0.10000000000E+00 0. -1.
         21    1    1    2  504  502 -0.10299297676E+02  0.11878136198E+02  0.98923342119E+00  0.15752594545E+02  0.00000000000E+00 0. -1.
<mgrwt>
<rscale>  1 0.12599163E+03</rscale>
<asrwt>0</asrwt>
<pdfrwt beam="1">  1       21 0.28421005E-01 0.12599163E+03</pdfrwt>
<pdfrwt beam="2">  1       21 0.45973964E-02 0.12599163E+03</pdfrwt>
<totfact> 0.36252670E+06</totfact>
</mgrwt>
</event>
<event>
 6    1  0.4244577E-002  0.1259828E+03  0.7546771E-02  0.1233541E+00
         21   -1    0    0  503  502  0.00000000000E+00  0.00000000000E+00  0.59362289455E+03  0.59362289455E+03  0.00000000000E+00 0.  1.
         21   -1    0    0  504  503 -0.00000000000E+00 -0.00000000000E+00 -0.93295604085E+01  0.93295604085E+01  0.00000000000E+00 0.  1.
         25    2    1    2    0    0 -0.90290076591E+01  0.12944888512E+02  0.55989936855E+03  0.57389804608E+03  0.12499028473E+03 0.  0.
          5    1    3    3  501    0 -0.54799561600E+02  0.32221685596E+02  0.18271478129E+03  0.19345782558E+03  0.10000000000E+00 0. -1.
         -5    1    3    3    0  501  0.45770553941E+02 -0.19276797084E+02  0.37718458725E+03  0.38044022050E+03  0.10000000000E+00 0. -1.
         21    1    1    2  504  502  0.90290076591E+01 -0.12944888512E+02  0.24393965597E+02  0.29054408882E+02  0.00000000000E+00 0.  1.
<mgrwt>
<rscale>  1 0.12598279E+03</rscale>
<asrwt>0</asrwt>
<pdfrwt beam="1">  1       21 0.91326569E-01 0.12598279E+03</pdfrwt>
<pdfrwt beam="2">  1       21 0.14353175E-02 0.12598279E+03</pdfrwt>
<totfact> 0.21333583E+06</totfact>
</mgrwt>
</event>
<event>
 6    1  0.4244577E-002  0.1319155E+03  0.7546771E-02  0.1224641E+00
         21   -1    0    0  503  502  0.00000000000E+00  0.00000000000E+00  0.16173475655E+03  0.16173475655E+03  0.00000000000E+00 0.  1.
         21   -1    0    0  504  503 -0.00000000000E+00 -0.00000000000E+00 -0.46892145285E+02  0.46892145285E+02  0.00000000000E+00 0.  1.
         25    2    1    2    0    0  0.28533522446E+02 -0.31020949056E+02  0.90169697323E+02  0.15978825048E+03  0.12500099797E+03 0.  0.
          5    1    3    3  501    0  0.41380228168E+02 -0.68079960230E+01 -0.19855900013E+02  0.46399772180E+02  0.10000000000E+00 0. -1.
         -5    1    3    3    0  501 -0.12846705722E+02 -0.24212953033E+02  0.11002559734E+03  0.11338847830E+03  0.10000000000E+00 0. -1.
         21    1    1    2  504  502 -0.28533522446E+02  0.31020949056E+02  0.24672913941E+02  0.48838651352E+02  0.00000000000E+00 0.  1.
<mgrwt>
<rscale>  1 0.13191554E+03</rscale>
<asrwt>0</asrwt>
<pdfrwt beam="1">  1       21 0.24882270E-01 0.13191554E+03</pdfrwt>
<pdfrwt beam="2">  1       21 0.72141763E-02 0.13191554E+03</pdfrwt>
<totfact> 0.21816555E+06</totfact>
</mgrwt>
</event>
<event>
 6    1  0.4244577E-002  0.1313422E+03  0.7546771E-02  0.1225478E+00
         21   -1    0    0  504  502  0.00000000000E+00  0.00000000000E+00  0.16764778987E+03  0.16764778987E+03  0.00000000000E+00 0.  1.
         21   -1    0    0  502  503 -0.00000000000E+00 -0.00000000000E+00 -0.46004329055E+02  0.46004329055E+02  0.00000000000E+00 0.  1.
         25    2    1    2    0    0 -0.33917599084E+02 -0.21699976410E+02  0.11110077319E+03  0.17202951970E+03  0.12501792408E+03 0.  0.
          5    1    3    3  501    0 -0.30353460366E+02 -0.71227304615E+02  0.45673059931E+02  0.89892713177E+02  0.10000000000E+00 0. -1.
         -5    1    3    3    0  501 -0.35641387172E+01  0.49527328205E+02  0.65427713257E+02  0.82136806524E+02  0.10000000000E+00 0. -1.
         21    1    1    2  504  503  0.33917599084E+02  0.21699976410E+02  0.10542687629E+02  0.41622599225E+02  0.00000000000E+00 0.  1.
<mgrwt>
<rscale>  1 0.13134220E+03</rscale>
<asrwt>0</asrwt>
<pdfrwt beam="1">  1       21 0.25791967E-01 0.13134220E+03</pdfrwt>
<pdfrwt beam="2">  1       21 0.70775892E-02 0.13134220E+03</pdfrwt>
<totfact> 0.21058606E+06</totfact>
</mgrwt>
</event>
<event>
 6    1  0.4244577E-002  0.1271945E+03  0.7546771E-02  0.1231679E+00
         21   -1    0    0  504  502  0.00000000000E+00  0.00000000000E+00  0.38753408740E+01  0.38753408740E+01  0.00000000000E+00 0.  1.
         21   -1    0    0  502  503 -0.00000000000E+00 -0.00000000000E+00 -0.15661163121E+04  0.15661163121E+04  0.00000000000E+00 0.  1.
         25    2    1    2    0    0  0.18476007798E+02 -0.14692998639E+02 -0.14312411837E+04  0.14368819560E+04  0.12498473003E+03 0.  0.
          5    1    3    3  501    0  0.49830915253E+02 -0.55824250971E+02 -0.77391533836E+03  0.77752455142E+03  0.10000000000E+00 0.  1.
         -5    1    3    3    0  501 -0.31354907456E+02  0.41131252333E+02 -0.65732584530E+03  0.65935740463E+03  0.10000000000E+00 0.  1.
         21    1    1    2  504  503 -0.18476007798E+02  0.14692998639E+02 -0.13099978756E+03  0.13310969692E+03  0.00000000000E+00 0.  1.
<mgrwt>
<rscale>  1 0.12719446E+03</rscale>
<asrwt>0</asrwt>
<pdfrwt beam="1">  1       21 0.59620591E-03 0.12719446E+03</pdfrwt>
<pdfrwt beam="2">  1       21 0.24094112E+00 0.12719446E+03</pdfrwt>
<totfact> 0.65849597E+05</totfact>
</mgrwt>
</event>
<event>
 6    1  0.4244577E-002  0.1542955E+03  0.7546771E-02  0.1195292E+00
         21   -1    0    0  503  502  0.00000000000E+00  0.00000000000E+00  0.72975286913E+02  0.72975286913E+02  0.00000000000E+00 0. -1.
         21   -1    0    0  504  503 -0.00000000000E+00 -0.00000000000E+00 -0.20521588661E+03  0.20521588661E+03  0.00000000000E+00 0. -1.
         25    2    1    2    0    0  0.63969483242E+02  0.63951781571E+02 -0.83723453059E+02  0.17554694002E+03  0.12500074563E+03 0.  0.
          5    1    3    3  501    0  0.53475026442E+02 -0.38733386484E+01 -0.91933469484E+02  0.10642534480E+03  0.10000000000E+00 0.  1.
         -5    1    3    3    0  501  0.10494456801E+02  0.67825120219E+02  0.82100164244E+01  0.69121595222E+02  0.10000000000E+00 0.  1.
         21    1    1    2  504  502 -0.63969483242E+02 -0.63951781571E+02 -0.48517146636E+02  0.10264423350E+03  0.00000000000E+00 0. -1.
<mgrwt>
<rscale>  1 0.15429553E+03</rscale>
<asrwt>0</asrwt>
<pdfrwt beam="1">  1       21 0.11226967E-01 0.15429553E+03</pdfrwt>
<pdfrwt beam="2">  1       21 0.31571674E-01 0.15429553E+03</pdfrwt>
<totfact> 0.64030068E+05</totfact>
</mgrwt>
</event>
<event>
 6    1  0.4244577E-002  0.1427628E+03  0.7546771E-02  0.1209659E+00
         21   -1    0    0  504  502  0.00000000000E+00  0.00000000000E+00  0.25138262298E+02  0.25138262298E+02  0.00000000000E+00 0. -1.
         21   -1    0    0  502  503 -0.00000000000E+00 -0.00000000000E+00 -0.47838596905E+03  0.47838596905E+03  0.00000000000E+00 0. -1.
         25    2    1    2    0    0  0.56982819730E+02  0.38815411645E+02 -0.23832160808E+03  0.27781001865E+03  0.12501015821E+03 0.  0.
          5    1    3    3  501    0  0.85173707361E+02  0.15016738135E+02 -0.89406655298E+02  0.12439301774E+03  0.10000000000E+00 0. -1.
         -5    1    3    3    0  501 -0.28190887630E+02  0.23798673510E+02 -0.14891495278E+03  0.15341700091E+03  0.10000000000E+00 0. -1.
         21    1    1    2  504  503 -0.56982819730E+02 -0.38815411645E+02 -0.21492609867E+03  0.22571421270E+03  0.00000000000E+00 0. -1.
<mgrwt>
<rscale>  1 0.14276280E+03</rscale>
<asrwt>0</asrwt>
<pdfrwt beam="1">  1       21 0.38674250E-02 0.14276280E+03</pdfrwt>
<pdfrwt beam="2">  1       21 0.73597840E-01 0.14276280E+03</pdfrwt>
<totfact> 0.69174266E+05</totfact>
</mgrwt>
</event>
<event>
 6    1  0.4244577E-002  0.1547684E+03  0.7546771E-02  0.1194733E+00
         21   -1    0    0  503  502  0.00000000000E+00  0.00000000000E+00  0.65863096184E+03  0.65863096184E+03  0.00000000000E+00 0. -1.
         21   -1    0    0  504  503 -0.00000000000E+00 -0.00000000000E+00 -0.65960697012E+03  0.65960697012E+03  0.00000000000E+00 0. -1.
         25    2    1    2    0    0 -0.16006240604E+02  0.89854288616E+02  0.64629296464E+03  0.66456590699E+03  0.12499302248E+03 0.  0.
          5    1    3    3  501    0  0.19056335763E+02  0.72052521939E+02  0.15804275870E+03  0.17473475164E+03  0.10000000000E+00 0.  1.
         -5    1    3    3    0  501 -0.35062576367E+02  0.17801766677E+02  0.48825020594E+03  0.48983115535E+03  0.10000000000E+00 0.  1.
         21    1    1    2  504  502  0.16006240604E+02 -0.89854288616E+02 -0.64726897292E+03  0.65367202497E+03  0.00000000000E+00 0. -1.
<mgrwt>
<rscale>  1 0.15476837E+03</rscale>
<asrwt>0</asrwt>
<pdfrwt beam="1">  1       21 0.10132784E+00 0.15476837E+03</pdfrwt>
<pdfrwt beam="2">  1       21 0.10147800E+00 0.15476837E+03</pdfrwt>
<totfact> 0.65949622E+02</totfact>
</mgrwt>
</event>
<event>
 6    1  0.4244577E-002  0.1758558E+03  0.7546771E-02  0.1171875E+00
         21   -1    0    0  503  502  0.00000000000E+00  0.00000000000E+00  0.10526451108E+03  0.10526451108E+03  0.00000000000E+00 0.  1.
         21   -1    0    0  504  503 -0.00000000000E+00 -0.00000000000E+00 -0.31117072717E+03  0.31117072717E+03  0.00000000000E+00 0.  1.
         25    2    1    2    0    0  0.39356009921E+00 -0.12369240534E+03  0.43872011629E+00  0.17585635570E+03  0.12500119734E+03 0.  0.
          5    1    3    3  501    0  0.42795124473E+02 -0.51046858891E+02  0.45271063262E+02  0.80539950647E+02  0.10000000000E+00 0.  1.
         -5    1    3    3    0  501 -0.42401564374E+02 -0.72645546450E+02 -0.44832343146E+02  0.95316405054E+02  0.10000000000E+00 0.  1.
         21    1    1    2  504  502 -0.39356009921E+00  0.12369240534E+03 -0.20634493621E+03  0.24057888255E+03  0.00000000000E+00 0.  1.
<mgrwt>
<rscale>  1 0.17585581E+03</rscale>
<asrwt>0</asrwt>
<pdfrwt beam="1">  1       21 0.16194540E-01 0.17585581E+03</pdfrwt>
<pdfrwt beam="2">  1       21 0.47872419E-01 0.17585581E+03</pdfrwt>
<totfact> 0.14304559E+05</totfact>
</mgrwt>
</event>
<event>
 6    1  0.4244577E-002  0.1298205E+03  0.7546771E-02  0.1227722E+00
         21   -1    0    0  503  502  0.00000000000E+00  0.00000000000E+00  0.10469232745E+03  0.10469232745E+03  0.00000000000E+00 0.  1.
         21   -1    0    0  504  503 -0.00000000000E+00 -0.00000000000E+00 -0.65283789088E+02  0.65283789088E+02  0.00000000000E+00 0.  1.
         25    2    1    2    0    0 -0.10333131343E+01  0.35029066870E+02  0.36267421113E+02  0.13479132040E+03  0.12500108383E+03 0.  0.
          5    1    3    3  501    0 -0.52738266656E+02  0.43656978023E+02 -0.41645089484E+01  0.68590156982E+02  0.10000000000E+00 0.  1.
         -5    1    3    3    0  501  0.51704953522E+02 -0.86279111527E+01  0.40431930062E+02  0.66201163419E+02  0.10000000000E+00 0.  1.
         21    1    1    2  504  502  0.10333131343E+01 -0.35029066870E+02  0.31411172512E+01  0.35184796140E+02  0.00000000000E+00 0.  1.
<mgrwt>
<rscale>  1 0.12982055E+03</rscale>
<asrwt>0</asrwt>
<pdfrwt beam="1">  1       21 0.16106512E-01 0.12982055E+03</pdfrwt>
<pdfrwt beam="2">  1       21 0.10043660E-01 0.12982055E+03</pdfrwt>
<totfact> 0.27490601E+06</totfact>
</mgrwt>
</event>
<event>
 6    1  0.4244577E-002  0.1402717E+03  0.7546771E-02  0.1212964E+00
         21   -1    0    0  504  502  0.00000000000E+00  0.00000000000E+00  0.33903336430E+03  0.33903336430E+03  0.00000000000E+00 0.  1.
         21   -1    0    0  502  503 -0.00000000000E+00 -0.00000000000E+00 -0.31467027424E+02  0.31467027424E+02  0.00000000000E+00 0.  1.
         25    2    1    2    0    0 -0.48274883418E+02  0.41477221661E+02  0.23759987193E+03  0.27591640522E+03  0.12500135696E+03 0.  0.
          5    1    3    3  501    0 -0.27669224317E+02 -0.25713013724E+02  0.18317160614E+03  0.18702564623E+03  0.10000000000E+00 0. -1.
         -5    1    3    3    0  501 -0.20605659101E+02  0.67190235385E+02  0.54428265791E+02  0.88890758997E+02  0.10000000000E+00 0. -1.
         21    1    1    2  504  503  0.48274883418E+02 -0.41477221661E+02  0.69966464937E+02  0.94583986497E+02  0.00000000000E+00 0.  1.
<mgrwt>
<rscale>  1 0.14027175E+03</rscale>
<asrwt>0</asrwt>
<pdfrwt beam="1">  1       21 0.52158977E-01 0.14027175E+03</pdfrwt>
<pdfrwt beam="2">  1       21 0.48410814E-02 0.14027175E+03</pdfrwt>
<totfact> 0.99361775E+05</totfact>
</mgrwt>
</event>
<event>
 6    1  0.4244577E-002  0.1262161E+03  0.7546771E-02  0.1233181E+00
         21   -1    0    0  503  502  0.00000000000E+00  0.00000000000E+00  0.19195479473E+03  0.19195479473E+03  0.00000000000E+00 0. -1.
         21   -1    0    0  504  503 -0.00000000000E+00 -0.00000000000E+00 -0.29071548606E+03  0.29071548606E+03  0.00000000000E+00 0.  1.
         25    2    1    2    0    0  0.80601634804E+01  0.15566315204E+02  0.17089168771E+03  0.21244873849E+03  0.12499288442E+03 0.  0.
          5    1    3    3  501    0  0.65592704989E+02  0.56601055163E+01  0.10921790110E+03  0.12752646652E+03  0.10000000000E+00 0.  1.
         -5    1    3    3    0  501 -0.57532541509E+02  0.99062096876E+01  0.61673786606E+02  0.84922271973E+02  0.10000000000E+00 0.  1.
         21    1    1    2  504  502 -0.80601634804E+01 -0.15566315204E+02 -0.26965237904E+03  0.27022154230E+03  0.00000000000E+00 0.  1.
<mgrwt>
<rscale>  1 0.12621607E+03</rscale>
<asrwt>0</asrwt>
<pdfrwt beam="1">  1       21 0.29531507E-01 0.12621607E+03</pdfrwt>
<pdfrwt beam="2">  1       21 0.44725459E-01 0.12621607E+03</pdfrwt>
<totfact> 0.54463644E+04</totfact>
</mgrwt>
</event>
<event>
 6    1  0.4244577E-002  0.1282144E+03  0.7546771E-02  0.1230130E+00
         21   -1    0    0  503  502  0.00000000000E+00  0.00000000000E+00  0.37560512681E+03  0.37560512681E+03  0.00000000000E+00 0. -1.
         21   -1    0    0  504  503 -0.00000000000E+00 -0.00000000000E+00 -0.18436318854E+02  0.18436318854E+02  0.00000000000E+00 0. -1.
         25    2    1    2    0    0  0.92663958748E+01 -0.26959936009E+02  0.33242118618E+03  0.35629029964E+03  0.12500491333E+03 0.  0.
          5    1    3    3  501    0  0.62173876554E+02 -0.31830871610E+02  0.13704401289E+03  0.15381764133E+03  0.10000000000E+00 0.  1.
         -5    1    3    3    0  501 -0.52907480679E+02  0.48709356008E+01  0.19537717328E+03  0.20247265832E+03  0.10000000000E+00 0.  1.
         21    1    1    2  504  502 -0.92663958748E+01  0.26959936009E+02  0.24747621777E+02  0.37751146019E+02  0.00000000000E+00 0. -1.
<mgrwt>
<rscale>  1 0.12821440E+03</rscale>
<asrwt>0</asrwt>
<pdfrwt beam="1">  1       21 0.57785398E-01 0.12821440E+03</pdfrwt>
<pdfrwt beam="2">  1       21 0.28363570E-02 0.12821440E+03</pdfrwt>
<totfact> 0.19424879E+06</totfact>
</mgrwt>
</event>
<event>
 6    1  0.4244577E-002  0.1600560E+03  0.7546771E-02  0.1188633E+00
         21   -1    0    0  503  502  0.00000000000E+00  0.00000000000E+00  0.54161787926E+02  0.54161787926E+02  0.00000000000E+00 0.  1.
         21   -1    0    0  504  503 -0.00000000000E+00 -0.00000000000E+00 -0.37326744280E+03  0.37326744280E+03  0.00000000000E+00 0. -1.
         25    2    1    2    0    0 -0.99979252405E+02 -0.11858652096E+01 -0.10583186789E+03  0.19188100763E+03  0.12498271737E+03 0.  0.
          5    1    3    3  501    0 -0.31405128849E+02  0.26554523682E+02 -0.11035570049E+03  0.11777018077E+03  0.10000000000E+00 0. -1.
         -5    1    3    3    0  501 -0.68574123556E+02 -0.27740388891E+02  0.45238326062E+01  0.74110826866E+02  0.10000000000E+00 0. -1.
         21    1    1    2  504  502  0.99979252405E+02  0.11858652096E+01 -0.21327378698E+03  0.23554822309E+03  0.00000000000E+00 0. -1.
<mgrwt>
<rscale>  1 0.16005604E+03</rscale>
<asrwt>0</asrwt>
<pdfrwt beam="1">  1       21 0.83325831E-02 0.16005604E+03</pdfrwt>
<pdfrwt beam="2">  1       21 0.57425758E-01 0.16005604E+03</pdfrwt>
<totfact> 0.32064189E+05</totfact>
</mgrwt>
</event>
<event>
 6    1  0.4244577E-002  0.1302675E+03  0.7546771E-02  0.1227059E+00
         21   -1    0    0  503  502  0.00000000000E+00  0.00000000000E+00  0.18950557018E+03  0.18950557018E+03  0.00000000000E+00 0.  1.
         21   -1    0    0  504  503 -0.00000000000E+00 -0.00000000000E+00 -0.37046373252E+02  0.37046373252E+02  0.00000000000E+00 0.  1.
         25    2    1    2    0    0  0.23181058036E+02 -0.28403086566E+02  0.12689655745E+03  0.18185803652E+03  0.12500204948E+03 0.  0.
          5    1    3    3  501    0  0.55675562866E+02  0.24246549930E+02  0.93665729500E+02  0.11162859117E+03  0.10000000000E+00 0.  1.
         -5    1    3    3    0  501 -0.32494504831E+02 -0.52649636496E+02  0.33230827950E+02  0.70229445346E+02  0.10000000000E+00 0.  1.
         21    1    1    2  504  502 -0.23181058036E+02  0.28403086566E+02  0.25562639473E+02  0.44693906911E+02  0.00000000000E+00 0.  1.
<mgrwt>
<rscale>  1 0.13026745E+03</rscale>
<asrwt>0</asrwt>
<pdfrwt beam="1">  1       21 0.29154703E-01 0.13026745E+03</pdfrwt>
<pdfrwt beam="2">  1       21 0.56994421E-02 0.13026745E+03</pdfrwt>
<totfact> 0.24084018E+06</totfact>
</mgrwt>
</event>
<event>
 6    1  0.4244577E-002  0.1264450E+03  0.7546771E-02  0.1232828E+00
         21   -1    0    0  503  502  0.00000000000E+00  0.00000000000E+00  0.69774603720E+03  0.69774603720E+03  0.00000000000E+00 0. -1.
         21   -1    0    0  504  503 -0.00000000000E+00 -0.00000000000E+00 -0.76190845119E+01  0.76190845119E+01  0.00000000000E+00 0. -1.
         25    2    1    2    0    0  0.34743293222E+01 -0.18887122732E+02  0.61023719694E+03  0.62319963356E+03  0.12497820760E+03 0.  0.
          5    1    3    3  501    0  0.28280093596E+02  0.34861228069E+02  0.10091261633E+03  0.11044652575E+03  0.10000000000E+00 0.  1.
         -5    1    3    3    0  501 -0.24805764273E+02 -0.53748350801E+02  0.50932458061E+03  0.51275310781E+03  0.10000000000E+00 0.  1.
         21    1    1    2  504  502 -0.34743293222E+01  0.18887122732E+02  0.79889755746E+02  0.82165488148E+02  0.00000000000E+00 0. -1.
<mgrwt>
<rscale>  1 0.12644503E+03</rscale>
<asrwt>0</asrwt>
<pdfrwt beam="1">  1       21 0.10734549E+00 0.12644503E+03</pdfrwt>
<pdfrwt beam="2">  1       21 0.11721674E-02 0.12644503E+03</pdfrwt>
<totfact> 0.20178783E+06</totfact>
</mgrwt>
</event>
<event>
 6    1  0.4244577E-002  0.1275138E+03  0.7546771E-02  0.1231192E+00
         21   -1    0    0  503  502  0.00000000000E+00  0.00000000000E+00  0.73360315452E+01  0.73360315452E+01  0.00000000000E+00 0.  1.
         21   -1    0    0  504  503 -0.00000000000E+00 -0.00000000000E+00 -0.97461010967E+03  0.97461010967E+03  0.00000000000E+00 0.  1.
         25    2    1    2    0    0  0.23352033127E+02  0.82554194591E+01 -0.57863263843E+03  0.59251625272E+03  0.12508521130E+03 0.  0.
          5    1    3    3  501    0  0.50481824062E+01  0.61387899507E+02 -0.41398735602E+03  0.41854450097E+03  0.10000000000E+00 0.  1.
         -5    1    3    3    0  501  0.18303850721E+02 -0.53132480047E+02 -0.16464528241E+03  0.17397175175E+03  0.10000000000E+00 0.  1.
         21    1    1    2  504  502 -0.23352033127E+02 -0.82554194591E+01 -0.38864143969E+03  0.38942988849E+03  0.00000000000E+00 0.  1.
<mgrwt>
<rscale>  1 0.12751384E+03</rscale>
<asrwt>0</asrwt>
<pdfrwt beam="1">  1       21 0.11286205E-02 0.12751384E+03</pdfrwt>
<pdfrwt beam="2">  1       21 0.14993999E+00 0.12751384E+03</pdfrwt>
<totfact> 0.93706173E+05</totfact>
</mgrwt>
</event>
<event>
 6    1  0.4244577E-002  0.1322991E+03  0.7546771E-02  0.1224084E+00
         21   -1    0    0  503  502  0.00000000000E+00  0.00000000000E+00  0.12302688977E+03  0.12302688977E+03  0.00000000000E+00 0.  1.
         21   -1    0    0  504  503 -0.00000000000E+00 -0.00000000000E+00 -0.10929592761E+03  0.10929592761E+03  0.00000000000E+00 0.  1.
         25    2    1    2    0    0  0.24573609483E+02  0.35702231164E+02  0.78912894199E+02  0.15404641061E+03  0.12499816062E+03 0.  0.
          5    1    3    3  501    0  0.11871957053E+02 -0.18186246837E+01 -0.33112560021E+02  0.35223605596E+02  0.10000000000E+00 0.  1.
         -5    1    3    3    0  501  0.12701652430E+02  0.37520855847E+02  0.11202545422E+03  0.11882280501E+03  0.10000000000E+00 0.  1.
         21    1    1    2  504  502 -0.24573609483E+02 -0.35702231164E+02 -0.65181932035E+02  0.78276406771E+02  0.00000000000E+00 0.  1.
<mgrwt>
<rscale>  1 0.13229910E+03</rscale>
<asrwt>0</asrwt>
<pdfrwt beam="1">  1       21 0.18927214E-01 0.13229910E+03</pdfrwt>
<pdfrwt beam="2">  1       21 0.16814758E-01 0.13229910E+03</pdfrwt>
<totfact> 0.81678474E+05</totfact>
</mgrwt>
</event>
<event>
 6    1  0.4244577E-002  0.1707617E+03  0.7546771E-02  0.1177056E+00
         21   -1    0    0  504  502  0.00000000000E+00  0.00000000000E+00  0.11173429295E+03  0.11173429295E+03  0.00000000000E+00 0. -1.
         21   -1    0    0  502  503 -0.00000000000E+00 -0.00000000000E+00 -0.32577102397E+03  0.32577102397E+03  0.00000000000E+00 0. -1.
         25    2    1    2    0    0  0.27531917089E+02 -0.11302841879E+03  0.24117590406E+02  0.17245643327E+03  0.12500453310E+03 0.  0.
          5    1    3    3  501    0  0.45139413130E+02 -0.22022667291E+02 -0.36159670729E+02  0.61887771648E+02  0.10000000000E+00 0.  1.
         -5    1    3    3    0  501 -0.17607496040E+02 -0.91005751497E+02  0.60277261135E+02  0.11056866162E+03  0.10000000000E+00 0.  1.
         21    1    1    2  504  503 -0.27531917089E+02  0.11302841879E+03 -0.23815432143E+03  0.26504888366E+03  0.00000000000E+00 0. -1.
<mgrwt>
<rscale>  1 0.17076171E+03</rscale>
<asrwt>0</asrwt>
<pdfrwt beam="1">  1       21 0.17189891E-01 0.17076171E+03</pdfrwt>
<pdfrwt beam="2">  1       21 0.50118618E-01 0.17076171E+03</pdfrwt>
<totfact> 0.11682503E+05</totfact>
</mgrwt>
</event>
<event>
 6    1  0.4244577E-002  0.1393067E+03  0.7546771E-02  0.1214265E+00
         21   -1    0    0  503  502  0.00000000000E+00  0.00000000000E+00  0.16277651759E+03  0.16277651759E+03  0.00000000000E+00 0.  1.
         21   -1    0    0  504  503 -0.00000000000E+00 -0.00000000000E+00 -0.63834273177E+02  0.63834273177E+02  0.00000000000E+00 0.  1.
         25    2    1    2    0    0  0.30795080245E+02  0.53222673240E+02  0.86185410139E+02  0.16381169257E+03  0.12500142314E+03 0.  0.
          5    1    3    3  501    0  0.24531327058E+02  0.86354109496E+02  0.23760236357E+02  0.92862140110E+02  0.10000000000E+00 0. -1.
         -5    1    3    3    0  501  0.62637531877E+01 -0.33131436256E+02  0.62425173782E+02  0.70949552458E+02  0.10000000000E+00 0. -1.
         21    1    1    2  504  502 -0.30795080245E+02 -0.53222673240E+02  0.12756834276E+02  0.62799098202E+02  0.00000000000E+00 0.  1.
<mgrwt>
<rscale>  1 0.13930666E+03</rscale>
<asrwt>0</asrwt>
<pdfrwt beam="1">  1       21 0.25042541E-01 0.13930666E+03</pdfrwt>
<pdfrwt beam="2">  1       21 0.98206575E-02 0.13930666E+03</pdfrwt>
<totfact> 0.12645466E+06</totfact>
</mgrwt>
</event>
<event>
 6    1  0.4244577E-002  0.1259218E+03  0.7546771E-02  0.1233636E+00
         21   -1    0    0  503  502  0.00000000000E+00  0.00000000000E+00  0.64590927238E+02  0.64590927238E+02  0.00000000000E+00 0.  1.
         21   -1    0    0  504  503 -0.00000000000E+00 -0.00000000000E+00 -0.82266092039E+02  0.82266092039E+02  0.00000000000E+00 0.  1.
         25    2    1    2    0    0  0.80065373857E+01 -0.12951224288E+02 -0.33728415391E+01  0.12596694263E+03  0.12499782288E+03 0.  0.
          5    1    3    3  501    0  0.21854275144E+02  0.32029681788E+02  0.44370620256E+02  0.58925985774E+02  0.10000000000E+00 0.  1.
         -5    1    3    3    0  501 -0.13847737758E+02 -0.44980906076E+02 -0.47743461795E+02  0.67040956859E+02  0.10000000000E+00 0.  1.
         21    1    1    2  504  502 -0.80065373857E+01  0.12951224288E+02 -0.14302323262E+02  0.20890076643E+02  0.00000000000E+00 0.  1.
<mgrwt>
<rscale>  1 0.12592178E+03</rscale>
<asrwt>0</asrwt>
<pdfrwt beam="1">  1       21 0.99370657E-02 0.12592178E+03</pdfrwt>
<pdfrwt beam="2">  1       21 0.12656322E-01 0.12592178E+03</pdfrwt>
<totfact> 0.43120710E+06</totfact>
</mgrwt>
</event>
<event>
 6    1  0.4244577E-002  0.1265684E+03  0.7546771E-02  0.1232638E+00
         21   -1    0    0  503  502  0.00000000000E+00  0.00000000000E+00  0.20379090449E+03  0.20379090449E+03  0.00000000000E+00 0.  1.
         21   -1    0    0  504  503 -0.00000000000E+00 -0.00000000000E+00 -0.28433455247E+02  0.28433455247E+02  0.00000000000E+00 0.  1.
         25    2    1    2    0    0 -0.61401357738E+00 -0.19830539200E+02  0.16949270244E+03  0.21153565382E+03  0.12500371737E+03 0.  0.
          5    1    3    3  501    0  0.56003761501E+02 -0.36155913534E+02  0.10301743610E+03  0.12270400778E+03  0.10000000000E+00 0. -1.
         -5    1    3    3    0  501 -0.56617775078E+02  0.16325374333E+02  0.66475266346E+02  0.88831646037E+02  0.10000000000E+00 0. -1.
         21    1    1    2  504  502  0.61401357738E+00  0.19830539200E+02  0.58647468031E+01  0.20688705922E+02  0.00000000000E+00 0.  1.
<mgrwt>
<rscale>  1 0.12656839E+03</rscale>
<asrwt>0</asrwt>
<pdfrwt beam="1">  1       21 0.31352446E-01 0.12656839E+03</pdfrwt>
<pdfrwt beam="2">  1       21 0.43743779E-02 0.12656839E+03</pdfrwt>
<totfact> 0.32609081E+06</totfact>
</mgrwt>
</event>
<event>
 6    1  0.4244577E-002  0.1259577E+03  0.7546771E-02  0.1233580E+00
         21   -1    0    0  504  502  0.00000000000E+00  0.00000000000E+00  0.49984482696E+02  0.49984482696E+02  0.00000000000E+00 0. -1.
         21   -1    0    0  502  503 -0.00000000000E+00 -0.00000000000E+00 -0.23808899058E+03  0.23808899058E+03  0.00000000000E+00 0. -1.
         25    2    1    2    0    0  0.11731622464E+02 -0.10239100815E+02 -0.30363439366E+02  0.12956569792E+03  0.12499144561E+03 0.  0.
          5    1    3    3  501    0  0.53734193732E+02  0.28871828814E+02 -0.37695083495E+02  0.71706871322E+02  0.10000000000E+00 0.  1.
         -5    1    3    3    0  501 -0.42002571268E+02 -0.39110929629E+02  0.73316441295E+01  0.57858826597E+02  0.10000000000E+00 0.  1.
         21    1    1    2  504  503 -0.11731622464E+02  0.10239100815E+02 -0.15774106852E+03  0.15850777536E+03  0.00000000000E+00 0. -1.
<mgrwt>
<rscale>  1 0.12595766E+03</rscale>
<asrwt>0</asrwt>
<pdfrwt beam="1">  1       21 0.76899205E-02 0.12595766E+03</pdfrwt>
<pdfrwt beam="2">  1       21 0.36629075E-01 0.12595766E+03</pdfrwt>
<totfact> 0.92588061E+05</totfact>
</mgrwt>
</event>
<event>
 6    1  0.4244577E-002  0.1509700E+03  0.7546771E-02  0.1199286E+00
         21   -1    0    0  504  502  0.00000000000E+00  0.00000000000E+00  0.40549136694E+03  0.40549136694E+03  0.00000000000E+00 0. -1.
         21   -1    0    0  502  503 -0.00000000000E+00 -0.00000000000E+00 -0.37442527242E+02  0.37442527242E+02  0.00000000000E+00 0. -1.
         25    2    1    2    0    0 -0.34112059563E+02  0.77474958829E+02  0.16888383116E+03  0.22652524722E+03  0.12500374933E+03 0.  0.
          5    1    3    3  501    0  0.44436421290E+02  0.37731962744E+02  0.40990025322E+02  0.71263516089E+02  0.10000000000E+00 0. -1.
         -5    1    3    3    0  501 -0.78548480853E+02  0.39742996085E+02  0.12789380583E+03  0.15526173113E+03  0.10000000000E+00 0. -1.
         21    1    1    2  504  503  0.34112059563E+02 -0.77474958829E+02  0.19916500854E+03  0.21640864697E+03  0.00000000000E+00 0. -1.
<mgrwt>
<rscale>  1 0.15096999E+03</rscale>
<asrwt>0</asrwt>
<pdfrwt beam="1">  1       21 0.62383284E-01 0.15096999E+03</pdfrwt>
<pdfrwt beam="2">  1       21 0.57603891E-02 0.15096999E+03</pdfrwt>
<totfact> 0.50720635E+05</totfact>
</mgrwt>
</event>
<event>
 6    1  0.4244577E-002  0.1289150E+03  0.7546771E-02  0.1229075E+00
         21   -1    0    0  504  502  0.00000000000E+00  0.00000000000E+00  0.40758472934E+03  0.40758472934E+03  0.00000000000E+00 0.  1.
         21   -1    0    0  502  503 -0.00000000000E+00 -0.00000000000E+00 -0.32736912588E+02  0.32736912588E+02  0.00000000000E+00 0. -1.
         25    2    1    2    0    0 -0.31179691695E+02 -0.46780142059E+01  0.38593787605E+03  0.40689939775E+03  0.12500007491E+03 0.  0.
          5    1    3    3  501    0 -0.65849449391E+02  0.35707700886E+02  0.20318448681E+03  0.21655284706E+03  0.10000000000E+00 0.  1.
         -5    1    3    3    0  501  0.34669757696E+02 -0.40385715092E+02  0.18275338923E+03  0.19034655069E+03  0.10000000000E+00 0.  1.
         21    1    1    2  504  503  0.31179691695E+02  0.46780142059E+01 -0.11090059293E+02  0.33422244183E+02  0.00000000000E+00 0. -1.
<mgrwt>
<rscale>  1 0.12891499E+03</rscale>
<asrwt>0</asrwt>
<pdfrwt beam="1">  1       21 0.62705339E-01 0.12891499E+03</pdfrwt>
<pdfrwt beam="2">  1       21 0.50364484E-02 0.12891499E+03</pdfrwt>
<totfact> 0.63056891E+05</totfact>
</mgrwt>
</event>
<event>
 6    1  0.4244577E-002  0.1596139E+03  0.7546771E-02  0.1189133E+00
         21   -1    0    0  503  502  0.00000000000E+00  0.00000000000E+00  0.15926864493E+03  0.15926864493E+03  0.00000000000E+00 0.  1.
         21   -1    0    0  504  503 -0.00000000000E+00 -0.00000000000E+00 -0.18245070307E+03  0.18245070307E+03  0.00000000000E+00 0.  1.
         25    2    1    2    0    0  0.93725275101E+02  0.32778415411E+02  0.96262041356E+02  0.18639470535E+03  0.12497101210E+03 0.  0.
          5    1    3    3  501    0 -0.22804146584E+02  0.22653610227E+02  0.52398509732E+02  0.61472180536E+02  0.10000000000E+00 0. -1.
         -5    1    3    3    0  501  0.11652942168E+03  0.10124805185E+02  0.43863531624E+02  0.12492252481E+03  0.10000000000E+00 0. -1.
         21    1    1    2  504  502 -0.93725275101E+02 -0.32778415411E+02 -0.11944409949E+03  0.15532464265E+03  0.00000000000E+00 0.  1.
<mgrwt>
<rscale>  1 0.15961393E+03</rscale>
<asrwt>0</asrwt>
<pdfrwt beam="1">  1       21 0.24502869E-01 0.15961393E+03</pdfrwt>
<pdfrwt beam="2">  1       21 0.28069339E-01 0.15961393E+03</pdfrwt>
<totfact> 0.19273277E+05</totfact>
</mgrwt>
</event>
<event>
 6    1  0.4244577E-002  0.1298182E+03  0.7546771E-02  0.1227726E+00
         21   -1    0    0  503  502  0.00000000000E+00  0.00000000000E+00  0.30853224552E+02  0.30853224552E+02  0.00000000000E+00 0. -1.
         21   -1    0    0  504  503 -0.00000000000E+00 -0.00000000000E+00 -0.22148515526E+03  0.22148515526E+03  0.00000000000E+00 0. -1.
         25    2    1    2    0    0  0.16068326580E+02 -0.31130008878E+02 -0.15767301315E+03  0.20423891185E+03  0.12500194185E+03 0.  0.
          5    1    3    3  501    0  0.47619390159E+02 -0.49439356738E+02 -0.36602356418E+02  0.77792022786E+02  0.10000000000E+00 0. -1.
         -5    1    3    3    0  501 -0.31551063579E+02  0.18309347860E+02 -0.12107065673E+03  0.12644688906E+03  0.10000000000E+00 0. -1.
         21    1    1    2  504  502 -0.16068326580E+02  0.31130008878E+02 -0.32958917559E+02  0.48099467965E+02  0.00000000000E+00 0. -1.
<mgrwt>
<rscale>  1 0.12981816E+03</rscale>
<asrwt>0</asrwt>
<pdfrwt beam="1">  1       21 0.47466500E-02 0.12981816E+03</pdfrwt>
<pdfrwt beam="2">  1       21 0.34074639E-01 0.12981816E+03</pdfrwt>
<totfact> 0.24209936E+06</totfact>
</mgrwt>
</event>
<event>
 6    1  0.4244577E-002  0.1307443E+03  0.7546771E-02  0.1226355E+00
         21   -1    0    0  503  502  0.00000000000E+00  0.00000000000E+00  0.25596883865E+03  0.25596883865E+03  0.00000000000E+00 0.  1.
         21   -1    0    0  504  503 -0.00000000000E+00 -0.00000000000E+00 -0.30788407630E+02  0.30788407630E+02  0.00000000000E+00 0.  1.
         25    2    1    2    0    0  0.45932937636E+01 -0.38041058390E+02  0.20579609244E+03  0.24381573893E+03  0.12500344961E+03 0.  0.
          5    1    3    3  501    0  0.23548228006E+02 -0.38549117083E+02  0.89403015266E+01  0.46048805213E+02  0.10000000000E+00 0.  1.
         -5    1    3    3    0  501 -0.18954934242E+02  0.50805869318E+00  0.19685579091E+03  0.19776693372E+03  0.10000000000E+00 0.  1.
         21    1    1    2  504  502 -0.45932937636E+01  0.38041058390E+02  0.19384338575E+02  0.42941507345E+02  0.00000000000E+00 0.  1.
<mgrwt>
<rscale>  1 0.13074434E+03</rscale>
<asrwt>0</asrwt>
<pdfrwt beam="1">  1       21 0.39379820E-01 0.13074434E+03</pdfrwt>
<pdfrwt beam="2">  1       21 0.47366783E-02 0.13074434E+03</pdfrwt>
<totfact> 0.18256605E+06</totfact>
</mgrwt>
</event>
<event>
 6    1  0.4244577E-002  0.1259361E+03  0.7546771E-02  0.1233614E+00
         21   -1    0    0  503  502  0.00000000000E+00  0.00000000000E+00  0.47728430087E+02  0.47728430087E+02  0.00000000000E+00 0.  1.
         21   -1    0    0  504  503 -0.00000000000E+00 -0.00000000000E+00 -0.87172395312E+03  0.87172395312E+03  0.00000000000E+00 0. -1.
         25    2    1    2    0    0  0.15341768335E+02  0.11447573406E+01 -0.35551095775E+02  0.13085787701E+03  0.12499289276E+03 0.  0.
          5    1    3    3  501    0 -0.12775895907E+01  0.61586448007E+02 -0.28184776205E+02  0.67741526577E+02  0.10000000000E+00 0. -1.
         -5    1    3    3    0  501  0.16619357925E+02 -0.60441690666E+02 -0.73663195699E+01  0.63116350436E+02  0.10000000000E+00 0. -1.
         21    1    1    2  504  502 -0.15341768335E+02 -0.11447573406E+01 -0.78844442726E+03  0.78859450620E+03  0.00000000000E+00 0. -1.
<mgrwt>
<rscale>  1 0.12593611E+03</rscale>
<asrwt>0</asrwt>
<pdfrwt beam="1">  1       21 0.73428354E-02 0.12593611E+03</pdfrwt>
<pdfrwt beam="2">  1       21 0.13411138E+00 0.12593611E+03</pdfrwt>
<totfact> 0.57744063E+04</totfact>
</mgrwt>
</event>
<event>
 6    1  0.4244577E-002  0.1284472E+03  0.7546771E-02  0.1229778E+00
         21   -1    0    0  504  502  0.00000000000E+00  0.00000000000E+00  0.17931885220E+03  0.17931885220E+03  0.00000000000E+00 0. -1.
         21   -1    0    0  502  503 -0.00000000000E+00 -0.00000000000E+00 -0.35955490082E+02  0.35955490082E+02  0.00000000000E+00 0. -1.
         25    2    1    2    0    0 -0.28165271956E+02  0.89681593275E+01  0.13027122176E+03  0.18294611058E+03  0.12499991092E+03 0.  0.
          5    1    3    3  501    0 -0.41610652663E+02  0.44211158311E+02  0.16254003499E+02  0.62851217681E+02  0.10000000000E+00 0.  1.
         -5    1    3    3    0  501  0.13445380706E+02 -0.35242998984E+02  0.11401721826E+03  0.12009489290E+03  0.10000000000E+00 0.  1.
         21    1    1    2  504  503  0.28165271956E+02 -0.89681593275E+01  0.13092140358E+02  0.32328231706E+02  0.00000000000E+00 0. -1.
<mgrwt>
<rscale>  1 0.12844722E+03</rscale>
<asrwt>0</asrwt>
<pdfrwt beam="1">  1       21 0.27587515E-01 0.12844722E+03</pdfrwt>
<pdfrwt beam="2">  1       21 0.55316140E-02 0.12844722E+03</pdfrwt>
<totfact> 0.28148255E+06</totfact>
</mgrwt>
</event>
<event>
 6    1  0.4244577E-002  0.1266333E+03  0.7546771E-02  0.1232539E+00
         21   -1    0    0  504  502  0.00000000000E+00  0.00000000000E+00  0.69947815239E+02  0.69947815239E+02  0.00000000000E+00 0.  1.
         21   -1    0    0  502  503 -0.00000000000E+00 -0.00000000000E+00 -0.10727393049E+03  0.10727393049E+03  0.00000000000E+00 0.  1.
         25    2    1    2    0    0  0.18671169272E+02  0.79081465975E+01  0.86951987468E+01  0.12693146151E+03  0.12499935238E+03 0.  0.
          5    1    3    3  501    0  0.27437303968E+02  0.21507752199E+02 -0.52840000862E+02  0.63304539686E+02  0.10000000000E+00 0. -1.
         -5    1    3    3    0  501 -0.87661346959E+01 -0.13599605601E+02  0.61535199609E+02  0.63626921825E+02  0.10000000000E+00 0. -1.
         21    1    1    2  504  503 -0.18671169272E+02 -0.79081465975E+01 -0.46021314000E+02  0.50290284219E+02  0.00000000000E+00 0.  1.
<mgrwt>
<rscale>  1 0.12663329E+03</rscale>
<asrwt>0</asrwt>
<pdfrwt beam="1">  1       21 0.10761202E-01 0.12663329E+03</pdfrwt>
<pdfrwt beam="2">  1       21 0.16503682E-01 0.12663329E+03</pdfrwt>
<totfact> 0.23283806E+06</totfact>
</mgrwt>
</event>
<event>
 6    1  0.4244577E-002  0.1587061E+03  0.7546771E-02  0.1190165E+00
         21   -1    0    0  504  502  0.00000000000E+00  0.00000000000E+00  0.38432097526E+02  0.38432097526E+02  0.00000000000E+00 0. -1.
         21   -1    0    0  502  503 -0.00000000000E+00 -0.00000000000E+00 -0.42942284551E+03  0.42942284551E+03  0.00000000000E+00 0. -1.
         25    2    1    2    0    0  0.67216712234E+02 -0.70870858562E+02 -0.25669138491E+03  0.30179144940E+03  0.12508735686E+03 0.  0.
          5    1    3    3  501    0  0.96738689908E+02 -0.55507534888E+02 -0.23980311625E+03  0.26447118013E+03  0.10000000000E+00 0.  1.
         -5    1    3    3    0  501 -0.29521977674E+02 -0.15363323673E+02 -0.16888268659E+02  0.37320269270E+02  0.10000000000E+00 0.  1.
         21    1    1    2  504  503 -0.67216712234E+02  0.70870858562E+02 -0.13429936307E+03  0.16606349363E+03  0.00000000000E+00 0. -1.
<mgrwt>
<rscale>  1 0.15870605E+03</rscale>
<asrwt>0</asrwt>
<pdfrwt beam="1">  1       21 0.59126304E-02 0.15870605E+03</pdfrwt>
<pdfrwt beam="2">  1       21 0.66065053E-01 0.15870605E+03</pdfrwt>
<totfact> 0.42831437E+05</totfact>
</mgrwt>
</event>
<event>
 6    1  0.4244577E-002  0.1261151E+03  0.7546771E-02  0.1233337E+00
         21   -1    0    0  503  502  0.00000000000E+00  0.00000000000E+00  0.62383864782E+01  0.62383864782E+01  0.00000000000E+00 0. -1.
         21   -1    0    0  504  503 -0.00000000000E+00 -0.00000000000E+00 -0.82703738732E+03  0.82703738732E+03  0.00000000000E+00 0. -1.
         25    2    1    2    0    0 -0.15530799722E+02  0.59769060223E+01 -0.75135434931E+03  0.76186506891E+03  0.12501238282E+03 0.  0.
          5    1    3    3  501    0 -0.57682754343E+02 -0.34206357022E+02 -0.44495742801E+03  0.44998277495E+03  0.10000000000E+00 0.  1.
         -5    1    3    3    0  501  0.42151954621E+02  0.40183263045E+02 -0.30639692129E+03  0.31188229396E+03  0.10000000000E+00 0.  1.
         21    1    1    2  504  502  0.15530799722E+02 -0.59769060223E+01 -0.69444651534E+02  0.71410704886E+02  0.00000000000E+00 0. -1.
<mgrwt>
<rscale>  1 0.12611513E+03</rscale>
<asrwt>0</asrwt>
<pdfrwt beam="1">  1       21 0.95975164E-03 0.12611513E+03</pdfrwt>
<pdfrwt beam="2">  1       21 0.12723654E+00 0.12611513E+03</pdfrwt>
<totfact> 0.18328903E+06</totfact>
</mgrwt>
</event>
<event>
 6    1  0.4244577E-002  0.1362274E+03  0.7546771E-02  0.1218497E+00
         21   -1    0    0  504  502  0.00000000000E+00  0.00000000000E+00  0.10530262332E+03  0.10530262332E+03  0.00000000000E+00 0. -1.
         21   -1    0    0  502  503 -0.00000000000E+00 -0.00000000000E+00 -0.89442374285E+02  0.89442374285E+02  0.00000000000E+00 0. -1.
         25    2    1    2    0    0 -0.30692163693E+02 -0.44625237679E+02  0.28388394243E+02  0.13915385468E+03  0.12499789436E+03 0.  0.
          5    1    3    3  501    0  0.37932641092E+02 -0.51682097067E+02  0.28521373228E+02  0.70166966218E+02  0.10000000000E+00 0. -1.
         -5    1    3    3    0  501 -0.68624804784E+02  0.70568593875E+01 -0.13297898492E+00  0.68986888461E+02  0.10000000000E+00 0. -1.
         21    1    1    2  504  503  0.30692163693E+02  0.44625237679E+02 -0.12528145204E+02  0.55591142930E+02  0.00000000000E+00 0. -1.
<mgrwt>
<rscale>  1 0.13622736E+03</rscale>
<asrwt>0</asrwt>
<pdfrwt beam="1">  1       21 0.16200404E-01 0.13622736E+03</pdfrwt>
<pdfrwt beam="2">  1       21 0.13760365E-01 0.13622736E+03</pdfrwt>
<totfact> 0.15596521E+06</totfact>
</mgrwt>
</event>
<event>
 6    1  0.4244577E-002  0.1279933E+03  0.7546771E-02  0.1230464E+00
         21   -1    0    0  503  502  0.00000000000E+00  0.00000000000E+00  0.30979061266E+02  0.30979061266E+02  0.00000000000E+00 0.  1.
         21   -1    0    0  504  503 -0.00000000000E+00 -0.00000000000E+00 -0.19940921049E+03  0.19940921049E+03  0.00000000000E+00 0.  1.
         25    2    1    2    0    0  0.13753816655E+02 -0.23850540738E+02 -0.12458842689E+03  0.17861846991E+03  0.12499706361E+03 0.  0.
          5    1    3    3  501    0 -0.23789915865E+02 -0.43973305337E+02 -0.33427488533E+01  0.50107840195E+02  0.10000000000E+00 0.  1.
         -5    1    3    3    0  501  0.37543732520E+02  0.20122764599E+02 -0.12124567803E+03  0.12851062971E+03  0.10000000000E+00 0.  1.
         21    1    1    2  504  502 -0.13753816655E+02  0.23850540738E+02 -0.43841722332E+02  0.51769801845E+02  0.00000000000E+00 0.  1.
<mgrwt>
<rscale>  1 0.12799329E+03</rscale>
<asrwt>0</asrwt>
<pdfrwt beam="1">  1       21 0.47660096E-02 0.12799329E+03</pdfrwt>
<pdfrwt beam="2">  1       21 0.30678339E-01 0.12799329E+03</pdfrwt>
<totfact> 0.29481428E+06</totfact>
</mgrwt>
</event>
<event>
 6    1  0.4244577E-002  0.1262509E+03  0.7546771E-02  0.1233127E+00
         21   -1    0    0  504  502  0.00000000000E+00  0.00000000000E+00  0.90305158764E+02  0.90305158764E+02  0.00000000000E+00 0. -1.
         21   -1    0    0  502  503 -0.00000000000E+00 -0.00000000000E+00 -0.96254155736E+02  0.96254155736E+02  0.00000000000E+00 0. -1.
         25    2    1    2    0    0  0.14867217360E+02 -0.96834052759E+01  0.43885282679E+02  0.13366075197E+03  0.12499790435E+03 0.  0.
          5    1    3    3  501    0 -0.65210256208E+01  0.40257318241E+02  0.63864800571E+02  0.75775313916E+02  0.10000000000E+00 0. -1.
         -5    1    3    3    0  501  0.21388242981E+02 -0.49940723517E+02 -0.19979517892E+02  0.57885438052E+02  0.10000000000E+00 0. -1.
         21    1    1    2  504  503 -0.14867217360E+02  0.96834052759E+01 -0.49834279651E+02  0.52898562533E+02  0.00000000000E+00 0.  1.
<mgrwt>
<rscale>  1 0.12625086E+03</rscale>
<asrwt>0</asrwt>
<pdfrwt beam="1">  1       21 0.13893101E-01 0.12625086E+03</pdfrwt>
<pdfrwt beam="2">  1       21 0.14808332E-01 0.12625086E+03</pdfrwt>
<totfact> 0.18004360E+06</totfact>
</mgrwt>
</event>
<event>
 6    1  0.4244577E-002  0.1296649E+03  0.7546771E-02  0.1227954E+00
         21   -1    0    0  504  502  0.00000000000E+00  0.00000000000E+00  0.34174848153E+03  0.34174848153E+03  0.00000000000E+00 0.  1.
         21   -1    0    0  502  503 -0.00000000000E+00 -0.00000000000E+00 -0.19735990966E+02  0.19735990966E+02  0.00000000000E+00 0.  1.
         25    2    1    2    0    0 -0.40867067763E+01 -0.34215492373E+02  0.26009839779E+03  0.29062717947E+03  0.12500231928E+03 0.  0.
          5    1    3    3  501    0 -0.41523727671E+02  0.24623618183E+01  0.22192269117E+03  0.22578745324E+03  0.10000000000E+00 0.  1.
         -5    1    3    3    0  501  0.37437020895E+02 -0.36677854191E+02  0.38175706618E+02  0.64839726228E+02  0.10000000000E+00 0.  1.
         21    1    1    2  504  503  0.40867067763E+01  0.34215492373E+02  0.61914092774E+02  0.70857293024E+02  0.00000000000E+00 0.  1.
<mgrwt>
<rscale>  1 0.12966488E+03</rscale>
<asrwt>0</asrwt>
<pdfrwt beam="1">  1       21 0.52576685E-01 0.12966488E+03</pdfrwt>
<pdfrwt beam="2">  1       21 0.30363066E-02 0.12966488E+03</pdfrwt>
<totfact> 0.21178855E+06</totfact>
</mgrwt>
</event>
<event>
 6    1  0.4244577E-002  0.1654325E+03  0.7546771E-02  0.1182696E+00
         21   -1    0    0  503  502  0.00000000000E+00  0.00000000000E+00  0.20492903146E+03  0.20492903146E+03  0.00000000000E+00 0.  1.
         21   -1    0    0  504  503 -0.00000000000E+00 -0.00000000000E+00 -0.96527934634E+02  0.96527934634E+02  0.00000000000E+00 0.  1.
         25    2    1    2    0    0  0.55098280189E+02  0.93356108574E+02  0.31137612303E+02  0.16833735999E+03  0.12496692515E+03 0.  0.
          5    1    3    3  501    0  0.31272013878E+02 -0.11469183970E+02 -0.29863813643E+02  0.44736320794E+02  0.10000000000E+00 0.  1.
         -5    1    3    3    0  501  0.23826266311E+02  0.10482529254E+03  0.61001425946E+02  0.12360103920E+03  0.10000000000E+00 0.  1.
         21    1    1    2  504  502 -0.55098280189E+02 -0.93356108574E+02  0.77263484520E+02  0.13311960610E+03  0.00000000000E+00 0.  1.
<mgrwt>
<rscale>  1 0.16543251E+03</rscale>
<asrwt>0</asrwt>
<pdfrwt beam="1">  1       21 0.31527543E-01 0.16543251E+03</pdfrwt>
<pdfrwt beam="2">  1       21 0.14850451E-01 0.16543251E+03</pdfrwt>
<totfact> 0.38844783E+05</totfact>
</mgrwt>
</event>
<event>
 6    1  0.4244577E-002  0.1885567E+03  0.7546771E-02  0.1159770E+00
         21   -1    0    0  503  502  0.00000000000E+00  0.00000000000E+00  0.10231664666E+03  0.10231664666E+03  0.00000000000E+00 0. -1.
         21   -1    0    0  504  503 -0.00000000000E+00 -0.00000000000E+00 -0.27172762042E+03  0.27172762042E+03  0.00000000000E+00 0. -1.
         25    2    1    2    0    0  0.24496535520E+02 -0.13904027196E+03 -0.12425836865E+03  0.22581796972E+03  0.12498534230E+03 0.  0.
          5    1    3    3  501    0 -0.28070146997E+02 -0.47731239781E+02 -0.10500923082E+03  0.11871458614E+03  0.10000000000E+00 0.  1.
         -5    1    3    3    0  501  0.52566682517E+02 -0.91309032178E+02 -0.19249137829E+02  0.10710338358E+03  0.10000000000E+00 0.  1.
         21    1    1    2  504  502 -0.24496535520E+02  0.13904027196E+03 -0.45152605108E+02  0.14822629735E+03  0.00000000000E+00 0. -1.
<mgrwt>
<rscale>  1 0.18855666E+03</rscale>
<asrwt>0</asrwt>
<pdfrwt beam="1">  1       21 0.15741023E-01 0.18855666E+03</pdfrwt>
<pdfrwt beam="2">  1       21 0.41804249E-01 0.18855666E+03</pdfrwt>
<totfact> 0.19811949E+05</totfact>
</mgrwt>
</event>
<event>
 6    1  0.4244577E-002  0.1317882E+03  0.7546771E-02  0.1224826E+00
         21   -1    0    0  503  502  0.00000000000E+00  0.00000000000E+00  0.11856279043E+03  0.11856279043E+03  0.00000000000E+00 0.  1.
         21   -1    0    0  504  503 -0.00000000000E+00 -0.00000000000E+00 -0.11508222777E+03  0.11508222777E+03  0.00000000000E+00 0.  1.
         25    2    1    2    0    0 -0.41721115528E+02  0.11625240916E+01  0.74412208981E+02  0.15134494898E+03  0.12500445509E+03 0.  0.
          5    1    3    3  501    0 -0.20503418138E+02  0.63079623138E+02  0.38295742946E+02  0.76589835738E+02  0.10000000000E+00 0.  1.
         -5    1    3    3    0  501 -0.21217697390E+02 -0.61917099047E+02  0.36116466035E+02  0.74755113241E+02  0.10000000000E+00 0.  1.
         21    1    1    2  504  502  0.41721115528E+02 -0.11625240916E+01 -0.70931646321E+02  0.82300069216E+02  0.00000000000E+00 0.  1.
<mgrwt>
<rscale>  1 0.13178815E+03</rscale>
<asrwt>0</asrwt>
<pdfrwt beam="1">  1       21 0.18240429E-01 0.13178815E+03</pdfrwt>
<pdfrwt beam="2">  1       21 0.17704958E-01 0.13178815E+03</pdfrwt>
<totfact> 0.79561285E+05</totfact>
</mgrwt>
</event>
<event>
 6    1  0.4244577E-002  0.1320431E+03  0.7546771E-02  0.1224455E+00
         21   -1    0    0  504  502  0.00000000000E+00  0.00000000000E+00  0.55945667384E+02  0.55945667384E+02  0.00000000000E+00 0. -1.
         21   -1    0    0  502  503 -0.00000000000E+00 -0.00000000000E+00 -0.15088979441E+03  0.15088979441E+03  0.00000000000E+00 0. -1.
         25    2    1    2    0    0  0.10331183225E+01  0.42540042431E+02 -0.97602460120E+02  0.16419992171E+03  0.12499860609E+03 0.  0.
          5    1    3    3  501    0  0.22998569355E+02  0.82888260362E+02 -0.60824703064E+02  0.10535204033E+03  0.10000000000E+00 0. -1.
         -5    1    3    3    0  501 -0.21965451032E+02 -0.40348217931E+02 -0.36777757056E+02  0.58847881384E+02  0.10000000000E+00 0. -1.
         21    1    1    2  504  503 -0.10331183225E+01 -0.42540042431E+02  0.26583330930E+01  0.42635540085E+02  0.00000000000E+00 0. -1.
<mgrwt>
<rscale>  1 0.13204308E+03</rscale>
<asrwt>0</asrwt>
<pdfrwt beam="1">  1       21 0.86070259E-02 0.13204308E+03</pdfrwt>
<pdfrwt beam="2">  1       21 0.23213814E-01 0.13204308E+03</pdfrwt>
<totfact> 0.18341236E+06</totfact>
</mgrwt>
</event>
<event>
 6    1  0.4244577E-002  0.1260592E+03  0.7546771E-02  0.1233423E+00
         21   -1    0    0  504  502  0.00000000000E+00  0.00000000000E+00  0.29620145247E+02  0.29620145247E+02  0.00000000000E+00 0. -1.
         21   -1    0    0  502  503 -0.00000000000E+00 -0.00000000000E+00 -0.21516031365E+03  0.21516031365E+03  0.00000000000E+00 0. -1.
         25    2    1    2    0    0  0.12898173339E+02 -0.99247846364E+01 -0.10937096721E+03  0.16689200381E+03  0.12500427289E+03 0.  0.
          5    1    3    3  501    0 -0.51438658920E+02 -0.15765083555E+02 -0.78819408072E+02  0.95430511787E+02  0.10000000000E+00 0. -1.
         -5    1    3    3    0  501  0.64336832259E+02  0.58402989190E+01 -0.30551559143E+02  0.71461492026E+02  0.10000000000E+00 0. -1.
         21    1    1    2  504  503 -0.12898173339E+02  0.99247846364E+01 -0.76169201185E+02  0.77888455079E+02  0.00000000000E+00 0. -1.
<mgrwt>
<rscale>  1 0.12605924E+03</rscale>
<asrwt>0</asrwt>
<pdfrwt beam="1">  1       21 0.45569457E-02 0.12605924E+03</pdfrwt>
<pdfrwt beam="2">  1       21 0.33101585E-01 0.12605924E+03</pdfrwt>
<totfact> 0.27403125E+06</totfact>
</mgrwt>
</event>
<event>
 6    1  0.4244577E-002  0.1260166E+03  0.7546771E-02  0.1233489E+00
         21   -1    0    0  503  502  0.00000000000E+00  0.00000000000E+00  0.15526910130E+03  0.15526910130E+03  0.00000000000E+00 0.  1.
         21   -1    0    0  504  503 -0.00000000000E+00 -0.00000000000E+00 -0.59164254966E+02  0.59164254966E+02  0.00000000000E+00 0.  1.
         25    2    1    2    0    0  0.12806758589E+02  0.95602793531E+01  0.12746143629E+03  0.17923892858E+03  0.12499905508E+03 0.  0.
          5    1    3    3  501    0 -0.50963389816E+02 -0.46836738374E+01  0.91022328219E+02  0.10442355164E+03  0.10000000000E+00 0. -1.
         -5    1    3    3    0  501  0.63770148405E+02  0.14243953191E+02  0.36439108069E+02  0.74815376942E+02  0.10000000000E+00 0. -1.
         21    1    1    2  504  502 -0.12806758589E+02 -0.95602793531E+01 -0.31356589952E+02  0.35194427688E+02  0.00000000000E+00 0.  1.
<mgrwt>
<rscale>  1 0.12601657E+03</rscale>
<asrwt>0</asrwt>
<pdfrwt beam="1">  1       21 0.23887554E-01 0.12601657E+03</pdfrwt>
<pdfrwt beam="2">  1       21 0.91021931E-02 0.12601657E+03</pdfrwt>
<totfact> 0.15756300E+06</totfact>
</mgrwt>
</event>
<event>
 6    1  0.4244577E-002  0.1274488E+03  0.7546771E-02  0.1231291E+00
         21   -1    0    0  504  502  0.00000000000E+00  0.00000000000E+00  0.85383160281E+01  0.85383160281E+01  0.00000000000E+00 0. -1.
         21   -1    0    0  502  503 -0.00000000000E+00 -0.00000000000E+00 -0.15404043483E+04  0.15404043483E+04  0.00000000000E+00 0. -1.
         25    2    1    2    0    0  0.14078347238E+01  0.24563106452E+02 -0.47531538147E+03  0.49210558799E+03  0.12505146812E+03 0.  0.
          5    1    3    3  501    0 -0.16887458555E+02 -0.57829989277E+01 -0.44532668956E+03  0.44568430505E+03  0.10000000000E+00 0. -1.
         -5    1    3    3    0  501  0.18295293278E+02  0.30346105379E+02 -0.29988691903E+02  0.46421282941E+02  0.10000000000E+00 0. -1.
         21    1    1    2  504  503 -0.14078347238E+01 -0.24563106452E+02 -0.10565506508E+04  0.10568370763E+04  0.00000000000E+00 0. -1.
<mgrwt>
<rscale>  1 0.12744880E+03</rscale>
<asrwt>0</asrwt>
<pdfrwt beam="1">  1       21 0.13135864E-02 0.12744880E+03</pdfrwt>
<pdfrwt beam="2">  1       21 0.23698540E+00 0.12744880E+03</pdfrwt>
<totfact> 0.20088363E+05</totfact>
</mgrwt>
</event>
<event>
 6    1  0.4244577E-002  0.1271851E+03  0.7546771E-02  0.1231693E+00
         21   -1    0    0  504  502  0.00000000000E+00  0.00000000000E+00  0.45781267118E+02  0.45781267118E+02  0.00000000000E+00 0. -1.
         21   -1    0    0  502  503 -0.00000000000E+00 -0.00000000000E+00 -0.12826779628E+03  0.12826779628E+03  0.00000000000E+00 0. -1.
         25    2    1    2    0    0 -0.11892276447E+02 -0.20235125580E+02 -0.56915057482E+02  0.13933902580E+03  0.12500061518E+03 0.  0.
          5    1    3    3  501    0 -0.54766155111E+02  0.69646815456E+01  0.92088413781E+01  0.55970092855E+02  0.10000000000E+00 0.  1.
         -5    1    3    3    0  501  0.42873878664E+02 -0.27199807125E+02 -0.66123898860E+02  0.83368932942E+02  0.10000000000E+00 0.  1.
         21    1    1    2  504  503  0.11892276447E+02  0.20235125580E+02 -0.25571471675E+02  0.34710037596E+02  0.00000000000E+00 0. -1.
<mgrwt>
<rscale>  1 0.12718506E+03</rscale>
<asrwt>0</asrwt>
<pdfrwt beam="1">  1       21 0.70432720E-02 0.12718506E+03</pdfrwt>
<pdfrwt beam="2">  1       21 0.19733507E-01 0.12718506E+03</pdfrwt>
<totfact> 0.35000336E+06</totfact>
</mgrwt>
</event>
<event>
 6    1  0.4244577E-002  0.1296543E+03  0.7546771E-02  0.1227970E+00
         21   -1    0    0  503  502  0.00000000000E+00  0.00000000000E+00  0.56235314416E+02  0.56235314416E+02  0.00000000000E+00 0.  1.
         21   -1    0    0  504  503 -0.00000000000E+00 -0.00000000000E+00 -0.12055395570E+03  0.12055395570E+03  0.00000000000E+00 0.  1.
         25    2    1    2    0    0 -0.79421185753E+01 -0.33569187273E+02 -0.44933579472E+02  0.13721973382E+03  0.12498104337E+03 0.  0.
          5    1    3    3  501    0  0.41460626916E+02 -0.24079647522E+01  0.23123896527E+02  0.47534266262E+02  0.10000000000E+00 0. -1.
         -5    1    3    3    0  501 -0.49402745491E+02 -0.31161222521E+02 -0.68057475999E+02  0.89685467554E+02  0.10000000000E+00 0. -1.
         21    1    1    2  504  502  0.79421185753E+01  0.33569187273E+02 -0.19385061817E+02  0.39569536304E+02  0.00000000000E+00 0.  1.
<mgrwt>
<rscale>  1 0.12965427E+03</rscale>
<asrwt>0</asrwt>
<pdfrwt beam="1">  1       21 0.86515868E-02 0.12965427E+03</pdfrwt>
<pdfrwt beam="2">  1       21 0.18546762E-01 0.12965427E+03</pdfrwt>
<totfact> 0.27557293E+06</totfact>
</mgrwt>
</event>
<event>
 6    1  0.4244577E-002  0.1264752E+03  0.7546771E-02  0.1232782E+00
         21   -1    0    0  503  502  0.00000000000E+00  0.00000000000E+00  0.94454735865E+03  0.94454735865E+03  0.00000000000E+00 0. -1.
         21   -1    0    0  504  503 -0.00000000000E+00 -0.00000000000E+00 -0.12668809282E+02  0.12668809282E+02  0.00000000000E+00 0. -1.
         25    2    1    2    0    0 -0.21629311795E+01  0.19164019700E+02  0.92917356910E+03  0.93774170156E+03  0.12499615755E+03 0.  0.
          5    1    3    3  501    0  0.58489704675E+02  0.97659854615E+01  0.31697563711E+03  0.32247478126E+03  0.10000000000E+00 0.  1.
         -5    1    3    3    0  501 -0.60652635855E+02  0.93980342384E+01  0.61219793199E+03  0.61526692030E+03  0.10000000000E+00 0.  1.
         21    1    1    2  504  502  0.21629311795E+01 -0.19164019700E+02  0.27049802688E+01  0.19474466375E+02  0.00000000000E+00 0. -1.
<mgrwt>
<rscale>  1 0.12647520E+03</rscale>
<asrwt>0</asrwt>
<pdfrwt beam="1">  1       21 0.14531492E+00 0.12647520E+03</pdfrwt>
<pdfrwt beam="2">  1       21 0.19490483E-02 0.12647520E+03</pdfrwt>
<totfact> 0.42487377E+05</totfact>
</mgrwt>
</event>
<event>
 6    1  0.4244577E-002  0.1288491E+03  0.7546771E-02  0.1229173E+00
         21   -1    0    0  503  502  0.00000000000E+00  0.00000000000E+00  0.25395769620E+02  0.25395769620E+02  0.00000000000E+00 0. -1.
         21   -1    0    0  504  503 -0.00000000000E+00 -0.00000000000E+00 -0.25306535117E+03  0.25306535117E+03  0.00000000000E+00 0. -1.
         25    2    1    2    0    0  0.13439513668E+02 -0.28203883811E+02 -0.17694840954E+03  0.21889001303E+03  0.12500407424E+03 0.  0.
          5    1    3    3  501    0 -0.73776107593E+01 -0.75733156403E+02 -0.11744591279E+03  0.13994103240E+03  0.10000000000E+00 0. -1.
         -5    1    3    3    0  501  0.20817124428E+02  0.47529272592E+02 -0.59502496752E+02  0.78948980628E+02  0.10000000000E+00 0. -1.
         21    1    1    2  504  502 -0.13439513668E+02  0.28203883811E+02 -0.50721172011E+02  0.59571107761E+02  0.00000000000E+00 0. -1.
<mgrwt>
<rscale>  1 0.12884913E+03</rscale>
<asrwt>0</asrwt>
<pdfrwt beam="1">  1       21 0.39070415E-02 0.12884913E+03</pdfrwt>
<pdfrwt beam="2">  1       21 0.38933131E-01 0.12884913E+03</pdfrwt>
<totfact> 0.25736567E+06</totfact>
</mgrwt>
</event>
<event>
 6    1  0.4244577E-002  0.1261392E+03  0.7546771E-02  0.1233300E+00
         21   -1    0    0  504  502  0.00000000000E+00  0.00000000000E+00  0.12601138193E+03  0.12601138193E+03  0.00000000000E+00 0. -1.
         21   -1    0    0  502  503 -0.00000000000E+00 -0.00000000000E+00 -0.66444246840E+03  0.66444246840E+03  0.00000000000E+00 0. -1.
         25    2    1    2    0    0 -0.59228013320E+01  0.15809304418E+02  0.94303787126E+02  0.15749379317E+03  0.12500430768E+03 0.  0.
          5    1    3    3  501    0  0.21339388562E+02 -0.37652034298E+02 -0.27708163632E+01  0.43367414199E+02  0.10000000000E+00 0.  1.
         -5    1    3    3    0  501 -0.27262189894E+02  0.53461338716E+02  0.97074603489E+02  0.11412637897E+03  0.10000000000E+00 0.  1.
         21    1    1    2  504  503  0.59228013320E+01 -0.15809304418E+02 -0.63273487360E+03  0.63296005716E+03  0.00000000000E+00 0. -1.
<mgrwt>
<rscale>  1 0.12613917E+03</rscale>
<asrwt>0</asrwt>
<pdfrwt beam="1">  1       21 0.19386366E-01 0.12613917E+03</pdfrwt>
<pdfrwt beam="2">  1       21 0.10222192E+00 0.12613917E+03</pdfrwt>
<totfact> 0.19948046E+04</totfact>
</mgrwt>
</event>
<event>
 6    1  0.4244577E-002  0.1276715E+03  0.7546771E-02  0.1230952E+00
         21   -1    0    0  504  502  0.00000000000E+00  0.00000000000E+00  0.39330157352E+02  0.39330157352E+02  0.00000000000E+00 0.  1.
         21   -1    0    0  502  503 -0.00000000000E+00 -0.00000000000E+00 -0.39389052434E+03  0.39389052434E+03  0.00000000000E+00 0.  1.
         25    2    1    2    0    0 -0.20399234184E+02  0.15980317698E+02 -0.66416093561E+02  0.14391354107E+03  0.12501404125E+03 0.  0.
          5    1    3    3  501    0 -0.14431567008E+02 -0.51448672102E+02 -0.70894453966E+01  0.53902747827E+02  0.10000000000E+00 0.  1.
         -5    1    3    3    0  501 -0.59676671761E+01  0.67428989800E+02 -0.59326648165E+02  0.90010793238E+02  0.10000000000E+00 0.  1.
         21    1    1    2  504  503  0.20399234184E+02 -0.15980317698E+02 -0.28814427343E+03  0.28930714063E+03  0.00000000000E+00 0.  1.
<mgrwt>
<rscale>  1 0.12767149E+03</rscale>
<asrwt>0</asrwt>
<pdfrwt beam="1">  1       21 0.60507938E-02 0.12767149E+03</pdfrwt>
<pdfrwt beam="2">  1       21 0.60598539E-01 0.12767149E+03</pdfrwt>
<totfact> 0.49765731E+05</totfact>
</mgrwt>
</event>
<event>
 6    1  0.4244577E-002  0.1270742E+03  0.7546771E-02  0.1231863E+00
         21   -1    0    0  504  502  0.00000000000E+00  0.00000000000E+00  0.11949162176E+02  0.11949162176E+02  0.00000000000E+00 0.  1.
         21   -1    0    0  502  503 -0.00000000000E+00 -0.00000000000E+00 -0.60398791318E+03  0.60398791318E+03  0.00000000000E+00 0.  1.
         25    2    1    2    0    0 -0.92124511094E+01 -0.20929338364E+02 -0.34183130752E+03  0.36468685897E+03  0.12499982338E+03 0.  0.
          5    1    3    3  501    0 -0.54472707515E+02  0.18178727833E+01 -0.27752229869E+03  0.28282364964E+03  0.10000000000E+00 0.  1.
         -5    1    3    3    0  501  0.45260256406E+02 -0.22747211147E+02 -0.64309008829E+02  0.81863209328E+02  0.10000000000E+00 0.  1.
         21    1    1    2  504  503  0.92124511094E+01  0.20929338364E+02 -0.25020744348E+03  0.25125021639E+03  0.00000000000E+00 0.  1.
<mgrwt>
<rscale>  1 0.12707424E+03</rscale>
<asrwt>0</asrwt>
<pdfrwt beam="1">  1       21 0.18383331E-02 0.12707424E+03</pdfrwt>
<pdfrwt beam="2">  1       21 0.92921192E-01 0.12707424E+03</pdfrwt>
<totfact> 0.13797706E+06</totfact>
</mgrwt>
</event>
<event>
 6    1  0.4244577E-002  0.1286536E+03  0.7546771E-02  0.1229467E+00
         21   -1    0    0  504  502  0.00000000000E+00  0.00000000000E+00  0.30561760332E+03  0.30561760332E+03  0.00000000000E+00 0.  1.
         21   -1    0    0  502  503 -0.00000000000E+00 -0.00000000000E+00 -0.21921273658E+02  0.21921273658E+02  0.00000000000E+00 0.  1.
         25    2    1    2    0    0  0.10781251686E+02  0.28634958453E+02  0.19413469026E+03  0.23289489414E+03  0.12496222439E+03 0.  0.
          5    1    3    3  501    0  0.56356837962E+02 -0.12484378368E+02  0.13851319113E+03  0.15005954486E+03  0.10000000000E+00 0. -1.
         -5    1    3    3    0  501 -0.45575586277E+02  0.41119336821E+02  0.55621499129E+02  0.82835349280E+02  0.10000000000E+00 0. -1.
         21    1    1    2  504  503 -0.10781251686E+02 -0.28634958453E+02  0.89561639405E+02  0.94643982833E+02  0.00000000000E+00 0.  1.
<mgrwt>
<rscale>  1 0.12865362E+03</rscale>
<asrwt>0</asrwt>
<pdfrwt beam="1">  1       21 0.47018090E-01 0.12865362E+03</pdfrwt>
<pdfrwt beam="2">  1       21 0.33725039E-02 0.12865362E+03</pdfrwt>
<totfact> 0.22430681E+06</totfact>
</mgrwt>
</event>
<event>
 6    1  0.4244577E-002  0.1374698E+03  0.7546771E-02  0.1216775E+00
         21   -1    0    0  503  502  0.00000000000E+00  0.00000000000E+00  0.37934354625E+03  0.37934354625E+03  0.00000000000E+00 0. -1.
         21   -1    0    0  504  503 -0.00000000000E+00 -0.00000000000E+00 -0.93782223655E+02  0.93782223655E+02  0.00000000000E+00 0.  1.
         25    2    1    2    0    0 -0.48292089286E+02 -0.30701990256E+02  0.35643934253E+03  0.38203004112E+03  0.12499283706E+03 0.  0.
          5    1    3    3  501    0 -0.44072404065E+02 -0.53084426587E+02  0.35215930261E+03  0.35885445178E+03  0.10000000000E+00 0. -1.
         -5    1    3    3    0  501 -0.42196852207E+01  0.22382436330E+02  0.42800399256E+01  0.23175589339E+02  0.10000000000E+00 0. -1.
         21    1    1    2  504  502  0.48292089286E+02  0.30701990256E+02 -0.70878019939E+02  0.91095728790E+02  0.00000000000E+00 0.  1.
<mgrwt>
<rscale>  1 0.13746981E+03</rscale>
<asrwt>0</asrwt>
<pdfrwt beam="1">  1       21 0.58360545E-01 0.13746981E+03</pdfrwt>
<pdfrwt beam="2">  1       21 0.14428035E-01 0.13746981E+03</pdfrwt>
<totfact> 0.11811715E+05</totfact>
</mgrwt>
</event>
<event>
 6    1  0.4244577E-002  0.1484476E+03  0.7546771E-02  0.1202394E+00
         21   -1    0    0  504  502  0.00000000000E+00  0.00000000000E+00  0.26197472803E+03  0.26197472803E+03  0.00000000000E+00 0.  1.
         21   -1    0    0  502  503 -0.00000000000E+00 -0.00000000000E+00 -0.13640705902E+03  0.13640705902E+03  0.00000000000E+00 0. -1.
         25    2    1    2    0    0 -0.59105745445E+02 -0.54022435075E+02  0.22571643246E+03  0.27015664343E+03  0.12499916589E+03 0.  0.
          5    1    3    3  501    0 -0.88262883761E+02 -0.36051178693E+02  0.93357096162E+02  0.13343755670E+03  0.10000000000E+00 0.  1.
         -5    1    3    3    0  501  0.29157138317E+02 -0.17971256383E+02  0.13235933630E+03  0.13671908673E+03  0.10000000000E+00 0.  1.
         21    1    1    2  504  503  0.59105745445E+02  0.54022435075E+02 -0.10014876344E+03  0.12822514362E+03  0.00000000000E+00 0. -1.
<mgrwt>
<rscale>  1 0.14844765E+03</rscale>
<asrwt>0</asrwt>
<pdfrwt beam="1">  1       21 0.40303804E-01 0.14844765E+03</pdfrwt>
<pdfrwt beam="2">  1       21 0.20985701E-01 0.14844765E+03</pdfrwt>
<totfact> 0.12708135E+05</totfact>
</mgrwt>
</event>
<event>
 6    1  0.4244577E-002  0.1353509E+03  0.7546771E-02  0.1219725E+00
         21   -1    0    0  503  502  0.00000000000E+00  0.00000000000E+00  0.70408940459E+02  0.70408940459E+02  0.00000000000E+00 0. -1.
         21   -1    0    0  504  503 -0.00000000000E+00 -0.00000000000E+00 -0.13485284996E+03  0.13485284996E+03  0.00000000000E+00 0. -1.
         25    2    1    2    0    0  0.40805944240E+02 -0.32044338868E+02 -0.19754885724E+02  0.13678497986E+03  0.12501164132E+03 0.  0.
          5    1    3    3  501    0 -0.38771542040E+02 -0.35673444242E+02  0.60900902110E+01  0.53037027585E+02  0.10000000000E+00 0. -1.
         -5    1    3    3    0  501  0.79577486281E+02  0.36291053737E+01 -0.25844975935E+02  0.83747952271E+02  0.10000000000E+00 0. -1.
         21    1    1    2  504  502 -0.40805944240E+02  0.32044338868E+02 -0.44689023776E+02  0.68476810563E+02  0.00000000000E+00 0. -1.
<mgrwt>
<rscale>  1 0.13535093E+03</rscale>
<asrwt>0</asrwt>
<pdfrwt beam="1">  1       21 0.10832145E-01 0.13535093E+03</pdfrwt>
<pdfrwt beam="2">  1       21 0.20746592E-01 0.13535093E+03</pdfrwt>
<totfact> 0.15146070E+06</totfact>
</mgrwt>
</event>
<event>
 6    1  0.4244577E-002  0.1259203E+03  0.7546771E-02  0.1233638E+00
         21   -1    0    0  503  502  0.00000000000E+00  0.00000000000E+00  0.50274246573E+02  0.50274246573E+02  0.00000000000E+00 0.  1.
         21   -1    0    0  504  503 -0.00000000000E+00 -0.00000000000E+00 -0.17552951884E+03  0.17552951884E+03  0.00000000000E+00 0.  1.
         25    2    1    2    0    0  0.32037048831E+01 -0.14826358836E+02 -0.30127553997E+02  0.12947429212E+03  0.12500335263E+03 0.  0.
          5    1    3    3  501    0 -0.27268395930E+00  0.54934947799E+02 -0.21913487011E+02  0.59145023115E+02  0.10000000000E+00 0. -1.
         -5    1    3    3    0  501  0.34763888424E+01 -0.69761306635E+02 -0.82140669860E+01  0.70329269008E+02  0.10000000000E+00 0. -1.
         21    1    1    2  504  502 -0.32037048831E+01  0.14826358836E+02 -0.95127718273E+02  0.96329473294E+02  0.00000000000E+00 0.  1.
<mgrwt>
<rscale>  1 0.12592030E+03</rscale>
<asrwt>0</asrwt>
<pdfrwt beam="1">  1       21 0.77344994E-02 0.12592030E+03</pdfrwt>
<pdfrwt beam="2">  1       21 0.27004542E-01 0.12592030E+03</pdfrwt>
<totfact> 0.16553582E+06</totfact>
</mgrwt>
</event>
<event>
 6    1  0.4244577E-002  0.1259132E+03  0.7546771E-02  0.1233649E+00
         21   -1    0    0  503  502  0.00000000000E+00  0.00000000000E+00  0.32029997929E+02  0.32029997929E+02  0.00000000000E+00 0. -1.
         21   -1    0    0  504  503 -0.00000000000E+00 -0.00000000000E+00 -0.24631294677E+03  0.24631294677E+03  0.00000000000E+00 0. -1.
         25    2    1    2    0    0 -0.12694311275E+02 -0.82220721087E+01 -0.94045897823E+02  0.15715838939E+03  0.12500152179E+03 0.  0.
          5    1    3    3  501    0  0.52274345105E+02  0.11384886326E+02 -0.62650355751E+02  0.82385070665E+02  0.10000000000E+00 0. -1.
         -5    1    3    3    0  501 -0.64968656380E+02 -0.19606958434E+02 -0.31395542072E+02  0.74773318723E+02  0.10000000000E+00 0. -1.
         21    1    1    2  504  502  0.12694311275E+02  0.82220721087E+01 -0.12023705101E+03  0.12118455531E+03  0.00000000000E+00 0. -1.
<mgrwt>
<rscale>  1 0.12591318E+03</rscale>
<asrwt>0</asrwt>
<pdfrwt beam="1">  1       21 0.49276919E-02 0.12591318E+03</pdfrwt>
<pdfrwt beam="2">  1       21 0.37894300E-01 0.12591318E+03</pdfrwt>
<totfact> 0.18427150E+06</totfact>
</mgrwt>
</event>
<event>
 6    1  0.4244577E-002  0.1294102E+03  0.7546771E-02  0.1228334E+00
         21   -1    0    0  504  502  0.00000000000E+00  0.00000000000E+00  0.18885866014E+03  0.18885866014E+03  0.00000000000E+00 0. -1.
         21   -1    0    0  502  503 -0.00000000000E+00 -0.00000000000E+00 -0.36940500004E+02  0.36940500004E+02  0.00000000000E+00 0. -1.
         25    2    1    2    0    0 -0.13062462787E+02 -0.30835326806E+02  0.13897355402E+03  0.18989640063E+03  0.12500219575E+03 0.  0.
          5    1    3    3  501    0 -0.17766709435E+02  0.13074725390E+02 -0.16962915243E+02  0.27827233095E+02  0.10000000000E+00 0. -1.
         -5    1    3    3    0  501  0.47042466482E+01 -0.43910052196E+02  0.15593646926E+03  0.16206916753E+03  0.10000000000E+00 0. -1.
         21    1    1    2  504  503  0.13062462787E+02  0.30835326806E+02  0.12944606126E+02  0.35902759519E+02  0.00000000000E+00 0. -1.
<mgrwt>
<rscale>  1 0.12941018E+03</rscale>
<asrwt>0</asrwt>
<pdfrwt beam="1">  1       21 0.29055178E-01 0.12941018E+03</pdfrwt>
<pdfrwt beam="2">  1       21 0.56831539E-02 0.12941018E+03</pdfrwt>
<totfact> 0.24355334E+06</totfact>
</mgrwt>
</event>
<event>
 6    1  0.4244577E-002  0.1323076E+03  0.7546771E-02  0.1224071E+00
         21   -1    0    0  503  502  0.00000000000E+00  0.00000000000E+00  0.12798306783E+02  0.12798306783E+02  0.00000000000E+00 0.  1.
         21   -1    0    0  504  503 -0.00000000000E+00 -0.00000000000E+00 -0.90887720040E+03  0.90887720040E+03  0.00000000000E+00 0.  1.
         25    2    1    2    0    0 -0.17966977406E+02 -0.39595314212E+02 -0.35502649249E+03  0.37887876627E+03  0.12495882511E+03 0.  0.
          5    1    3    3  501    0  0.27447591495E+02 -0.68179163432E+02 -0.15134437615E+03  0.16824654171E+03  0.10000000000E+00 0.  1.
         -5    1    3    3    0  501 -0.45414568900E+02  0.28583849220E+02 -0.20368211634E+03  0.21063222456E+03  0.10000000000E+00 0.  1.
         21    1    1    2  504  502  0.17966977406E+02  0.39595314212E+02 -0.54105240112E+03  0.54279674091E+03  0.00000000000E+00 0.  1.
<mgrwt>
<rscale>  1 0.13230763E+03</rscale>
<asrwt>0</asrwt>
<pdfrwt beam="1">  1       21 0.19689699E-02 0.13230763E+03</pdfrwt>
<pdfrwt beam="2">  1       21 0.13982729E+00 0.13230763E+03</pdfrwt>
<totfact> 0.46048744E+05</totfact>
</mgrwt>
</event>
<event>
 6    1  0.4244577E-002  0.1310888E+03  0.7546771E-02  0.1225849E+00
         21   -1    0    0  503  502  0.00000000000E+00  0.00000000000E+00  0.16511782087E+03  0.16511782087E+03  0.00000000000E+00 0. -1.
         21   -1    0    0  504  503 -0.00000000000E+00 -0.00000000000E+00 -0.19453779674E+03  0.19453779674E+03  0.00000000000E+00 0.  1.
         25    2    1    2    0    0  0.37164796381E+02 -0.13462010357E+02  0.13640533667E+03  0.18918426490E+03  0.12498728896E+03 0.  0.
          5    1    3    3  501    0  0.77358526377E+02  0.63989160835E+01  0.11682532194E+03  0.14026208888E+03  0.10000000000E+00 0. -1.
         -5    1    3    3    0  501 -0.40193729997E+02 -0.19860926441E+02  0.19580014732E+02  0.48922176025E+02  0.10000000000E+00 0. -1.
         21    1    1    2  504  502 -0.37164796381E+02  0.13462010357E+02 -0.16582531254E+03  0.17047135270E+03  0.00000000000E+00 0.  1.
<mgrwt>
<rscale>  1 0.13108879E+03</rscale>
<asrwt>0</asrwt>
<pdfrwt beam="1">  1       21 0.25402741E-01 0.13108879E+03</pdfrwt>
<pdfrwt beam="2">  1       21 0.29928892E-01 0.13108879E+03</pdfrwt>
<totfact> 0.16029640E+05</totfact>
</mgrwt>
</event>
<event>
 6    1  0.4244577E-002  0.1287984E+03  0.7546771E-02  0.1229250E+00
         21   -1    0    0  504  502  0.00000000000E+00  0.00000000000E+00  0.89582269750E+03  0.89582269750E+03  0.00000000000E+00 0.  1.
         21   -1    0    0  502  503 -0.00000000000E+00 -0.00000000000E+00 -0.75860030772E+01  0.75860030772E+01  0.00000000000E+00 0.  1.
         25    2    1    2    0    0 -0.52706737379E+01  0.30616103104E+02  0.78836038398E+03  0.79881231843E+03  0.12499559702E+03 0.  0.
          5    1    3    3  501    0  0.36598937540E+02  0.40996357956E+01  0.73253115929E+02  0.81989744700E+02  0.10000000000E+00 0. -1.
         -5    1    3    3    0  501 -0.41869611278E+02  0.26516467308E+02  0.71510726805E+03  0.71682257373E+03  0.10000000000E+00 0. -1.
         21    1    1    2  504  503  0.52706737379E+01 -0.30616103104E+02  0.99876310448E+02  0.10459638215E+03  0.00000000000E+00 0.  1.
<mgrwt>
<rscale>  1 0.12879839E+03</rscale>
<asrwt>0</asrwt>
<pdfrwt beam="1">  1       21 0.13781879E+00 0.12879839E+03</pdfrwt>
<pdfrwt beam="2">  1       21 0.11670781E-02 0.12879839E+03</pdfrwt>
<totfact> 0.11026012E+06</totfact>
</mgrwt>
</event>
<event>
 6    1  0.4244577E-002  0.1938175E+03  0.7546771E-02  0.1155063E+00
         21   -1    0    0  504  502  0.00000000000E+00  0.00000000000E+00  0.31851940138E+03  0.31851940138E+03  0.00000000000E+00 0. -1.
         21   -1    0    0  502  503 -0.00000000000E+00 -0.00000000000E+00 -0.92046975054E+02  0.92046975054E+02  0.00000000000E+00 0. -1.
         25    2    1    2    0    0 -0.14796902449E+03  0.67841674755E+01  0.13944810491E+03  0.23876972439E+03  0.12499740071E+03 0.  0.
          5    1    3    3  501    0 -0.75227634384E+01 -0.43314586243E+02  0.40797405522E+02  0.59976525812E+02  0.10000000000E+00 0.  1.
         -5    1    3    3    0  501 -0.14044626105E+03  0.50098753719E+02  0.98650699388E+02  0.17879319857E+03  0.10000000000E+00 0.  1.
         21    1    1    2  504  503  0.14796902449E+03 -0.67841674755E+01  0.87024321414E+02  0.17179665204E+03  0.00000000000E+00 0. -1.
<mgrwt>
<rscale>  1 0.19381746E+03</rscale>
<asrwt>0</asrwt>
<pdfrwt beam="1">  1       21 0.49002984E-01 0.19381746E+03</pdfrwt>
<pdfrwt beam="2">  1       21 0.14161073E-01 0.19381746E+03</pdfrwt>
<totfact> 0.17300255E+05</totfact>
</mgrwt>
</event>
<event>
 6    1  0.4244577E-002  0.1449009E+03  0.7546771E-02  0.1206883E+00
         21   -1    0    0  504  502  0.00000000000E+00  0.00000000000E+00  0.11458544514E+02  0.11458544514E+02  0.00000000000E+00 0.  1.
         21   -1    0    0  502  503 -0.00000000000E+00 -0.00000000000E+00 -0.11670734236E+04  0.11670734236E+04  0.00000000000E+00 0.  1.
         25    2    1    2    0    0  0.56873974278E+02 -0.46240985423E+02 -0.56079220780E+03  0.57920994453E+03  0.12499352713E+03 0.  0.
          5    1    3    3  501    0  0.96454879056E+02 -0.26455557955E+02 -0.41279460955E+03  0.42473855477E+03  0.10000000000E+00 0. -1.
         -5    1    3    3    0  501 -0.39580904778E+02 -0.19785427468E+02 -0.14799759826E+03  0.15447138976E+03  0.10000000000E+00 0. -1.
         21    1    1    2  504  503 -0.56873974278E+02  0.46240985423E+02 -0.59482267124E+03  0.59932202354E+03  0.00000000000E+00 0.  1.
<mgrwt>
<rscale>  1 0.14490086E+03</rscale>
<asrwt>0</asrwt>
<pdfrwt beam="1">  1       21 0.17628538E-02 0.14490086E+03</pdfrwt>
<pdfrwt beam="2">  1       21 0.17954967E+00 0.14490086E+03</pdfrwt>
<totfact> 0.28243350E+05</totfact>
</mgrwt>
</event>
<event>
 6    1  0.4244577E-002  0.1260775E+03  0.7546771E-02  0.1233395E+00
         21   -1    0    0  504  502  0.00000000000E+00  0.00000000000E+00  0.11130640241E+04  0.11130640241E+04  0.00000000000E+00 0.  1.
         21   -1    0    0  502  503 -0.00000000000E+00 -0.00000000000E+00 -0.90729212330E+01  0.90729212330E+01  0.00000000000E+00 0.  1.
         25    2    1    2    0    0  0.14053143604E+01  0.16385032890E+02  0.10970764713E+04  0.11042972048E+04  0.12500035434E+03 0.  0.
          5    1    3    3  501    0 -0.38642874809E+02  0.12684370979E+01  0.11573287967E+03  0.12202044969E+03  0.10000000000E+00 0.  1.
         -5    1    3    3    0  501  0.40048189169E+02  0.15116595792E+02  0.98134359161E+03  0.98227675515E+03  0.10000000000E+00 0.  1.
         21    1    1    2  504  503 -0.14053143604E+01 -0.16385032890E+02  0.69146316148E+01  0.17839740514E+02  0.00000000000E+00 0.  1.
<mgrwt>
<rscale>  1 0.12607749E+03</rscale>
<asrwt>0</asrwt>
<pdfrwt beam="1">  1       21 0.17124051E+00 0.12607749E+03</pdfrwt>
<pdfrwt beam="2">  1       21 0.13958349E-02 0.12607749E+03</pdfrwt>
<totfact> 0.47072225E+05</totfact>
</mgrwt>
</event>
<event>
 6    1  0.4244577E-002  0.1372304E+03  0.7546771E-02  0.1217105E+00
         21   -1    0    0  503  502  0.00000000000E+00  0.00000000000E+00  0.25379826699E+02  0.25379826699E+02  0.00000000000E+00 0. -1.
         21   -1    0    0  504  503 -0.00000000000E+00 -0.00000000000E+00 -0.43214146173E+03  0.43214146173E+03  0.00000000000E+00 0. -1.
         25    2    1    2    0    0 -0.35982632258E+01 -0.56525123335E+02 -0.19589214788E+03  0.23917757389E+03  0.12499656469E+03 0.  0.
          5    1    3    3  501    0 -0.20540099505E+02 -0.37952669214E+02 -0.20717559306E+03  0.21162239283E+03  0.10000000000E+00 0. -1.
         -5    1    3    3    0  501  0.16941836279E+02 -0.18572454120E+02  0.11283445174E+02  0.27555181066E+02  0.10000000000E+00 0. -1.
         21    1    1    2  504  502  0.35982632258E+01  0.56525123335E+02 -0.21086948715E+03  0.21834371454E+03  0.00000000000E+00 0. -1.
<mgrwt>
<rscale>  1 0.13723038E+03</rscale>
<asrwt>0</asrwt>
<pdfrwt beam="1">  1       21 0.39045887E-02 0.13723038E+03</pdfrwt>
<pdfrwt beam="2">  1       21 0.66483303E-01 0.13723038E+03</pdfrwt>
<totfact> 0.85041920E+05</totfact>
</mgrwt>
</event>
<event>
 6    1  0.4244577E-002  0.1263220E+03  0.7546771E-02  0.1233018E+00
         21   -1    0    0  504  502  0.00000000000E+00  0.00000000000E+00  0.55469026165E+02  0.55469026165E+02  0.00000000000E+00 0. -1.
         21   -1    0    0  502  503 -0.00000000000E+00 -0.00000000000E+00 -0.95474796568E+02  0.95474796568E+02  0.00000000000E+00 0. -1.
         25    2    1    2    0    0 -0.15957200919E+02 -0.88746922983E+01 -0.28944601509E+02  0.12959571083E+03  0.12499546345E+03 0.  0.
          5    1    3    3  501    0  0.30612564922E+02  0.34531908275E+02 -0.44448984412E+02  0.64072646547E+02  0.10000000000E+00 0. -1.
         -5    1    3    3    0  501 -0.46569765841E+02 -0.43406600573E+02  0.15504382903E+02  0.65523064283E+02  0.10000000000E+00 0. -1.
         21    1    1    2  504  503  0.15957200919E+02  0.88746922983E+01 -0.11061168893E+02  0.21348111904E+02  0.00000000000E+00 0.  1.
<mgrwt>
<rscale>  1 0.12632204E+03</rscale>
<asrwt>0</asrwt>
<pdfrwt beam="1">  1       21 0.85336963E-02 0.12632204E+03</pdfrwt>
<pdfrwt beam="2">  1       21 0.14688430E-01 0.12632204E+03</pdfrwt>
<totfact> 0.43061181E+06</totfact>
</mgrwt>
</event>
<event>
 6    1  0.4244577E-002  0.1950054E+03  0.7546771E-02  0.1154023E+00
         21   -1    0    0  503  502  0.00000000000E+00  0.00000000000E+00  0.24217487572E+03  0.24217487572E+03  0.00000000000E+00 0. -1.
         21   -1    0    0  504  503 -0.00000000000E+00 -0.00000000000E+00 -0.13991678358E+03  0.13991678358E+03  0.00000000000E+00 0. -1.
         25    2    1    2    0    0  0.27891423747E+02  0.14705211979E+03 -0.95936157970E+01  0.19524128595E+03  0.12499945928E+03 0.  0.
          5    1    3    3  501    0  0.23328536558E+02  0.59998364250E+02 -0.65374429824E+02  0.91748844164E+02  0.10000000000E+00 0.  1.
         -5    1    3    3    0  501  0.45628871892E+01  0.87053755539E+02  0.55780814027E+02  0.10349244178E+03  0.10000000000E+00 0.  1.
         21    1    1    2  504  502 -0.27891423747E+02 -0.14705211979E+03  0.11185170794E+03  0.18685037335E+03  0.00000000000E+00 0. -1.
<mgrwt>
<rscale>  1 0.19500544E+03</rscale>
<asrwt>0</asrwt>
<pdfrwt beam="1">  1       21 0.37257673E-01 0.19500544E+03</pdfrwt>
<pdfrwt beam="2">  1       21 0.21525659E-01 0.19500544E+03</pdfrwt>
<totfact> 0.13962094E+05</totfact>
</mgrwt>
</event>
<event>
 6    1  0.4244577E-002  0.1328100E+03  0.7546771E-02  0.1223345E+00
         21   -1    0    0  504  502  0.00000000000E+00  0.00000000000E+00  0.80537914448E+02  0.80537914448E+02  0.00000000000E+00 0. -1.
         21   -1    0    0  502  503 -0.00000000000E+00 -0.00000000000E+00 -0.16820186779E+03  0.16820186779E+03  0.00000000000E+00 0. -1.
         25    2    1    2    0    0 -0.44854811478E+02 -0.21394618350E+01  0.17910129490E+02  0.13401219891E+03  0.12498786065E+03 0.  0.
          5    1    3    3  501    0  0.34294201455E+02  0.12671306085E+01 -0.26347774668E+02  0.43265611094E+02  0.10000000000E+00 0. -1.
         -5    1    3    3    0  501 -0.79149012934E+02 -0.34065924436E+01  0.44257904157E+02  0.90746587819E+02  0.10000000000E+00 0. -1.
         21    1    1    2  504  503  0.44854811478E+02  0.21394618350E+01 -0.10557408283E+03  0.11472758332E+03  0.00000000000E+00 0. -1.
<mgrwt>
<rscale>  1 0.13281000E+03</rscale>
<asrwt>0</asrwt>
<pdfrwt beam="1">  1       21 0.12390449E-01 0.13281000E+03</pdfrwt>
<pdfrwt beam="2">  1       21 0.25877210E-01 0.13281000E+03</pdfrwt>
<totfact> 0.78851177E+05</totfact>
</mgrwt>
</event>
<event>
 6    1  0.4244577E-002  0.1279295E+03  0.7546771E-02  0.1230561E+00
         21   -1    0    0  503  502  0.00000000000E+00  0.00000000000E+00  0.96852646480E+03  0.96852646480E+03  0.00000000000E+00 0. -1.
         21   -1    0    0  504  503 -0.00000000000E+00 -0.00000000000E+00 -0.24466569616E+02  0.24466569616E+02  0.00000000000E+00 0. -1.
         25    2    1    2    0    0 -0.25867367921E+02 -0.85117687096E+01  0.95508452295E+03  0.96361424365E+03  0.12499757460E+03 0.  0.
          5    1    3    3  501    0 -0.36246721852E+02  0.15550942710E+02  0.91420941797E+03  0.91505984863E+03  0.10000000000E+00 0.  1.
         -5    1    3    3    0  501  0.10379353931E+02 -0.24062711420E+02  0.40875104983E+02  0.48554395026E+02  0.10000000000E+00 0.  1.
         21    1    1    2  504  502  0.25867367921E+02  0.85117687096E+01 -0.11024627764E+02  0.29378790769E+02  0.00000000000E+00 0. -1.
<mgrwt>
<rscale>  1 0.12792953E+03</rscale>
<asrwt>0</asrwt>
<pdfrwt beam="1">  1       21 0.14900404E+00 0.12792953E+03</pdfrwt>
<pdfrwt beam="2">  1       21 0.37640884E-02 0.12792953E+03</pdfrwt>
<totfact> 0.13590881E+05</totfact>
</mgrwt>
</event>
<event>
 6    1  0.4244577E-002  0.1259957E+03  0.7546771E-02  0.1233521E+00
         21   -1    0    0  503  502  0.00000000000E+00  0.00000000000E+00  0.18844403995E+02  0.18844403995E+02  0.00000000000E+00 0.  1.
         21   -1    0    0  504  503 -0.00000000000E+00 -0.00000000000E+00 -0.76452231065E+03  0.76452231065E+03  0.00000000000E+00 0.  1.
         25    2    1    2    0    0  0.83489970829E+01  0.12850608585E+02 -0.19306078371E+03  0.23053714917E+03  0.12506025366E+03 0.  0.
          5    1    3    3  501    0  0.60018398347E+02  0.33517812094E+02 -0.12466220421E+03  0.14235985047E+03  0.10000000000E+00 0.  1.
         -5    1    3    3    0  501 -0.51669401264E+02 -0.20667203509E+02 -0.68398579503E+02  0.88177298699E+02  0.10000000000E+00 0.  1.
         21    1    1    2  504  502 -0.83489970829E+01 -0.12850608585E+02 -0.55261712295E+03  0.55282956548E+03  0.00000000000E+00 0.  1.
<mgrwt>
<rscale>  1 0.12599568E+03</rscale>
<asrwt>0</asrwt>
<pdfrwt beam="1">  1       21 0.28991396E-02 0.12599568E+03</pdfrwt>
<pdfrwt beam="2">  1       21 0.11761880E+00 0.12599568E+03</pdfrwt>
<totfact> 0.37779113E+05</totfact>
</mgrwt>
</event>
<event>
 6    1  0.4244577E-002  0.1359351E+03  0.7546771E-02  0.1218906E+00
         21   -1    0    0  503  502  0.00000000000E+00  0.00000000000E+00  0.11229403161E+04  0.11229403161E+04  0.00000000000E+00 0.  1.
         21   -1    0    0  504  503 -0.00000000000E+00 -0.00000000000E+00 -0.95004601478E+01  0.95004601478E+01  0.00000000000E+00 0.  1.
         25    2    1    2    0    0  0.53379684911E+02  0.19066477155E+01  0.96809272979E+03  0.97758983776E+03  0.12500132543E+03 0.  0.
          5    1    3    3  501    0  0.19197553523E+02 -0.28167741194E+02  0.85496153389E+03  0.85564081374E+03  0.10000000000E+00 0. -1.
         -5    1    3    3    0  501  0.34182131388E+02  0.30074388910E+02  0.11313119589E+03  0.12194902402E+03  0.10000000000E+00 0. -1.
         21    1    1    2  504  502 -0.53379684911E+02 -0.19066477155E+01  0.14534712620E+03  0.15485093852E+03  0.00000000000E+00 0.  1.
<mgrwt>
<rscale>  1 0.13593512E+03</rscale>
<asrwt>0</asrwt>
<pdfrwt beam="1">  1       21 0.17275994E+00 0.13593512E+03</pdfrwt>
<pdfrwt beam="2">  1       21 0.14616101E-02 0.13593512E+03</pdfrwt>
<totfact> 0.42561107E+05</totfact>
</mgrwt>
</event>
<event>
 6    1  0.4244577E-002  0.1316217E+03  0.7546771E-02  0.1225069E+00
         21   -1    0    0  504  502  0.00000000000E+00  0.00000000000E+00  0.88797051902E+03  0.88797051902E+03  0.00000000000E+00 0.  1.
         21   -1    0    0  502  503 -0.00000000000E+00 -0.00000000000E+00 -0.10279901612E+02  0.10279901612E+02  0.00000000000E+00 0.  1.
         25    2    1    2    0    0  0.36770973597E+02 -0.18663830796E+02  0.79528294312E+03  0.80610125970E+03  0.12499535268E+03 0.  0.
          5    1    3    3  501    0 -0.17243577162E+01  0.51532589659E+02  0.30983977392E+03  0.31410074293E+03  0.10000000000E+00 0.  1.
         -5    1    3    3    0  501  0.38495331314E+02 -0.70196420455E+02  0.48544316920E+03  0.49200051677E+03  0.10000000000E+00 0.  1.
         21    1    1    2  504  503 -0.36770973597E+02  0.18663830796E+02  0.82407674289E+02  0.92149160935E+02  0.00000000000E+00 0.  1.
<mgrwt>
<rscale>  1 0.13162174E+03</rscale>
<asrwt>0</asrwt>
<pdfrwt beam="1">  1       21 0.13661079E+00 0.13162174E+03</pdfrwt>
<pdfrwt beam="2">  1       21 0.15815240E-02 0.13162174E+03</pdfrwt>
<totfact> 0.69477980E+05</totfact>
</mgrwt>
</event>
<event>
 6    1  0.4244577E-002  0.1527024E+03  0.7546771E-02  0.1197191E+00
         21   -1    0    0  504  502  0.00000000000E+00  0.00000000000E+00  0.50277886835E+03  0.50277886835E+03  0.00000000000E+00 0. -1.
         21   -1    0    0  502  503 -0.00000000000E+00 -0.00000000000E+00 -0.53298318417E+02  0.53298318417E+02  0.00000000000E+00 0.  1.
         25    2    1    2    0    0  0.30639796342E+02  0.82184536904E+02  0.72521561990E+02  0.16904853948E+03  0.12499974609E+03 0.  0.
          5    1    3    3  501    0  0.42224608358E+02  0.11159902839E+03  0.46345982993E+02  0.12800476877E+03  0.10000000000E+00 0. -1.
         -5    1    3    3    0  501 -0.11584812016E+02 -0.29414491483E+02  0.26175578997E+02  0.41043770715E+02  0.10000000000E+00 0. -1.
         21    1    1    2  504  503 -0.30639796342E+02 -0.82184536904E+02  0.37695898794E+03  0.38702864728E+03  0.00000000000E+00 0. -1.
<mgrwt>
<rscale>  1 0.15270243E+03</rscale>
<asrwt>0</asrwt>
<pdfrwt beam="1">  1       21 0.77350592E-01 0.15270243E+03</pdfrwt>
<pdfrwt beam="2">  1       21 0.81997416E-02 0.15270243E+03</pdfrwt>
<totfact> 0.17281229E+05</totfact>
</mgrwt>
</event>
<event>
 6    1  0.4244577E-002  0.1327981E+03  0.7546771E-02  0.1223362E+00
         21   -1    0    0  504  502  0.00000000000E+00  0.00000000000E+00  0.17085577898E+02  0.17085577898E+02  0.00000000000E+00 0.  1.
         21   -1    0    0  502  503 -0.00000000000E+00 -0.00000000000E+00 -0.47198265690E+03  0.47198265690E+03  0.00000000000E+00 0.  1.
         25    2    1    2    0    0  0.36902886446E+02  0.25459443812E+02 -0.30614061225E+03  0.33370256064E+03  0.12500127279E+03 0.  0.
          5    1    3    3  501    0 -0.18094636140E+02  0.62830368179E+02 -0.13218584796E+03  0.14747263958E+03  0.10000000000E+00 0. -1.
         -5    1    3    3    0  501  0.54997522586E+02 -0.37370924368E+02 -0.17395476429E+03  0.18622992106E+03  0.10000000000E+00 0. -1.
         21    1    1    2  504  503 -0.36902886446E+02 -0.25459443812E+02 -0.14875646675E+03  0.15536567416E+03  0.00000000000E+00 0.  1.
<mgrwt>
<rscale>  1 0.13279806E+03</rscale>
<asrwt>0</asrwt>
<pdfrwt beam="1">  1       21 0.26285506E-02 0.13279806E+03</pdfrwt>
<pdfrwt beam="2">  1       21 0.72612713E-01 0.13279806E+03</pdfrwt>
<totfact> 0.13460814E+06</totfact>
</mgrwt>
</event>
<event>
 6    1  0.4244577E-002  0.1282042E+03  0.7546771E-02  0.1230145E+00
         21   -1    0    0  503  502  0.00000000000E+00  0.00000000000E+00  0.88733817135E+02  0.88733817135E+02  0.00000000000E+00 0. -1.
         21   -1    0    0  504  503 -0.00000000000E+00 -0.00000000000E+00 -0.70136074007E+02  0.70136074007E+02  0.00000000000E+00 0. -1.
         25    2    1    2    0    0 -0.18307410280E+02 -0.21832860897E+02  0.22328000980E+02  0.13013402662E+03  0.12499796067E+03 0.  0.
          5    1    3    3  501    0 -0.53775223246E+02 -0.10722585900E+02 -0.32614982013E+02  0.63800435228E+02  0.10000000000E+00 0.  1.
         -5    1    3    3    0  501  0.35467812966E+02 -0.11110274996E+02  0.54942982993E+02  0.66333591394E+02  0.10000000000E+00 0.  1.
         21    1    1    2  504  502  0.18307410280E+02  0.21832860897E+02 -0.37302578524E+01  0.28735864521E+02  0.00000000000E+00 0.  1.
<mgrwt>
<rscale>  1 0.12820423E+03</rscale>
<asrwt>0</asrwt>
<pdfrwt beam="1">  1       21 0.13651356E-01 0.12820423E+03</pdfrwt>
<pdfrwt beam="2">  1       21 0.10790165E-01 0.12820423E+03</pdfrwt>
<totfact> 0.32638141E+06</totfact>
</mgrwt>
</event>
<event>
 6    1  0.4244577E-002  0.1467167E+03  0.7546771E-02  0.1204566E+00
         21   -1    0    0  503  502  0.00000000000E+00  0.00000000000E+00  0.13120889055E+03  0.13120889055E+03  0.00000000000E+00 0. -1.
         21   -1    0    0  504  503 -0.00000000000E+00 -0.00000000000E+00 -0.10403481090E+03  0.10403481090E+03  0.00000000000E+00 0. -1.
         25    2    1    2    0    0  0.70020817251E+02 -0.31597705964E+02  0.50166756612E+02  0.15505646392E+03  0.12499789463E+03 0.  0.
          5    1    3    3  501    0  0.10176484016E+03  0.18320268723E+00  0.36307930952E+02  0.10804810089E+03  0.10000000000E+00 0.  1.
         -5    1    3    3    0  501 -0.31744022913E+02 -0.31780908651E+02  0.13858825660E+02  0.47008363022E+02  0.10000000000E+00 0.  1.
         21    1    1    2  504  502 -0.70020817251E+02  0.31597705964E+02 -0.22992676961E+02  0.80187237541E+02  0.00000000000E+00 0. -1.
<mgrwt>
<rscale>  1 0.14671675E+03</rscale>
<asrwt>0</asrwt>
<pdfrwt beam="1">  1       21 0.20185983E-01 0.14671675E+03</pdfrwt>
<pdfrwt beam="2">  1       21 0.16005355E-01 0.14671675E+03</pdfrwt>
<totfact> 0.79322762E+05</totfact>
</mgrwt>
</event>
<event>
 6    1  0.4244577E-002  0.1364216E+03  0.7546771E-02  0.1218227E+00
         21   -1    0    0  504  502  0.00000000000E+00  0.00000000000E+00  0.56553989878E+03  0.56553989878E+03  0.00000000000E+00 0. -1.
         21   -1    0    0  502  503 -0.00000000000E+00 -0.00000000000E+00 -0.18464883500E+02  0.18464883500E+02  0.00000000000E+00 0. -1.
         25    2    1    2    0    0 -0.27639167199E+02  0.47149286349E+02  0.47082566423E+03  0.49019144473E+03  0.12499547041E+03 0.  0.
          5    1    3    3  501    0  0.14460974821E+02  0.70112002002E+02  0.15484509065E+03  0.17059256934E+03  0.10000000000E+00 0. -1.
         -5    1    3    3    0  501 -0.42100142020E+02 -0.22962715654E+02  0.31598057358E+03  0.31959887538E+03  0.10000000000E+00 0. -1.
         21    1    1    2  504  503  0.27639167199E+02 -0.47149286349E+02  0.76249351057E+02  0.93813337555E+02  0.00000000000E+00 0. -1.
<mgrwt>
<rscale>  1 0.13642158E+03</rscale>
<asrwt>0</asrwt>
<pdfrwt beam="1">  1       21 0.87006125E-01 0.13642158E+03</pdfrwt>
<pdfrwt beam="2">  1       21 0.28407517E-02 0.13642158E+03</pdfrwt>
<totfact> 0.79146003E+05</totfact>
</mgrwt>
</event>
<event>
 6    1  0.4244577E-002  0.1294533E+03  0.7546771E-02  0.1228269E+00
         21   -1    0    0  504  502  0.00000000000E+00  0.00000000000E+00  0.14757768783E+02  0.14757768783E+02  0.00000000000E+00 0. -1.
         21   -1    0    0  502  503 -0.00000000000E+00 -0.00000000000E+00 -0.45358946126E+03  0.45358946126E+03  0.00000000000E+00 0. -1.
         25    2    1    2    0    0  0.27927056071E+02 -0.18761522421E+02 -0.36282039335E+03  0.38522302911E+03  0.12500491650E+03 0.  0.
          5    1    3    3  501    0  0.14033161698E+02  0.36271657775E+01 -0.35817362638E+03  0.35846679426E+03  0.10000000000E+00 0. -1.
         -5    1    3    3    0  501  0.13893894373E+02 -0.22388688199E+02 -0.46467669704E+01  0.26756234851E+02  0.10000000000E+00 0. -1.
         21    1    1    2  504  503 -0.27927056071E+02  0.18761522421E+02 -0.76011299127E+02  0.83124200924E+02  0.00000000000E+00 0.  1.
<mgrwt>
<rscale>  1 0.12945325E+03</rscale>
<asrwt>0</asrwt>
<pdfrwt beam="1">  1       21 0.22704255E-02 0.12945325E+03</pdfrwt>
<pdfrwt beam="2">  1       21 0.69783009E-01 0.12945325E+03</pdfrwt>
<totfact> 0.18627788E+06</totfact>
</mgrwt>
</event>
<event>
 6    1  0.4244577E-002  0.1264696E+03  0.7546771E-02  0.1232790E+00
         21   -1    0    0  503  502  0.00000000000E+00  0.00000000000E+00  0.37602664408E+02  0.37602664408E+02  0.00000000000E+00 0. -1.
         21   -1    0    0  504  503 -0.00000000000E+00 -0.00000000000E+00 -0.14562960981E+03  0.14562960981E+03  0.00000000000E+00 0. -1.
         25    2    1    2    0    0  0.94270829966E+01  0.16777000482E+02 -0.10359987496E+03  0.16348546203E+03  0.12499689822E+03 0.  0.
          5    1    3    3  501    0 -0.32306883228E+02  0.26885363415E+02  0.89931677144E+01  0.42981909397E+02  0.10000000000E+00 0.  1.
         -5    1    3    3    0  501  0.41733966225E+02 -0.10108362933E+02 -0.11259304268E+03  0.12050355263E+03  0.10000000000E+00 0.  1.
         21    1    1    2  504  502 -0.94270829966E+01 -0.16777000482E+02 -0.44270704439E+01  0.19746812191E+02  0.00000000000E+00 0. -1.
<mgrwt>
<rscale>  1 0.12646961E+03</rscale>
<asrwt>0</asrwt>
<pdfrwt beam="1">  1       21 0.57850253E-02 0.12646961E+03</pdfrwt>
<pdfrwt beam="2">  1       21 0.22404555E-01 0.12646961E+03</pdfrwt>
<totfact> 0.38634036E+06</totfact>
</mgrwt>
</event>
<event>
 6    1  0.4244577E-002  0.1328165E+03  0.7546771E-02  0.1223335E+00
         21   -1    0    0  503  502  0.00000000000E+00  0.00000000000E+00  0.35381230197E+03  0.35381230197E+03  0.00000000000E+00 0. -1.
         21   -1    0    0  504  503 -0.00000000000E+00 -0.00000000000E+00 -0.30715343790E+02  0.30715343790E+02  0.00000000000E+00 0.  1.
         25    2    1    2    0    0  0.23491540342E+02 -0.38248617762E+02  0.31079639657E+03  0.33798612619E+03  0.12500164856E+03 0.  0.
          5    1    3    3  501    0 -0.43565565732E+02 -0.13564396118E+01  0.19037653319E+03  0.19530241380E+03  0.10000000000E+00 0. -1.
         -5    1    3    3    0  501  0.67057106073E+02 -0.36892178150E+02  0.12041986338E+03  0.14268371239E+03  0.10000000000E+00 0. -1.
         21    1    1    2  504  502 -0.23491540342E+02  0.38248617762E+02  0.12300561607E+02  0.46541519573E+02  0.00000000000E+00 0.  1.
<mgrwt>
<rscale>  1 0.13281650E+03</rscale>
<asrwt>0</asrwt>
<pdfrwt beam="1">  1       21 0.54432659E-01 0.13281650E+03</pdfrwt>
<pdfrwt beam="2">  1       21 0.47254378E-02 0.13281650E+03</pdfrwt>
<totfact> 0.94655118E+05</totfact>
</mgrwt>
</event>
<event>
 6    1  0.4244577E-002  0.1281048E+03  0.7546771E-02  0.1230295E+00
         21   -1    0    0  503  502  0.00000000000E+00  0.00000000000E+00  0.58933815269E+03  0.58933815269E+03  0.00000000000E+00 0. -1.
         21   -1    0    0  504  503 -0.00000000000E+00 -0.00000000000E+00 -0.18772312868E+03  0.18772312868E+03  0.00000000000E+00 0. -1.
         25    2    1    2    0    0 -0.82182234688E+00  0.28022453040E+02  0.58127668050E+03  0.59522552009E+03  0.12499962882E+03 0.  0.
          5    1    3    3  501    0 -0.22239277142E+02 -0.43646798915E+02  0.15900079972E+03  0.16637575790E+03  0.10000000000E+00 0.  1.
         -5    1    3    3    0  501  0.21417454795E+02  0.71669251955E+02  0.42227588078E+03  0.42884976219E+03  0.10000000000E+00 0.  1.
         21    1    1    2  504  502  0.82182234688E+00 -0.28022453040E+02 -0.17966165649E+03  0.18183576128E+03  0.00000000000E+00 0. -1.
<mgrwt>
<rscale>  1 0.12810480E+03</rscale>
<asrwt>0</asrwt>
<pdfrwt beam="1">  1       21 0.90667407E-01 0.12810480E+03</pdfrwt>
<pdfrwt beam="2">  1       21 0.28880482E-01 0.12810480E+03</pdfrwt>
<totfact> 0.12436228E+04</totfact>
</mgrwt>
</event>
<event>
 6    1  0.4244577E-002  0.1266468E+03  0.7546771E-02  0.1232518E+00
         21   -1    0    0  504  502  0.00000000000E+00  0.00000000000E+00  0.29712430439E+03  0.29712430439E+03  0.00000000000E+00 0.  1.
         21   -1    0    0  502  503 -0.00000000000E+00 -0.00000000000E+00 -0.18681301598E+02  0.18681301598E+02  0.00000000000E+00 0.  1.
         25    2    1    2    0    0  0.19986902750E+02  0.37458115842E+01  0.25537708320E+03  0.28505590627E+03  0.12500363072E+03 0.  0.
          5    1    3    3  501    0 -0.16882684855E+02  0.58265655428E+02  0.12983446994E+03  0.14330705229E+03  0.10000000000E+00 0. -1.
         -5    1    3    3    0  501  0.36869587605E+02 -0.54519843843E+02  0.12554261325E+03  0.14174885398E+03  0.10000000000E+00 0. -1.
         21    1    1    2  504  503 -0.19986902750E+02 -0.37458115842E+01  0.23065919599E+02  0.30749699721E+02  0.00000000000E+00 0. -1.
<mgrwt>
<rscale>  1 0.12664681E+03</rscale>
<asrwt>0</asrwt>
<pdfrwt beam="1">  1       21 0.45711428E-01 0.12664681E+03</pdfrwt>
<pdfrwt beam="2">  1       21 0.28740466E-02 0.12664681E+03</pdfrwt>
<totfact> 0.30879707E+06</totfact>
</mgrwt>
</event>
<event>
 6    1  0.4244577E-002  0.1447854E+03  0.7546771E-02  0.1207031E+00
         21   -1    0    0  504  502  0.00000000000E+00  0.00000000000E+00  0.49523941665E+02  0.49523941665E+02  0.00000000000E+00 0.  1.
         21   -1    0    0  502  503 -0.00000000000E+00 -0.00000000000E+00 -0.33208911000E+03  0.33208911000E+03  0.00000000000E+00 0.  1.
         25    2    1    2    0    0  0.40795416948E+02 -0.60612536015E+02 -0.78144110125E+02  0.16452755098E+03  0.12499867007E+03 0.  0.
          5    1    3    3  501    0  0.57306677917E+02  0.16829170995E+02 -0.57022907881E+02  0.82576621108E+02  0.10000000000E+00 0. -1.
         -5    1    3    3    0  501 -0.16511260969E+02 -0.77441707010E+02 -0.21121202244E+02  0.81950929877E+02  0.10000000000E+00 0. -1.
         21    1    1    2  504  503 -0.40795416948E+02  0.60612536015E+02 -0.20442105821E+03  0.21708550068E+03  0.00000000000E+00 0.  1.
<mgrwt>
<rscale>  1 0.14478540E+03</rscale>
<asrwt>0</asrwt>
<pdfrwt beam="1">  1       21 0.76190679E-02 0.14478540E+03</pdfrwt>
<pdfrwt beam="2">  1       21 0.51090633E-01 0.14478540E+03</pdfrwt>
<totfact> 0.47941075E+05</totfact>
</mgrwt>
</event>
<event>
 6    1  0.4244577E-002  0.1412256E+03  0.7546771E-02  0.1211689E+00
         21   -1    0    0  504  502  0.00000000000E+00  0.00000000000E+00  0.73191344078E+03  0.73191344078E+03  0.00000000000E+00 0.  1.
         21   -1    0    0  502  503 -0.00000000000E+00 -0.00000000000E+00 -0.15484992427E+02  0.15484992427E+02  0.00000000000E+00 0.  1.
         25    2    1    2    0    0 -0.58463316888E+01  0.65464427658E+02  0.56382987926E+03  0.58124761566E+03  0.12499954832E+03 0.  0.
          5    1    3    3  501    0  0.52126151903E+02  0.64218708270E+02  0.30636500597E+03  0.31733374401E+03  0.10000000000E+00 0. -1.
         -5    1    3    3    0  501 -0.57972483592E+02  0.12457193875E+01  0.25746487330E+03  0.26391387165E+03  0.10000000000E+00 0. -1.
         21    1    1    2  504  503  0.58463316888E+01 -0.65464427658E+02  0.15259856908E+03  0.16615081754E+03  0.00000000000E+00 0.  1.
<mgrwt>
<rscale>  1 0.14122556E+03</rscale>
<asrwt>0</asrwt>
<pdfrwt beam="1">  1       21 0.11260204E+00 0.14122556E+03</pdfrwt>
<pdfrwt beam="2">  1       21 0.23823071E-02 0.14122556E+03</pdfrwt>
<totfact> 0.57647556E+05</totfact>
</mgrwt>
</event>
<event>
 6    1  0.4244577E-002  0.1270897E+03  0.7546771E-02  0.1231839E+00
         21   -1    0    0  504  502  0.00000000000E+00  0.00000000000E+00  0.46892404363E+03  0.46892404363E+03  0.00000000000E+00 0. -1.
         21   -1    0    0  502  503 -0.00000000000E+00 -0.00000000000E+00 -0.13844858197E+02  0.13844858197E+02  0.00000000000E+00 0. -1.
         25    2    1    2    0    0 -0.15362615252E+02  0.17029918574E+02  0.43169832206E+03  0.45001691187E+03  0.12500300647E+03 0.  0.
          5    1    3    3  501    0  0.30618693912E+01  0.69040931370E+00 -0.85354923764E+01  0.90948523515E+01  0.10000000000E+00 0.  1.
         -5    1    3    3    0  501 -0.18424484643E+02  0.16339509261E+02  0.44023381444E+03  0.44092205952E+03  0.10000000000E+00 0.  1.
         21    1    1    2  504  503  0.15362615252E+02 -0.17029918574E+02  0.23380863372E+02  0.32751989956E+02  0.00000000000E+00 0. -1.
<mgrwt>
<rscale>  1 0.12708965E+03</rscale>
<asrwt>0</asrwt>
<pdfrwt beam="1">  1       21 0.72142148E-01 0.12708965E+03</pdfrwt>
<pdfrwt beam="2">  1       21 0.21299785E-02 0.12708965E+03</pdfrwt>
<totfact> 0.19202902E+06</totfact>
</mgrwt>
</event>
<event>
 6    1  0.4244577E-002  0.1345437E+03  0.7546771E-02  0.1220865E+00
         21   -1    0    0  503  502  0.00000000000E+00  0.00000000000E+00  0.37577474871E+03  0.37577474871E+03  0.00000000000E+00 0. -1.
         21   -1    0    0  504  503 -0.00000000000E+00 -0.00000000000E+00 -0.14637949069E+03  0.14637949069E+03  0.00000000000E+00 0.  1.
         25    2    1    2    0    0 -0.43617926120E+02 -0.23995594640E+02  0.35896452263E+03  0.38335039805E+03  0.12499474844E+03 0.  0.
          5    1    3    3  501    0 -0.17215393223E+02 -0.69573183801E+02  0.13043320317E+03  0.14882751143E+03  0.10000000000E+00 0. -1.
         -5    1    3    3    0  501 -0.26402532897E+02  0.45577589161E+02  0.22853131946E+03  0.23452288663E+03  0.10000000000E+00 0. -1.
         21    1    1    2  504  502  0.43617926120E+02  0.23995594640E+02 -0.12956926461E+03  0.13880384135E+03  0.00000000000E+00 0.  1.
<mgrwt>
<rscale>  1 0.13454367E+03</rscale>
<asrwt>0</asrwt>
<pdfrwt beam="1">  1       21 0.57811500E-01 0.13454367E+03</pdfrwt>
<pdfrwt beam="2">  1       21 0.22519922E-01 0.13454367E+03</pdfrwt>
<totfact> 0.53316326E+04</totfact>
</mgrwt>
</event>
<event>
 6    1  0.4244577E-002  0.1261142E+03  0.7546771E-02  0.1233338E+00
         21   -1    0    0  503  502  0.00000000000E+00  0.00000000000E+00  0.34740497053E+03  0.34740497053E+03  0.00000000000E+00 0. -1.
         21   -1    0    0  504  503 -0.00000000000E+00 -0.00000000000E+00 -0.14885412181E+02  0.14885412181E+02  0.00000000000E+00 0. -1.
         25    2    1    2    0    0  0.15529983636E+02  0.61521850480E+01  0.27798195310E+03  0.30525197321E+03  0.12500308446E+03 0.  0.
          5    1    3    3  501    0 -0.63419973728E+01  0.37465315408E+02  0.26048072776E+03  0.26323770688E+03  0.10000000000E+00 0.  1.
         -5    1    3    3    0  501  0.21871981009E+02 -0.31313130360E+02  0.17501225336E+02  0.42014266321E+02  0.10000000000E+00 0.  1.
         21    1    1    2  504  502 -0.15529983636E+02 -0.61521850480E+01  0.54537605247E+02  0.57038409504E+02  0.00000000000E+00 0. -1.
<mgrwt>
<rscale>  1 0.12611424E+03</rscale>
<asrwt>0</asrwt>
<pdfrwt beam="1">  1       21 0.53446912E-01 0.12611424E+03</pdfrwt>
<pdfrwt beam="2">  1       21 0.22900637E-02 0.12611424E+03</pdfrwt>
<totfact> 0.32395451E+06</totfact>
</mgrwt>
</event>
<event>
 6    1  0.4244577E-002  0.1267281E+03  0.7546771E-02  0.1232393E+00
         21   -1    0    0  503  502  0.00000000000E+00  0.00000000000E+00  0.77272786219E+01  0.77272786219E+01  0.00000000000E+00 0.  1.
         21   -1    0    0  504  503 -0.00000000000E+00 -0.00000000000E+00 -0.75213806640E+03  0.75213806640E+03  0.00000000000E+00 0.  1.
         25    2    1    2    0    0  0.20509561972E+02  0.37588048033E+01 -0.55366199212E+03  0.56798029143E+03  0.12500095676E+03 0.  0.
          5    1    3    3  501    0  0.62435971985E+02 -0.96926595310E+01 -0.46189382454E+03  0.46619535969E+03  0.10000000000E+00 0. -1.
         -5    1    3    3    0  501 -0.41926410013E+02  0.13451464334E+02 -0.91768167580E+02  0.10178493174E+03  0.10000000000E+00 0. -1.
         21    1    1    2  504  502 -0.20509561972E+02 -0.37588048033E+01 -0.19074879566E+03  0.19188505359E+03  0.00000000000E+00 0.  1.
<mgrwt>
<rscale>  1 0.12672809E+03</rscale>
<asrwt>0</asrwt>
<pdfrwt beam="1">  1       21 0.11888125E-02 0.12672809E+03</pdfrwt>
<pdfrwt beam="2">  1       21 0.11571351E+00 0.12672809E+03</pdfrwt>
<totfact> 0.16490329E+06</totfact>
</mgrwt>
</event>
<event>
 6    1  0.4244577E-002  0.1266116E+03  0.7546771E-02  0.1232572E+00
         21   -1    0    0  504  502  0.00000000000E+00  0.00000000000E+00  0.13259388497E+03  0.13259388497E+03  0.00000000000E+00 0.  1.
         21   -1    0    0  502  503 -0.00000000000E+00 -0.00000000000E+00 -0.89237665715E+02  0.89237665715E+02  0.00000000000E+00 0.  1.
         25    2    1    2    0    0 -0.65159944057E+01 -0.19089828078E+02  0.10023274800E+03  0.16148406324E+03  0.12499447664E+03 0.  0.
          5    1    3    3  501    0 -0.62316572637E+02 -0.16216773774E+02  0.78501137215E+02  0.10153215018E+03  0.10000000000E+00 0. -1.
         -5    1    3    3    0  501  0.55800578231E+02 -0.28730543042E+01  0.21731610781E+02  0.59951913056E+02  0.10000000000E+00 0. -1.
         21    1    1    2  504  503  0.65159944057E+01  0.19089828078E+02 -0.56876528742E+02  0.60347487444E+02  0.00000000000E+00 0.  1.
<mgrwt>
<rscale>  1 0.12661161E+03</rscale>
<asrwt>0</asrwt>
<pdfrwt beam="1">  1       21 0.20399059E-01 0.12661161E+03</pdfrwt>
<pdfrwt beam="2">  1       21 0.13728872E-01 0.12661161E+03</pdfrwt>
<totfact> 0.10252733E+06</totfact>
</mgrwt>
</event>
<event>
 6    1  0.4244577E-002  0.1474944E+03  0.7546771E-02  0.1203586E+00
         21   -1    0    0  504  502  0.00000000000E+00  0.00000000000E+00  0.79367771414E+02  0.79367771414E+02  0.00000000000E+00 0. -1.
         21   -1    0    0  502  503 -0.00000000000E+00 -0.00000000000E+00 -0.31910023880E+03  0.31910023880E+03  0.00000000000E+00 0. -1.
         25    2    1    2    0    0 -0.76941196661E+02 -0.14402801816E+02 -0.12842375834E+01  0.14749999086E+03  0.12500883806E+03 0.  0.
          5    1    3    3  501    0 -0.41343693593E+02 -0.28321919431E+01 -0.62948254231E+02  0.75364547512E+02  0.10000000000E+00 0.  1.
         -5    1    3    3    0  501 -0.35597503069E+02 -0.11570609873E+02  0.61664016647E+02  0.72135443345E+02  0.10000000000E+00 0.  1.
         21    1    1    2  504  503  0.76941196661E+02  0.14402801816E+02 -0.23844822980E+03  0.25096801936E+03  0.00000000000E+00 0. -1.
<mgrwt>
<rscale>  1 0.14749440E+03</rscale>
<asrwt>0</asrwt>
<pdfrwt beam="1">  1       21 0.12210427E-01 0.14749440E+03</pdfrwt>
<pdfrwt beam="2">  1       21 0.49092344E-01 0.14749440E+03</pdfrwt>
<totfact> 0.22790235E+05</totfact>
</mgrwt>
</event>
<event>
 6    1  0.4244577E-002  0.1272030E+03  0.7546771E-02  0.1231666E+00
         21   -1    0    0  504  502  0.00000000000E+00  0.00000000000E+00  0.19995096750E+03  0.19995096750E+03  0.00000000000E+00 0.  1.
         21   -1    0    0  502  503 -0.00000000000E+00 -0.00000000000E+00 -0.42685425673E+02  0.42685425673E+02  0.00000000000E+00 0.  1.
         25    2    1    2    0    0  0.23115375161E+02 -0.46249255509E+01  0.17267762274E+03  0.21447182779E+03  0.12499957205E+03 0.  0.
          5    1    3    3  501    0 -0.76378765057E+01 -0.26634019950E+02  0.17442679432E+03  0.17661377283E+03  0.10000000000E+00 0. -1.
         -5    1    3    3    0  501  0.30753251667E+02  0.22009094399E+02 -0.17491715722E+01  0.37858054962E+02  0.10000000000E+00 0. -1.
         21    1    1    2  504  503 -0.23115375161E+02  0.46249255509E+01 -0.15412080916E+02  0.28164565386E+02  0.00000000000E+00 0.  1.
<mgrwt>
<rscale>  1 0.12720300E+03</rscale>
<asrwt>0</asrwt>
<pdfrwt beam="1">  1       21 0.30761687E-01 0.12720300E+03</pdfrwt>
<pdfrwt beam="2">  1       21 0.65669887E-02 0.12720300E+03</pdfrwt>
<totfact> 0.17063030E+06</totfact>
</mgrwt>
</event>
<event>
 6    1  0.4244577E-002  0.1267133E+03  0.7546771E-02  0.1232416E+00
         21   -1    0    0  503  502  0.00000000000E+00  0.00000000000E+00  0.34002270702E+03  0.34002270702E+03  0.00000000000E+00 0. -1.
         21   -1    0    0  504  503 -0.00000000000E+00 -0.00000000000E+00 -0.16022723849E+02  0.16022723849E+02  0.00000000000E+00 0. -1.
         25    2    1    2    0    0 -0.19075531224E+02  0.79676258201E+01  0.27117662686E+03  0.29932095710E+03  0.12501565282E+03 0.  0.
          5    1    3    3  501    0 -0.39334103797E+02 -0.46257022730E+02  0.19108929098E+03  0.20050439148E+03  0.10000000000E+00 0. -1.
         -5    1    3    3    0  501  0.20258572574E+02  0.54224648550E+02  0.80087335876E+02  0.98816565620E+02  0.10000000000E+00 0. -1.
         21    1    1    2  504  502  0.19075531224E+02 -0.79676258201E+01  0.52823356308E+02  0.56724473768E+02  0.00000000000E+00 0. -1.
<mgrwt>
<rscale>  1 0.12671335E+03</rscale>
<asrwt>0</asrwt>
<pdfrwt beam="1">  1       21 0.52311180E-01 0.12671335E+03</pdfrwt>
<pdfrwt beam="2">  1       21 0.24650347E-02 0.12671335E+03</pdfrwt>
<totfact> 0.30063121E+06</totfact>
</mgrwt>
</event>
<event>
 6    1  0.4244577E-002  0.1293744E+03  0.7546771E-02  0.1228387E+00
         21   -1    0    0  504  502  0.00000000000E+00  0.00000000000E+00  0.17974744761E+03  0.17974744761E+03  0.00000000000E+00 0.  1.
         21   -1    0    0  502  503 -0.00000000000E+00 -0.00000000000E+00 -0.20326422888E+03  0.20326422888E+03  0.00000000000E+00 0. -1.
         25    2    1    2    0    0  0.16178968201E+01  0.33315638440E+02  0.15471876400E+03  0.20168197965E+03  0.12500070251E+03 0.  0.
          5    1    3    3  501    0 -0.53414677069E+02  0.40436785904E+02  0.51534272683E+02  0.84522497843E+02  0.10000000000E+00 0.  1.
         -5    1    3    3    0  501  0.55032573889E+02 -0.71211474638E+01  0.10318449132E+03  0.11715948181E+03  0.10000000000E+00 0.  1.
         21    1    1    2  504  503 -0.16178968201E+01 -0.33315638440E+02 -0.17823554527E+03  0.18132969683E+03  0.00000000000E+00 0. -1.
<mgrwt>
<rscale>  1 0.12937436E+03</rscale>
<asrwt>0</asrwt>
<pdfrwt beam="1">  1       21 0.27653453E-01 0.12937436E+03</pdfrwt>
<pdfrwt beam="2">  1       21 0.31271420E-01 0.12937436E+03</pdfrwt>
<totfact> 0.12536720E+05</totfact>
</mgrwt>
</event>
<event>
 6    1  0.4244577E-002  0.1626176E+03  0.7546771E-02  0.1185773E+00
         21   -1    0    0  504  502  0.00000000000E+00  0.00000000000E+00  0.14592547035E+03  0.14592547035E+03  0.00000000000E+00 0.  1.
         21   -1    0    0  502  503 -0.00000000000E+00 -0.00000000000E+00 -0.12860827415E+03  0.12860827415E+03  0.00000000000E+00 0.  1.
         25    2    1    2    0    0 -0.62465266541E+02  0.83188182325E+02  0.41289699713E+02  0.16777764806E+03  0.12498926627E+03 0.  0.
          5    1    3    3  501    0 -0.68322938826E+01  0.49813978737E+02  0.78325094820E+02  0.93074933231E+02  0.10000000000E+00 0. -1.
         -5    1    3    3    0  501 -0.55632972658E+02  0.33374203587E+02 -0.37035395107E+02  0.74702714828E+02  0.10000000000E+00 0. -1.
         21    1    1    2  504  503  0.62465266541E+02 -0.83188182325E+02 -0.23972503516E+02  0.10675609644E+03  0.00000000000E+00 0.  1.
<mgrwt>
<rscale>  1 0.16261765E+03</rscale>
<asrwt>0</asrwt>
<pdfrwt beam="1">  1       21 0.22450072E-01 0.16261765E+03</pdfrwt>
<pdfrwt beam="2">  1       21 0.19785888E-01 0.16261765E+03</pdfrwt>
<totfact> 0.43998410E+05</totfact>
</mgrwt>
</event>
<event>
 6    1  0.4244577E-002  0.1268591E+03  0.7546771E-02  0.1232192E+00
         21   -1    0    0  504  502  0.00000000000E+00  0.00000000000E+00  0.27442888637E+03  0.27442888637E+03  0.00000000000E+00 0.  1.
         21   -1    0    0  502  503 -0.00000000000E+00 -0.00000000000E+00 -0.58975395290E+02  0.58975395290E+02  0.00000000000E+00 0. -1.
         25    2    1    2    0    0 -0.14690673135E+02  0.15898817730E+02  0.25697308481E+03  0.28658051690E+03  0.12499855227E+03 0.  0.
          5    1    3    3  501    0 -0.22539619982E+02 -0.52456890801E+02  0.13423288987E+03  0.14587062276E+03  0.10000000000E+00 0.  1.
         -5    1    3    3    0  501  0.78489468468E+01  0.68355708532E+02  0.12274019493E+03  0.14070989414E+03  0.10000000000E+00 0.  1.
         21    1    1    2  504  503  0.14690673135E+02 -0.15898817730E+02 -0.41519593731E+02  0.46823764757E+02  0.00000000000E+00 0. -1.
<mgrwt>
<rscale>  1 0.12685908E+03</rscale>
<asrwt>0</asrwt>
<pdfrwt beam="1">  1       21 0.42219828E-01 0.12685908E+03</pdfrwt>
<pdfrwt beam="2">  1       21 0.90731379E-02 0.12685908E+03</pdfrwt>
<totfact> 0.52416043E+05</totfact>
</mgrwt>
</event>
<event>
 6    1  0.4244577E-002  0.1354074E+03  0.7546771E-02  0.1219646E+00
         21   -1    0    0  504  502  0.00000000000E+00  0.00000000000E+00  0.26772672728E+03  0.26772672728E+03  0.00000000000E+00 0. -1.
         21   -1    0    0  502  503 -0.00000000000E+00 -0.00000000000E+00 -0.79008254559E+02  0.79008254559E+02  0.00000000000E+00 0. -1.
         25    2    1    2    0    0  0.44684197445E+02 -0.26706828673E+02  0.23878706105E+03  0.27450759275E+03  0.12500090301E+03 0.  0.
          5    1    3    3  501    0 -0.28050945074E+02  0.29800770088E+02  0.51361752767E+02  0.65673290345E+02  0.10000000000E+00 0. -1.
         -5    1    3    3    0  501  0.72735142519E+02 -0.56507598761E+02  0.18742530828E+03  0.20883430240E+03  0.10000000000E+00 0. -1.
         21    1    1    2  504  503 -0.44684197445E+02  0.26706828673E+02 -0.50068588323E+02  0.72227389097E+02  0.00000000000E+00 0. -1.
<mgrwt>
<rscale>  1 0.13540738E+03</rscale>
<asrwt>0</asrwt>
<pdfrwt beam="1">  1       21 0.41188727E-01 0.13540738E+03</pdfrwt>
<pdfrwt beam="2">  1       21 0.12155116E-01 0.13540738E+03</pdfrwt>
<totfact> 0.32931467E+05</totfact>
</mgrwt>
</event>
<event>
 6    1  0.4244577E-002  0.1270321E+03  0.7546771E-02  0.1231927E+00
         21   -1    0    0  504  502  0.00000000000E+00  0.00000000000E+00  0.25714447509E+03  0.25714447509E+03  0.00000000000E+00 0.  1.
         21   -1    0    0  502  503 -0.00000000000E+00 -0.00000000000E+00 -0.22911717288E+02  0.22911717288E+02  0.00000000000E+00 0.  1.
         25    2    1    2    0    0 -0.10714096702E+02  0.19946350231E+02  0.17194447984E+03  0.21378041756E+03  0.12499805611E+03 0.  0.
          5    1    3    3  501    0  0.23843087124E+02 -0.31735585692E+02  0.10917636314E+02  0.41168495059E+02  0.10000000000E+00 0. -1.
         -5    1    3    3    0  501 -0.34557183825E+02  0.51681935923E+02  0.16102684353E+03  0.17261192250E+03  0.10000000000E+00 0. -1.
         21    1    1    2  504  503  0.10714096702E+02 -0.19946350231E+02  0.62288277960E+02  0.66275774812E+02  0.00000000000E+00 0.  1.
<mgrwt>
<rscale>  1 0.12703213E+03</rscale>
<asrwt>0</asrwt>
<pdfrwt beam="1">  1       21 0.39560686E-01 0.12703213E+03</pdfrwt>
<pdfrwt beam="2">  1       21 0.35248798E-02 0.12703213E+03</pdfrwt>
<totfact> 0.29545507E+06</totfact>
</mgrwt>
</event>
<event>
 6    1  0.4244577E-002  0.1280153E+03  0.7546771E-02  0.1230431E+00
         21   -1    0    0  504  502  0.00000000000E+00  0.00000000000E+00  0.11341301748E+03  0.11341301748E+03  0.00000000000E+00 0. -1.
         21   -1    0    0  502  503 -0.00000000000E+00 -0.00000000000E+00 -0.37579617582E+03  0.37579617582E+03  0.00000000000E+00 0. -1.
         25    2    1    2    0    0  0.21330451543E+02  0.17571599019E+02  0.76546167939E+02  0.14915502488E+03  0.12499662541E+03 0.  0.
          5    1    3    3  501    0 -0.47711021537E+02  0.30434786048E+02  0.24130053063E+02  0.61521437229E+02  0.10000000000E+00 0. -1.
         -5    1    3    3    0  501  0.69041473080E+02 -0.12863187028E+02  0.52416114876E+02  0.87633587649E+02  0.10000000000E+00 0. -1.
         21    1    1    2  504  503 -0.21330451543E+02 -0.17571599019E+02 -0.33892932627E+03  0.34005416842E+03  0.00000000000E+00 0. -1.
<mgrwt>
<rscale>  1 0.12801526E+03</rscale>
<asrwt>0</asrwt>
<pdfrwt beam="1">  1       21 0.17448157E-01 0.12801526E+03</pdfrwt>
<pdfrwt beam="2">  1       21 0.57814795E-01 0.12801526E+03</pdfrwt>
<totfact> 0.85705000E+04</totfact>
</mgrwt>
</event>
<event>
 6    1  0.4244577E-002  0.1411705E+03  0.7546771E-02  0.1211763E+00
         21   -1    0    0  503  502  0.00000000000E+00  0.00000000000E+00  0.23855965717E+02  0.23855965717E+02  0.00000000000E+00 0. -1.
         21   -1    0    0  504  503 -0.00000000000E+00 -0.00000000000E+00 -0.44827677494E+03  0.44827677494E+03  0.00000000000E+00 0. -1.
         25    2    1    2    0    0  0.75378254329E+01 -0.65210418234E+02 -0.29176772107E+03  0.32412578388E+03  0.12497961137E+03 0.  0.
          5    1    3    3  501    0  0.35757355708E+02  0.53903396611E+01 -0.18779125491E+02  0.40746899306E+02  0.10000000000E+00 0.  1.
         -5    1    3    3    0  501 -0.28219530275E+02 -0.70600757895E+02 -0.27298859558E+03  0.28337888458E+03  0.10000000000E+00 0.  1.
         21    1    1    2  504  502 -0.75378254329E+01  0.65210418234E+02 -0.13265308815E+03  0.14800695677E+03  0.00000000000E+00 0. -1.
<mgrwt>
<rscale>  1 0.14117054E+03</rscale>
<asrwt>0</asrwt>
<pdfrwt beam="1">  1       21 0.36701489E-02 0.14117054E+03</pdfrwt>
<pdfrwt beam="2">  1       21 0.68965651E-01 0.14117054E+03</pdfrwt>
<totfact> 0.87025227E+05</totfact>
</mgrwt>
</event>
<event>
 6    1  0.4244577E-002  0.1259322E+03  0.7546771E-02  0.1233620E+00
         21   -1    0    0  503  502  0.00000000000E+00  0.00000000000E+00  0.18229236435E+03  0.18229236435E+03  0.00000000000E+00 0.  1.
         21   -1    0    0  504  503 -0.00000000000E+00 -0.00000000000E+00 -0.73775879316E+02  0.73775879316E+02  0.00000000000E+00 0. -1.
         25    2    1    2    0    0  0.14417180473E+02 -0.56913341138E+01  0.15924654681E+03  0.20302311623E+03  0.12497470414E+03 0.  0.
          5    1    3    3  501    0  0.35016331684E+02 -0.57149798842E+02  0.63155637377E+02  0.92091734291E+02  0.10000000000E+00 0. -1.
         -5    1    3    3    0  501 -0.20599151211E+02  0.51458464729E+02  0.96090909438E+02  0.11093138194E+03  0.10000000000E+00 0. -1.
         21    1    1    2  504  502 -0.14417180473E+02  0.56913341138E+01 -0.50730061777E+02  0.53045127436E+02  0.00000000000E+00 0. -1.
<mgrwt>
<rscale>  1 0.12593222E+03</rscale>
<asrwt>0</asrwt>
<pdfrwt beam="1">  1       21 0.28044979E-01 0.12593222E+03</pdfrwt>
<pdfrwt beam="2">  1       21 0.11350135E-01 0.12593222E+03</pdfrwt>
<totfact> 0.78990204E+05</totfact>
</mgrwt>
</event>
<event>
 6    1  0.4244577E-002  0.1264881E+03  0.7546771E-02  0.1232762E+00
         21   -1    0    0  504  502  0.00000000000E+00  0.00000000000E+00  0.54177240803E+02  0.54177240803E+02  0.00000000000E+00 0.  1.
         21   -1    0    0  502  503 -0.00000000000E+00 -0.00000000000E+00 -0.10036632087E+03  0.10036632087E+03  0.00000000000E+00 0.  1.
         25    2    1    2    0    0  0.17850604772E+02 -0.74737390752E+01 -0.47581404888E+02  0.13514151449E+03  0.12499895192E+03 0.  0.
          5    1    3    3  501    0 -0.52528903859E+01 -0.37913446081E+02 -0.77613382545E+02  0.86538253976E+02  0.10000000000E+00 0.  1.
         -5    1    3    3    0  501  0.23103495158E+02  0.30439707006E+02  0.30031977656E+02  0.48603260519E+02  0.10000000000E+00 0.  1.
         21    1    1    2  504  503 -0.17850604772E+02  0.74737390752E+01  0.13923248170E+01  0.19402047183E+02  0.00000000000E+00 0.  1.
<mgrwt>
<rscale>  1 0.12648810E+03</rscale>
<asrwt>0</asrwt>
<pdfrwt beam="1">  1       21 0.83349602E-02 0.12648810E+03</pdfrwt>
<pdfrwt beam="2">  1       21 0.15440972E-01 0.12648810E+03</pdfrwt>
<totfact> 0.40991541E+06</totfact>
</mgrwt>
</event>
<event>
 6    1  0.4244577E-002  0.1272446E+03  0.7546771E-02  0.1231603E+00
         21   -1    0    0  504  502  0.00000000000E+00  0.00000000000E+00  0.23395411381E+03  0.23395411381E+03  0.00000000000E+00 0. -1.
         21   -1    0    0  502  503 -0.00000000000E+00 -0.00000000000E+00 -0.25839803689E+02  0.25839803689E+02  0.00000000000E+00 0. -1.
         25    2    1    2    0    0 -0.22895062261E+02 -0.64376543470E+01  0.19439617210E+03  0.23233823357E+03  0.12500222310E+03 0.  0.
          5    1    3    3  501    0  0.51080148121E+02  0.84372163251E+01  0.80932772833E+02  0.96075448840E+02  0.10000000000E+00 0. -1.
         -5    1    3    3    0  501 -0.73975210382E+02 -0.14874870672E+02  0.11346339927E+03  0.13626278473E+03  0.10000000000E+00 0. -1.
         21    1    1    2  504  503  0.22895062261E+02  0.64376543470E+01  0.13718138021E+02  0.27455683932E+02  0.00000000000E+00 0.  1.
<mgrwt>
<rscale>  1 0.12724458E+03</rscale>
<asrwt>0</asrwt>
<pdfrwt beam="1">  1       21 0.35992939E-01 0.12724458E+03</pdfrwt>
<pdfrwt beam="2">  1       21 0.39753546E-02 0.12724458E+03</pdfrwt>
<totfact> 0.29202162E+06</totfact>
</mgrwt>
</event>
<event>
 6    1  0.4244577E-002  0.1377504E+03  0.7546771E-02  0.1216388E+00
         21   -1    0    0  504  502  0.00000000000E+00  0.00000000000E+00  0.17140379339E+02  0.17140379339E+02  0.00000000000E+00 0.  1.
         21   -1    0    0  502  503 -0.00000000000E+00 -0.00000000000E+00 -0.56504969903E+03  0.56504969903E+03  0.00000000000E+00 0.  1.
         25    2    1    2    0    0 -0.40487187276E+02  0.41359183130E+02 -0.41376664494E+03  0.43609404300E+03  0.12500153402E+03 0.  0.
          5    1    3    3  501    0 -0.55613818675E+02  0.15050902081E+02 -0.39751637599E+03  0.40166989638E+03  0.10000000000E+00 0.  1.
         -5    1    3    3    0  501  0.15126631399E+02  0.26308281048E+02 -0.16250268958E+02  0.34424146619E+02  0.10000000000E+00 0.  1.
         21    1    1    2  504  503  0.40487187276E+02 -0.41359183130E+02 -0.13414267475E+03  0.14609603537E+03  0.00000000000E+00 0.  1.
<mgrwt>
<rscale>  1 0.13775042E+03</rscale>
<asrwt>0</asrwt>
<pdfrwt beam="1">  1       21 0.26369816E-02 0.13775042E+03</pdfrwt>
<pdfrwt beam="2">  1       21 0.86930719E-01 0.13775042E+03</pdfrwt>
<totfact> 0.89564677E+05</totfact>
</mgrwt>
</event>
<event>
 6    1  0.4244577E-002  0.1695783E+03  0.7546771E-02  0.1178288E+00
         21   -1    0    0  503  502  0.00000000000E+00  0.00000000000E+00  0.29450726669E+03  0.29450726669E+03  0.00000000000E+00 0.  1.
         21   -1    0    0  504  503 -0.00000000000E+00 -0.00000000000E+00 -0.76034781508E+02  0.76034781508E+02  0.00000000000E+00 0.  1.
         25    2    1    2    0    0  0.10582309517E+03  0.43949212470E+02  0.18544672190E+03  0.25129121261E+03  0.12500690430E+03 0.  0.
          5    1    3    3  501    0  0.63954343622E+02 -0.11552849528E+02  0.14274186500E+02  0.66538626380E+02  0.10000000000E+00 0. -1.
         -5    1    3    3    0  501  0.41868751548E+02  0.55502061998E+02  0.17117253540E+03  0.18475258623E+03  0.10000000000E+00 0. -1.
         21    1    1    2  504  502 -0.10582309517E+03 -0.43949212470E+02  0.33025763279E+02  0.11925083559E+03  0.00000000000E+00 0.  1.
<mgrwt>
<rscale>  1 0.16957826E+03</rscale>
<asrwt>0</asrwt>
<pdfrwt beam="1">  1       21 0.45308809E-01 0.16957826E+03</pdfrwt>
<pdfrwt beam="2">  1       21 0.11697659E-01 0.16957826E+03</pdfrwt>
<totfact> 0.28860538E+05</totfact>
</mgrwt>
</event>
<event>
 6    1  0.4244577E-002  0.1271710E+03  0.7546771E-02  0.1231715E+00
         21   -1    0    0  503  502  0.00000000000E+00  0.00000000000E+00  0.18289514415E+03  0.18289514415E+03  0.00000000000E+00 0.  1.
         21   -1    0    0  504  503 -0.00000000000E+00 -0.00000000000E+00 -0.41647133300E+02  0.41647133300E+02  0.00000000000E+00 0.  1.
         25    2    1    2    0    0  0.11165225208E+02 -0.20381230021E+02  0.15262916738E+03  0.19866588831E+03  0.12502965908E+03 0.  0.
          5    1    3    3  501    0 -0.48354450193E+02 -0.41611785055E+02  0.82015582751E+02  0.10390504955E+03  0.10000000000E+00 0. -1.
         -5    1    3    3    0  501  0.59519675401E+02  0.21230555034E+02  0.70613584629E+02  0.94760838753E+02  0.10000000000E+00 0. -1.
         21    1    1    2  504  502 -0.11165225208E+02  0.20381230021E+02 -0.11381156531E+02  0.25876389143E+02  0.00000000000E+00 0.  1.
<mgrwt>
<rscale>  1 0.12717104E+03</rscale>
<asrwt>0</asrwt>
<pdfrwt beam="1">  1       21 0.28137714E-01 0.12717104E+03</pdfrwt>
<pdfrwt beam="2">  1       21 0.64072514E-02 0.12717104E+03</pdfrwt>
<totfact> 0.21123285E+06</totfact>
</mgrwt>
</event>
<event>
 6    1  0.4244577E-002  0.1264355E+03  0.7546771E-02  0.1232843E+00
         21   -1    0    0  504  502  0.00000000000E+00  0.00000000000E+00  0.21489529579E+03  0.21489529579E+03  0.00000000000E+00 0.  1.
         21   -1    0    0  502  503 -0.00000000000E+00 -0.00000000000E+00 -0.26791621298E+02  0.26791621298E+02  0.00000000000E+00 0.  1.
         25    2    1    2    0    0 -0.19018743147E+02 -0.86767667115E+00  0.18216599996E+03  0.22174396263E+03  0.12499387171E+03 0.  0.
          5    1    3    3  501    0  0.58706612131E+01 -0.57032332877E+02  0.50302698009E+02  0.76272688975E+02  0.10000000000E+00 0. -1.
         -5    1    3    3    0  501 -0.24889404360E+02  0.56164656206E+02  0.13186330195E+03  0.14547127365E+03  0.10000000000E+00 0. -1.
         21    1    1    2  504  503  0.19018743147E+02  0.86767667115E+00  0.59376745277E+01  0.19942954457E+02  0.00000000000E+00 0.  1.
<mgrwt>
<rscale>  1 0.12643549E+03</rscale>
<asrwt>0</asrwt>
<pdfrwt beam="1">  1       21 0.33060814E-01 0.12643549E+03</pdfrwt>
<pdfrwt beam="2">  1       21 0.41217880E-02 0.12643549E+03</pdfrwt>
<totfact> 0.32474783E+06</totfact>
</mgrwt>
</event>
<event>
 6    1  0.4244577E-002  0.1313344E+03  0.7546771E-02  0.1225489E+00
         21   -1    0    0  503  502  0.00000000000E+00  0.00000000000E+00  0.38206722737E+02  0.38206722737E+02  0.00000000000E+00 0. -1.
         21   -1    0    0  504  503 -0.00000000000E+00 -0.00000000000E+00 -0.20444368545E+03  0.20444368545E+03  0.00000000000E+00 0. -1.
         25    2    1    2    0    0 -0.36045582135E+02  0.18089897884E+02 -0.14947342985E+03  0.19897496393E+03  0.12498880607E+03 0.  0.
          5    1    3    3  501    0 -0.24380264478E+02 -0.50312351485E+02 -0.37760502864E+02  0.67465514039E+02  0.10000000000E+00 0.  1.
         -5    1    3    3    0  501 -0.11665317657E+02  0.68402249369E+02 -0.11171292699E+03  0.13150944989E+03  0.10000000000E+00 0.  1.
         21    1    1    2  504  502  0.36045582135E+02 -0.18089897884E+02 -0.16763532860E+02  0.43675444255E+02  0.00000000000E+00 0. -1.
<mgrwt>
<rscale>  1 0.13133442E+03</rscale>
<asrwt>0</asrwt>
<pdfrwt beam="1">  1       21 0.58779573E-02 0.13133442E+03</pdfrwt>
<pdfrwt beam="2">  1       21 0.31452875E-01 0.13133442E+03</pdfrwt>
<totfact> 0.19747168E+06</totfact>
</mgrwt>
</event>
<event>
 6    1  0.4244577E-002  0.1262064E+03  0.7546771E-02  0.1233196E+00
         21   -1    0    0  503  502  0.00000000000E+00  0.00000000000E+00  0.43457815046E+03  0.43457815046E+03  0.00000000000E+00 0. -1.
         21   -1    0    0  504  503 -0.00000000000E+00 -0.00000000000E+00 -0.12405625012E+02  0.12405625012E+02  0.00000000000E+00 0. -1.
         25    2    1    2    0    0  0.24534151972E+01 -0.17181421277E+02  0.39561441295E+03  0.41525754306E+03  0.12500737121E+03 0.  0.
          5    1    3    3  501    0  0.14619345847E+02 -0.92707913018E+01  0.39978383826E+03  0.40015846883E+03  0.10000000000E+00 0.  1.
         -5    1    3    3    0  501 -0.12165930650E+02 -0.79106299753E+01 -0.41694253134E+01  0.15099074231E+02  0.10000000000E+00 0.  1.
         21    1    1    2  504  502 -0.24534151972E+01  0.17181421277E+02  0.26558112498E+02  0.31726232406E+02  0.00000000000E+00 0. -1.
<mgrwt>
<rscale>  1 0.12620643E+03</rscale>
<asrwt>0</asrwt>
<pdfrwt beam="1">  1       21 0.66858165E-01 0.12620643E+03</pdfrwt>
<pdfrwt beam="2">  1       21 0.19085580E-02 0.12620643E+03</pdfrwt>
<totfact> 0.27045413E+06</totfact>
</mgrwt>
</event>
<event>
 6    1  0.4244577E-002  0.1302962E+03  0.7546771E-02  0.1227017E+00
         21   -1    0    0  504  502  0.00000000000E+00  0.00000000000E+00  0.52288018117E+03  0.52288018117E+03  0.00000000000E+00 0. -1.
         21   -1    0    0  502  503 -0.00000000000E+00 -0.00000000000E+00 -0.13717688139E+02  0.13717688139E+02  0.00000000000E+00 0. -1.
         25    2    1    2    0    0 -0.30749985335E+02 -0.20167959532E+02  0.43007145980E+03  0.44937574065E+03  0.12499915025E+03 0.  0.
          5    1    3    3  501    0 -0.72800554162E+02 -0.20270758830E+02  0.17155911112E+03  0.18746563140E+03  0.10000000000E+00 0. -1.
         -5    1    3    3    0  501  0.42050568826E+02  0.10279929821E+00  0.25851234868E+03  0.26191010925E+03  0.10000000000E+00 0. -1.
         21    1    1    2  504  503  0.30749985335E+02  0.20167959532E+02  0.79091033227E+02  0.87222128653E+02  0.00000000000E+00 0. -1.
<mgrwt>
<rscale>  1 0.13029618E+03</rscale>
<asrwt>0</asrwt>
<pdfrwt beam="1">  1       21 0.80443089E-01 0.13029618E+03</pdfrwt>
<pdfrwt beam="2">  1       21 0.21104140E-02 0.13029618E+03</pdfrwt>
<totfact> 0.15321504E+06</totfact>
</mgrwt>
</event>
<event>
 6    1  0.4244577E-002  0.1266709E+03  0.7546771E-02  0.1232481E+00
         21   -1    0    0  503  502  0.00000000000E+00  0.00000000000E+00  0.33675064505E+03  0.33675064505E+03  0.00000000000E+00 0. -1.
         21   -1    0    0  504  503 -0.00000000000E+00 -0.00000000000E+00 -0.24639555693E+03  0.24639555693E+03  0.00000000000E+00 0.  1.
         25    2    1    2    0    0  0.12846822720E+02 -0.15970301968E+02  0.32437483475E+03  0.34823061456E+03  0.12500174439E+03 0.  0.
          5    1    3    3  501    0  0.59838065802E+01 -0.70889658715E+02  0.19165256622E+03  0.20443058918E+03  0.10000000000E+00 0. -1.
         -5    1    3    3    0  501  0.68630161401E+01  0.54919356746E+02  0.13272226852E+03  0.14380002537E+03  0.10000000000E+00 0. -1.
         21    1    1    2  504  502 -0.12846822720E+02  0.15970301968E+02 -0.23401974663E+03  0.23491558742E+03  0.00000000000E+00 0.  1.
<mgrwt>
<rscale>  1 0.12667094E+03</rscale>
<asrwt>0</asrwt>
<pdfrwt beam="1">  1       21 0.51807792E-01 0.12667094E+03</pdfrwt>
<pdfrwt beam="2">  1       21 0.37907009E-01 0.12667094E+03</pdfrwt>
<totfact> 0.24734563E+04</totfact>
</mgrwt>
</event>
<event>
 6    1  0.4244577E-002  0.1282547E+03  0.7546771E-02  0.1230069E+00
         21   -1    0    0  504  502  0.00000000000E+00  0.00000000000E+00  0.32072372784E+01  0.32072372784E+01  0.00000000000E+00 0. -1.
         21   -1    0    0  502  503 -0.00000000000E+00 -0.00000000000E+00 -0.19350527799E+04  0.19350527799E+04  0.00000000000E+00 0. -1.
         25    2    1    2    0    0 -0.28633256508E+02  0.23309066505E+01 -0.15096726156E+04  0.15151107802E+04  0.12499589302E+03 0.  0.
          5    1    3    3  501    0 -0.37944254536E+01  0.61139198553E+02 -0.90708102897E+03  0.90914707412E+03  0.10000000000E+00 0. -1.
         -5    1    3    3    0  501 -0.24838831055E+02 -0.58808291902E+02 -0.60259158666E+03  0.60596370604E+03  0.10000000000E+00 0. -1.
         21    1    1    2  504  503  0.28633256508E+02 -0.23309066505E+01 -0.42217292697E+03  0.42314923699E+03  0.00000000000E+00 0.  1.
<mgrwt>
<rscale>  1 0.12825471E+03</rscale>
<asrwt>0</asrwt>
<pdfrwt beam="1">  1       21 0.49342179E-03 0.12825471E+03</pdfrwt>
<pdfrwt beam="2">  1       21 0.29770002E+00 0.12825471E+03</pdfrwt>
<totfact> 0.42048249E+05</totfact>
</mgrwt>
</event>
<event>
 6    1  0.4244577E-002  0.1259803E+03  0.7546771E-02  0.1233545E+00
         21   -1    0    0  504  502  0.00000000000E+00  0.00000000000E+00  0.39387545910E+03  0.39387545910E+03  0.00000000000E+00 0. -1.
         21   -1    0    0  502  503 -0.00000000000E+00 -0.00000000000E+00 -0.31093171339E+02  0.31093171339E+02  0.00000000000E+00 0. -1.
         25    2    1    2    0    0  0.15159059099E+02 -0.37949314694E+01  0.38081187756E+03  0.40110936210E+03  0.12500734257E+03 0.  0.
          5    1    3    3  501    0  0.45758759987E+02 -0.30675875679E+02  0.77556137332E+02  0.95130635980E+02  0.10000000000E+00 0. -1.
         -5    1    3    3    0  501 -0.30599700888E+02  0.26880944209E+02  0.30325574023E+03  0.30597872612E+03  0.10000000000E+00 0. -1.
         21    1    1    2  504  503 -0.15159059099E+02  0.37949314694E+01 -0.18029589796E+02  0.23859268342E+02  0.00000000000E+00 0. -1.
<mgrwt>
<rscale>  1 0.12598029E+03</rscale>
<asrwt>0</asrwt>
<pdfrwt beam="1">  1       21 0.60596221E-01 0.12598029E+03</pdfrwt>
<pdfrwt beam="2">  1       21 0.47835651E-02 0.12598029E+03</pdfrwt>
<totfact> 0.73959323E+05</totfact>
</mgrwt>
</event>
<event>
 6    1  0.4244577E-002  0.1277572E+03  0.7546771E-02  0.1230822E+00
         21   -1    0    0  503  502  0.00000000000E+00  0.00000000000E+00  0.28926140373E+03  0.28926140373E+03  0.00000000000E+00 0. -1.
         21   -1    0    0  504  503 -0.00000000000E+00 -0.00000000000E+00 -0.22969662242E+02  0.22969662242E+02  0.00000000000E+00 0. -1.
         25    2    1    2    0    0  0.13315494901E+02  0.22791416290E+02  0.17164057412E+03  0.21396818109E+03  0.12500057910E+03 0.  0.
          5    1    3    3  501    0  0.25112809858E+02  0.24433634297E+02  0.18938367322E+03  0.19259761522E+03  0.10000000000E+00 0. -1.
         -5    1    3    3    0  501 -0.11797314956E+02 -0.16422180063E+01 -0.17743099101E+02  0.21370565876E+02  0.10000000000E+00 0. -1.
         21    1    1    2  504  502 -0.13315494901E+02 -0.22791416290E+02  0.94651167364E+02  0.98262884877E+02  0.00000000000E+00 0. -1.
<mgrwt>
<rscale>  1 0.12775718E+03</rscale>
<asrwt>0</asrwt>
<pdfrwt beam="1">  1       21 0.44501752E-01 0.12775718E+03</pdfrwt>
<pdfrwt beam="2">  1       21 0.35337944E-02 0.12775718E+03</pdfrwt>
<totfact> 0.23223533E+06</totfact>
</mgrwt>
</event>
<event>
 6    1  0.4244577E-002  0.1260124E+03  0.7546771E-02  0.1233495E+00
         21   -1    0    0  503  502  0.00000000000E+00  0.00000000000E+00  0.36702521075E+03  0.36702521075E+03  0.00000000000E+00 0. -1.
         21   -1    0    0  504  503 -0.00000000000E+00 -0.00000000000E+00 -0.16279205190E+03  0.16279205190E+03  0.00000000000E+00 0. -1.
         25    2    1    2    0    0  0.15035888580E+02 -0.53420372608E+01  0.35577787097E+03  0.37743479949E+03  0.12499807633E+03 0.  0.
          5    1    3    3  501    0  0.50163169819E+02 -0.46701458733E+02  0.15546452123E+03  0.16990172811E+03  0.10000000000E+00 0. -1.
         -5    1    3    3    0  501 -0.35127281238E+02  0.41359421472E+02  0.20031334974E+03  0.20753307138E+03  0.10000000000E+00 0. -1.
         21    1    1    2  504  502 -0.15035888580E+02  0.53420372608E+01 -0.15154471212E+03  0.15238246316E+03  0.00000000000E+00 0. -1.
<mgrwt>
<rscale>  1 0.12601244E+03</rscale>
<asrwt>0</asrwt>
<pdfrwt beam="1">  1       21 0.56465417E-01 0.12601244E+03</pdfrwt>
<pdfrwt beam="2">  1       21 0.25044931E-01 0.12601244E+03</pdfrwt>
<totfact> 0.46097370E+04</totfact>
</mgrwt>
</event>
<event>
 6    1  0.4244577E-002  0.1289671E+03  0.7546771E-02  0.1228996E+00
         21   -1    0    0  503  502  0.00000000000E+00  0.00000000000E+00  0.95655948711E+02  0.95655948711E+02  0.00000000000E+00 0. -1.
         21   -1    0    0  504  503 -0.00000000000E+00 -0.00000000000E+00 -0.77783886598E+02  0.77783886598E+02  0.00000000000E+00 0. -1.
         25    2    1    2    0    0  0.31892803341E+01 -0.31608502391E+02  0.39648167422E+02  0.13492402434E+03  0.12499298473E+03 0.  0.
          5    1    3    3  501    0 -0.55367480998E+02  0.72128678828E+00 -0.32390270536E+01  0.55466922602E+02  0.10000000000E+00 0. -1.
         -5    1    3    3    0  501  0.58556761332E+02 -0.32329789179E+02  0.42887194475E+02  0.79457101734E+02  0.10000000000E+00 0. -1.
         21    1    1    2  504  502 -0.31892803341E+01  0.31608502391E+02 -0.21776105309E+02  0.38515810972E+02  0.00000000000E+00 0. -1.
<mgrwt>
<rscale>  1 0.12896711E+03</rscale>
<asrwt>0</asrwt>
<pdfrwt beam="1">  1       21 0.14716300E-01 0.12896711E+03</pdfrwt>
<pdfrwt beam="2">  1       21 0.11966752E-01 0.12896711E+03</pdfrwt>
<totfact> 0.23766513E+06</totfact>
</mgrwt>
</event>
<event>
 6    1  0.4244577E-002  0.1495654E+03  0.7546771E-02  0.1201008E+00
         21   -1    0    0  503  502  0.00000000000E+00  0.00000000000E+00  0.24073359472E+03  0.24073359472E+03  0.00000000000E+00 0.  1.
         21   -1    0    0  504  503 -0.00000000000E+00 -0.00000000000E+00 -0.67246660000E+02  0.67246660000E+02  0.00000000000E+00 0.  1.
         25    2    1    2    0    0 -0.80795278141E+02 -0.14698086789E+02  0.16908333574E+03  0.22574095506E+03  0.12500357451E+03 0.  0.
          5    1    3    3  501    0  0.81802574207E+01 -0.28469732999E+02  0.11916938429E+03  0.12279574284E+03  0.10000000000E+00 0. -1.
         -5    1    3    3    0  501 -0.88975535562E+02  0.13771646210E+02  0.49913951450E+02  0.10294521221E+03  0.10000000000E+00 0. -1.
         21    1    1    2  504  502  0.80795278141E+02  0.14698086789E+02  0.44035989784E+01  0.82239299664E+02  0.00000000000E+00 0.  1.
<mgrwt>
<rscale>  1 0.14956538E+03</rscale>
<asrwt>0</asrwt>
<pdfrwt beam="1">  1       21 0.37035937E-01 0.14956538E+03</pdfrwt>
<pdfrwt beam="2">  1       21 0.10345640E-01 0.14956538E+03</pdfrwt>
<totfact> 0.54049423E+05</totfact>
</mgrwt>
</event>
<event>
 6    1  0.4244577E-002  0.1309605E+03  0.7546771E-02  0.1226038E+00
         21   -1    0    0  503  502  0.00000000000E+00  0.00000000000E+00  0.34092239322E+02  0.34092239322E+02  0.00000000000E+00 0.  1.
         21   -1    0    0  504  503 -0.00000000000E+00 -0.00000000000E+00 -0.21630706817E+03  0.21630706817E+03  0.00000000000E+00 0.  1.
         25    2    1    2    0    0 -0.18653645220E+02 -0.34341716681E+02 -0.12448467150E+03  0.18068501160E+03  0.12499331179E+03 0.  0.
          5    1    3    3  501    0  0.38455253106E+02  0.13303464613E+02 -0.89864701460E+02  0.98648179054E+02  0.10000000000E+00 0.  1.
         -5    1    3    3    0  501 -0.57108898326E+02 -0.47645181294E+02 -0.34619970044E+02  0.82036832547E+02  0.10000000000E+00 0.  1.
         21    1    1    2  504  502  0.18653645220E+02  0.34341716681E+02 -0.57730157340E+02  0.69714295887E+02  0.00000000000E+00 0. -1.
<mgrwt>
<rscale>  1 0.13096045E+03</rscale>
<asrwt>0</asrwt>
<pdfrwt beam="1">  1       21 0.52449598E-02 0.13096045E+03</pdfrwt>
<pdfrwt beam="2">  1       21 0.33278011E-01 0.13096045E+03</pdfrwt>
<totfact> 0.21447208E+06</totfact>
</mgrwt>
</event>
<event>
 6    1  0.4244577E-002  0.1344397E+03  0.7546771E-02  0.1221013E+00
         21   -1    0    0  504  502  0.00000000000E+00  0.00000000000E+00  0.15817439803E+03  0.15817439803E+03  0.00000000000E+00 0.  1.
         21   -1    0    0  502  503 -0.00000000000E+00 -0.00000000000E+00 -0.54648506040E+02  0.54648506040E+02  0.00000000000E+00 0.  1.
         25    2    1    2    0    0  0.47526938358E+02  0.13796654791E+02  0.61248509620E+02  0.14773423675E+03  0.12499946890E+03 0.  0.
          5    1    3    3  501    0  0.58266406644E+02  0.14116787100E+02  0.94987891775E+02  0.11232527501E+03  0.10000000000E+00 0. -1.
         -5    1    3    3    0  501 -0.10739468286E+02 -0.32013230901E+00 -0.33739382156E+02  0.35408961747E+02  0.10000000000E+00 0. -1.
         21    1    1    2  504  503 -0.47526938358E+02 -0.13796654791E+02  0.42277382371E+02  0.65088667318E+02  0.00000000000E+00 0.  1.
<mgrwt>
<rscale>  1 0.13443967E+03</rscale>
<asrwt>0</asrwt>
<pdfrwt beam="1">  1       21 0.24334523E-01 0.13443967E+03</pdfrwt>
<pdfrwt beam="2">  1       21 0.84074625E-02 0.13443967E+03</pdfrwt>
<totfact> 0.17486739E+06</totfact>
</mgrwt>
</event>
<event>
 6    1  0.4244577E-002  0.1269985E+03  0.7546771E-02  0.1231979E+00
         21   -1    0    0  503  502  0.00000000000E+00  0.00000000000E+00  0.39124090394E+02  0.39124090394E+02  0.00000000000E+00 0. -1.
         21   -1    0    0  504  503 -0.00000000000E+00 -0.00000000000E+00 -0.15849459693E+03  0.15849459693E+03  0.00000000000E+00 0. -1.
         25    2    1    2    0    0 -0.15045834029E+02 -0.16676150232E+02 -0.73979830531E+02  0.14697498509E+03  0.12499663918E+03 0.  0.
          5    1    3    3  501    0 -0.44383819319E+02  0.29342643509E+02 -0.75516822608E+02  0.92378106943E+02  0.10000000000E+00 0.  1.
         -5    1    3    3    0  501  0.29337985291E+02 -0.46018793741E+02  0.15369920778E+01  0.54596878143E+02  0.10000000000E+00 0.  1.
         21    1    1    2  504  502  0.15045834029E+02  0.16676150232E+02 -0.45390676004E+02  0.50643702237E+02  0.00000000000E+00 0. -1.
<mgrwt>
<rscale>  1 0.12699855E+03</rscale>
<asrwt>0</asrwt>
<pdfrwt beam="1">  1       21 0.60190910E-02 0.12699855E+03</pdfrwt>
<pdfrwt beam="2">  1       21 0.24383783E-01 0.12699855E+03</pdfrwt>
<totfact> 0.30825393E+06</totfact>
</mgrwt>
</event>
<event>
 6    1  0.4244577E-002  0.1259267E+03  0.7546771E-02  0.1233628E+00
         21   -1    0    0  503  502  0.00000000000E+00  0.00000000000E+00  0.52431303978E+03  0.52431303978E+03  0.00000000000E+00 0. -1.
         21   -1    0    0  504  503 -0.00000000000E+00 -0.00000000000E+00 -0.96268307679E+01  0.96268307679E+01  0.00000000000E+00 0. -1.
         25    2    1    2    0    0  0.12991060056E+02  0.81413691044E+01  0.47459365066E+03  0.49101595219E+03  0.12498992968E+03 0.  0.
          5    1    3    3  501    0 -0.53727251954E+02  0.12823366708E+01  0.14433700540E+03  0.15401767144E+03  0.10000000000E+00 0.  1.
         -5    1    3    3    0  501  0.66718312010E+02  0.68590324336E+01  0.33025664526E+03  0.33699828074E+03  0.10000000000E+00 0.  1.
         21    1    1    2  504  502 -0.12991060056E+02 -0.81413691044E+01  0.40092558350E+02  0.42923918360E+02  0.00000000000E+00 0.  1.
<mgrwt>
<rscale>  1 0.12592669E+03</rscale>
<asrwt>0</asrwt>
<pdfrwt beam="1">  1       21 0.80663522E-01 0.12592669E+03</pdfrwt>
<pdfrwt beam="2">  1       21 0.14810513E-02 0.12592669E+03</pdfrwt>
<totfact> 0.26876927E+06</totfact>
</mgrwt>
</event>
<event>
 6    1  0.4244577E-002  0.1281766E+03  0.7546771E-02  0.1230187E+00
         21   -1    0    0  504  502  0.00000000000E+00  0.00000000000E+00  0.10485339965E+03  0.10485339965E+03  0.00000000000E+00 0.  1.
         21   -1    0    0  502  503 -0.00000000000E+00 -0.00000000000E+00 -0.32830677990E+03  0.32830677990E+03  0.00000000000E+00 0.  1.
         25    2    1    2    0    0 -0.28354944797E+02 -0.79096420255E+00  0.64723211690E+02  0.14359088446E+03  0.12499847779E+03 0.  0.
          5    1    3    3  501    0 -0.73676860764E+02  0.24519352703E+01  0.13193144754E+02  0.74888990293E+02  0.10000000000E+00 0. -1.
         -5    1    3    3    0  501  0.45321915967E+02 -0.32428994729E+01  0.51530066936E+02  0.68701894169E+02  0.10000000000E+00 0. -1.
         21    1    1    2  504  503  0.28354944797E+02  0.79096420255E+00 -0.28817659194E+03  0.28956929510E+03  0.00000000000E+00 0.  1.
<mgrwt>
<rscale>  1 0.12817663E+03</rscale>
<asrwt>0</asrwt>
<pdfrwt beam="1">  1       21 0.16131292E-01 0.12817663E+03</pdfrwt>
<pdfrwt beam="2">  1       21 0.50508735E-01 0.12817663E+03</pdfrwt>
<totfact> 0.13104853E+05</totfact>
</mgrwt>
</event>
<event>
 6    1  0.4244577E-002  0.1479516E+03  0.7546771E-02  0.1203013E+00
         21   -1    0    0  504  502  0.00000000000E+00  0.00000000000E+00  0.44368372804E+02  0.44368372804E+02  0.00000000000E+00 0.  1.
         21   -1    0    0  502  503 -0.00000000000E+00 -0.00000000000E+00 -0.45894762379E+03  0.45894762379E+03  0.00000000000E+00 0.  1.
         25    2    1    2    0    0  0.70565267145E+02 -0.35852669529E+02 -0.99136912788E+02  0.17809493398E+03  0.12499922877E+03 0.  0.
          5    1    3    3  501    0  0.76343215542E+02  0.12481209588E+01 -0.47354909976E+01  0.76500191112E+02  0.10000000000E+00 0. -1.
         -5    1    3    3    0  501 -0.57779483965E+01 -0.37100790488E+02 -0.94401421790E+02  0.10159474287E+03  0.10000000000E+00 0. -1.
         21    1    1    2  504  503 -0.70565267145E+02  0.35852669529E+02 -0.31544233820E+03  0.32522106262E+03  0.00000000000E+00 0.  1.
<mgrwt>
<rscale>  1 0.14795161E+03</rscale>
<asrwt>0</asrwt>
<pdfrwt beam="1">  1       21 0.68259037E-02 0.14795161E+03</pdfrwt>
<pdfrwt beam="2">  1       21 0.70607324E-01 0.14795161E+03</pdfrwt>
<totfact> 0.29037720E+05</totfact>
</mgrwt>
</event>
<event>
 6    1  0.4244577E-002  0.1281231E+03  0.7546771E-02  0.1230268E+00
         21   -1    0    0  504  502  0.00000000000E+00  0.00000000000E+00  0.46393183339E+02  0.46393183339E+02  0.00000000000E+00 0.  1.
         21   -1    0    0  502  503 -0.00000000000E+00 -0.00000000000E+00 -0.26528561797E+03  0.26528561797E+03  0.00000000000E+00 0.  1.
         25    2    1    2    0    0  0.30801505913E+01  0.27931662372E+02 -0.45405558557E+02  0.13593079631E+03  0.12500340614E+03 0.  0.
          5    1    3    3  501    0  0.60570000652E+02  0.27415039798E+02 -0.71385669559E+01  0.66867619401E+02  0.10000000000E+00 0. -1.
         -5    1    3    3    0  501 -0.57489850061E+02  0.51662257335E+00 -0.38266991601E+02  0.69063176911E+02  0.10000000000E+00 0. -1.
         21    1    1    2  504  503 -0.30801505913E+01 -0.27931662372E+02 -0.17348687608E+03  0.17574800500E+03  0.00000000000E+00 0.  1.
<mgrwt>
<rscale>  1 0.12812305E+03</rscale>
<asrwt>0</asrwt>
<pdfrwt beam="1">  1       21 0.71374126E-02 0.12812305E+03</pdfrwt>
<pdfrwt beam="2">  1       21 0.40813173E-01 0.12812305E+03</pdfrwt>
<totfact> 0.84863865E+05</totfact>
</mgrwt>
</event>
<event>
 6    1  0.4244577E-002  0.1281871E+03  0.7546771E-02  0.1230171E+00
         21   -1    0    0  504  502  0.00000000000E+00  0.00000000000E+00  0.48943581404E+03  0.48943581404E+03  0.00000000000E+00 0.  1.
         21   -1    0    0  502  503 -0.00000000000E+00 -0.00000000000E+00 -0.14515810888E+03  0.14515810888E+03  0.00000000000E+00 0.  1.
         25    2    1    2    0    0 -0.25306890149E+02 -0.12908896067E+02  0.47954155806E+03  0.49637891582E+03  0.12499937551E+03 0.  0.
          5    1    3    3  501    0 -0.46801575449E+02 -0.43563954868E+02  0.42757807858E+03  0.43233231305E+03  0.10000000000E+00 0. -1.
         -5    1    3    3    0  501  0.21494685300E+02  0.30655058802E+02  0.51963479483E+02  0.64046602769E+02  0.10000000000E+00 0. -1.
         21    1    1    2  504  503  0.25306890149E+02  0.12908896067E+02 -0.13526385290E+03  0.13821500710E+03  0.00000000000E+00 0.  1.
<mgrwt>
<rscale>  1 0.12818706E+03</rscale>
<asrwt>0</asrwt>
<pdfrwt beam="1">  1       21 0.75297817E-01 0.12818706E+03</pdfrwt>
<pdfrwt beam="2">  1       21 0.22332017E-01 0.12818706E+03</pdfrwt>
<totfact> 0.30720631E+04</totfact>
</mgrwt>
</event>
<event>
 6    1  0.4244577E-002  0.1259372E+03  0.7546771E-02  0.1233612E+00
         21   -1    0    0  503  502  0.00000000000E+00  0.00000000000E+00  0.32125865089E+03  0.32125865089E+03  0.00000000000E+00 0. -1.
         21   -1    0    0  504  503 -0.00000000000E+00 -0.00000000000E+00 -0.16906186176E+02  0.16906186176E+02  0.00000000000E+00 0. -1.
         25    2    1    2    0    0  0.15015166827E+02 -0.30729271882E+01  0.29352057531E+03  0.31939710027E+03  0.12500112566E+03 0.  0.
          5    1    3    3  501    0  0.11930738788E+02  0.37715482199E+02  0.22911176161E+02  0.45713587899E+02  0.10000000000E+00 0. -1.
         -5    1    3    3    0  501  0.30844280389E+01 -0.40788409387E+02  0.27060939915E+03  0.27368351237E+03  0.10000000000E+00 0. -1.
         21    1    1    2  504  502 -0.15015166827E+02  0.30729271882E+01  0.10831889406E+02  0.18767736796E+02  0.00000000000E+00 0.  1.
<mgrwt>
<rscale>  1 0.12593720E+03</rscale>
<asrwt>0</asrwt>
<pdfrwt beam="1">  1       21 0.49424403E-01 0.12593720E+03</pdfrwt>
<pdfrwt beam="2">  1       21 0.26009520E-02 0.12593720E+03</pdfrwt>
<totfact> 0.30971533E+06</totfact>
</mgrwt>
</event>
<event>
 6    1  0.4244577E-002  0.1259092E+03  0.7546771E-02  0.1233655E+00
         21   -1    0    0  504  502  0.00000000000E+00  0.00000000000E+00  0.88032358273E+02  0.88032358273E+02  0.00000000000E+00 0. -1.
         21   -1    0    0  502  503 -0.00000000000E+00 -0.00000000000E+00 -0.76611201704E+03  0.76611201704E+03  0.00000000000E+00 0.  1.
         25    2    1    2    0    0  0.72947877937E+01  0.13191980285E+02  0.42892528748E+02  0.13301461068E+03  0.12500350138E+03 0.  0.
          5    1    3    3  501    0  0.56884557067E+02  0.36205210872E+02  0.39708353409E+02  0.78252370299E+02  0.10000000000E+00 0. -1.
         -5    1    3    3    0  501 -0.49589769274E+02 -0.23013230587E+02  0.31841753397E+01  0.54762240378E+02  0.10000000000E+00 0. -1.
         21    1    1    2  504  503 -0.72947877937E+01 -0.13191980285E+02 -0.72097218752E+03  0.72112976464E+03  0.00000000000E+00 0.  1.
<mgrwt>
<rscale>  1 0.12590916E+03</rscale>
<asrwt>0</asrwt>
<pdfrwt beam="1">  1       21 0.13543440E-01 0.12590916E+03</pdfrwt>
<pdfrwt beam="2">  1       21 0.11786338E+00 0.12590916E+03</pdfrwt>
<totfact> 0.27224280E+04</totfact>
</mgrwt>
</event>
<event>
 6    1  0.4244577E-002  0.1259693E+03  0.7546771E-02  0.1233562E+00
         21   -1    0    0  503  502  0.00000000000E+00  0.00000000000E+00  0.50804300451E+03  0.50804300451E+03  0.00000000000E+00 0.  1.
         21   -1    0    0  504  503 -0.00000000000E+00 -0.00000000000E+00 -0.15367406731E+02  0.15367406731E+02  0.00000000000E+00 0.  1.
         25    2    1    2    0    0 -0.15470996570E+02 -0.19970984667E+01  0.49191993252E+03  0.50779275562E+03  0.12499969004E+03 0.  0.
          5    1    3    3  501    0  0.47640855147E+02  0.19855437842E+02  0.30415771114E+03  0.30850577424E+03  0.10000000000E+00 0.  1.
         -5    1    3    3    0  501 -0.63111851717E+02 -0.21852536308E+02  0.18776222137E+03  0.19928698137E+03  0.10000000000E+00 0.  1.
         21    1    1    2  504  502  0.15470996570E+02  0.19970984667E+01  0.75566525789E+00  0.15617655622E+02  0.00000000000E+00 0.  1.
<mgrwt>
<rscale>  1 0.12596929E+03</rscale>
<asrwt>0</asrwt>
<pdfrwt beam="1">  1       21 0.78160450E-01 0.12596929E+03</pdfrwt>
<pdfrwt beam="2">  1       21 0.23642168E-02 0.12596929E+03</pdfrwt>
<totfact> 0.13586638E+06</totfact>
</mgrwt>
</event>
<event>
 6    1  0.4244577E-002  0.1594103E+03  0.7546771E-02  0.1189364E+00
         21   -1    0    0  504  502  0.00000000000E+00  0.00000000000E+00  0.10651934377E+03  0.10651934377E+03  0.00000000000E+00 0. -1.
         21   -1    0    0  502  503 -0.00000000000E+00 -0.00000000000E+00 -0.16867325288E+03  0.16867325288E+03  0.00000000000E+00 0.  1.
         25    2    1    2    0    0  0.11783671043E+02  0.98224213796E+02 -0.20230076155E+01  0.15942309983E+03  0.12499912448E+03 0.  0.
          5    1    3    3  501    0  0.39939137365E+02  0.20716333045E+01  0.34465931294E+02  0.52795234425E+02  0.10000000000E+00 0. -1.
         -5    1    3    3    0  501 -0.28155466322E+02  0.96152580492E+02 -0.36488938909E+02  0.10662786541E+03  0.10000000000E+00 0. -1.
         21    1    1    2  504  503 -0.11783671043E+02 -0.98224213796E+02 -0.60130901490E+02  0.11576949682E+03  0.00000000000E+00 0.  1.
<mgrwt>
<rscale>  1 0.15941026E+03</rscale>
<asrwt>0</asrwt>
<pdfrwt beam="1">  1       21 0.16387592E-01 0.15941026E+03</pdfrwt>
<pdfrwt beam="2">  1       21 0.25949731E-01 0.15941026E+03</pdfrwt>
<totfact> 0.47339233E+05</totfact>
</mgrwt>
</event>
<event>
 6    1  0.4244577E-002  0.1288921E+03  0.7546771E-02  0.1229109E+00
         21   -1    0    0  504  502  0.00000000000E+00  0.00000000000E+00  0.58912861818E+01  0.58912861818E+01  0.00000000000E+00 0.  1.
         21   -1    0    0  502  503 -0.00000000000E+00 -0.00000000000E+00 -0.15594081154E+04  0.15594081154E+04  0.00000000000E+00 0. -1.
         25    2    1    2    0    0  0.19419346859E+02  0.24693452177E+02 -0.73752472462E+03  0.74870281061E+03  0.12500520622E+03 0.  0.
          5    1    3    3  501    0 -0.18451464614E+02  0.55832064728E+02 -0.18766911177E+03  0.19666565921E+03  0.10000000000E+00 0. -1.
         -5    1    3    3    0  501  0.37870811473E+02 -0.31138612551E+02 -0.54985561285E+03  0.55203715140E+03  0.10000000000E+00 0. -1.
         21    1    1    2  504  503 -0.19419346859E+02 -0.24693452177E+02 -0.81599210457E+03  0.81659659094E+03  0.00000000000E+00 0. -1.
<mgrwt>
<rscale>  1 0.12889212E+03</rscale>
<asrwt>0</asrwt>
<pdfrwt beam="1">  1       21 0.90635137E-03 0.12889212E+03</pdfrwt>
<pdfrwt beam="2">  1       21 0.23990903E+00 0.12889212E+03</pdfrwt>
<totfact> 0.34684399E+05</totfact>
</mgrwt>
</event>
<event>
 6    1  0.4244577E-002  0.1317907E+03  0.7546771E-02  0.1224823E+00
         21   -1    0    0  503  502  0.00000000000E+00  0.00000000000E+00  0.64703850540E+02  0.64703850540E+02  0.00000000000E+00 0.  1.
         21   -1    0    0  504  503 -0.00000000000E+00 -0.00000000000E+00 -0.17307929430E+03  0.17307929430E+03  0.00000000000E+00 0.  1.
         25    2    1    2    0    0  0.32429314984E+02 -0.26328068562E+02 -0.11506821880E+02  0.13229211409E+03  0.12499587527E+03 0.  0.
          5    1    3    3  501    0  0.48191019948E+02  0.39302591337E+02 -0.17299148357E+02  0.64547181374E+02  0.10000000000E+00 0.  1.
         -5    1    3    3    0  501 -0.15761704963E+02 -0.65630659899E+02  0.57923264771E+01  0.67744932712E+02  0.10000000000E+00 0.  1.
         21    1    1    2  504  502 -0.32429314984E+02  0.26328068562E+02 -0.96868621882E+02  0.10549103076E+03  0.00000000000E+00 0.  1.
<mgrwt>
<rscale>  1 0.13179073E+03</rscale>
<asrwt>0</asrwt>
<pdfrwt beam="1">  1       21 0.99544385E-02 0.13179073E+03</pdfrwt>
<pdfrwt beam="2">  1       21 0.26627584E-01 0.13179073E+03</pdfrwt>
<totfact> 0.10985243E+06</totfact>
</mgrwt>
</event>
<event>
 6    1  0.4244577E-002  0.1268965E+03  0.7546771E-02  0.1232135E+00
         21   -1    0    0  503  502  0.00000000000E+00  0.00000000000E+00  0.54814081129E+01  0.54814081129E+01  0.00000000000E+00 0.  1.
         21   -1    0    0  504  503 -0.00000000000E+00 -0.00000000000E+00 -0.10752159694E+04  0.10752159694E+04  0.00000000000E+00 0.  1.
         25    2    1    2    0    0 -0.72561191300E+01 -0.20569264356E+02 -0.79134921944E+03  0.80145886932E+03  0.12500794457E+03 0.  0.
          5    1    3    3  501    0 -0.17181548072E+02 -0.57723323878E+02 -0.69665530516E+03  0.69925375360E+03  0.10000000000E+00 0.  1.
         -5    1    3    3    0  501  0.99254289419E+01  0.37154059522E+02 -0.94693914284E+02  0.10220511573E+03  0.10000000000E+00 0.  1.
         21    1    1    2  504  502  0.72561191300E+01  0.20569264356E+02 -0.27838534182E+03  0.27923850817E+03  0.00000000000E+00 0.  1.
<mgrwt>
<rscale>  1 0.12689654E+03</rscale>
<asrwt>0</asrwt>
<pdfrwt beam="1">  1       21 0.84329290E-03 0.12689654E+03</pdfrwt>
<pdfrwt beam="2">  1       21 0.16541797E+00 0.12689654E+03</pdfrwt>
<totfact> 0.11448040E+06</totfact>
</mgrwt>
</event>
<event>
 6    1  0.4244577E-002  0.1264401E+03  0.7546771E-02  0.1232836E+00
         21   -1    0    0  504  502  0.00000000000E+00  0.00000000000E+00  0.42166929154E+03  0.42166929154E+03  0.00000000000E+00 0. -1.
         21   -1    0    0  502  503 -0.00000000000E+00 -0.00000000000E+00 -0.15753810188E+03  0.15753810188E+03  0.00000000000E+00 0. -1.
         25    2    1    2    0    0  0.77351054725E+01 -0.17325185927E+02  0.41156924695E+03  0.43055351804E+03  0.12500837146E+03 0.  0.
          5    1    3    3  501    0  0.32960621995E+02 -0.48208564381E+02  0.95227255583E+02  0.11170813976E+03  0.10000000000E+00 0.  1.
         -5    1    3    3    0  501 -0.25225516522E+02  0.30883378454E+02  0.31634199137E+03  0.31884537828E+03  0.10000000000E+00 0.  1.
         21    1    1    2  504  503 -0.77351054725E+01  0.17325185927E+02 -0.14743805730E+03  0.14865387538E+03  0.00000000000E+00 0. -1.
<mgrwt>
<rscale>  1 0.12644005E+03</rscale>
<asrwt>0</asrwt>
<pdfrwt beam="1">  1       21 0.64872198E-01 0.12644005E+03</pdfrwt>
<pdfrwt beam="2">  1       21 0.24236631E-01 0.12644005E+03</pdfrwt>
<totfact> 0.36501082E+04</totfact>
</mgrwt>
</event>
<event>
 6    1  0.4244577E-002  0.1323975E+03  0.7546771E-02  0.1223941E+00
         21   -1    0    0  503  502  0.00000000000E+00  0.00000000000E+00  0.69104734398E+02  0.69104734398E+02  0.00000000000E+00 0. -1.
         21   -1    0    0  504  503 -0.00000000000E+00 -0.00000000000E+00 -0.11751709300E+03  0.11751709300E+03  0.00000000000E+00 0. -1.
         25    2    1    2    0    0  0.83029352639E+01  0.42801449319E+02 -0.18350374519E+02  0.13366311060E+03  0.12501275172E+03 0.  0.
          5    1    3    3  501    0  0.76084591537E+01  0.86738512895E+02 -0.21242418782E+02  0.89625379361E+02  0.10000000000E+00 0. -1.
         -5    1    3    3    0  501  0.69447611016E+00 -0.43937063576E+02  0.28920442626E+01  0.44037731240E+02  0.10000000000E+00 0. -1.
         21    1    1    2  504  502 -0.83029352639E+01 -0.42801449319E+02 -0.30061984084E+02  0.52958716798E+02  0.00000000000E+00 0. -1.
<mgrwt>
<rscale>  1 0.13239747E+03</rscale>
<asrwt>0</asrwt>
<pdfrwt beam="1">  1       21 0.10631498E-01 0.13239747E+03</pdfrwt>
<pdfrwt beam="2">  1       21 0.18079553E-01 0.13239747E+03</pdfrwt>
<totfact> 0.20167796E+06</totfact>
</mgrwt>
</event>
<event>
 6    1  0.4244577E-002  0.2141159E+03  0.7546771E-02  0.1138348E+00
         21   -1    0    0  503  502  0.00000000000E+00  0.00000000000E+00  0.16785777900E+04  0.16785777900E+04  0.00000000000E+00 0.  1.
         21   -1    0    0  504  503 -0.00000000000E+00 -0.00000000000E+00 -0.25705075170E+02  0.25705075170E+02  0.00000000000E+00 0.  1.
         25    2    1    2    0    0 -0.14245099701E+03  0.99629564184E+02  0.12046652118E+04  0.12235456163E+04  0.12500906454E+03 0.  0.
          5    1    3    3  501    0 -0.15961802137E+03  0.60213390554E+02  0.92601567181E+03  0.94159895900E+03  0.10000000000E+00 0.  1.
         -5    1    3    3    0  501  0.17167024357E+02  0.39416173631E+02  0.27864953996E+03  0.28194665735E+03  0.10000000000E+00 0.  1.
         21    1    1    2  504  502  0.14245099701E+03 -0.99629564184E+02  0.44820750307E+03  0.48073724884E+03  0.00000000000E+00 0.  1.
<mgrwt>
<rscale>  1 0.21411586E+03</rscale>
<asrwt>0</asrwt>
<pdfrwt beam="1">  1       21 0.25824265E+00 0.21411586E+03</pdfrwt>
<pdfrwt beam="2">  1       21 0.39546283E-02 0.21411586E+03</pdfrwt>
<totfact> 0.23335415E+04</totfact>
</mgrwt>
</event>
<event>
 6    1  0.4244577E-002  0.1438797E+03  0.7546771E-02  0.1208202E+00
         21   -1    0    0  503  502  0.00000000000E+00  0.00000000000E+00  0.61742518079E+03  0.61742518079E+03  0.00000000000E+00 0.  1.
         21   -1    0    0  504  503 -0.00000000000E+00 -0.00000000000E+00 -0.26811935905E+02  0.26811935905E+02  0.00000000000E+00 0.  1.
         25    2    1    2    0    0  0.91798571100E+01  0.70658147590E+02  0.53454561384E+03  0.55357056913E+03  0.12499807249E+03 0.  0.
          5    1    3    3  501    0  0.14708123430E+02  0.49346489138E+01  0.55706200391E+00  0.15524173821E+02  0.10000000000E+00 0.  1.
         -5    1    3    3    0  501 -0.55282663201E+01  0.65723498676E+02  0.53398855184E+03  0.53804639531E+03  0.10000000000E+00 0.  1.
         21    1    1    2  504  502 -0.91798571100E+01 -0.70658147590E+02  0.56067631045E+02  0.90666547570E+02  0.00000000000E+00 0.  1.
<mgrwt>
<rscale>  1 0.14387968E+03</rscale>
<asrwt>0</asrwt>
<pdfrwt beam="1">  1       21 0.94988479E-01 0.14387968E+03</pdfrwt>
<pdfrwt beam="2">  1       21 0.41249137E-02 0.14387968E+03</pdfrwt>
<totfact> 0.34889891E+05</totfact>
</mgrwt>
</event>
<event>
 6    1  0.4244577E-002  0.1273077E+03  0.7546771E-02  0.1231506E+00
         21   -1    0    0  503  502  0.00000000000E+00  0.00000000000E+00  0.93822565014E+03  0.93822565014E+03  0.00000000000E+00 0.  1.
         21   -1    0    0  504  503 -0.00000000000E+00 -0.00000000000E+00 -0.16075364234E+02  0.16075364234E+02  0.00000000000E+00 0.  1.
         25    2    1    2    0    0  0.11665509991E+02 -0.21126914007E+02  0.92140252878E+03  0.93015583350E+03  0.12499929573E+03 0.  0.
          5    1    3    3  501    0 -0.53193836667E+02  0.22361236455E+01  0.27651217162E+03  0.28159114965E+03  0.10000000000E+00 0. -1.
         -5    1    3    3    0  501  0.64859346658E+02 -0.23363037652E+02  0.64489035716E+03  0.64856468385E+03  0.10000000000E+00 0. -1.
         21    1    1    2  504  502 -0.11665509991E+02  0.21126914007E+02  0.74775712785E+00  0.24145180876E+02  0.00000000000E+00 0.  1.
<mgrwt>
<rscale>  1 0.12730772E+03</rscale>
<asrwt>0</asrwt>
<pdfrwt beam="1">  1       21 0.14434237E+00 0.12730772E+03</pdfrwt>
<pdfrwt beam="2">  1       21 0.24731337E-02 0.12730772E+03</pdfrwt>
<totfact> 0.29390181E+05</totfact>
</mgrwt>
</event>
<event>
 6    1  0.4244577E-002  0.1266433E+03  0.7546771E-02  0.1232523E+00
         21   -1    0    0  504  502  0.00000000000E+00  0.00000000000E+00  0.42873049189E+03  0.42873049189E+03  0.00000000000E+00 0. -1.
         21   -1    0    0  502  503 -0.00000000000E+00 -0.00000000000E+00 -0.81033798315E+02  0.81033798315E+02  0.00000000000E+00 0. -1.
         25    2    1    2    0    0  0.19840231139E+02  0.44684386869E+01  0.41790343724E+03  0.43667127704E+03  0.12499967845E+03 0.  0.
          5    1    3    3  501    0  0.34577358588E+02 -0.84514130889E+01  0.41538952071E+03  0.41691184203E+03  0.10000000000E+00 0.  1.
         -5    1    3    3    0  501 -0.14737127449E+02  0.12919851776E+02  0.25139165315E+01  0.19759435004E+02  0.10000000000E+00 0.  1.
         21    1    1    2  504  503 -0.19840231139E+02 -0.44684386869E+01 -0.70206743673E+02  0.73093013162E+02  0.00000000000E+00 0. -1.
<mgrwt>
<rscale>  1 0.12664328E+03</rscale>
<asrwt>0</asrwt>
<pdfrwt beam="1">  1       21 0.65958536E-01 0.12664328E+03</pdfrwt>
<pdfrwt beam="2">  1       21 0.12466738E-01 0.12664328E+03</pdfrwt>
<totfact> 0.11856124E+05</totfact>
</mgrwt>
</event>
<event>
 6    1  0.4244577E-002  0.1265356E+03  0.7546771E-02  0.1232689E+00
         21   -1    0    0  504  502  0.00000000000E+00  0.00000000000E+00  0.17740563662E+03  0.17740563662E+03  0.00000000000E+00 0.  1.
         21   -1    0    0  502  503 -0.00000000000E+00 -0.00000000000E+00 -0.45772636759E+02  0.45772636759E+02  0.00000000000E+00 0.  1.
         25    2    1    2    0    0  0.82726020213E+01 -0.17821820653E+02  0.15002717527E+03  0.19626361335E+03  0.12500079748E+03 0.  0.
          5    1    3    3  501    0 -0.29719781681E+02  0.15127519156E+02 -0.45997766467E+01  0.33664153103E+02  0.10000000000E+00 0. -1.
         -5    1    3    3    0  501  0.37992383702E+02 -0.32949339809E+02  0.15462695192E+03  0.16259946025E+03  0.10000000000E+00 0. -1.
         21    1    1    2  504  503 -0.82726020213E+01  0.17821820653E+02 -0.18394175409E+02  0.26914660031E+02  0.00000000000E+00 0.  1.
<mgrwt>
<rscale>  1 0.12653558E+03</rscale>
<asrwt>0</asrwt>
<pdfrwt beam="1">  1       21 0.27293174E-01 0.12653558E+03</pdfrwt>
<pdfrwt beam="2">  1       21 0.70419442E-02 0.12653558E+03</pdfrwt>
<totfact> 0.19055133E+06</totfact>
</mgrwt>
</event>
<event>
 6    1  0.4244577E-002  0.1439421E+03  0.7546771E-02  0.1208121E+00
         21   -1    0    0  504  502  0.00000000000E+00  0.00000000000E+00  0.14442255510E+04  0.14442255510E+04  0.00000000000E+00 0. -1.
         21   -1    0    0  502  503 -0.00000000000E+00 -0.00000000000E+00 -0.18857744034E+02  0.18857744034E+02  0.00000000000E+00 0.  1.
         25    2    1    2    0    0  0.52605821777E+02 -0.48286226167E+02  0.13557025652E+04  0.13633226914E+04  0.12498153290E+03 0.  0.
          5    1    3    3  501    0  0.51666010251E+02 -0.68195388202E+02  0.13171207384E+04  0.13198966009E+04  0.10000000000E+00 0.  1.
         -5    1    3    3    0  501  0.93981152600E+00  0.19909162035E+02  0.38581826824E+02  0.43426090541E+02  0.10000000000E+00 0.  1.
         21    1    1    2  504  503 -0.52605821777E+02  0.48286226167E+02  0.69665241800E+02  0.99760603634E+02  0.00000000000E+00 0.  1.
<mgrwt>
<rscale>  1 0.14394206E+03</rscale>
<asrwt>0</asrwt>
<pdfrwt beam="1">  1       21 0.22218846E+00 0.14394206E+03</pdfrwt>
<pdfrwt beam="2">  1       21 0.29011925E-02 0.14394206E+03</pdfrwt>
<totfact> 0.67549951E+04</totfact>
</mgrwt>
</event>
<event>
 6    1  0.4244577E-002  0.1258983E+03  0.7546771E-02  0.1233672E+00
         21   -1    0    0  503  502  0.00000000000E+00  0.00000000000E+00  0.11981337254E+03  0.11981337254E+03  0.00000000000E+00 0.  1.
         21   -1    0    0  504  503 -0.00000000000E+00 -0.00000000000E+00 -0.54998752088E+02  0.54998752088E+02  0.00000000000E+00 0.  1.
         25    2    1    2    0    0  0.11683511475E+01  0.15105452579E+02  0.83262367323E+02  0.15094040272E+03  0.12498337337E+03 0.  0.
          5    1    3    3  501    0 -0.47197375005E+01 -0.43961494767E+02  0.80104585566E+02  0.91496686131E+02  0.10000000000E+00 0. -1.
         -5    1    3    3    0  501  0.58880886480E+01  0.59066947346E+02  0.31577817571E+01  0.59443716592E+02  0.10000000000E+00 0. -1.
         21    1    1    2  504  502 -0.11683511475E+01 -0.15105452579E+02 -0.18447746872E+02  0.23871721904E+02  0.00000000000E+00 0.  1.
<mgrwt>
<rscale>  1 0.12589831E+03</rscale>
<asrwt>0</asrwt>
<pdfrwt beam="1">  1       21 0.18432826E-01 0.12589831E+03</pdfrwt>
<pdfrwt beam="2">  1       21 0.84613465E-02 0.12589831E+03</pdfrwt>
<totfact> 0.28932006E+06</totfact>
</mgrwt>
</event>
<event>
 6    1  0.4244577E-002  0.1514489E+03  0.7546771E-02  0.1198704E+00
         21   -1    0    0  504  502  0.00000000000E+00  0.00000000000E+00  0.38079202146E+03  0.38079202146E+03  0.00000000000E+00 0. -1.
         21   -1    0    0  502  503 -0.00000000000E+00 -0.00000000000E+00 -0.23362923428E+03  0.23362923428E+03  0.00000000000E+00 0. -1.
         25    2    1    2    0    0 -0.38235630866E+01  0.85426739187E+02  0.35701790324E+03  0.38781252436E+03  0.12499769364E+03 0.  0.
          5    1    3    3  501    0  0.47514628423E+02  0.54148762893E+02  0.28518617081E+03  0.29414433610E+03  0.10000000000E+00 0. -1.
         -5    1    3    3    0  501 -0.51338191510E+02  0.31277976294E+02  0.71831732428E+02  0.93668188261E+02  0.10000000000E+00 0. -1.
         21    1    1    2  504  503  0.38235630866E+01 -0.85426739187E+02 -0.20985511605E+03  0.22660873138E+03  0.00000000000E+00 0. -1.
<mgrwt>
<rscale>  1 0.15144890E+03</rscale>
<asrwt>0</asrwt>
<pdfrwt beam="1">  1       21 0.58583388E-01 0.15144890E+03</pdfrwt>
<pdfrwt beam="2">  1       21 0.35942959E-01 0.15144890E+03</pdfrwt>
<totfact> 0.20886126E+04</totfact>
</mgrwt>
</event>
<event>
 6    1  0.4244577E-002  0.1330779E+03  0.7546771E-02  0.1222959E+00
         21   -1    0    0  504  502  0.00000000000E+00  0.00000000000E+00  0.24934452319E+02  0.24934452319E+02  0.00000000000E+00 0. -1.
         21   -1    0    0  502  503 -0.00000000000E+00 -0.00000000000E+00 -0.20372586273E+04  0.20372586273E+04  0.00000000000E+00 0.  1.
         25    2    1    2    0    0 -0.94370119028E+01  0.44642452909E+02 -0.15492642316E+03  0.20423494923E+03  0.12501084793E+03 0.  0.
          5    1    3    3  501    0  0.25368856436E+02  0.27689867319E+02 -0.16075537159E+03  0.16508363675E+03  0.10000000000E+00 0. -1.
         -5    1    3    3    0  501 -0.34805868339E+02  0.16952585590E+02  0.58289484298E+01  0.39151312479E+02  0.10000000000E+00 0. -1.
         21    1    1    2  504  503  0.94370119028E+01 -0.44642452909E+02 -0.18573977518E+04  0.18579581303E+04  0.00000000000E+00 0.  1.
<mgrwt>
<rscale>  1 0.13307786E+03</rscale>
<asrwt>0</asrwt>
<pdfrwt beam="1">  1       21 0.38360720E-02 0.13307786E+03</pdfrwt>
<pdfrwt beam="2">  1       21 0.31342421E+00 0.13307786E+03</pdfrwt>
<totfact> 0.12930755E+04</totfact>
</mgrwt>
</event>
<event>
 6    1  0.4244577E-002  0.1263349E+03  0.7546771E-02  0.1232998E+00
         21   -1    0    0  503  502  0.00000000000E+00  0.00000000000E+00  0.13936517808E+04  0.13936517808E+04  0.00000000000E+00 0.  1.
         21   -1    0    0  504  503 -0.00000000000E+00 -0.00000000000E+00 -0.41815760942E+02  0.41815760942E+02  0.00000000000E+00 0. -1.
         25    2    1    2    0    0 -0.13921580069E+02 -0.11895956334E+02  0.13886319097E+04  0.13943669131E+04  0.12500073372E+03 0.  0.
          5    1    3    3  501    0  0.36614848913E+02  0.39283322122E+02  0.52177677912E+03  0.52453297683E+03  0.10000000000E+00 0. -1.
         -5    1    3    3    0  501 -0.50536428981E+02 -0.51179278456E+02  0.86685513062E+03  0.86983393627E+03  0.10000000000E+00 0. -1.
         21    1    1    2  504  502  0.13921580069E+02  0.11895956334E+02 -0.36795889843E+02  0.41100628681E+02  0.00000000000E+00 0. -1.
<mgrwt>
<rscale>  1 0.12633490E+03</rscale>
<asrwt>0</asrwt>
<pdfrwt beam="1">  1       21 0.21440793E+00 0.12633490E+03</pdfrwt>
<pdfrwt beam="2">  1       21 0.64331951E-02 0.12633490E+03</pdfrwt>
<totfact> 0.20228392E+04</totfact>
</mgrwt>
</event>
<event>
 6    1  0.4244577E-002  0.1277179E+03  0.7546771E-02  0.1230882E+00
         21   -1    0    0  504  502  0.00000000000E+00  0.00000000000E+00  0.12458425443E+03  0.12458425443E+03  0.00000000000E+00 0. -1.
         21   -1    0    0  502  503 -0.00000000000E+00 -0.00000000000E+00 -0.57224529796E+02  0.57224529796E+02  0.00000000000E+00 0. -1.
         25    2    1    2    0    0 -0.14638495454E+02  0.21784808773E+02  0.81980299017E+02  0.15176507210E+03  0.12499201671E+03 0.  0.
          5    1    3    3  501    0 -0.63357959700E+01  0.45979776048E+02 -0.17078543637E+02  0.49456736334E+02  0.10000000000E+00 0.  1.
         -5    1    3    3    0  501 -0.83026994841E+01 -0.24194967275E+02  0.99058842654E+02  0.10230833577E+03  0.10000000000E+00 0.  1.
         21    1    1    2  504  503  0.14638495454E+02 -0.21784808773E+02 -0.14620574386E+02  0.30043712118E+02  0.00000000000E+00 0. -1.
<mgrwt>
<rscale>  1 0.12771792E+03</rscale>
<asrwt>0</asrwt>
<pdfrwt beam="1">  1       21 0.19166808E-01 0.12771792E+03</pdfrwt>
<pdfrwt beam="2">  1       21 0.88037739E-02 0.12771792E+03</pdfrwt>
<totfact> 0.25154762E+06</totfact>
</mgrwt>
</event>
<event>
 6    1  0.4244577E-002  0.1843227E+03  0.7546771E-02  0.1163684E+00
         21   -1    0    0  504  502  0.00000000000E+00  0.00000000000E+00  0.39537044335E+02  0.39537044335E+02  0.00000000000E+00 0. -1.
         21   -1    0    0  502  503 -0.00000000000E+00 -0.00000000000E+00 -0.98082282806E+03  0.98082282806E+03  0.00000000000E+00 0. -1.
         25    2    1    2    0    0  0.67036011651E+02 -0.11771309866E+03 -0.22254823774E+03  0.28896814393E+03  0.12499867853E+03 0.  0.
          5    1    3    3  501    0 -0.45931508221E+01  0.13679669328E+02  0.61279927955E+01  0.15677776727E+02  0.10000000000E+00 0.  1.
         -5    1    3    3    0  501  0.71629162473E+02 -0.13139276799E+03 -0.22867623053E+03  0.27329036721E+03  0.10000000000E+00 0.  1.
         21    1    1    2  504  503 -0.67036011651E+02  0.11771309866E+03 -0.71873754599E+03  0.73139172846E+03  0.00000000000E+00 0. -1.
<mgrwt>
<rscale>  1 0.18432273E+03</rscale>
<asrwt>0</asrwt>
<pdfrwt beam="1">  1       21 0.60826230E-02 0.18432273E+03</pdfrwt>
<pdfrwt beam="2">  1       21 0.15089580E+00 0.18432273E+03</pdfrwt>
<totfact> 0.56934324E+04</totfact>
</mgrwt>
</event>
<event>
 6    1  0.4244577E-002  0.1297104E+03  0.7546771E-02  0.1227886E+00
         21   -1    0    0  503  502  0.00000000000E+00  0.00000000000E+00  0.18972556123E+03  0.18972556123E+03  0.00000000000E+00 0.  1.
         21   -1    0    0  504  503 -0.00000000000E+00 -0.00000000000E+00 -0.36481887729E+02  0.36481887729E+02  0.00000000000E+00 0.  1.
         25    2    1    2    0    0  0.31980378726E+02  0.13311182212E+02  0.13435877451E+03  0.18675403839E+03  0.12499943349E+03 0.  0.
          5    1    3    3  501    0 -0.27677498032E+02  0.48318562311E+02  0.35283945416E+02  0.65921879260E+02  0.10000000000E+00 0.  1.
         -5    1    3    3    0  501  0.59657876758E+02 -0.35007380099E+02  0.99074829093E+02  0.12083215913E+03  0.10000000000E+00 0.  1.
         21    1    1    2  504  502 -0.31980378726E+02 -0.13311182212E+02  0.18884898992E+02  0.39453410566E+02  0.00000000000E+00 0.  1.
<mgrwt>
<rscale>  1 0.12971041E+03</rscale>
<asrwt>0</asrwt>
<pdfrwt beam="1">  1       21 0.29188547E-01 0.12971041E+03</pdfrwt>
<pdfrwt beam="2">  1       21 0.56125982E-02 0.12971041E+03</pdfrwt>
<totfact> 0.24658839E+06</totfact>
</mgrwt>
</event>
<event>
 6    1  0.4244577E-002  0.2096507E+03  0.7546771E-02  0.1141843E+00
         21   -1    0    0  504  502  0.00000000000E+00  0.00000000000E+00  0.34429966113E+02  0.34429966113E+02  0.00000000000E+00 0.  1.
         21   -1    0    0  502  503 -0.00000000000E+00 -0.00000000000E+00 -0.11125297081E+04  0.11125297081E+04  0.00000000000E+00 0.  1.
         25    2    1    2    0    0  0.15968837275E+03 -0.53165945137E+02 -0.44569514057E+03  0.49254193759E+03  0.12500563126E+03 0.  0.
          5    1    3    3  501    0  0.10356037349E+03 -0.94171167160E+02 -0.28849612692E+03  0.32066023284E+03  0.10000000000E+00 0. -1.
         -5    1    3    3    0  501  0.56127999260E+02  0.41005222024E+02 -0.15719901365E+03  0.17188170475E+03  0.10000000000E+00 0. -1.
         21    1    1    2  504  503 -0.15968837275E+03  0.53165945137E+02 -0.63240460146E+03  0.65441773666E+03  0.00000000000E+00 0.  1.
<mgrwt>
<rscale>  1 0.20965067E+03</rscale>
<asrwt>0</asrwt>
<pdfrwt beam="1">  1       21 0.52969186E-02 0.20965067E+03</pdfrwt>
<pdfrwt beam="2">  1       21 0.17115839E+00 0.20965067E+03</pdfrwt>
<totfact> 0.50564203E+04</totfact>
</mgrwt>
</event>
<event>
 6    1  0.4244577E-002  0.1551039E+03  0.7546771E-02  0.1194338E+00
         21   -1    0    0  503  502  0.00000000000E+00  0.00000000000E+00  0.46009632451E+02  0.46009632451E+02  0.00000000000E+00 0.  1.
         21   -1    0    0  504  503 -0.00000000000E+00 -0.00000000000E+00 -0.54981234191E+03  0.54981234191E+03  0.00000000000E+00 0.  1.
         25    2    1    2    0    0  0.76536691033E+02  0.50737746531E+02 -0.10675002373E+03  0.18828912999E+03  0.12500017963E+03 0.  0.
          5    1    3    3  501    0  0.13757473507E+02  0.74065810101E+02 -0.93406911026E+02  0.11999947221E+03  0.10000000000E+00 0.  1.
         -5    1    3    3    0  501  0.62779217527E+02 -0.23328063570E+02 -0.13343112707E+02  0.68289657781E+02  0.10000000000E+00 0.  1.
         21    1    1    2  504  502 -0.76536691033E+02 -0.50737746531E+02 -0.39705268573E+03  0.40753284437E+03  0.00000000000E+00 0.  1.
<mgrwt>
<rscale>  1 0.15510393E+03</rscale>
<asrwt>0</asrwt>
<pdfrwt beam="1">  1       21 0.70784049E-02 0.15510393E+03</pdfrwt>
<pdfrwt beam="2">  1       21 0.84586515E-01 0.15510393E+03</pdfrwt>
<totfact> 0.18202656E+05</totfact>
</mgrwt>
</event>
<event>
 6    1  0.4244577E-002  0.1267262E+03  0.7546771E-02  0.1232396E+00
         21   -1    0    0  503  502  0.00000000000E+00  0.00000000000E+00  0.11494165996E+03  0.11494165996E+03  0.00000000000E+00 0. -1.
         21   -1    0    0  504  503 -0.00000000000E+00 -0.00000000000E+00 -0.57653275722E+02  0.57653275722E+02  0.00000000000E+00 0. -1.
         25    2    1    2    0    0 -0.19241378446E+02  0.80198677956E+01  0.73220079576E+02  0.14635817064E+03  0.12499994054E+03 0.  0.
          5    1    3    3  501    0 -0.33937555401E+02 -0.48460368398E+02  0.94473096616E+01  0.59911823806E+02  0.10000000000E+00 0. -1.
         -5    1    3    3    0  501  0.14696176956E+02  0.56480236194E+02  0.63772769915E+02  0.86446346830E+02  0.10000000000E+00 0. -1.
         21    1    1    2  504  502  0.19241378446E+02 -0.80198677956E+01 -0.15931695336E+02  0.26236765049E+02  0.00000000000E+00 0. -1.
<mgrwt>
<rscale>  1 0.12672622E+03</rscale>
<asrwt>0</asrwt>
<pdfrwt beam="1">  1       21 0.17683332E-01 0.12672622E+03</pdfrwt>
<pdfrwt beam="2">  1       21 0.88697348E-02 0.12672622E+03</pdfrwt>
<totfact> 0.28775873E+06</totfact>
</mgrwt>
</event>
<event>
 6    1  0.4244577E-002  0.1484437E+03  0.7546771E-02  0.1202399E+00
         21   -1    0    0  503  502  0.00000000000E+00  0.00000000000E+00  0.63418415430E+01  0.63418415430E+01  0.00000000000E+00 0.  1.
         21   -1    0    0  504  503 -0.00000000000E+00 -0.00000000000E+00 -0.23094541567E+04  0.23094541567E+04  0.00000000000E+00 0.  1.
         25    2    1    2    0    0 -0.77125782804E+02 -0.21444687934E+02 -0.10923438154E+04  0.11023840232E+04  0.12500905045E+03 0.  0.
          5    1    3    3  501    0 -0.42878664329E+02  0.10998179827E+02 -0.97369884879E+03  0.97470456958E+03  0.10000000000E+00 0.  1.
         -5    1    3    3    0  501 -0.34247118475E+02 -0.32442867761E+02 -0.11864496657E+03  0.12767945365E+03  0.10000000000E+00 0.  1.
         21    1    1    2  504  502  0.77125782804E+02  0.21444687934E+02 -0.12107684998E+04  0.12134119750E+04  0.00000000000E+00 0.  1.
<mgrwt>
<rscale>  1 0.14844367E+03</rscale>
<asrwt>0</asrwt>
<pdfrwt beam="1">  1       21 0.97566863E-03 0.14844367E+03</pdfrwt>
<pdfrwt beam="2">  1       21 0.35530038E+00 0.14844367E+03</pdfrwt>
<totfact> 0.66651973E+04</totfact>
</mgrwt>
</event>
<event>
 6    1  0.4244577E-002  0.1559279E+03  0.7546771E-02  0.1193372E+00
         21   -1    0    0  504  502  0.00000000000E+00  0.00000000000E+00  0.87630249085E+03  0.87630249085E+03  0.00000000000E+00 0.  1.
         21   -1    0    0  502  503 -0.00000000000E+00 -0.00000000000E+00 -0.24553138586E+02  0.24553138586E+02  0.00000000000E+00 0. -1.
         25    2    1    2    0    0  0.19291428678E+02 -0.91190688860E+02  0.27086100021E+03  0.31253668660E+03  0.12500239229E+03 0.  0.
          5    1    3    3  501    0  0.63750759893E+02 -0.90575434661E+02  0.20616732372E+03  0.23403641623E+03  0.10000000000E+00 0. -1.
         -5    1    3    3    0  501 -0.44459331215E+02 -0.61525419888E+00  0.64693676495E+02  0.78500270371E+02  0.10000000000E+00 0. -1.
         21    1    1    2  504  503 -0.19291428678E+02  0.91190688860E+02  0.58088835205E+03  0.58831894284E+03  0.00000000000E+00 0.  1.
<mgrwt>
<rscale>  1 0.15592786E+03</rscale>
<asrwt>0</asrwt>
<pdfrwt beam="1">  1       21 0.13481574E+00 0.15592786E+03</pdfrwt>
<pdfrwt beam="2">  1       21 0.37774066E-02 0.15592786E+03</pdfrwt>
<totfact> 0.17251046E+05</totfact>
</mgrwt>
</event>
<event>
 6    1  0.4244577E-002  0.1262755E+03  0.7546771E-02  0.1233089E+00
         21   -1    0    0  503  502  0.00000000000E+00  0.00000000000E+00  0.34955648158E+02  0.34955648158E+02  0.00000000000E+00 0.  1.
         21   -1    0    0  504  503 -0.00000000000E+00 -0.00000000000E+00 -0.17126207466E+03  0.17126207466E+03  0.00000000000E+00 0.  1.
         25    2    1    2    0    0  0.92193632537E+01 -0.15363394102E+02 -0.85903842399E+02  0.15272519043E+03  0.12499793245E+03 0.  0.
          5    1    3    3  501    0 -0.29060269875E+02  0.64361084909E+01 -0.10166976807E+03  0.10593712530E+03  0.10000000000E+00 0. -1.
         -5    1    3    3    0  501  0.38279633128E+02 -0.21799502593E+02  0.15765925674E+02  0.46788065125E+02  0.10000000000E+00 0. -1.
         21    1    1    2  504  502 -0.92193632537E+01  0.15363394102E+02 -0.50402584104E+02  0.53492532390E+02  0.00000000000E+00 0.  1.
<mgrwt>
<rscale>  1 0.12627555E+03</rscale>
<asrwt>0</asrwt>
<pdfrwt beam="1">  1       21 0.53777921E-02 0.12627555E+03</pdfrwt>
<pdfrwt beam="2">  1       21 0.26348011E-01 0.12627555E+03</pdfrwt>
<totfact> 0.32199592E+06</totfact>
</mgrwt>
</event>
<event>
 6    1  0.4244577E-002  0.1262967E+03  0.7546771E-02  0.1233057E+00
         21   -1    0    0  503  502  0.00000000000E+00  0.00000000000E+00  0.90507881916E+02  0.90507881916E+02  0.00000000000E+00 0. -1.
         21   -1    0    0  504  503 -0.00000000000E+00 -0.00000000000E+00 -0.62477849134E+02  0.62477849134E+02  0.00000000000E+00 0. -1.
         25    2    1    2    0    0  0.17628069418E+02 -0.40839470977E+01  0.38557357787E+02  0.13205126122E+03  0.12499375302E+03 0.  0.
          5    1    3    3  501    0 -0.51264645332E+02 -0.67341992635E+01  0.36105929537E+02  0.63063947295E+02  0.10000000000E+00 0. -1.
         -5    1    3    3    0  501  0.68892714750E+02  0.26502521658E+01  0.24514282504E+01  0.68987313926E+02  0.10000000000E+00 0. -1.
         21    1    1    2  504  502 -0.17628069418E+02  0.40839470977E+01 -0.10527325005E+02  0.20934469830E+02  0.00000000000E+00 0.  1.
<mgrwt>
<rscale>  1 0.12629674E+03</rscale>
<asrwt>0</asrwt>
<pdfrwt beam="1">  1       21 0.13924289E-01 0.12629674E+03</pdfrwt>
<pdfrwt beam="2">  1       21 0.96119768E-02 0.12629674E+03</pdfrwt>
<totfact> 0.38545377E+06</totfact>
</mgrwt>
</event>
<event>
 6    1  0.4244577E-002  0.1297919E+03  0.7546771E-02  0.1227765E+00
         21   -1    0    0  503  502  0.00000000000E+00  0.00000000000E+00  0.69104805551E+01  0.69104805551E+01  0.00000000000E+00 0.  1.
         21   -1    0    0  504  503 -0.00000000000E+00 -0.00000000000E+00 -0.13848764313E+04  0.13848764313E+04  0.00000000000E+00 0.  1.
         25    2    1    2    0    0 -0.58415910857E+01 -0.34348592449E+02 -0.64156316335E+03  0.65456034202E+03  0.12502799201E+03 0.  0.
          5    1    3    3  501    0  0.11644203004E+02  0.45861139349E+02 -0.25925348292E+03  0.26353597473E+03  0.10000000000E+00 0.  1.
         -5    1    3    3    0  501 -0.17485794090E+02 -0.80209731798E+02 -0.38230968042E+03  0.39102436729E+03  0.10000000000E+00 0.  1.
         21    1    1    2  504  502  0.58415910857E+01  0.34348592449E+02 -0.73640278743E+03  0.73722656987E+03  0.00000000000E+00 0.  1.
<mgrwt>
<rscale>  1 0.12979194E+03</rscale>
<asrwt>0</asrwt>
<pdfrwt beam="1">  1       21 0.10631504E-02 0.12979194E+03</pdfrwt>
<pdfrwt beam="2">  1       21 0.21305800E+00 0.12979194E+03</pdfrwt>
<totfact> 0.38919522E+05</totfact>
</mgrwt>
</event>
<event>
 6    1  0.4244577E-002  0.1274961E+03  0.7546771E-02  0.1231219E+00
         21   -1    0    0  503  502  0.00000000000E+00  0.00000000000E+00  0.24083032144E+03  0.24083032144E+03  0.00000000000E+00 0.  1.
         21   -1    0    0  504  503 -0.00000000000E+00 -0.00000000000E+00 -0.85552665702E+02  0.85552665702E+02  0.00000000000E+00 0. -1.
         25    2    1    2    0    0 -0.24666486433E+02  0.45529525021E+01  0.22149807355E+03  0.25557120378E+03  0.12500431467E+03 0.  0.
          5    1    3    3  501    0 -0.39747567269E+02  0.48932877723E+02  0.18708849410E+03  0.19742444188E+03  0.10000000000E+00 0. -1.
         -5    1    3    3    0  501  0.15081080836E+02 -0.44379925221E+02  0.34409579445E+02  0.58146761900E+02  0.10000000000E+00 0. -1.
         21    1    1    2  504  502  0.24666486433E+02 -0.45529525021E+01 -0.66220417804E+02  0.70811783367E+02  0.00000000000E+00 0. -1.
<mgrwt>
<rscale>  1 0.12749605E+03</rscale>
<asrwt>0</asrwt>
<pdfrwt beam="1">  1       21 0.37050819E-01 0.12749605E+03</pdfrwt>
<pdfrwt beam="2">  1       21 0.13161949E-01 0.12749605E+03</pdfrwt>
<totfact> 0.35343482E+05</totfact>
</mgrwt>
</event>
<event>
 6    1  0.4244577E-002  0.1508829E+03  0.7546771E-02  0.1199392E+00
         21   -1    0    0  503  502  0.00000000000E+00  0.00000000000E+00  0.33214971184E+02  0.33214971184E+02  0.00000000000E+00 0. -1.
         21   -1    0    0  504  503 -0.00000000000E+00 -0.00000000000E+00 -0.65093187935E+03  0.65093187935E+03  0.00000000000E+00 0. -1.
         25    2    1    2    0    0 -0.76916812541E+02  0.34993002442E+02 -0.16489767022E+03  0.22351036856E+03  0.12499974775E+03 0.  0.
          5    1    3    3  501    0 -0.89378112410E+02  0.26554308943E+02 -0.46557504130E+02  0.10421703072E+03  0.10000000000E+00 0.  1.
         -5    1    3    3    0  501  0.12461299869E+02  0.84386934987E+01 -0.11834016609E+03  0.11929333784E+03  0.10000000000E+00 0.  1.
         21    1    1    2  504  502  0.76916812541E+02 -0.34993002442E+02 -0.45281923794E+03  0.46063648197E+03  0.00000000000E+00 0. -1.
<mgrwt>
<rscale>  1 0.15088288E+03</rscale>
<asrwt>0</asrwt>
<pdfrwt beam="1">  1       21 0.51099957E-02 0.15088288E+03</pdfrwt>
<pdfrwt beam="2">  1       21 0.10014336E+00 0.15088288E+03</pdfrwt>
<totfact> 0.21493741E+05</totfact>
</mgrwt>
</event>
<event>
 6    1  0.4244577E-002  0.1596889E+03  0.7546771E-02  0.1189048E+00
         21   -1    0    0  503  502  0.00000000000E+00  0.00000000000E+00  0.48540440441E+03  0.48540440441E+03  0.00000000000E+00 0.  1.
         21   -1    0    0  504  503 -0.00000000000E+00 -0.00000000000E+00 -0.54427761884E+02  0.54427761884E+02  0.00000000000E+00 0.  1.
         25    2    1    2    0    0  0.73247381580E+02  0.67036400481E+02  0.40768481873E+03  0.43784409369E+03  0.12506590686E+03 0.  0.
          5    1    3    3  501    0  0.38328791194E+02  0.61712647507E+02  0.79224192080E+02  0.10748967256E+03  0.10000000000E+00 0. -1.
         -5    1    3    3    0  501  0.34918590386E+02  0.53237529741E+01  0.32846062665E+03  0.33035442113E+03  0.10000000000E+00 0. -1.
         21    1    1    2  504  502 -0.73247381580E+02 -0.67036400481E+02  0.23291823797E+02  0.10198807260E+03  0.00000000000E+00 0.  1.
<mgrwt>
<rscale>  1 0.15968888E+03</rscale>
<asrwt>0</asrwt>
<pdfrwt beam="1">  1       21 0.74677598E-01 0.15968888E+03</pdfrwt>
<pdfrwt beam="2">  1       21 0.83735022E-02 0.15968888E+03</pdfrwt>
<totfact> 0.17985116E+05</totfact>
</mgrwt>
</event>
<event>
 6    1  0.4244577E-002  0.1264397E+03  0.7546771E-02  0.1232836E+00
         21   -1    0    0  503  502  0.00000000000E+00  0.00000000000E+00  0.89511044640E+02  0.89511044640E+02  0.00000000000E+00 0. -1.
         21   -1    0    0  504  503 -0.00000000000E+00 -0.00000000000E+00 -0.59655744898E+02  0.59655744898E+02  0.00000000000E+00 0. -1.
         25    2    1    2    0    0  0.54680792576E+01 -0.18233617733E+02  0.20998881627E+02  0.12817153178E+03  0.12499849528E+03 0.  0.
          5    1    3    3  501    0 -0.25021668289E+02  0.46849312813E+02  0.18550445986E+02  0.56258964097E+02  0.10000000000E+00 0.  1.
         -5    1    3    3    0  501  0.30489747547E+02 -0.65082930546E+02  0.24484356414E+01  0.71912567685E+02  0.10000000000E+00 0.  1.
         21    1    1    2  504  502 -0.54680792576E+01  0.18233617733E+02  0.88564181144E+01  0.20995257756E+02  0.00000000000E+00 0. -1.
<mgrwt>
<rscale>  1 0.12643966E+03</rscale>
<asrwt>0</asrwt>
<pdfrwt beam="1">  1       21 0.13770930E-01 0.12643966E+03</pdfrwt>
<pdfrwt beam="2">  1       21 0.91778069E-02 0.12643966E+03</pdfrwt>
<totfact> 0.42614897E+06</totfact>
</mgrwt>
</event>
<event>
 6    1  0.4244577E-002  0.1263226E+03  0.7546771E-02  0.1233017E+00
         21   -1    0    0  504  502  0.00000000000E+00  0.00000000000E+00  0.66295114270E+02  0.66295114270E+02  0.00000000000E+00 0. -1.
         21   -1    0    0  502  503 -0.00000000000E+00 -0.00000000000E+00 -0.90102266681E+02  0.90102266681E+02  0.00000000000E+00 0. -1.
         25    2    1    2    0    0  0.18183271854E+02  0.88465024363E+00  0.13182092416E+00  0.12632266689E+03  0.12500393919E+03 0.  0.
          5    1    3    3  501    0  0.26026775959E+02 -0.59734130358E+02  0.16638873310E+01  0.65179275215E+02  0.10000000000E+00 0. -1.
         -5    1    3    3    0  501 -0.78435041050E+01  0.60618780602E+02 -0.15320664068E+01  0.61143391677E+02  0.10000000000E+00 0. -1.
         21    1    1    2  504  503 -0.18183271854E+02 -0.88465024363E+00 -0.23938973336E+02  0.30074714059E+02  0.00000000000E+00 0. -1.
<mgrwt>
<rscale>  1 0.12632260E+03</rscale>
<asrwt>0</asrwt>
<pdfrwt beam="1">  1       21 0.10199248E-01 0.12632260E+03</pdfrwt>
<pdfrwt beam="2">  1       21 0.13861887E-01 0.12632260E+03</pdfrwt>
<totfact> 0.35032214E+06</totfact>
</mgrwt>
</event>
<event>
 6    1  0.4244577E-002  0.1325135E+03  0.7546771E-02  0.1223773E+00
         21   -1    0    0  503  502  0.00000000000E+00  0.00000000000E+00  0.71186275252E+03  0.71186275252E+03  0.00000000000E+00 0. -1.
         21   -1    0    0  504  503 -0.00000000000E+00 -0.00000000000E+00 -0.11448616016E+02  0.11448616016E+02  0.00000000000E+00 0. -1.
         25    2    1    2    0    0  0.42935007084E+02  0.10034385000E+02  0.58353740402E+03  0.59839429880E+03  0.12496291941E+03 0.  0.
          5    1    3    3  501    0 -0.10913982977E+02 -0.34724983555E+02  0.59875565108E+02  0.70071626243E+02  0.10000000000E+00 0. -1.
         -5    1    3    3    0  501  0.53848990061E+02  0.44759368555E+02  0.52366183891E+03  0.52832267255E+03  0.10000000000E+00 0. -1.
         21    1    1    2  504  502 -0.42935007084E+02 -0.10034385000E+02  0.11687673248E+03  0.12491706974E+03  0.00000000000E+00 0. -1.
<mgrwt>
<rscale>  1 0.13251353E+03</rscale>
<asrwt>0</asrwt>
<pdfrwt beam="1">  1       21 0.10951731E+00 0.13251353E+03</pdfrwt>
<pdfrwt beam="2">  1       21 0.17613261E-02 0.13251353E+03</pdfrwt>
<totfact> 0.10050633E+06</totfact>
</mgrwt>
</event>
<event>
 6    1  0.4244577E-002  0.1266792E+03  0.7546771E-02  0.1232468E+00
         21   -1    0    0  504  502  0.00000000000E+00  0.00000000000E+00  0.99599504936E+01  0.99599504936E+01  0.00000000000E+00 0. -1.
         21   -1    0    0  502  503 -0.00000000000E+00 -0.00000000000E+00 -0.18437915216E+04  0.18437915216E+04  0.00000000000E+00 0. -1.
         25    2    1    2    0    0  0.19193039805E+02 -0.73670953410E+01 -0.39591122114E+03  0.41568416500E+03  0.12499993256E+03 0.  0.
          5    1    3    3  501    0 -0.31756802370E+02  0.42507186672E+02 -0.13078229525E+03  0.14113601301E+03  0.10000000000E+00 0.  1.
         -5    1    3    3    0  501  0.50949842176E+02 -0.49874282013E+02 -0.26512892589E+03  0.27454815200E+03  0.10000000000E+00 0.  1.
         21    1    1    2  504  503 -0.19193039805E+02  0.73670953410E+01 -0.14379203499E+04  0.14380673071E+04  0.00000000000E+00 0. -1.
<mgrwt>
<rscale>  1 0.12667924E+03</rscale>
<asrwt>0</asrwt>
<pdfrwt beam="1">  1       21 0.15323020E-02 0.12667924E+03</pdfrwt>
<pdfrwt beam="2">  1       21 0.28365988E+00 0.12667924E+03</pdfrwt>
<totfact> 0.85299077E+04</totfact>
</mgrwt>
</event>
<event>
 6    1  0.4244577E-002  0.1324698E+03  0.7546771E-02  0.1223836E+00
         21   -1    0    0  504  502  0.00000000000E+00  0.00000000000E+00  0.12609614152E+03  0.12609614152E+03  0.00000000000E+00 0. -1.
         21   -1    0    0  502  503 -0.00000000000E+00 -0.00000000000E+00 -0.66308571674E+02  0.66308571674E+02  0.00000000000E+00 0. -1.
         25    2    1    2    0    0 -0.35719090163E+02  0.25451799072E+02  0.66181213069E+02  0.14808173775E+03  0.12499840245E+03 0.  0.
          5    1    3    3  501    0 -0.68583096895E+02 -0.22090893789E+02  0.22011747068E+02  0.75340399369E+02  0.10000000000E+00 0. -1.
         -5    1    3    3    0  501  0.32864006732E+02  0.47542692861E+02  0.44169466001E+02  0.72741338383E+02  0.10000000000E+00 0. -1.
         21    1    1    2  504  503  0.35719090163E+02 -0.25451799072E+02 -0.63936432267E+01  0.44322975439E+02  0.00000000000E+00 0. -1.
<mgrwt>
<rscale>  1 0.13246980E+03</rscale>
<asrwt>0</asrwt>
<pdfrwt beam="1">  1       21 0.19399406E-01 0.13246980E+03</pdfrwt>
<pdfrwt beam="2">  1       21 0.10201319E-01 0.13246980E+03</pdfrwt>
<totfact> 0.19049674E+06</totfact>
</mgrwt>
</event>
<event>
 6    1  0.4244577E-002  0.1477234E+03  0.7546771E-02  0.1203299E+00
         21   -1    0    0  504  502  0.00000000000E+00  0.00000000000E+00  0.23406643226E+03  0.23406643226E+03  0.00000000000E+00 0.  1.
         21   -1    0    0  502  503 -0.00000000000E+00 -0.00000000000E+00 -0.57788153016E+02  0.57788153016E+02  0.00000000000E+00 0.  1.
         25    2    1    2    0    0  0.75041375487E+02  0.23786056585E+02  0.14545393287E+03  0.20731391547E+03  0.12500091374E+03 0.  0.
          5    1    3    3  501    0 -0.72739489132E+01 -0.61031519481E+01 -0.18862356449E+02  0.21117700806E+02  0.10000000000E+00 0. -1.
         -5    1    3    3    0  501  0.82315324400E+02  0.29889208533E+02  0.16431628932E+03  0.18619621466E+03  0.10000000000E+00 0. -1.
         21    1    1    2  504  503 -0.75041375487E+02 -0.23786056585E+02  0.30824346374E+02  0.84540669812E+02  0.00000000000E+00 0.  1.
<mgrwt>
<rscale>  1 0.14772343E+03</rscale>
<asrwt>0</asrwt>
<pdfrwt beam="1">  1       21 0.36010220E-01 0.14772343E+03</pdfrwt>
<pdfrwt beam="2">  1       21 0.88904852E-02 0.14772343E+03</pdfrwt>
<totfact> 0.74518816E+05</totfact>
</mgrwt>
</event>
<event>
 6    1  0.4244577E-002  0.1260964E+03  0.7546771E-02  0.1233366E+00
         21   -1    0    0  504  502  0.00000000000E+00  0.00000000000E+00  0.67145235509E+02  0.67145235509E+02  0.00000000000E+00 0. -1.
         21   -1    0    0  502  503 -0.00000000000E+00 -0.00000000000E+00 -0.12431971132E+03  0.12431971132E+03  0.00000000000E+00 0. -1.
         25    2    1    2    0    0  0.12593743715E+01  0.16716116889E+02  0.58668704387E+01  0.12623285408E+03  0.12497719269E+03 0.  0.
          5    1    3    3  501    0 -0.55385768693E+01  0.54953375683E+02  0.44892809308E+02  0.71175302319E+02  0.10000000000E+00 0.  1.
         -5    1    3    3    0  501  0.67979512408E+01 -0.38237258794E+02 -0.39025938870E+02  0.55057551760E+02  0.10000000000E+00 0.  1.
         21    1    1    2  504  503 -0.12593743715E+01 -0.16716116889E+02 -0.63041346246E+02  0.65232092748E+02  0.00000000000E+00 0. -1.
<mgrwt>
<rscale>  1 0.12609644E+03</rscale>
<asrwt>0</asrwt>
<pdfrwt beam="1">  1       21 0.10330036E-01 0.12609644E+03</pdfrwt>
<pdfrwt beam="2">  1       21 0.19126110E-01 0.12609644E+03</pdfrwt>
<totfact> 0.19103511E+06</totfact>
</mgrwt>
</event>
<event>
 6    1  0.4244577E-002  0.1278475E+03  0.7546771E-02  0.1230685E+00
         21   -1    0    0  503  502  0.00000000000E+00  0.00000000000E+00  0.17326122967E+02  0.17326122967E+02  0.00000000000E+00 0. -1.
         21   -1    0    0  504  503 -0.00000000000E+00 -0.00000000000E+00 -0.10559863845E+04  0.10559863845E+04  0.00000000000E+00 0.  1.
         25    2    1    2    0    0 -0.93053697781E+01 -0.25153858061E+02 -0.22177118676E+03  0.25598327946E+03  0.12500269437E+03 0.  0.
          5    1    3    3  501    0 -0.18830564537E+02  0.31089787831E+02 -0.11518379531E+02  0.38129360539E+02  0.10000000000E+00 0.  1.
         -5    1    3    3    0  501  0.95251947588E+01 -0.56243645891E+02 -0.21025280723E+03  0.21785391892E+03  0.10000000000E+00 0.  1.
         21    1    1    2  504  502  0.93053697781E+01  0.25153858061E+02 -0.81688907475E+03  0.81732922799E+03  0.00000000000E+00 0.  1.
<mgrwt>
<rscale>  1 0.12784749E+03</rscale>
<asrwt>0</asrwt>
<pdfrwt beam="1">  1       21 0.26655568E-02 0.12784749E+03</pdfrwt>
<pdfrwt beam="2">  1       21 0.16245948E+00 0.12784749E+03</pdfrwt>
<totfact> 0.19104909E+05</totfact>
</mgrwt>
</event>
<event>
 6    1  0.4244577E-002  0.1261741E+03  0.7546771E-02  0.1233246E+00
         21   -1    0    0  503  502  0.00000000000E+00  0.00000000000E+00  0.61033915537E+02  0.61033915537E+02  0.00000000000E+00 0.  1.
         21   -1    0    0  504  503 -0.00000000000E+00 -0.00000000000E+00 -0.11365520632E+03  0.11365520632E+03  0.00000000000E+00 0.  1.
         25    2    1    2    0    0 -0.13816682671E+02  0.10333467839E+02 -0.75173323673E+01  0.12639783545E+03  0.12498888448E+03 0.  0.
          5    1    3    3  501    0  0.42654549332E+02  0.28422436984E+02  0.26847193485E+02  0.57862140479E+02  0.10000000000E+00 0.  1.
         -5    1    3    3    0  501 -0.56471232003E+02 -0.18088969145E+02 -0.34364525852E+02  0.68535694975E+02  0.10000000000E+00 0.  1.
         21    1    1    2  504  502  0.13816682671E+02 -0.10333467839E+02 -0.45103958412E+02  0.48291286399E+02  0.00000000000E+00 0.  1.
<mgrwt>
<rscale>  1 0.12617410E+03</rscale>
<asrwt>0</asrwt>
<pdfrwt beam="1">  1       21 0.93898332E-02 0.12617410E+03</pdfrwt>
<pdfrwt beam="2">  1       21 0.17485416E-01 0.12617410E+03</pdfrwt>
<totfact> 0.26599346E+06</totfact>
</mgrwt>
</event>
<event>
 6    1  0.4244577E-002  0.1289839E+03  0.7546771E-02  0.1228971E+00
         21   -1    0    0  504  502  0.00000000000E+00  0.00000000000E+00  0.10730045911E+03  0.10730045911E+03  0.00000000000E+00 0. -1.
         21   -1    0    0  502  503 -0.00000000000E+00 -0.00000000000E+00 -0.63314455667E+02  0.63314455667E+02  0.00000000000E+00 0. -1.
         25    2    1    2    0    0  0.23418652628E+02  0.21526476226E+02  0.49827727909E+02  0.13827379213E+03  0.12500006661E+03 0.  0.
          5    1    3    3  501    0 -0.39991549167E+02 -0.10467192938E+02 -0.13118328660E+02  0.43370343319E+02  0.10000000000E+00 0.  1.
         -5    1    3    3    0  501  0.63410201795E+02  0.31993669164E+02  0.62946056570E+02  0.94903448810E+02  0.10000000000E+00 0.  1.
         21    1    1    2  504  503 -0.23418652628E+02 -0.21526476226E+02 -0.58417244631E+01  0.32341122651E+02  0.00000000000E+00 0. -1.
<mgrwt>
<rscale>  1 0.12898387E+03</rscale>
<asrwt>0</asrwt>
<pdfrwt beam="1">  1       21 0.16507763E-01 0.12898387E+03</pdfrwt>
<pdfrwt beam="2">  1       21 0.97406855E-02 0.12898387E+03</pdfrwt>
<totfact> 0.27729225E+06</totfact>
</mgrwt>
</event>
<event>
 6    1  0.4244577E-002  0.1261575E+03  0.7546771E-02  0.1233271E+00
         21   -1    0    0  503  502  0.00000000000E+00  0.00000000000E+00  0.12794059312E+03  0.12794059312E+03  0.00000000000E+00 0. -1.
         21   -1    0    0  504  503 -0.00000000000E+00 -0.00000000000E+00 -0.44938209551E+02  0.44938209551E+02  0.00000000000E+00 0. -1.
         25    2    1    2    0    0  0.63644982506E+01 -0.15873622153E+02  0.89396768031E+02  0.15462046565E+03  0.12499290997E+03 0.  0.
          5    1    3    3  501    0  0.30800376498E+02 -0.30792212404E+02 -0.15236516489E+02  0.46140925131E+02  0.10000000000E+00 0. -1.
         -5    1    3    3    0  501 -0.24435878247E+02  0.14918590251E+02  0.10463328452E+03  0.10847954051E+03  0.10000000000E+00 0. -1.
         21    1    1    2  504  502 -0.63644982506E+01  0.15873622153E+02 -0.63943844632E+01  0.18258337025E+02  0.00000000000E+00 0. -1.
<mgrwt>
<rscale>  1 0.12615747E+03</rscale>
<asrwt>0</asrwt>
<pdfrwt beam="1">  1       21 0.19683168E-01 0.12615747E+03</pdfrwt>
<pdfrwt beam="2">  1       21 0.69135707E-02 0.12615747E+03</pdfrwt>
<totfact> 0.36288317E+06</totfact>
</mgrwt>
</event>
<event>
 6    1  0.4244577E-002  0.1285644E+03  0.7546771E-02  0.1229602E+00
         21   -1    0    0  503  502  0.00000000000E+00  0.00000000000E+00  0.37853605207E+03  0.37853605207E+03  0.00000000000E+00 0.  1.
         21   -1    0    0  504  503 -0.00000000000E+00 -0.00000000000E+00 -0.37860274883E+02  0.37860274883E+02  0.00000000000E+00 0.  1.
         25    2    1    2    0    0  0.94782539669E+01 -0.28536927949E+02  0.35890192069E+03  0.38123404799E+03  0.12499846847E+03 0.  0.
          5    1    3    3  501    0 -0.77288078414E+01 -0.71750129143E+02  0.14067545054E+03  0.15810568581E+03  0.10000000000E+00 0.  1.
         -5    1    3    3    0  501  0.17207061808E+02  0.43213201194E+02  0.21822647015E+03  0.22312836218E+03  0.10000000000E+00 0.  1.
         21    1    1    2  504  502 -0.94782539669E+01  0.28536927949E+02 -0.18226143499E+02  0.35162278963E+02  0.00000000000E+00 0.  1.
<mgrwt>
<rscale>  1 0.12856442E+03</rscale>
<asrwt>0</asrwt>
<pdfrwt beam="1">  1       21 0.58236313E-01 0.12856442E+03</pdfrwt>
<pdfrwt beam="2">  1       21 0.58246579E-02 0.12856442E+03</pdfrwt>
<totfact> 0.57747790E+05</totfact>
</mgrwt>
</event>
<event>
 6    1  0.4244577E-002  0.1277980E+03  0.7546771E-02  0.1230760E+00
         21   -1    0    0  504  502  0.00000000000E+00  0.00000000000E+00  0.74277422209E+02  0.74277422209E+02  0.00000000000E+00 0.  1.
         21   -1    0    0  502  503 -0.00000000000E+00 -0.00000000000E+00 -0.15806515788E+03  0.15806515788E+03  0.00000000000E+00 0.  1.
         25    2    1    2    0    0  0.22388461479E+02 -0.14402454503E+02  0.16246726592E+02  0.12882655455E+03  0.12499460440E+03 0.  0.
          5    1    3    3  501    0 -0.42517541952E+02  0.27267027311E+02  0.95597554019E+01  0.51406527556E+02  0.10000000000E+00 0.  1.
         -5    1    3    3    0  501  0.64906003431E+02 -0.41669481813E+02  0.66869711900E+01  0.77420026994E+02  0.10000000000E+00 0.  1.
         21    1    1    2  504  503 -0.22388461479E+02  0.14402454503E+02 -0.10003446226E+03  0.10351602554E+03  0.00000000000E+00 0.  1.
<mgrwt>
<rscale>  1 0.12779799E+03</rscale>
<asrwt>0</asrwt>
<pdfrwt beam="1">  1       21 0.11427296E-01 0.12779799E+03</pdfrwt>
<pdfrwt beam="2">  1       21 0.24317716E-01 0.12779799E+03</pdfrwt>
<totfact> 0.10232203E+06</totfact>
</mgrwt>
</event>
<event>
 6    1  0.4244577E-002  0.1280644E+03  0.7546771E-02  0.1230356E+00
         21   -1    0    0  503  502  0.00000000000E+00  0.00000000000E+00  0.27609453517E+03  0.27609453517E+03  0.00000000000E+00 0.  1.
         21   -1    0    0  504  503 -0.00000000000E+00 -0.00000000000E+00 -0.22054812450E+02  0.22054812450E+02  0.00000000000E+00 0.  1.
         25    2    1    2    0    0  0.13885803316E+02 -0.24116678460E+02  0.21390090211E+03  0.24930720769E+03  0.12500423259E+03 0.  0.
          5    1    3    3  501    0 -0.42823115217E+01  0.33246767159E+02  0.17378593103E+03  0.17698939387E+03  0.10000000000E+00 0.  1.
         -5    1    3    3    0  501  0.18168114838E+02 -0.57363445619E+02  0.40114971081E+02  0.72317813815E+02  0.10000000000E+00 0.  1.
         21    1    1    2  504  502 -0.13885803316E+02  0.24116678460E+02  0.40138820613E+02  0.48842139939E+02  0.00000000000E+00 0.  1.
<mgrwt>
<rscale>  1 0.12806439E+03</rscale>
<asrwt>0</asrwt>
<pdfrwt beam="1">  1       21 0.42476080E-01 0.12806439E+03</pdfrwt>
<pdfrwt beam="2">  1       21 0.33930483E-02 0.12806439E+03</pdfrwt>
<totfact> 0.27289201E+06</totfact>
</mgrwt>
</event>
<event>
 6    1  0.4244577E-002  0.1457346E+03  0.7546771E-02  0.1205814E+00
         21   -1    0    0  504  502  0.00000000000E+00  0.00000000000E+00  0.10240773717E+03  0.10240773717E+03  0.00000000000E+00 0. -1.
         21   -1    0    0  502  503 -0.00000000000E+00 -0.00000000000E+00 -0.43003725649E+03  0.43003725649E+03  0.00000000000E+00 0. -1.
         25    2    1    2    0    0  0.63331753177E+02 -0.40024366048E+02  0.44870292196E+02  0.15248582424E+03  0.12500289051E+03 0.  0.
          5    1    3    3  501    0  0.92668375753E+02 -0.24640974812E+02  0.62991099776E+02  0.11472791358E+03  0.10000000000E+00 0. -1.
         -5    1    3    3    0  501 -0.29336622576E+02 -0.15383391236E+02 -0.18120807580E+02  0.37757910660E+02  0.10000000000E+00 0. -1.
         21    1    1    2  504  503 -0.63331753177E+02  0.40024366048E+02 -0.37249981152E+03  0.37995916942E+03  0.00000000000E+00 0. -1.
<mgrwt>
<rscale>  1 0.14573463E+03</rscale>
<asrwt>0</asrwt>
<pdfrwt beam="1">  1       21 0.15755036E-01 0.14573463E+03</pdfrwt>
<pdfrwt beam="2">  1       21 0.66159580E-01 0.14573463E+03</pdfrwt>
<totfact> 0.76756893E+04</totfact>
</mgrwt>
</event>
<event>
 6    1  0.4244577E-002  0.1261853E+03  0.7546771E-02  0.1233228E+00
         21   -1    0    0  503  502  0.00000000000E+00  0.00000000000E+00  0.23586487032E+02  0.23586487032E+02  0.00000000000E+00 0. -1.
         21   -1    0    0  504  503 -0.00000000000E+00 -0.00000000000E+00 -0.29091176677E+03  0.29091176677E+03  0.00000000000E+00 0. -1.
         25    2    1    2    0    0  0.14726629577E+02 -0.90164947011E+01 -0.15048340706E+03  0.19638731440E+03  0.12499820263E+03 0.  0.
          5    1    3    3  501    0 -0.22563354358E+02  0.31376044658E+02 -0.27353640784E+01  0.38743429829E+02  0.10000000000E+00 0.  1.
         -5    1    3    3    0  501  0.37289983935E+02 -0.40392539359E+02 -0.14774804298E+03  0.15764388457E+03  0.10000000000E+00 0.  1.
         21    1    1    2  504  502 -0.14726629577E+02  0.90164947011E+01 -0.11684187268E+03  0.11811093941E+03  0.00000000000E+00 0. -1.
<mgrwt>
<rscale>  1 0.12618527E+03</rscale>
<asrwt>0</asrwt>
<pdfrwt beam="1">  1       21 0.36286905E-02 0.12618527E+03</pdfrwt>
<pdfrwt beam="2">  1       21 0.44755655E-01 0.12618527E+03</pdfrwt>
<totfact> 0.21966077E+06</totfact>
</mgrwt>
</event>
<event>
 6    1  0.4244577E-002  0.1311970E+03  0.7546771E-02  0.1225690E+00
         21   -1    0    0  503  502  0.00000000000E+00  0.00000000000E+00  0.16735051669E+03  0.16735051669E+03  0.00000000000E+00 0. -1.
         21   -1    0    0  504  503 -0.00000000000E+00 -0.00000000000E+00 -0.47201899234E+03  0.47201899234E+03  0.00000000000E+00 0.  1.
         25    2    1    2    0    0 -0.36809050055E+02 -0.15249947266E+02  0.14061015093E+03  0.19231188149E+03  0.12500071264E+03 0.  0.
          5    1    3    3  501    0 -0.41122542940E+02 -0.67337294636E+02  0.86592390901E+02  0.11714788495E+03  0.10000000000E+00 0. -1.
         -5    1    3    3    0  501  0.43134928846E+01  0.52087347370E+02  0.54017760031E+02  0.75163996538E+02  0.10000000000E+00 0. -1.
         21    1    1    2  504  502  0.36809050055E+02  0.15249947266E+02 -0.44527862657E+03  0.44705762754E+03  0.00000000000E+00 0.  1.
<mgrwt>
<rscale>  1 0.13119697E+03</rscale>
<asrwt>0</asrwt>
<pdfrwt beam="1">  1       21 0.25746233E-01 0.13119697E+03</pdfrwt>
<pdfrwt beam="2">  1       21 0.72618307E-01 0.13119697E+03</pdfrwt>
<totfact> 0.25404376E+04</totfact>
</mgrwt>
</event>
<event>
 6    1  0.4244577E-002  0.1353777E+03  0.7546771E-02  0.1219688E+00
         21   -1    0    0  504  502  0.00000000000E+00  0.00000000000E+00  0.82616958338E+02  0.82616958338E+02  0.00000000000E+00 0.  1.
         21   -1    0    0  502  503 -0.00000000000E+00 -0.00000000000E+00 -0.26809425162E+04  0.26809425162E+04  0.00000000000E+00 0.  1.
         25    2    1    2    0    0  0.51713054709E+02 -0.53785780472E+01  0.26728108731E+02  0.13799097960E+03  0.12499579803E+03 0.  0.
          5    1    3    3  501    0  0.14140794907E+02  0.53948566603E+02 -0.13058236767E+02  0.57279468107E+02  0.10000000000E+00 0. -1.
         -5    1    3    3    0  501  0.37572259802E+02 -0.59327144650E+02  0.39786345498E+02  0.80711511491E+02  0.10000000000E+00 0. -1.
         21    1    1    2  504  503 -0.51713054709E+02  0.53785780472E+01 -0.26250536666E+04  0.26255684949E+04  0.00000000000E+00 0.  1.
<mgrwt>
<rscale>  1 0.13537769E+03</rscale>
<asrwt>0</asrwt>
<pdfrwt beam="1">  1       21 0.12710301E-01 0.13537769E+03</pdfrwt>
<pdfrwt beam="2">  1       21 0.41245271E+00 0.13537769E+03</pdfrwt>
<totfact> 0.43142678E+02</totfact>
</mgrwt>
</event>
<event>
 6    1  0.4244577E-002  0.1266079E+03  0.7546771E-02  0.1232578E+00
         21   -1    0    0  504  502  0.00000000000E+00  0.00000000000E+00  0.25675578267E+02  0.25675578267E+02  0.00000000000E+00 0.  1.
         21   -1    0    0  502  503 -0.00000000000E+00 -0.00000000000E+00 -0.21345871380E+03  0.21345871380E+03  0.00000000000E+00 0.  1.
         25    2    1    2    0    0 -0.84570776582E+01  0.18479820582E+02 -0.15049982459E+03  0.19667170611E+03  0.12496614282E+03 0.  0.
          5    1    3    3  501    0  0.98450713767E+01  0.40123032040E+02  0.21918905909E+01  0.41371457732E+02  0.10000000000E+00 0. -1.
         -5    1    3    3    0  501 -0.18302149035E+02 -0.21643211458E+02 -0.15269171518E+03  0.15530024838E+03  0.10000000000E+00 0. -1.
         21    1    1    2  504  503  0.84570776582E+01 -0.18479820582E+02 -0.37283310938E+02  0.42462585952E+02  0.00000000000E+00 0.  1.
<mgrwt>
<rscale>  1 0.12660791E+03</rscale>
<asrwt>0</asrwt>
<pdfrwt beam="1">  1       21 0.39500891E-02 0.12660791E+03</pdfrwt>
<pdfrwt beam="2">  1       21 0.32839801E-01 0.12660791E+03</pdfrwt>
<totfact> 0.35313340E+06</totfact>
</mgrwt>
</event>
<event>
 6    1  0.4244577E-002  0.1279652E+03  0.7546771E-02  0.1230507E+00
         21   -1    0    0  503  502  0.00000000000E+00  0.00000000000E+00  0.15320012389E+03  0.15320012389E+03  0.00000000000E+00 0.  1.
         21   -1    0    0  504  503 -0.00000000000E+00 -0.00000000000E+00 -0.39465977835E+02  0.39465977835E+02  0.00000000000E+00 0.  1.
         25    2    1    2    0    0  0.16091885899E+02  0.22217973179E+02  0.90762588305E+02  0.15688510692E+03  0.12499000845E+03 0.  0.
          5    1    3    3  501    0  0.59211620827E+02 -0.12717818352E+02  0.80027382568E+02  0.10036010614E+03  0.10000000000E+00 0.  1.
         -5    1    3    3    0  501 -0.43119734929E+02  0.34935791531E+02  0.10735205737E+02  0.56525000773E+02  0.10000000000E+00 0.  1.
         21    1    1    2  504  502 -0.16091885899E+02 -0.22217973179E+02  0.22971557753E+02  0.35780994809E+02  0.00000000000E+00 0.  1.
<mgrwt>
<rscale>  1 0.12796519E+03</rscale>
<asrwt>0</asrwt>
<pdfrwt beam="1">  1       21 0.23569250E-01 0.12796519E+03</pdfrwt>
<pdfrwt beam="2">  1       21 0.60716890E-02 0.12796519E+03</pdfrwt>
<totfact> 0.32388248E+06</totfact>
</mgrwt>
</event>
<event>
 6    1  0.4244577E-002  0.1275016E+03  0.7546771E-02  0.1231211E+00
         21   -1    0    0  504  502  0.00000000000E+00  0.00000000000E+00  0.90115807412E+01  0.90115807412E+01  0.00000000000E+00 0. -1.
         21   -1    0    0  502  503 -0.00000000000E+00 -0.00000000000E+00 -0.99239181816E+03  0.99239181816E+03  0.00000000000E+00 0. -1.
         25    2    1    2    0    0 -0.23818583213E+02  0.80173671158E+01 -0.45782796214E+03  0.47525057212E+03  0.12500024120E+03 0.  0.
          5    1    3    3  501    0 -0.13165485500E+02  0.51066858561E+02 -0.39408511755E+03  0.39759809347E+03  0.10000000000E+00 0.  1.
         -5    1    3    3    0  501 -0.10653097713E+02 -0.43049491446E+02 -0.63742844590E+02  0.77652478653E+02  0.10000000000E+00 0.  1.
         21    1    1    2  504  503  0.23818583213E+02 -0.80173671158E+01 -0.52555227528E+03  0.52615282679E+03  0.00000000000E+00 0.  1.
<mgrwt>
<rscale>  1 0.12750162E+03</rscale>
<asrwt>0</asrwt>
<pdfrwt beam="1">  1       21 0.13863979E-02 0.12750162E+03</pdfrwt>
<pdfrwt beam="2">  1       21 0.15267557E+00 0.12750162E+03</pdfrwt>
<totfact> 0.64513653E+05</totfact>
</mgrwt>
</event>
<event>
 6    1  0.4244577E-002  0.1397016E+03  0.7546771E-02  0.1213731E+00
         21   -1    0    0  503  502  0.00000000000E+00  0.00000000000E+00  0.39115235131E+02  0.39115235131E+02  0.00000000000E+00 0. -1.
         21   -1    0    0  504  503 -0.00000000000E+00 -0.00000000000E+00 -0.13175726838E+04  0.13175726838E+04  0.00000000000E+00 0. -1.
         25    2    1    2    0    0 -0.39091464574E+02  0.48856532823E+02 -0.89123535084E+02  0.16570921996E+03  0.12490571513E+03 0.  0.
          5    1    3    3  501    0 -0.53989290095E+02  0.84908524727E+02 -0.61800494720E+02  0.11808307315E+03  0.10000000000E+00 0. -1.
         -5    1    3    3    0  501  0.14897825520E+02 -0.36051991904E+02 -0.27323040364E+02  0.47626146812E+02  0.10000000000E+00 0. -1.
         21    1    1    2  504  502  0.39091464574E+02 -0.48856532823E+02 -0.11893339136E+04  0.11909786990E+04  0.00000000000E+00 0. -1.
<mgrwt>
<rscale>  1 0.13970161E+03</rscale>
<asrwt>0</asrwt>
<pdfrwt beam="1">  1       21 0.60177286E-02 0.13970161E+03</pdfrwt>
<pdfrwt beam="2">  1       21 0.20270349E+00 0.13970161E+03</pdfrwt>
<totfact> 0.26408654E+04</totfact>
</mgrwt>
</event>
<event>
 6    1  0.4244577E-002  0.1272520E+03  0.7546771E-02  0.1231591E+00
         21   -1    0    0  503  502  0.00000000000E+00  0.00000000000E+00  0.20595740506E+02  0.20595740506E+02  0.00000000000E+00 0.  1.
         21   -1    0    0  504  503 -0.00000000000E+00 -0.00000000000E+00 -0.41517873122E+03  0.41517873122E+03  0.00000000000E+00 0.  1.
         25    2    1    2    0    0  0.11515025202E+02 -0.20827259068E+02 -0.18321716415E+03  0.22307307736E+03  0.12500679213E+03 0.  0.
          5    1    3    3  501    0  0.52806180198E+02 -0.70064722705E+01 -0.24760184102E+02  0.58742318966E+02  0.10000000000E+00 0. -1.
         -5    1    3    3    0  501 -0.41291154996E+02 -0.13820786797E+02 -0.15845698005E+03  0.16433075839E+03  0.10000000000E+00 0. -1.
         21    1    1    2  504  502 -0.11515025202E+02  0.20827259068E+02 -0.21136582656E+03  0.21270139436E+03  0.00000000000E+00 0.  1.
<mgrwt>
<rscale>  1 0.12725199E+03</rscale>
<asrwt>0</asrwt>
<pdfrwt beam="1">  1       21 0.31685754E-02 0.12725199E+03</pdfrwt>
<pdfrwt beam="2">  1       21 0.63873652E-01 0.12725199E+03</pdfrwt>
<totfact> 0.13087811E+06</totfact>
</mgrwt>
</event>
<event>
 6    1  0.4244577E-002  0.1260184E+03  0.7546771E-02  0.1233486E+00
         21   -1    0    0  503  502  0.00000000000E+00  0.00000000000E+00  0.11398319224E+03  0.11398319224E+03  0.00000000000E+00 0.  1.
         21   -1    0    0  504  503 -0.00000000000E+00 -0.00000000000E+00 -0.44639169727E+02  0.44639169727E+02  0.00000000000E+00 0.  1.
         25    2    1    2    0    0 -0.13882190341E+01 -0.15766733895E+02  0.55919195527E+02  0.13786801232E+03  0.12502045969E+03 0.  0.
          5    1    3    3  501    0  0.73315666910E+01  0.49588716666E+02  0.51372161665E+02  0.71776748915E+02  0.10000000000E+00 0.  1.
         -5    1    3    3    0  501 -0.87197857251E+01 -0.65355450561E+02  0.45470338620E+01  0.66091263402E+02  0.10000000000E+00 0.  1.
         21    1    1    2  504  502  0.13882190341E+01  0.15766733895E+02  0.13424826988E+02  0.20754349652E+02  0.00000000000E+00 0.  1.
<mgrwt>
<rscale>  1 0.12601838E+03</rscale>
<asrwt>0</asrwt>
<pdfrwt beam="1">  1       21 0.17535876E-01 0.12601838E+03</pdfrwt>
<pdfrwt beam="2">  1       21 0.68675646E-02 0.12601838E+03</pdfrwt>
<totfact> 0.45368135E+06</totfact>
</mgrwt>
</event>
<event>
 6    1  0.4244577E-002  0.1507098E+03  0.7546771E-02  0.1199604E+00
         21   -1    0    0  503  502  0.00000000000E+00  0.00000000000E+00  0.38323099402E+03  0.38323099402E+03  0.00000000000E+00 0. -1.
         21   -1    0    0  504  503 -0.00000000000E+00 -0.00000000000E+00 -0.17871374311E+03  0.17871374311E+03  0.00000000000E+00 0.  1.
         25    2    1    2    0    0  0.82358776846E+02  0.17404201489E+02  0.35714577905E+03  0.38764229322E+03  0.12501026214E+03 0.  0.
          5    1    3    3  501    0  0.68703484853E+02  0.24568472164E+02  0.73461784485E+02  0.10353947284E+03  0.10000000000E+00 0. -1.
         -5    1    3    3    0  501  0.13655291993E+02 -0.71642706757E+01  0.28368399457E+03  0.28410282038E+03  0.10000000000E+00 0. -1.
         21    1    1    2  504  502 -0.82358776846E+02 -0.17404201489E+02 -0.15262852814E+03  0.17430244391E+03  0.00000000000E+00 0.  1.
<mgrwt>
<rscale>  1 0.15070979E+03</rscale>
<asrwt>0</asrwt>
<pdfrwt beam="1">  1       21 0.58958614E-01 0.15070979E+03</pdfrwt>
<pdfrwt beam="2">  1       21 0.27494422E-01 0.15070979E+03</pdfrwt>
<totfact> 0.34739268E+04</totfact>
</mgrwt>
</event>
<event>
 6    1  0.4244577E-002  0.1283049E+03  0.7546771E-02  0.1229993E+00
         21   -1    0    0  504  502  0.00000000000E+00  0.00000000000E+00  0.12071490541E+03  0.12071490541E+03  0.00000000000E+00 0. -1.
         21   -1    0    0  502  503 -0.00000000000E+00 -0.00000000000E+00 -0.25453022460E+03  0.25453022460E+03  0.00000000000E+00 0. -1.
         25    2    1    2    0    0  0.28533095027E+02  0.47688407508E+01  0.85401058135E+02  0.15412819388E+03  0.12500112025E+03 0.  0.
          5    1    3    3  501    0  0.72078575292E+02 -0.17264111860E+02  0.72429978064E+02  0.10363147349E+03  0.10000000000E+00 0.  1.
         -5    1    3    3    0  501 -0.43545480265E+02  0.22032952611E+02  0.12971080071E+02  0.50496720393E+02  0.10000000000E+00 0.  1.
         21    1    1    2  504  503 -0.28533095027E+02 -0.47688407508E+01 -0.21921637732E+03  0.22111693612E+03  0.00000000000E+00 0. -1.
<mgrwt>
<rscale>  1 0.12830495E+03</rscale>
<asrwt>0</asrwt>
<pdfrwt beam="1">  1       21 0.18571524E-01 0.12830495E+03</pdfrwt>
<pdfrwt beam="2">  1       21 0.39158495E-01 0.12830495E+03</pdfrwt>
<totfact> 0.16985596E+05</totfact>
</mgrwt>
</event>
<event>
 6    1  0.4244577E-002  0.1445080E+03  0.7546771E-02  0.1207389E+00
         21   -1    0    0  503  502  0.00000000000E+00  0.00000000000E+00  0.30544826897E+02  0.30544826897E+02  0.00000000000E+00 0.  1.
         21   -1    0    0  504  503 -0.00000000000E+00 -0.00000000000E+00 -0.44595763850E+03  0.44595763850E+03  0.00000000000E+00 0.  1.
         25    2    1    2    0    0 -0.65888219307E+02 -0.30263427427E+02 -0.18379738014E+03  0.23380339129E+03  0.12500166538E+03 0.  0.
          5    1    3    3  501    0 -0.16455891777E+00 -0.61965435016E+02 -0.43646592120E+02  0.75794308626E+02  0.10000000000E+00 0.  1.
         -5    1    3    3    0  501 -0.65723660389E+02  0.31702007589E+02 -0.14015078802E+03  0.15800908266E+03  0.10000000000E+00 0.  1.
         21    1    1    2  504  502  0.65888219307E+02  0.30263427427E+02 -0.23161543146E+03  0.24269907411E+03  0.00000000000E+00 0.  1.
<mgrwt>
<rscale>  1 0.14450795E+03</rscale>
<asrwt>0</asrwt>
<pdfrwt beam="1">  1       21 0.46992044E-02 0.14450795E+03</pdfrwt>
<pdfrwt beam="2">  1       21 0.68608864E-01 0.14450795E+03</pdfrwt>
<totfact> 0.58263475E+05</totfact>
</mgrwt>
</event>
<event>
 6    1  0.4244577E-002  0.1355513E+03  0.7546771E-02  0.1219444E+00
         21   -1    0    0  503  502  0.00000000000E+00  0.00000000000E+00  0.12341645034E+03  0.12341645034E+03  0.00000000000E+00 0.  1.
         21   -1    0    0  504  503 -0.00000000000E+00 -0.00000000000E+00 -0.72847594562E+02  0.72847594562E+02  0.00000000000E+00 0.  1.
         25    2    1    2    0    0 -0.17407394229E+02 -0.49459965808E+02  0.47888214526E+02  0.14376174562E+03  0.12499941129E+03 0.  0.
          5    1    3    3  501    0 -0.64648559883E+02 -0.58302053880E+02  0.25301192790E+02  0.90657190218E+02  0.10000000000E+00 0. -1.
         -5    1    3    3    0  501  0.47241165654E+02  0.88420880718E+01  0.22587021736E+02  0.53104555405E+02  0.10000000000E+00 0. -1.
         21    1    1    2  504  502  0.17407394229E+02  0.49459965808E+02  0.26806412476E+01  0.52502299275E+02  0.00000000000E+00 0.  1.
<mgrwt>
<rscale>  1 0.13555131E+03</rscale>
<asrwt>0</asrwt>
<pdfrwt beam="1">  1       21 0.18987146E-01 0.13555131E+03</pdfrwt>
<pdfrwt beam="2">  1       21 0.11207322E-01 0.13555131E+03</pdfrwt>
<totfact> 0.16805245E+06</totfact>
</mgrwt>
</event>
<event>
 6    1  0.4244577E-002  0.1273534E+03  0.7546771E-02  0.1231437E+00
         21   -1    0    0  504  502  0.00000000000E+00  0.00000000000E+00  0.54153157993E+02  0.54153157993E+02  0.00000000000E+00 0. -1.
         21   -1    0    0  502  503 -0.00000000000E+00 -0.00000000000E+00 -0.11808501912E+03  0.11808501912E+03  0.00000000000E+00 0. -1.
         25    2    1    2    0    0  0.24334878540E+02  0.19365975481E+01 -0.30696209954E+02  0.13100050947E+03  0.12499175754E+03 0.  0.
          5    1    3    3  501    0 -0.14841955307E+02 -0.32159928650E+01  0.43972380750E+02  0.46521033053E+02  0.10000000000E+00 0. -1.
         -5    1    3    3    0  501  0.39176833847E+02  0.51525904130E+01 -0.74668590704E+02  0.84479476419E+02  0.10000000000E+00 0. -1.
         21    1    1    2  504  503 -0.24334878540E+02 -0.19365975481E+01 -0.33235651170E+02  0.41237667639E+02  0.00000000000E+00 0. -1.
<mgrwt>
<rscale>  1 0.12735335E+03</rscale>
<asrwt>0</asrwt>
<pdfrwt beam="1">  1       21 0.83312552E-02 0.12735335E+03</pdfrwt>
<pdfrwt beam="2">  1       21 0.18166926E-01 0.12735335E+03</pdfrwt>
<totfact> 0.30532606E+06</totfact>
</mgrwt>
</event>
<event>
 6    1  0.4244577E-002  0.1450532E+03  0.7546771E-02  0.1206687E+00
         21   -1    0    0  504  502  0.00000000000E+00  0.00000000000E+00  0.21130613723E+03  0.21130613723E+03  0.00000000000E+00 0. -1.
         21   -1    0    0  502  503 -0.00000000000E+00 -0.00000000000E+00 -0.80505306253E+02  0.80505306253E+02  0.00000000000E+00 0. -1.
         25    2    1    2    0    0 -0.32075165811E+02  0.66202739107E+02  0.15697268076E+03  0.21373081434E+03  0.12501527733E+03 0.  0.
          5    1    3    3  501    0 -0.68305995115E+02  0.38984799491E+02  0.14790718630E+03  0.16751737020E+03  0.10000000000E+00 0.  1.
         -5    1    3    3    0  501  0.36230829304E+02  0.27217939616E+02  0.90654944555E+01  0.46213444134E+02  0.10000000000E+00 0.  1.
         21    1    1    2  504  503  0.32075165811E+02 -0.66202739107E+02 -0.26171849780E+02  0.78080629147E+02  0.00000000000E+00 0. -1.
<mgrwt>
<rscale>  1 0.14505323E+03</rscale>
<asrwt>0</asrwt>
<pdfrwt beam="1">  1       21 0.32508636E-01 0.14505323E+03</pdfrwt>
<pdfrwt beam="2">  1       21 0.12385432E-01 0.14505323E+03</pdfrwt>
<totfact> 0.50829024E+05</totfact>
</mgrwt>
</event>
<event>
 6    1  0.4244577E-002  0.1330553E+03  0.7546771E-02  0.1222991E+00
         21   -1    0    0  503  502  0.00000000000E+00  0.00000000000E+00  0.11631487032E+03  0.11631487032E+03  0.00000000000E+00 0. -1.
         21   -1    0    0  504  503 -0.00000000000E+00 -0.00000000000E+00 -0.10581755152E+03  0.10581755152E+03  0.00000000000E+00 0. -1.
         25    2    1    2    0    0 -0.24539066326E+02  0.38404746553E+02  0.67461484202E+02  0.14918033843E+03  0.12500652458E+03 0.  0.
          5    1    3    3  501    0  0.24060366089E+02 -0.28838749166E+02  0.53005617483E+02  0.64962913686E+02  0.10000000000E+00 0. -1.
         -5    1    3    3    0  501 -0.48599432415E+02  0.67243495719E+02  0.14455866718E+02  0.84217424742E+02  0.10000000000E+00 0. -1.
         21    1    1    2  504  502  0.24539066326E+02 -0.38404746553E+02 -0.56964165405E+02  0.72952083413E+02  0.00000000000E+00 0. -1.
<mgrwt>
<rscale>  1 0.13305533E+03</rscale>
<asrwt>0</asrwt>
<pdfrwt beam="1">  1       21 0.17894595E-01 0.13305533E+03</pdfrwt>
<pdfrwt beam="2">  1       21 0.16279623E-01 0.13305533E+03</pdfrwt>
<totfact> 0.96025130E+05</totfact>
</mgrwt>
</event>
<event>
 6    1  0.4244577E-002  0.1268204E+03  0.7546771E-02  0.1232251E+00
         21   -1    0    0  503  502  0.00000000000E+00  0.00000000000E+00  0.30183761074E+03  0.30183761074E+03  0.00000000000E+00 0. -1.
         21   -1    0    0  504  503 -0.00000000000E+00 -0.00000000000E+00 -0.22065108463E+02  0.22065108463E+02  0.00000000000E+00 0. -1.
         25    2    1    2    0    0 -0.17975347634E+02 -0.11588823267E+02  0.27372547090E+03  0.30167704631E+03  0.12500397154E+03 0.  0.
          5    1    3    3  501    0 -0.55923572941E+02  0.50408508977E+01  0.53394780769E+02  0.77484635907E+02  0.10000000000E+00 0.  1.
         -5    1    3    3    0  501  0.37948225308E+02 -0.16629674164E+02  0.22033069013E+03  0.22419241040E+03  0.10000000000E+00 0.  1.
         21    1    1    2  504  502  0.17975347634E+02  0.11588823267E+02  0.60470313768E+01  0.22225672897E+02  0.00000000000E+00 0. -1.
<mgrwt>
<rscale>  1 0.12682037E+03</rscale>
<asrwt>0</asrwt>
<pdfrwt beam="1">  1       21 0.46436552E-01 0.12682037E+03</pdfrwt>
<pdfrwt beam="2">  1       21 0.33946323E-02 0.12682037E+03</pdfrwt>
<totfact> 0.22752473E+06</totfact>
</mgrwt>
</event>
<event>
 6    1  0.4244577E-002  0.1264596E+03  0.7546771E-02  0.1232806E+00
         21   -1    0    0  503  502  0.00000000000E+00  0.00000000000E+00  0.11668418313E+03  0.11668418313E+03  0.00000000000E+00 0. -1.
         21   -1    0    0  504  503 -0.00000000000E+00 -0.00000000000E+00 -0.99092401763E+02  0.99092401763E+02  0.00000000000E+00 0. -1.
         25    2    1    2    0    0  0.16166037306E+02  0.10278437917E+02  0.80572703186E+02  0.14994662544E+03  0.12500017173E+03 0.  0.
          5    1    3    3  501    0 -0.53299081549E+02 -0.96922915651E+01  0.33715499002E+02  0.63808130224E+02  0.10000000000E+00 0.  1.
         -5    1    3    3    0  501  0.69465118855E+02  0.19970729482E+02  0.46857204184E+02  0.86138495212E+02  0.10000000000E+00 0.  1.
         21    1    1    2  504  502 -0.16166037306E+02 -0.10278437917E+02 -0.62980921822E+02  0.65829959454E+02  0.00000000000E+00 0. -1.
<mgrwt>
<rscale>  1 0.12645960E+03</rscale>
<asrwt>0</asrwt>
<pdfrwt beam="1">  1       21 0.17951413E-01 0.12645960E+03</pdfrwt>
<pdfrwt beam="2">  1       21 0.15244985E-01 0.12645960E+03</pdfrwt>
<totfact> 0.10746163E+06</totfact>
</mgrwt>
</event>
<event>
 6    1  0.4244577E-002  0.1614428E+03  0.7546771E-02  0.1187077E+00
         21   -1    0    0  504  502  0.00000000000E+00  0.00000000000E+00  0.64682459131E+02  0.64682459131E+02  0.00000000000E+00 0.  1.
         21   -1    0    0  502  503 -0.00000000000E+00 -0.00000000000E+00 -0.27522390136E+03  0.27522390136E+03  0.00000000000E+00 0.  1.
         25    2    1    2    0    0 -0.92756521516E+02  0.42819345905E+02 -0.15413034303E+03  0.22320382933E+03  0.12500607232E+03 0.  0.
          5    1    3    3  501    0 -0.75858861506E+02  0.42321732692E+02 -0.21482367145E+02  0.89482948237E+02  0.10000000000E+00 0. -1.
         -5    1    3    3    0  501 -0.16897660010E+02  0.49761321276E+00 -0.13264797589E+03  0.13372088109E+03  0.10000000000E+00 0. -1.
         21    1    1    2  504  503  0.92756521516E+02 -0.42819345905E+02 -0.56411099198E+02  0.11670253116E+03  0.00000000000E+00 0.  1.
<mgrwt>
<rscale>  1 0.16144283E+03</rscale>
<asrwt>0</asrwt>
<pdfrwt beam="1">  1       21 0.99511475E-02 0.16144283E+03</pdfrwt>
<pdfrwt beam="2">  1       21 0.42342139E-01 0.16144283E+03</pdfrwt>
<totfact> 0.44188040E+05</totfact>
</mgrwt>
</event>
<event>
 6    1  0.4244577E-002  0.1281162E+03  0.7546771E-02  0.1230278E+00
         21   -1    0    0  503  502  0.00000000000E+00  0.00000000000E+00  0.14371348476E+02  0.14371348476E+02  0.00000000000E+00 0. -1.
         21   -1    0    0  504  503 -0.00000000000E+00 -0.00000000000E+00 -0.17009231970E+04  0.17009231970E+04  0.00000000000E+00 0. -1.
         25    2    1    2    0    0  0.20193124870E+02 -0.19480358135E+02 -0.27409236734E+03  0.30255641240E+03  0.12500604069E+03 0.  0.
          5    1    3    3  501    0 -0.26615190870E+02 -0.49018555575E+02 -0.62165400024E+02  0.83520860483E+02  0.10000000000E+00 0.  1.
         -5    1    3    3    0  501  0.46808315739E+02  0.29538197440E+02 -0.21192696731E+03  0.21903555192E+03  0.10000000000E+00 0.  1.
         21    1    1    2  504  502 -0.20193124870E+02  0.19480358135E+02 -0.14124594812E+04  0.14127381331E+04  0.00000000000E+00 0. -1.
<mgrwt>
<rscale>  1 0.12811618E+03</rscale>
<asrwt>0</asrwt>
<pdfrwt beam="1">  1       21 0.22109774E-02 0.12811618E+03</pdfrwt>
<pdfrwt beam="2">  1       21 0.26168040E+00 0.12811618E+03</pdfrwt>
<totfact> 0.62826832E+04</totfact>
</mgrwt>
</event>
<event>
 6    1  0.4244577E-002  0.1375495E+03  0.7546771E-02  0.1216665E+00
         21   -1    0    0  503  502  0.00000000000E+00  0.00000000000E+00  0.22370705771E+03  0.22370705771E+03  0.00000000000E+00 0.  1.
         21   -1    0    0  504  503 -0.00000000000E+00 -0.00000000000E+00 -0.46940880271E+02  0.46940880271E+02  0.00000000000E+00 0.  1.
         25    2    1    2    0    0  0.31299144731E+02 -0.48109107982E+02  0.15969996684E+03  0.21076990965E+03  0.12500301067E+03 0.  0.
          5    1    3    3  501    0 -0.18158238125E+02  0.19069905002E+01  0.13498566979E+03  0.13621490107E+03  0.10000000000E+00 0. -1.
         -5    1    3    3    0  501  0.49457382855E+02 -0.50016098482E+02  0.24714297044E+02  0.74555008582E+02  0.10000000000E+00 0. -1.
         21    1    1    2  504  502 -0.31299144731E+02  0.48109107982E+02  0.17066210597E+02  0.59878028323E+02  0.00000000000E+00 0.  1.
<mgrwt>
<rscale>  1 0.13754954E+03</rscale>
<asrwt>0</asrwt>
<pdfrwt beam="1">  1       21 0.34416470E-01 0.13754954E+03</pdfrwt>
<pdfrwt beam="2">  1       21 0.72216740E-02 0.13754954E+03</pdfrwt>
<totfact> 0.11668229E+06</totfact>
</mgrwt>
</event>
<event>
 6    1  0.4244577E-002  0.1278370E+03  0.7546771E-02  0.1230701E+00
         21   -1    0    0  504  502  0.00000000000E+00  0.00000000000E+00  0.30769523909E+03  0.30769523909E+03  0.00000000000E+00 0.  1.
         21   -1    0    0  502  503 -0.00000000000E+00 -0.00000000000E+00 -0.19535738997E+02  0.19535738997E+02  0.00000000000E+00 0.  1.
         25    2    1    2    0    0 -0.16096286418E+02 -0.21407126716E+02  0.24706668163E+03  0.27818023660E+03  0.12499977342E+03 0.  0.
          5    1    3    3  501    0 -0.82888349213E+01 -0.32144649635E+02  0.25852222263E+03  0.26064484049E+03  0.10000000000E+00 0. -1.
         -5    1    3    3    0  501 -0.78074514966E+01  0.10737522919E+02 -0.11455540995E+02  0.17535396112E+02  0.10000000000E+00 0. -1.
         21    1    1    2  504  503  0.16096286418E+02  0.21407126716E+02  0.41092818468E+02  0.49050741486E+02  0.00000000000E+00 0.  1.
<mgrwt>
<rscale>  1 0.12783700E+03</rscale>
<asrwt>0</asrwt>
<pdfrwt beam="1">  1       21 0.47337726E-01 0.12783700E+03</pdfrwt>
<pdfrwt beam="2">  1       21 0.30054985E-02 0.12783700E+03</pdfrwt>
<totfact> 0.26730583E+06</totfact>
</mgrwt>
</event>
<event>
 6    1  0.4244577E-002  0.1313446E+03  0.7546771E-02  0.1225474E+00
         21   -1    0    0  504  502  0.00000000000E+00  0.00000000000E+00  0.96707726982E+02  0.96707726982E+02  0.00000000000E+00 0.  1.
         21   -1    0    0  502  503 -0.00000000000E+00 -0.00000000000E+00 -0.60457907172E+03  0.60457907172E+03  0.00000000000E+00 0. -1.
         25    2    1    2    0    0  0.22037257588E+02 -0.33790308035E+02  0.51046222375E+02  0.14091525011E+03  0.12499586096E+03 0.  0.
          5    1    3    3  501    0 -0.20056277726E+02 -0.47650729223E+02  0.74572430267E+02  0.90740859747E+02  0.10000000000E+00 0. -1.
         -5    1    3    3    0  501  0.42093535315E+02  0.13860421189E+02 -0.23526207892E+02  0.50174390366E+02  0.10000000000E+00 0. -1.
         21    1    1    2  504  503 -0.22037257588E+02  0.33790308035E+02 -0.55891756712E+03  0.56037154859E+03  0.00000000000E+00 0. -1.
<mgrwt>
<rscale>  1 0.13134455E+03</rscale>
<asrwt>0</asrwt>
<pdfrwt beam="1">  1       21 0.14878112E-01 0.13134455E+03</pdfrwt>
<pdfrwt beam="2">  1       21 0.93012166E-01 0.13134455E+03</pdfrwt>
<totfact> 0.40098058E+04</totfact>
</mgrwt>
</event>
<event>
 6    1  0.4244577E-002  0.1524219E+03  0.7546771E-02  0.1197528E+00
         21   -1    0    0  504  502  0.00000000000E+00  0.00000000000E+00  0.22176774252E+03  0.22176774252E+03  0.00000000000E+00 0.  1.
         21   -1    0    0  502  503 -0.00000000000E+00 -0.00000000000E+00 -0.14499130111E+04  0.14499130111E+04  0.00000000000E+00 0.  1.
         25    2    1    2    0    0 -0.56780404834E+01 -0.87038602572E+02  0.19408285636E+03  0.24678047717E+03  0.12499796116E+03 0.  0.
          5    1    3    3  501    0  0.52792340186E+02 -0.45836451114E+02  0.50109052595E+02  0.86017083100E+02  0.10000000000E+00 0.  1.
         -5    1    3    3    0  501 -0.58470380670E+02 -0.41202151459E+02  0.14397380377E+03  0.16076339407E+03  0.10000000000E+00 0.  1.
         21    1    1    2  504  503  0.56780404834E+01  0.87038602572E+02 -0.14222281249E+04  0.14249002764E+04  0.00000000000E+00 0.  1.
<mgrwt>
<rscale>  1 0.15242194E+03</rscale>
<asrwt>0</asrwt>
<pdfrwt beam="1">  1       21 0.34118115E-01 0.15242194E+03</pdfrwt>
<pdfrwt beam="2">  1       21 0.22306353E+00 0.15242194E+03</pdfrwt>
<totfact> 0.84119944E+02</totfact>
</mgrwt>
</event>
<event>
 6    1  0.4244577E-002  0.1288512E+03  0.7546771E-02  0.1229170E+00
         21   -1    0    0  503  502  0.00000000000E+00  0.00000000000E+00  0.35186014191E+02  0.35186014191E+02  0.00000000000E+00 0. -1.
         21   -1    0    0  504  503 -0.00000000000E+00 -0.00000000000E+00 -0.69418103128E+03  0.69418103128E+03  0.00000000000E+00 0. -1.
         25    2    1    2    0    0  0.31229873229E+02  0.17446311587E+01 -0.84646867151E+02  0.15416782254E+03  0.12499710664E+03 0.  0.
          5    1    3    3  501    0 -0.26325342165E+01 -0.59112055775E+02 -0.40725593751E+02  0.71831395370E+02  0.10000000000E+00 0.  1.
         -5    1    3    3    0  501  0.33862407445E+02  0.60856686934E+02 -0.43921273399E+02  0.82336427173E+02  0.10000000000E+00 0.  1.
         21    1    1    2  504  502 -0.31229873229E+02 -0.17446311587E+01 -0.57434814994E+03  0.57519922293E+03  0.00000000000E+00 0. -1.
<mgrwt>
<rscale>  1 0.12885118E+03</rscale>
<asrwt>0</asrwt>
<pdfrwt beam="1">  1       21 0.54132328E-02 0.12885118E+03</pdfrwt>
<pdfrwt beam="2">  1       21 0.10679708E+00 0.12885118E+03</pdfrwt>
<totfact> 0.16863479E+05</totfact>
</mgrwt>
</event>
<event>
 6    1  0.4244577E-002  0.1281086E+03  0.7546771E-02  0.1230289E+00
         21   -1    0    0  503  502  0.00000000000E+00  0.00000000000E+00  0.27946053403E+03  0.27946053403E+03  0.00000000000E+00 0. -1.
         21   -1    0    0  504  503 -0.00000000000E+00 -0.00000000000E+00 -0.11291943386E+03  0.11291943386E+03  0.00000000000E+00 0. -1.
         25    2    1    2    0    0  0.27652587045E+02  0.46655571975E+01  0.26266930847E+03  0.29224473221E+03  0.12500153960E+03 0.  0.
          5    1    3    3  501    0  0.75045079349E+02  0.17894429188E+02  0.18311571641E+03  0.19870417742E+03  0.10000000000E+00 0.  1.
         -5    1    3    3    0  501 -0.47392492304E+02 -0.13228871990E+02  0.79553592059E+02  0.93540554790E+02  0.10000000000E+00 0.  1.
         21    1    1    2  504  502 -0.27652587045E+02 -0.46655571975E+01 -0.96128208296E+02  0.10013523568E+03  0.00000000000E+00 0. -1.
<mgrwt>
<rscale>  1 0.12810862E+03</rscale>
<asrwt>0</asrwt>
<pdfrwt beam="1">  1       21 0.42993928E-01 0.12810862E+03</pdfrwt>
<pdfrwt beam="2">  1       21 0.17372221E-01 0.12810862E+03</pdfrwt>
<totfact> 0.15912973E+05</totfact>
</mgrwt>
</event>
<event>
 6    1  0.4244577E-002  0.1285625E+03  0.7546771E-02  0.1229604E+00
         21   -1    0    0  503  502  0.00000000000E+00  0.00000000000E+00  0.75392535152E+02  0.75392535152E+02  0.00000000000E+00 0. -1.
         21   -1    0    0  504  503 -0.00000000000E+00 -0.00000000000E+00 -0.83940061670E+02  0.83940061670E+02  0.00000000000E+00 0. -1.
         25    2    1    2    0    0  0.17674043580E+02 -0.24333104830E+02 -0.11698031015E+02  0.12909359079E+03  0.12499535770E+03 0.  0.
          5    1    3    3  501    0 -0.43476203172E+02 -0.42161482355E+02 -0.22267936125E+02  0.64526287789E+02  0.10000000000E+00 0.  1.
         -5    1    3    3    0  501  0.61150246751E+02  0.17828377525E+02  0.10569905110E+02  0.64567303002E+02  0.10000000000E+00 0.  1.
         21    1    1    2  504  502 -0.17674043580E+02  0.24333104830E+02  0.31505044972E+01  0.30239006031E+02  0.00000000000E+00 0. -1.
<mgrwt>
<rscale>  1 0.12856248E+03</rscale>
<asrwt>0</asrwt>
<pdfrwt beam="1">  1       21 0.11598852E-01 0.12856248E+03</pdfrwt>
<pdfrwt beam="2">  1       21 0.12913856E-01 0.12856248E+03</pdfrwt>
<totfact> 0.31733667E+06</totfact>
</mgrwt>
</event>
<event>
 6    1  0.4244577E-002  0.1441806E+03  0.7546771E-02  0.1207812E+00
         21   -1    0    0  503  502  0.00000000000E+00  0.00000000000E+00  0.23979923700E+03  0.23979923700E+03  0.00000000000E+00 0.  1.
         21   -1    0    0  504  503 -0.00000000000E+00 -0.00000000000E+00 -0.48722000361E+02  0.48722000361E+02  0.00000000000E+00 0.  1.
         25    2    1    2    0    0  0.22870387923E+02  0.68115375393E+02  0.13250259463E+03  0.19581876870E+03  0.12500117433E+03 0.  0.
          5    1    3    3  501    0 -0.59071331858E+01 -0.11738241948E+02  0.10612255683E+03  0.10693309878E+03  0.10000000000E+00 0. -1.
         -5    1    3    3    0  501  0.28777521109E+02  0.79853617341E+02  0.26380037799E+02  0.88885669924E+02  0.10000000000E+00 0. -1.
         21    1    1    2  504  502 -0.22870387923E+02 -0.68115375393E+02  0.58574642013E+02  0.92702468659E+02  0.00000000000E+00 0.  1.
<mgrwt>
<rscale>  1 0.14418062E+03</rscale>
<asrwt>0</asrwt>
<pdfrwt beam="1">  1       21 0.36892190E-01 0.14418062E+03</pdfrwt>
<pdfrwt beam="2">  1       21 0.74956925E-02 0.14418062E+03</pdfrwt>
<totfact> 0.95450844E+05</totfact>
</mgrwt>
</event>
<event>
 6    1  0.4244577E-002  0.1263604E+03  0.7546771E-02  0.1232958E+00
         21   -1    0    0  504  502  0.00000000000E+00  0.00000000000E+00  0.74026433595E+03  0.74026433595E+03  0.00000000000E+00 0.  1.
         21   -1    0    0  502  503 -0.00000000000E+00 -0.00000000000E+00 -0.71762517633E+01  0.71762517633E+01  0.00000000000E+00 0.  1.
         25    2    1    2    0    0 -0.18295486634E+02 -0.27859889790E+01  0.60809562444E+03  0.62108552624E+03  0.12499782350E+03 0.  0.
          5    1    3    3  501    0 -0.18155337649E+02 -0.45656635496E+02  0.52762166289E+03  0.52990449498E+03  0.10000000000E+00 0.  1.
         -5    1    3    3    0  501 -0.14014898513E+00  0.42870646517E+02  0.80473961554E+02  0.91181031266E+02  0.10000000000E+00 0.  1.
         21    1    1    2  504  503  0.18295486634E+02  0.27859889790E+01  0.12499245975E+03  0.12635506147E+03  0.00000000000E+00 0.  1.
<mgrwt>
<rscale>  1 0.12636037E+03</rscale>
<asrwt>0</asrwt>
<pdfrwt beam="1">  1       21 0.11388676E+00 0.12636037E+03</pdfrwt>
<pdfrwt beam="2">  1       21 0.11040393E-02 0.12636037E+03</pdfrwt>
<totfact> 0.19259956E+06</totfact>
</mgrwt>
</event>
<event>
 6    1  0.4244577E-002  0.1266711E+03  0.7546771E-02  0.1232481E+00
         21   -1    0    0  503  502  0.00000000000E+00  0.00000000000E+00  0.34080859609E+03  0.34080859609E+03  0.00000000000E+00 0. -1.
         21   -1    0    0  504  503 -0.00000000000E+00 -0.00000000000E+00 -0.34001011899E+02  0.34001011899E+02  0.00000000000E+00 0. -1.
         25    2    1    2    0    0  0.17687872098E+02 -0.10389210751E+02  0.32410342310E+03  0.34797786256E+03  0.12499906976E+03 0.  0.
          5    1    3    3  501    0  0.22406517746E+02  0.29909808087E+02  0.29663498395E+03  0.29897988621E+03  0.10000000000E+00 0.  1.
         -5    1    3    3    0  501 -0.47186456481E+01 -0.40299018838E+02  0.27468439154E+02  0.48997976342E+02  0.10000000000E+00 0.  1.
         21    1    1    2  504  502 -0.17687872098E+02  0.10389210751E+02 -0.17295838912E+02  0.26831745434E+02  0.00000000000E+00 0. -1.
<mgrwt>
<rscale>  1 0.12667109E+03</rscale>
<asrwt>0</asrwt>
<pdfrwt beam="1">  1       21 0.52432089E-01 0.12667109E+03</pdfrwt>
<pdfrwt beam="2">  1       21 0.52309251E-02 0.12667109E+03</pdfrwt>
<totfact> 0.86265629E+05</totfact>
</mgrwt>
</event>
<event>
 6    1  0.4244577E-002  0.1342480E+03  0.7546771E-02  0.1221285E+00
         21   -1    0    0  504  502  0.00000000000E+00  0.00000000000E+00  0.25776330735E+03  0.25776330735E+03  0.00000000000E+00 0. -1.
         21   -1    0    0  502  503 -0.00000000000E+00 -0.00000000000E+00 -0.97474376475E+02  0.97474376475E+02  0.00000000000E+00 0. -1.
         25    2    1    2    0    0  0.48683990157E+02  0.52146378607E+01  0.23221493721E+03  0.26822806520E+03  0.12500077821E+03 0.  0.
          5    1    3    3  501    0  0.67345629811E+02  0.43011402474E+02  0.92218839067E+02  0.12202351772E+03  0.10000000000E+00 0. -1.
         -5    1    3    3    0  501 -0.18661639654E+02 -0.37796764614E+02  0.13999609815E+03  0.14620454749E+03  0.10000000000E+00 0. -1.
         21    1    1    2  504  503 -0.48683990157E+02 -0.52146378607E+01 -0.71926006334E+02  0.87009618623E+02  0.00000000000E+00 0. -1.
<mgrwt>
<rscale>  1 0.13424797E+03</rscale>
<asrwt>0</asrwt>
<pdfrwt beam="1">  1       21 0.39655893E-01 0.13424797E+03</pdfrwt>
<pdfrwt beam="2">  1       21 0.14996058E-01 0.13424797E+03</pdfrwt>
<totfact> 0.24404115E+05</totfact>
</mgrwt>
</event>
<event>
 6    1  0.4244577E-002  0.1263564E+03  0.7546771E-02  0.1232964E+00
         21   -1    0    0  504  502  0.00000000000E+00  0.00000000000E+00  0.84345504051E+02  0.84345504051E+02  0.00000000000E+00 0. -1.
         21   -1    0    0  502  503 -0.00000000000E+00 -0.00000000000E+00 -0.21094581937E+03  0.21094581937E+03  0.00000000000E+00 0.  1.
         25    2    1    2    0    0  0.32795892039E+01  0.18162807333E+02  0.36206665839E+02  0.13144152516E+03  0.12500123444E+03 0.  0.
          5    1    3    3  501    0  0.22058801519E+02  0.40565831734E+02  0.71809849633E+02  0.85374714835E+02  0.10000000000E+00 0.  1.
         -5    1    3    3    0  501 -0.18779212315E+02 -0.22403024401E+02 -0.35603183794E+02  0.46066810328E+02  0.10000000000E+00 0.  1.
         21    1    1    2  504  503 -0.32795892039E+01 -0.18162807333E+02 -0.16280698116E+03  0.16384979826E+03  0.00000000000E+00 0.  1.
<mgrwt>
<rscale>  1 0.12635645E+03</rscale>
<asrwt>0</asrwt>
<pdfrwt beam="1">  1       21 0.12976231E-01 0.12635645E+03</pdfrwt>
<pdfrwt beam="2">  1       21 0.32453203E-01 0.12635645E+03</pdfrwt>
<totfact> 0.47013645E+05</totfact>
</mgrwt>
</event>
<event>
 6    1  0.4244577E-002  0.1266421E+03  0.7546771E-02  0.1232525E+00
         21   -1    0    0  504  502  0.00000000000E+00  0.00000000000E+00  0.28886215339E+03  0.28886215339E+03  0.00000000000E+00 0. -1.
         21   -1    0    0  502  503 -0.00000000000E+00 -0.00000000000E+00 -0.35287929281E+02  0.35287929281E+02  0.00000000000E+00 0. -1.
         25    2    1    2    0    0 -0.20273451478E+02 -0.14087236624E+01  0.26986586162E+03  0.29810368580E+03  0.12500090754E+03 0.  0.
          5    1    3    3  501    0  0.19638774937E+02  0.34872503879E+02  0.24602691459E+02  0.46979521441E+02  0.10000000000E+00 0.  1.
         -5    1    3    3    0  501 -0.39912226416E+02 -0.36281227542E+02  0.24526317016E+03  0.25112416436E+03  0.10000000000E+00 0.  1.
         21    1    1    2  504  503  0.20273451478E+02  0.14087236624E+01 -0.16291637508E+02  0.26046396870E+02  0.00000000000E+00 0. -1.
<mgrwt>
<rscale>  1 0.12664211E+03</rscale>
<asrwt>0</asrwt>
<pdfrwt beam="1">  1       21 0.44440330E-01 0.12664211E+03</pdfrwt>
<pdfrwt beam="2">  1       21 0.54289124E-02 0.12664211E+03</pdfrwt>
<totfact> 0.11376477E+06</totfact>
</mgrwt>
</event>
<event>
 6    1  0.4244577E-002  0.1259935E+03  0.7546771E-02  0.1233525E+00
         21   -1    0    0  504  502  0.00000000000E+00  0.00000000000E+00  0.55280755376E+01  0.55280755376E+01  0.00000000000E+00 0. -1.
         21   -1    0    0  502  503 -0.00000000000E+00 -0.00000000000E+00 -0.92999089502E+03  0.92999089502E+03  0.00000000000E+00 0. -1.
         25    2    1    2    0    0 -0.15406845265E+02 -0.34619394393E+01 -0.76860842191E+03  0.77886665124E+03  0.12499999309E+03 0.  0.
          5    1    3    3  501    0 -0.58122025302E+02  0.20845859269E+02 -0.23420393990E+03  0.24220696757E+03  0.10000000000E+00 0.  1.
         -5    1    3    3    0  501  0.42715180037E+02 -0.24307798708E+02 -0.53440448201E+03  0.53665968367E+03  0.10000000000E+00 0.  1.
         21    1    1    2  504  503  0.15406845265E+02  0.34619394393E+01 -0.15585439757E+03  0.15665231932E+03  0.00000000000E+00 0. -1.
<mgrwt>
<rscale>  1 0.12599347E+03</rscale>
<asrwt>0</asrwt>
<pdfrwt beam="1">  1       21 0.85047399E-03 0.12599347E+03</pdfrwt>
<pdfrwt beam="2">  1       21 0.14307538E+00 0.12599347E+03</pdfrwt>
<totfact> 0.16504917E+06</totfact>
</mgrwt>
</event>
<event>
 6    1  0.4244577E-002  0.1335740E+03  0.7546771E-02  0.1222247E+00
         21   -1    0    0  504  502  0.00000000000E+00  0.00000000000E+00  0.56605444618E+03  0.56605444618E+03  0.00000000000E+00 0. -1.
         21   -1    0    0  502  503 -0.00000000000E+00 -0.00000000000E+00 -0.18498893347E+03  0.18498893347E+03  0.00000000000E+00 0.  1.
         25    2    1    2    0    0  0.47057994482E+02 -0.15788248023E+01  0.55500051374E+03  0.57084811858E+03  0.12500022677E+03 0.  0.
          5    1    3    3  501    0  0.84813633489E+02  0.19802233612E+02  0.30852217271E+03  0.32057982147E+03  0.10000000000E+00 0. -1.
         -5    1    3    3    0  501 -0.37755639007E+02 -0.21381058414E+02  0.24647834103E+03  0.25026829710E+03  0.10000000000E+00 0. -1.
         21    1    1    2  504  503 -0.47057994482E+02  0.15788248023E+01 -0.17393500103E+03  0.18019526108E+03  0.00000000000E+00 0.  1.
<mgrwt>
<rscale>  1 0.13357397E+03</rscale>
<asrwt>0</asrwt>
<pdfrwt beam="1">  1       21 0.87085299E-01 0.13357397E+03</pdfrwt>
<pdfrwt beam="2">  1       21 0.28459836E-01 0.13357397E+03</pdfrwt>
<totfact> 0.13959321E+04</totfact>
</mgrwt>
</event>
<event>
 6    1  0.4244577E-002  0.1381678E+03  0.7546771E-02  0.1215816E+00
         21   -1    0    0  504  502  0.00000000000E+00  0.00000000000E+00  0.27705546623E+03  0.27705546623E+03  0.00000000000E+00 0.  1.
         21   -1    0    0  502  503 -0.00000000000E+00 -0.00000000000E+00 -0.38297354709E+02  0.38297354709E+02  0.00000000000E+00 0.  1.
         25    2    1    2    0    0  0.13976015037E+02 -0.57183207360E+02  0.20582671330E+03  0.24790117019E+03  0.12500042429E+03 0.  0.
          5    1    3    3  501    0  0.95515258027E+00 -0.90946660397E+02  0.95896260784E+02  0.13216773504E+03  0.10000000000E+00 0. -1.
         -5    1    3    3    0  501  0.13020862457E+02  0.33763453036E+02  0.10993045252E+03  0.11573343515E+03  0.10000000000E+00 0. -1.
         21    1    1    2  504  503 -0.13976015037E+02  0.57183207360E+02  0.32931398220E+02  0.67451650751E+02  0.00000000000E+00 0.  1.
<mgrwt>
<rscale>  1 0.13816785E+03</rscale>
<asrwt>0</asrwt>
<pdfrwt beam="1">  1       21 0.42623917E-01 0.13816785E+03</pdfrwt>
<pdfrwt beam="2">  1       21 0.58919009E-02 0.13816785E+03</pdfrwt>
<totfact> 0.10786911E+06</totfact>
</mgrwt>
</event>
<event>
 6    1  0.4244577E-002  0.1279025E+03  0.7546771E-02  0.1230602E+00
         21   -1    0    0  504  502  0.00000000000E+00  0.00000000000E+00  0.18289397789E+03  0.18289397789E+03  0.00000000000E+00 0. -1.
         21   -1    0    0  502  503 -0.00000000000E+00 -0.00000000000E+00 -0.34802033065E+02  0.34802033065E+02  0.00000000000E+00 0. -1.
         25    2    1    2    0    0  0.24132558137E+02  0.12303881930E+02  0.13954139233E+03  0.18929041607E+03  0.12500118228E+03 0.  0.
          5    1    3    3  501    0  0.15946994987E+01  0.67238542153E+02  0.87288326314E+02  0.11019449409E+03  0.10000000000E+00 0.  1.
         -5    1    3    3    0  501  0.22537858639E+02 -0.54934660223E+02  0.52253066018E+02  0.79095921982E+02  0.10000000000E+00 0.  1.
         21    1    1    2  504  503 -0.24132558137E+02 -0.12303881930E+02  0.85505524969E+01  0.28405594886E+02  0.00000000000E+00 0. -1.
<mgrwt>
<rscale>  1 0.12790255E+03</rscale>
<asrwt>0</asrwt>
<pdfrwt beam="1">  1       21 0.28137535E-01 0.12790255E+03</pdfrwt>
<pdfrwt beam="2">  1       21 0.53541590E-02 0.12790255E+03</pdfrwt>
<totfact> 0.28633105E+06</totfact>
</mgrwt>
</event>
<event>
 6    1  0.4244577E-002  0.1420856E+03  0.7546771E-02  0.1210550E+00
         21   -1    0    0  503  502  0.00000000000E+00  0.00000000000E+00  0.15130463387E+04  0.15130463387E+04  0.00000000000E+00 0. -1.
         21   -1    0    0  504  503 -0.00000000000E+00 -0.00000000000E+00 -0.10754645113E+02  0.10754645113E+02  0.00000000000E+00 0. -1.
         25    2    1    2    0    0  0.53024783794E+02 -0.41849720094E+02  0.13467481577E+04  0.13542226292E+04  0.12500121054E+03 0.  0.
          5    1    3    3  501    0 -0.20575149790E+02  0.31547809379E+02  0.31122888358E+03  0.31349964759E+03  0.10000000000E+00 0.  1.
         -5    1    3    3    0  501  0.73599933584E+02 -0.73397529474E+02  0.10355192741E+04  0.10407229816E+04  0.10000000000E+00 0.  1.
         21    1    1    2  504  502 -0.53024783794E+02  0.41849720094E+02  0.15554353592E+03  0.16957835456E+03  0.00000000000E+00 0. -1.
<mgrwt>
<rscale>  1 0.14208564E+03</rscale>
<asrwt>0</asrwt>
<pdfrwt beam="1">  1       21 0.23277619E+00 0.14208564E+03</pdfrwt>
<pdfrwt beam="2">  1       21 0.16545620E-02 0.14208564E+03</pdfrwt>
<totfact> 0.14556635E+05</totfact>
</mgrwt>
</event>
<event>
 6    1  0.4244577E-002  0.1261803E+03  0.7546771E-02  0.1233236E+00
         21   -1    0    0  504  502  0.00000000000E+00  0.00000000000E+00  0.18093270859E+01  0.18093270859E+01  0.00000000000E+00 0.  1.
         21   -1    0    0  502  503 -0.00000000000E+00 -0.00000000000E+00 -0.29310090616E+04  0.29310090616E+04  0.00000000000E+00 0.  1.
         25    2    1    2    0    0 -0.17221427614E+01 -0.17165957662E+02 -0.23742782161E+04  0.23776287567E+04  0.12499528514E+03 0.  0.
          5    1    3    3  501    0  0.52175676869E+02  0.24890822727E+02 -0.10757968073E+04  0.10773488919E+04  0.10000000000E+00 0.  1.
         -5    1    3    3    0  501 -0.53897819630E+02 -0.42056780390E+02 -0.12984814089E+04  0.13002798649E+04  0.10000000000E+00 0.  1.
         21    1    1    2  504  503  0.17221427614E+01  0.17165957662E+02 -0.55492151840E+03  0.55518963199E+03  0.00000000000E+00 0.  1.
<mgrwt>
<rscale>  1 0.12618026E+03</rscale>
<asrwt>0</asrwt>
<pdfrwt beam="1">  1       21 0.27835693E-03 0.12618026E+03</pdfrwt>
<pdfrwt beam="2">  1       21 0.45092622E+00 0.12618026E+03</pdfrwt>
<totfact> 0.12339683E+05</totfact>
</mgrwt>
</event>
<event>
 6    1  0.4244577E-002  0.1264745E+03  0.7546771E-02  0.1232783E+00
         21   -1    0    0  504  502  0.00000000000E+00  0.00000000000E+00  0.52180250054E+02  0.52180250054E+02  0.00000000000E+00 0. -1.
         21   -1    0    0  502  503 -0.00000000000E+00 -0.00000000000E+00 -0.32227577776E+03  0.32227577776E+03  0.00000000000E+00 0. -1.
         25    2    1    2    0    0  0.16058887931E+02  0.10629954745E+02 -0.25395040695E+02  0.12899887847E+03  0.12499967494E+03 0.  0.
          5    1    3    3  501    0  0.50388514657E+02  0.26633258649E+02  0.28026355074E+02  0.63512356706E+02  0.10000000000E+00 0.  1.
         -5    1    3    3    0  501 -0.34329626726E+02 -0.16003303904E+02 -0.53421395769E+02  0.65486521765E+02  0.10000000000E+00 0.  1.
         21    1    1    2  504  503 -0.16058887931E+02 -0.10629954745E+02 -0.24470048701E+03  0.24545714934E+03  0.00000000000E+00 0. -1.
<mgrwt>
<rscale>  1 0.12647451E+03</rscale>
<asrwt>0</asrwt>
<pdfrwt beam="1">  1       21 0.80277308E-02 0.12647451E+03</pdfrwt>
<pdfrwt beam="2">  1       21 0.49580889E-01 0.12647451E+03</pdfrwt>
<totfact> 0.46705038E+05</totfact>
</mgrwt>
</event>
<event>
 6    1  0.4244577E-002  0.1298119E+03  0.7546771E-02  0.1227735E+00
         21   -1    0    0  503  502  0.00000000000E+00  0.00000000000E+00  0.12003334690E+03  0.12003334690E+03  0.00000000000E+00 0. -1.
         21   -1    0    0  504  503 -0.00000000000E+00 -0.00000000000E+00 -0.97777187290E+02  0.97777187290E+02  0.00000000000E+00 0. -1.
         25    2    1    2    0    0  0.27572315891E+02 -0.21583523071E+02  0.78394553899E+02  0.15164709726E+03  0.12500021982E+03 0.  0.
          5    1    3    3  501    0 -0.30074261728E+02  0.15672034817E+02  0.75708521179E+02  0.82957001350E+02  0.10000000000E+00 0.  1.
         -5    1    3    3    0  501  0.57646577619E+02 -0.37255557888E+02  0.26860327198E+01  0.68690095913E+02  0.10000000000E+00 0.  1.
         21    1    1    2  504  502 -0.27572315891E+02  0.21583523071E+02 -0.56138394293E+02  0.66163436923E+02  0.00000000000E+00 0. -1.
<mgrwt>
<rscale>  1 0.12981193E+03</rscale>
<asrwt>0</asrwt>
<pdfrwt beam="1">  1       21 0.18466669E-01 0.12981193E+03</pdfrwt>
<pdfrwt beam="2">  1       21 0.15042644E-01 0.12981193E+03</pdfrwt>
<totfact> 0.10455475E+06</totfact>
</mgrwt>
</event>
<event>
 6    1  0.4244577E-002  0.1279293E+03  0.7546771E-02  0.1230561E+00
         21   -1    0    0  503  502  0.00000000000E+00  0.00000000000E+00  0.36341860481E+03  0.36341860481E+03  0.00000000000E+00 0. -1.
         21   -1    0    0  504  503 -0.00000000000E+00 -0.00000000000E+00 -0.18145405448E+02  0.18145405448E+02  0.00000000000E+00 0. -1.
         25    2    1    2    0    0 -0.60348755375E+01 -0.26549011000E+02  0.31913724808E+03  0.34382334708E+03  0.12499856470E+03 0.  0.
          5    1    3    3  501    0 -0.11592183184E+02  0.21106585021E+02  0.28232333297E+03  0.28334844447E+03  0.10000000000E+00 0.  1.
         -5    1    3    3    0  501  0.55573076470E+01 -0.47655596020E+02  0.36813915107E+02  0.60474902611E+02  0.10000000000E+00 0.  1.
         21    1    1    2  504  502  0.60348755375E+01  0.26549011000E+02  0.26135951285E+02  0.37740663181E+02  0.00000000000E+00 0.  1.
<mgrwt>
<rscale>  1 0.12792932E+03</rscale>
<asrwt>0</asrwt>
<pdfrwt beam="1">  1       21 0.55910549E-01 0.12792932E+03</pdfrwt>
<pdfrwt beam="2">  1       21 0.27916011E-02 0.12792932E+03</pdfrwt>
<totfact> 0.21368143E+06</totfact>
</mgrwt>
</event>
<event>
 6    1  0.4244577E-002  0.1587624E+03  0.7546771E-02  0.1190101E+00
         21   -1    0    0  503  502  0.00000000000E+00  0.00000000000E+00  0.54704452348E+03  0.54704452348E+03  0.00000000000E+00 0. -1.
         21   -1    0    0  504  503 -0.00000000000E+00 -0.00000000000E+00 -0.60931493295E+02  0.60931493295E+02  0.00000000000E+00 0. -1.
         25    2    1    2    0    0 -0.95616065066E+01 -0.97411323554E+02  0.48475078489E+03  0.51008706956E+03  0.12500041923E+03 0.  0.
          5    1    3    3  501    0 -0.34970920315E+02  0.10723473782E+02  0.53844209727E+02  0.65093525628E+02  0.10000000000E+00 0.  1.
         -5    1    3    3    0  501  0.25409313809E+02 -0.10813479734E+03  0.43090657516E+03  0.44499354393E+03  0.10000000000E+00 0.  1.
         21    1    1    2  504  502  0.95616065066E+01  0.97411323554E+02  0.13622453008E+01  0.97888947219E+02  0.00000000000E+00 0. -1.
<mgrwt>
<rscale>  1 0.15876239E+03</rscale>
<asrwt>0</asrwt>
<pdfrwt beam="1">  1       21 0.84160692E-01 0.15876239E+03</pdfrwt>
<pdfrwt beam="2">  1       21 0.93740763E-02 0.15876239E+03</pdfrwt>
<totfact> 0.11297969E+05</totfact>
</mgrwt>
</event>
<event>
 6    1  0.4244577E-002  0.1322934E+03  0.7546771E-02  0.1224092E+00
         21   -1    0    0  504  502  0.00000000000E+00  0.00000000000E+00  0.12612602175E+03  0.12612602175E+03  0.00000000000E+00 0. -1.
         21   -1    0    0  502  503 -0.00000000000E+00 -0.00000000000E+00 -0.12853373460E+03  0.12853373460E+03  0.00000000000E+00 0.  1.
         25    2    1    2    0    0 -0.23908705495E+02 -0.36128519835E+02  0.84901005783E+02  0.15719330832E+03  0.12499863700E+03 0.  0.
          5    1    3    3  501    0 -0.28125056014E+02 -0.61484089967E+02 -0.90754364639E+00  0.67617643632E+02  0.10000000000E+00 0.  1.
         -5    1    3    3    0  501  0.42163505186E+01  0.25355570133E+02  0.85808549430E+02  0.89575664685E+02  0.10000000000E+00 0.  1.
         21    1    1    2  504  503  0.23908705495E+02  0.36128519835E+02 -0.87308718635E+02  0.97466448041E+02  0.00000000000E+00 0.  1.
<mgrwt>
<rscale>  1 0.13229344E+03</rscale>
<asrwt>0</asrwt>
<pdfrwt beam="1">  1       21 0.19404003E-01 0.13229344E+03</pdfrwt>
<pdfrwt beam="2">  1       21 0.19774421E-01 0.13229344E+03</pdfrwt>
<totfact> 0.57948719E+05</totfact>
</mgrwt>
</event>
<event>
 6    1  0.4244577E-002  0.1280970E+03  0.7546771E-02  0.1230307E+00
         21   -1    0    0  504  502  0.00000000000E+00  0.00000000000E+00  0.93748635142E+01  0.93748635142E+01  0.00000000000E+00 0.  1.
         21   -1    0    0  502  503 -0.00000000000E+00 -0.00000000000E+00 -0.11448067410E+04  0.11448067410E+04  0.00000000000E+00 0.  1.
         25    2    1    2    0    0 -0.11373344468E+02  0.25596308939E+02 -0.44209167875E+03  0.46027587952E+03  0.12499723538E+03 0.  0.
          5    1    3    3  501    0 -0.24437390181E+02 -0.16967328939E+02 -0.20012923614E+02  0.35855312044E+02  0.10000000000E+00 0.  1.
         -5    1    3    3    0  501  0.13064045713E+02  0.42563637878E+02 -0.42207875514E+03  0.42442056748E+03  0.10000000000E+00 0.  1.
         21    1    1    2  504  503  0.11373344468E+02 -0.25596308939E+02 -0.69334019876E+03  0.69390572502E+03  0.00000000000E+00 0.  1.
<mgrwt>
<rscale>  1 0.12809697E+03</rscale>
<asrwt>0</asrwt>
<pdfrwt beam="1">  1       21 0.14422874E-02 0.12809697E+03</pdfrwt>
<pdfrwt beam="2">  1       21 0.17612403E+00 0.12809697E+03</pdfrwt>
<totfact> 0.41354249E+05</totfact>
</mgrwt>
</event>
<event>
 6    1  0.4244577E-002  0.1267632E+03  0.7546771E-02  0.1232339E+00
         21   -1    0    0  504  502  0.00000000000E+00  0.00000000000E+00  0.93358918427E+02  0.93358918427E+02  0.00000000000E+00 0.  1.
         21   -1    0    0  502  503 -0.00000000000E+00 -0.00000000000E+00 -0.59079615039E+02  0.59079615039E+02  0.00000000000E+00 0.  1.
         25    2    1    2    0    0 -0.10165594960E+02  0.18286407011E+02  0.34992636675E+02  0.13150433067E+03  0.12502468701E+03 0.  0.
          5    1    3    3  501    0  0.43486197365E+02 -0.14991075787E+02 -0.17684617783E+02  0.49280192985E+02  0.10000000000E+00 0. -1.
         -5    1    3    3    0  501 -0.53651792325E+02  0.33277482798E+02  0.52677254458E+02  0.82224137687E+02  0.10000000000E+00 0. -1.
         21    1    1    2  504  503  0.10165594960E+02 -0.18286407011E+02 -0.71333328752E+00  0.20934202795E+02  0.00000000000E+00 0.  1.
<mgrwt>
<rscale>  1 0.12676318E+03</rscale>
<asrwt>0</asrwt>
<pdfrwt beam="1">  1       21 0.14362910E-01 0.12676318E+03</pdfrwt>
<pdfrwt beam="2">  1       21 0.90891716E-02 0.12676318E+03</pdfrwt>
<totfact> 0.40194873E+06</totfact>
</mgrwt>
</event>
<event>
 6    1  0.4244577E-002  0.1316941E+03  0.7546771E-02  0.1224963E+00
         21   -1    0    0  503  502  0.00000000000E+00  0.00000000000E+00  0.11911637735E+02  0.11911637735E+02  0.00000000000E+00 0. -1.
         21   -1    0    0  504  503 -0.00000000000E+00 -0.00000000000E+00 -0.64145462907E+03  0.64145462907E+03  0.00000000000E+00 0. -1.
         25    2    1    2    0    0  0.27865606182E+02 -0.30695040740E+02 -0.51429590295E+03  0.53088945710E+03  0.12499864934E+03 0.  0.
          5    1    3    3  501    0  0.65784667523E+02 -0.33668983047E+02 -0.18211120022E+03  0.19653427728E+03  0.10000000000E+00 0. -1.
         -5    1    3    3    0  501 -0.37919061341E+02  0.29739423069E+01 -0.33218470273E+03  0.33435517982E+03  0.10000000000E+00 0. -1.
         21    1    1    2  504  502 -0.27865606182E+02  0.30695040740E+02 -0.11524708839E+03  0.12247680971E+03  0.00000000000E+00 0.  1.
<mgrwt>
<rscale>  1 0.13169411E+03</rscale>
<asrwt>0</asrwt>
<pdfrwt beam="1">  1       21 0.18325601E-02 0.13169411E+03</pdfrwt>
<pdfrwt beam="2">  1       21 0.98685305E-01 0.13169411E+03</pdfrwt>
<totfact> 0.12064858E+06</totfact>
</mgrwt>
</event>
<event>
 6    1  0.4244577E-002  0.1990413E+03  0.7546771E-02  0.1150550E+00
         21   -1    0    0  503  502  0.00000000000E+00  0.00000000000E+00  0.93235539239E+03  0.93235539239E+03  0.00000000000E+00 0.  1.
         21   -1    0    0  504  503 -0.00000000000E+00 -0.00000000000E+00 -0.83547763527E+02  0.83547763527E+02  0.00000000000E+00 0. -1.
         25    2    1    2    0    0 -0.11538770446E+02 -0.15446606654E+03  0.83724110329E+03  0.86057545893E+03  0.12499818613E+03 0.  0.
          5    1    3    3  501    0  0.13603838808E+01  0.17332609669E+02  0.26240590899E+02  0.31477747902E+02  0.10000000000E+00 0.  1.
         -5    1    3    3    0  501 -0.12899154326E+02 -0.17179867621E+03  0.81100051239E+03  0.82909771103E+03  0.10000000000E+00 0.  1.
         21    1    1    2  504  502  0.11538770446E+02  0.15446606654E+03  0.11566525567E+02  0.15532769698E+03  0.00000000000E+00 0. -1.
<mgrwt>
<rscale>  1 0.19904134E+03</rscale>
<asrwt>0</asrwt>
<pdfrwt beam="1">  1       21 0.14343928E+00 0.19904134E+03</pdfrwt>
<pdfrwt beam="2">  1       21 0.12853503E-01 0.19904134E+03</pdfrwt>
<totfact> 0.17355434E+04</totfact>
</mgrwt>
</event>
<event>
 6    1  0.4244577E-002  0.1425567E+03  0.7546771E-02  0.1209930E+00
         21   -1    0    0  504  502  0.00000000000E+00  0.00000000000E+00  0.66904072730E+02  0.66904072730E+02  0.00000000000E+00 0. -1.
         21   -1    0    0  502  503 -0.00000000000E+00 -0.00000000000E+00 -0.55793939247E+03  0.55793939247E+03  0.00000000000E+00 0. -1.
         25    2    1    2    0    0 -0.33848864181E+02 -0.59577909632E+02 -0.14371076802E+02  0.14327927071E+03  0.12500859428E+03 0.  0.
          5    1    3    3  501    0 -0.12635314114E+02  0.32494272549E+02 -0.31814038396E+02  0.47198219779E+02  0.10000000000E+00 0.  1.
         -5    1    3    3    0  501 -0.21213550067E+02 -0.92072182181E+02  0.17442961594E+02  0.96081050927E+02  0.10000000000E+00 0.  1.
         21    1    1    2  504  503  0.33848864181E+02  0.59577909632E+02 -0.47666424293E+03  0.48156419449E+03  0.00000000000E+00 0. -1.
<mgrwt>
<rscale>  1 0.14255673E+03</rscale>
<asrwt>0</asrwt>
<pdfrwt beam="1">  1       21 0.10292934E-01 0.14255673E+03</pdfrwt>
<pdfrwt beam="2">  1       21 0.85836831E-01 0.14255673E+03</pdfrwt>
<totfact> 0.92259115E+04</totfact>
</mgrwt>
</event>
<event>
 6    1  0.4244577E-002  0.1293650E+03  0.7546771E-02  0.1228401E+00
         21   -1    0    0  504  502  0.00000000000E+00  0.00000000000E+00  0.21557858028E+03  0.21557858028E+03  0.00000000000E+00 0.  1.
         21   -1    0    0  502  503 -0.00000000000E+00 -0.00000000000E+00 -0.53075662832E+02  0.53075662832E+02  0.00000000000E+00 0.  1.
         25    2    1    2    0    0  0.71004019963E+01 -0.32557551869E+02  0.18693640731E+03  0.22733348176E+03  0.12499952663E+03 0.  0.
          5    1    3    3  501    0  0.56236836019E+02 -0.13140021845E+02  0.37566450525E+02  0.68894775597E+02  0.10000000000E+00 0.  1.
         -5    1    3    3    0  501 -0.49136434022E+02 -0.19417530024E+02  0.14936995678E+03  0.15843870616E+03  0.10000000000E+00 0.  1.
         21    1    1    2  504  503 -0.71004019963E+01  0.32557551869E+02 -0.24433489860E+02  0.41320761355E+02  0.00000000000E+00 0.  1.
<mgrwt>
<rscale>  1 0.12936495E+03</rscale>
<asrwt>0</asrwt>
<pdfrwt beam="1">  1       21 0.33165935E-01 0.12936495E+03</pdfrwt>
<pdfrwt beam="2">  1       21 0.81654867E-02 0.12936495E+03</pdfrwt>
<totfact> 0.10149022E+06</totfact>
</mgrwt>
</event>
<event>
 6    1  0.4244577E-002  0.1437343E+03  0.7546771E-02  0.1208391E+00
         21   -1    0    0  504  502  0.00000000000E+00  0.00000000000E+00  0.43492662905E+03  0.43492662905E+03  0.00000000000E+00 0.  1.
         21   -1    0    0  502  503 -0.00000000000E+00 -0.00000000000E+00 -0.41818623201E+02  0.41818623201E+02  0.00000000000E+00 0.  1.
         25    2    1    2    0    0 -0.39642558445E+02  0.58847392330E+02  0.37771696052E+03  0.40414062223E+03  0.12499996899E+03 0.  0.
          5    1    3    3  501    0  0.39632805564E+02 -0.51587897933E+01  0.79178376057E+02  0.88693842086E+02  0.10000000000E+00 0.  1.
         -5    1    3    3    0  501 -0.79275364009E+02  0.64006182124E+02  0.29853858446E+03  0.31544678014E+03  0.10000000000E+00 0.  1.
         21    1    1    2  504  503  0.39642558445E+02 -0.58847392330E+02  0.15391045328E+02  0.72604630020E+02  0.00000000000E+00 0.  1.
<mgrwt>
<rscale>  1 0.14373427E+03</rscale>
<asrwt>0</asrwt>
<pdfrwt beam="1">  1       21 0.66911786E-01 0.14373427E+03</pdfrwt>
<pdfrwt beam="2">  1       21 0.64336346E-02 0.14373427E+03</pdfrwt>
<totfact> 0.36156607E+05</totfact>
</mgrwt>
</event>
<event>
 6    1  0.4244577E-002  0.1267415E+03  0.7546771E-02  0.1232372E+00
         21   -1    0    0  503  502  0.00000000000E+00  0.00000000000E+00  0.17376645491E+02  0.17376645491E+02  0.00000000000E+00 0. -1.
         21   -1    0    0  504  503 -0.00000000000E+00 -0.00000000000E+00 -0.31547126957E+03  0.31547126957E+03  0.00000000000E+00 0. -1.
         25    2    1    2    0    0 -0.20384259914E+02 -0.45695244922E+01 -0.24623197583E+03  0.27693608367E+03  0.12500803938E+03 0.  0.
          5    1    3    3  501    0  0.26897197795E+02  0.47659547989E+02 -0.12954862450E+03  0.14063338108E+03  0.10000000000E+00 0. -1.
         -5    1    3    3    0  501 -0.47281457709E+02 -0.52229072481E+02 -0.11668335133E+03  0.13630270259E+03  0.10000000000E+00 0. -1.
         21    1    1    2  504  502  0.20384259914E+02  0.45695244922E+01 -0.51862648249E+02  0.55911831393E+02  0.00000000000E+00 0. -1.
<mgrwt>
<rscale>  1 0.12674150E+03</rscale>
<asrwt>0</asrwt>
<pdfrwt beam="1">  1       21 0.26733299E-02 0.12674150E+03</pdfrwt>
<pdfrwt beam="2">  1       21 0.48534044E-01 0.12674150E+03</pdfrwt>
<totfact> 0.30750650E+06</totfact>
</mgrwt>
</event>
<event>
 6    1  0.4244577E-002  0.1275495E+03  0.7546771E-02  0.1231138E+00
         21   -1    0    0  504  502  0.00000000000E+00  0.00000000000E+00  0.29940025971E+03  0.29940025971E+03  0.00000000000E+00 0. -1.
         21   -1    0    0  502  503 -0.00000000000E+00 -0.00000000000E+00 -0.23380125750E+02  0.23380125750E+02  0.00000000000E+00 0. -1.
         25    2    1    2    0    0 -0.23245515986E+02 -0.10138510632E+02  0.26693277571E+03  0.29584112988E+03  0.12500289584E+03 0.  0.
          5    1    3    3  501    0 -0.44605428360E+01  0.46582716481E+02  0.41245620084E+02  0.62378338334E+02  0.10000000000E+00 0. -1.
         -5    1    3    3    0  501 -0.18784973150E+02 -0.56721227114E+02  0.22568715563E+03  0.23346279155E+03  0.10000000000E+00 0. -1.
         21    1    1    2  504  503  0.23245515986E+02  0.10138510632E+02  0.90873582506E+01  0.26939255581E+02  0.00000000000E+00 0. -1.
<mgrwt>
<rscale>  1 0.12754947E+03</rscale>
<asrwt>0</asrwt>
<pdfrwt beam="1">  1       21 0.46061576E-01 0.12754947E+03</pdfrwt>
<pdfrwt beam="2">  1       21 0.35969426E-02 0.12754947E+03</pdfrwt>
<totfact> 0.21027246E+06</totfact>
</mgrwt>
</event>
<event>
 6    1  0.4244577E-002  0.1451748E+03  0.7546771E-02  0.1206531E+00
         21   -1    0    0  504  502  0.00000000000E+00  0.00000000000E+00  0.37690011620E+03  0.37690011620E+03  0.00000000000E+00 0.  1.
         21   -1    0    0  502  503 -0.00000000000E+00 -0.00000000000E+00 -0.14467431476E+03  0.14467431476E+03  0.00000000000E+00 0.  1.
         25    2    1    2    0    0  0.36018387064E+02 -0.64326280160E+02  0.35209416426E+03  0.38084909945E+03  0.12506215064E+03 0.  0.
          5    1    3    3  501    0 -0.11365725027E+02  0.54801392354E+01  0.24109624904E+03  0.24142622668E+03  0.10000000000E+00 0.  1.
         -5    1    3    3    0  501  0.47384112090E+02 -0.69806419396E+02  0.11099791522E+03  0.13942287277E+03  0.10000000000E+00 0.  1.
         21    1    1    2  504  503 -0.36018387064E+02  0.64326280160E+02 -0.11986836281E+03  0.14072533151E+03  0.00000000000E+00 0.  1.
<mgrwt>
<rscale>  1 0.14517485E+03</rscale>
<asrwt>0</asrwt>
<pdfrwt beam="1">  1       21 0.57984633E-01 0.14517485E+03</pdfrwt>
<pdfrwt beam="2">  1       21 0.22257587E-01 0.14517485E+03</pdfrwt>
<totfact> 0.53863929E+04</totfact>
</mgrwt>
</event>
<event>
 6    1  0.4244577E-002  0.1366759E+03  0.7546771E-02  0.1217873E+00
         21   -1    0    0  504  502  0.00000000000E+00  0.00000000000E+00  0.27918303946E+03  0.27918303946E+03  0.00000000000E+00 0. -1.
         21   -1    0    0  502  503 -0.00000000000E+00 -0.00000000000E+00 -0.39228097508E+02  0.39228097508E+02  0.00000000000E+00 0. -1.
         25    2    1    2    0    0  0.49700113472E+02 -0.24170307343E+02  0.22125852801E+03  0.26006852021E+03  0.12500397573E+03 0.  0.
          5    1    3    3  501    0  0.32064346769E+02 -0.29624363977E+02  0.23374202854E+03  0.23778366467E+03  0.10000000000E+00 0. -1.
         -5    1    3    3    0  501  0.17635766704E+02  0.54540566341E+01 -0.12483500531E+02  0.22284855542E+02  0.10000000000E+00 0. -1.
         21    1    1    2  504  503 -0.49700113472E+02  0.24170307343E+02  0.18696413943E+02  0.58342616761E+02  0.00000000000E+00 0. -1.
<mgrwt>
<rscale>  1 0.13667589E+03</rscale>
<asrwt>0</asrwt>
<pdfrwt beam="1">  1       21 0.42951236E-01 0.13667589E+03</pdfrwt>
<pdfrwt beam="2">  1       21 0.60350921E-02 0.13667589E+03</pdfrwt>
<totfact> 0.10196637E+06</totfact>
</mgrwt>
</event>
<event>
 6    1  0.4244577E-002  0.1260625E+03  0.7546771E-02  0.1233418E+00
         21   -1    0    0  503  502  0.00000000000E+00  0.00000000000E+00  0.63631275875E+02  0.63631275875E+02  0.00000000000E+00 0.  1.
         21   -1    0    0  504  503 -0.00000000000E+00 -0.00000000000E+00 -0.35055192257E+03  0.35055192257E+03  0.00000000000E+00 0. -1.
         25    2    1    2    0    0 -0.90535097411E+01 -0.13576508234E+02  0.73543809450E+00  0.12606462783E+03  0.12500184761E+03 0.  0.
          5    1    3    3  501    0 -0.41860394192E+02  0.27205668370E+02  0.37212706334E+02  0.62267459447E+02  0.10000000000E+00 0. -1.
         -5    1    3    3    0  501  0.32806884450E+02 -0.40782176603E+02 -0.36477268239E+02  0.63797168386E+02  0.10000000000E+00 0. -1.
         21    1    1    2  504  502  0.90535097411E+01  0.13576508234E+02 -0.28765608479E+03  0.28811857061E+03  0.00000000000E+00 0. -1.
<mgrwt>
<rscale>  1 0.12606248E+03</rscale>
<asrwt>0</asrwt>
<pdfrwt beam="1">  1       21 0.97894270E-02 0.12606248E+03</pdfrwt>
<pdfrwt beam="2">  1       21 0.53931065E-01 0.12606248E+03</pdfrwt>
<totfact> 0.27813291E+05</totfact>
</mgrwt>
</event>
<event>
 6    1  0.4244577E-002  0.1536704E+03  0.7546771E-02  0.1196034E+00
         21   -1    0    0  503  502  0.00000000000E+00  0.00000000000E+00  0.69214371164E+03  0.69214371164E+03  0.00000000000E+00 0.  1.
         21   -1    0    0  504  503 -0.00000000000E+00 -0.00000000000E+00 -0.95969098882E+02  0.95969098882E+02  0.00000000000E+00 0. -1.
         25    2    1    2    0    0 -0.23474420025E+02  0.86199778389E+02  0.66042607654E+03  0.67806872486E+03  0.12503256725E+03 0.  0.
          5    1    3    3  501    0 -0.28800346628E+02 -0.12760399735E+02  0.36718769693E+03  0.36853643313E+03  0.10000000000E+00 0.  1.
         -5    1    3    3    0  501  0.53259266034E+01  0.98960178124E+02  0.29323837961E+03  0.30953229173E+03  0.10000000000E+00 0.  1.
         21    1    1    2  504  502  0.23474420025E+02 -0.86199778389E+02 -0.64251463784E+02  0.11004408566E+03  0.00000000000E+00 0. -1.
<mgrwt>
<rscale>  1 0.15367040E+03</rscale>
<asrwt>0</asrwt>
<pdfrwt beam="1">  1       21 0.10648364E+00 0.15367040E+03</pdfrwt>
<pdfrwt beam="2">  1       21 0.14764477E-01 0.15367040E+03</pdfrwt>
<totfact> 0.29197786E+04</totfact>
</mgrwt>
</event>
<event>
 6    1  0.4244577E-002  0.1699128E+03  0.7546771E-02  0.1177939E+00
         21   -1    0    0  503  502  0.00000000000E+00  0.00000000000E+00  0.13998420720E+04  0.13998420720E+04  0.00000000000E+00 0. -1.
         21   -1    0    0  504  503 -0.00000000000E+00 -0.00000000000E+00 -0.28904292235E+02  0.28904292235E+02  0.00000000000E+00 0. -1.
         25    2    1    2    0    0  0.35635445536E+02 -0.10943268200E+03  0.12511336682E+04  0.12626186362E+04  0.12499987170E+03 0.  0.
          5    1    3    3  501    0  0.55301972801E+02 -0.10410678086E+03  0.61715790133E+03  0.62831553792E+03  0.10000000000E+00 0. -1.
         -5    1    3    3    0  501 -0.19666527264E+02 -0.53259011366E+01  0.63397576687E+03  0.63430309829E+03  0.10000000000E+00 0. -1.
         21    1    1    2  504  502 -0.35635445536E+02  0.10943268200E+03  0.11980411153E+03  0.16612772799E+03  0.00000000000E+00 0. -1.
<mgrwt>
<rscale>  1 0.16991282E+03</rscale>
<asrwt>0</asrwt>
<pdfrwt beam="1">  1       21 0.21536027E+00 0.16991282E+03</pdfrwt>
<pdfrwt beam="2">  1       21 0.44468153E-02 0.16991282E+03</pdfrwt>
<totfact> 0.35845793E+04</totfact>
</mgrwt>
</event>
<event>
 6    1  0.4244577E-002  0.1261372E+03  0.7546771E-02  0.1233303E+00
         21   -1    0    0  503  502  0.00000000000E+00  0.00000000000E+00  0.41418691247E+03  0.41418691247E+03  0.00000000000E+00 0. -1.
         21   -1    0    0  504  503 -0.00000000000E+00 -0.00000000000E+00 -0.36070471427E+02  0.36070471427E+02  0.00000000000E+00 0. -1.
         25    2    1    2    0    0  0.59947393785E+00  0.16987874924E+02  0.40178362020E+03  0.42111836138E+03  0.12498659755E+03 0.  0.
          5    1    3    3  501    0  0.36816191110E+02  0.47952966838E+02  0.32629898545E+03  0.33185231183E+03  0.10000000000E+00 0.  1.
         -5    1    3    3    0  501 -0.36216717172E+02 -0.30965091914E+02  0.75484634748E+02  0.89266049554E+02  0.10000000000E+00 0.  1.
         21    1    1    2  504  502 -0.59947393785E+00 -0.16987874924E+02 -0.23667179163E+02  0.29139022512E+02  0.00000000000E+00 0. -1.
<mgrwt>
<rscale>  1 0.12613721E+03</rscale>
<asrwt>0</asrwt>
<pdfrwt beam="1">  1       21 0.63721060E-01 0.12613721E+03</pdfrwt>
<pdfrwt beam="2">  1       21 0.55493036E-02 0.12613721E+03</pdfrwt>
<totfact> 0.51755654E+05</totfact>
</mgrwt>
</event>
<event>
 6    1  0.4244577E-002  0.1281986E+03  0.7546771E-02  0.1230153E+00
         21   -1    0    0  503  502  0.00000000000E+00  0.00000000000E+00  0.23821426764E+03  0.23821426764E+03  0.00000000000E+00 0. -1.
         21   -1    0    0  504  503 -0.00000000000E+00 -0.00000000000E+00 -0.32527205099E+02  0.32527205099E+02  0.00000000000E+00 0. -1.
         25    2    1    2    0    0 -0.28104339450E+02  0.41125253750E+01  0.20565198149E+03  0.24233781115E+03  0.12501244122E+03 0.  0.
          5    1    3    3  501    0 -0.74421379633E+02  0.23103483102E+02  0.13197290461E+03  0.15326177028E+03  0.10000000000E+00 0. -1.
         -5    1    3    3    0  501  0.46317040183E+02 -0.18990957727E+02  0.73679076887E+02  0.89076040873E+02  0.10000000000E+00 0. -1.
         21    1    1    2  504  502  0.28104339450E+02 -0.41125253750E+01  0.35081045772E-01  0.28403661588E+02  0.00000000000E+00 0. -1.
<mgrwt>
<rscale>  1 0.12819859E+03</rscale>
<asrwt>0</asrwt>
<pdfrwt beam="1">  1       21 0.36648348E-01 0.12819859E+03</pdfrwt>
<pdfrwt beam="2">  1       21 0.50041855E-02 0.12819859E+03</pdfrwt>
<totfact> 0.19193569E+06</totfact>
</mgrwt>
</event>
<event>
 6    1  0.4244577E-002  0.1727866E+03  0.7546771E-02  0.1174973E+00
         21   -1    0    0  504  502  0.00000000000E+00  0.00000000000E+00  0.10062605849E+03  0.10062605849E+03  0.00000000000E+00 0.  1.
         21   -1    0    0  502  503 -0.00000000000E+00 -0.00000000000E+00 -0.21242207054E+03  0.21242207054E+03  0.00000000000E+00 0.  1.
         25    2    1    2    0    0  0.46709950885E+02  0.10975390782E+03 -0.58712454318E+02  0.18248931511E+03  0.12500983178E+03 0.  0.
          5    1    3    3  501    0  0.10707309172E+02 -0.27020666040E+02 -0.21760102222E+02  0.36308055741E+02  0.10000000000E+00 0. -1.
         -5    1    3    3    0  501  0.36002641713E+02  0.13677457386E+03 -0.36952352096E+02  0.14618125937E+03  0.10000000000E+00 0. -1.
         21    1    1    2  504  503 -0.46709950885E+02 -0.10975390782E+03 -0.53083557723E+02  0.13055881392E+03  0.00000000000E+00 0.  1.
<mgrwt>
<rscale>  1 0.17278657E+03</rscale>
<asrwt>0</asrwt>
<pdfrwt beam="1">  1       21 0.15480932E-01 0.17278657E+03</pdfrwt>
<pdfrwt beam="2">  1       21 0.32680318E-01 0.17278657E+03</pdfrwt>
<totfact> 0.33519031E+05</totfact>
</mgrwt>
</event>
<event>
 6    1  0.4244577E-002  0.1522514E+03  0.7546771E-02  0.1197733E+00
         21   -1    0    0  504  502  0.00000000000E+00  0.00000000000E+00  0.13648391703E+03  0.13648391703E+03  0.00000000000E+00 0.  1.
         21   -1    0    0  502  503 -0.00000000000E+00 -0.00000000000E+00 -0.42882947645E+03  0.42882947645E+03  0.00000000000E+00 0.  1.
         25    2    1    2    0    0  0.82780303236E+02 -0.26463321620E+02  0.87533032032E+02  0.17562039862E+03  0.12501042644E+03 0.  0.
          5    1    3    3  501    0  0.18384517557E+02 -0.34939437083E+02 -0.24252477574E+02  0.46335163947E+02  0.10000000000E+00 0. -1.
         -5    1    3    3    0  501  0.64395785679E+02  0.84761154633E+01  0.11178550961E+03  0.12928523467E+03  0.10000000000E+00 0. -1.
         21    1    1    2  504  503 -0.82780303236E+02  0.26463321620E+02 -0.37987859146E+03  0.38969299486E+03  0.00000000000E+00 0.  1.
<mgrwt>
<rscale>  1 0.15225141E+03</rscale>
<asrwt>0</asrwt>
<pdfrwt beam="1">  1       21 0.20997526E-01 0.15225141E+03</pdfrwt>
<pdfrwt beam="2">  1       21 0.65973766E-01 0.15225141E+03</pdfrwt>
<totfact> 0.45389117E+04</totfact>
</mgrwt>
</event>
<event>
 6    1  0.4244577E-002  0.1273344E+03  0.7546771E-02  0.1231466E+00
         21   -1    0    0  503  502  0.00000000000E+00  0.00000000000E+00  0.18293778610E+02  0.18293778610E+02  0.00000000000E+00 0. -1.
         21   -1    0    0  504  503 -0.00000000000E+00 -0.00000000000E+00 -0.32450607976E+03  0.32450607976E+03  0.00000000000E+00 0. -1.
         25    2    1    2    0    0 -0.84917882679E+01 -0.22842897448E+02 -0.23143867423E+03  0.26415506379E+03  0.12498051594E+03 0.  0.
          5    1    3    3  501    0  0.54743370244E+02 -0.19126131354E+02 -0.71046270314E+02  0.91707295303E+02  0.10000000000E+00 0.  1.
         -5    1    3    3    0  501 -0.63235158512E+02 -0.37167660946E+01 -0.16039240391E+03  0.17244776849E+03  0.10000000000E+00 0.  1.
         21    1    1    2  504  502  0.84917882679E+01  0.22842897448E+02 -0.74773626925E+02  0.78644794585E+02  0.00000000000E+00 0. -1.
<mgrwt>
<rscale>  1 0.12733435E+03</rscale>
<asrwt>0</asrwt>
<pdfrwt beam="1">  1       21 0.28144276E-02 0.12733435E+03</pdfrwt>
<pdfrwt beam="2">  1       21 0.49924010E-01 0.12733435E+03</pdfrwt>
<totfact> 0.26681693E+06</totfact>
</mgrwt>
</event>
<event>
 6    1  0.4244577E-002  0.1283047E+03  0.7546771E-02  0.1229993E+00
         21   -1    0    0  504  502  0.00000000000E+00  0.00000000000E+00  0.68539013701E+03  0.68539013701E+03  0.00000000000E+00 0. -1.
         21   -1    0    0  502  503 -0.00000000000E+00 -0.00000000000E+00 -0.13954545761E+02  0.13954545761E+02  0.00000000000E+00 0. -1.
         25    2    1    2    0    0  0.40339754210E+01 -0.28631161811E+02  0.65200294463E+03  0.66450728707E+03  0.12500431346E+03 0.  0.
          5    1    3    3  501    0  0.19378430936E+02  0.20999879492E+02  0.34385658454E+02  0.44709082204E+02  0.10000000000E+00 0.  1.
         -5    1    3    3    0  501 -0.15344455515E+02 -0.49631041303E+02  0.61761728618E+03  0.61979820487E+03  0.10000000000E+00 0.  1.
         21    1    1    2  504  503 -0.40339754210E+01  0.28631161811E+02  0.19432646618E+02  0.34837395697E+02  0.00000000000E+00 0. -1.
<mgrwt>
<rscale>  1 0.12830470E+03</rscale>
<asrwt>0</asrwt>
<pdfrwt beam="1">  1       21 0.10544461E+00 0.12830470E+03</pdfrwt>
<pdfrwt beam="2">  1       21 0.21468537E-02 0.12830470E+03</pdfrwt>
<totfact> 0.79960607E+05</totfact>
</mgrwt>
</event>
<event>
 6    1  0.4244577E-002  0.1459058E+03  0.7546771E-02  0.1205596E+00
         21   -1    0    0  503  502  0.00000000000E+00  0.00000000000E+00  0.23354514382E+04  0.23354514382E+04  0.00000000000E+00 0.  1.
         21   -1    0    0  504  503 -0.00000000000E+00 -0.00000000000E+00 -0.69485932927E+01  0.69485932927E+01  0.00000000000E+00 0.  1.
         25    2    1    2    0    0 -0.65137882964E+02  0.37682060151E+02  0.20032003691E+04  0.20085069614E+04  0.12500245594E+03 0.  0.
          5    1    3    3  501    0 -0.19496044009E+02 -0.28800807420E+01  0.16465032482E+04  0.16466211911E+04  0.10000000000E+00 0.  1.
         -5    1    3    3    0  501 -0.45641838955E+02  0.40562140893E+02  0.35669712088E+03  0.36188577035E+03  0.10000000000E+00 0.  1.
         21    1    1    2  504  502  0.65137882964E+02 -0.37682060151E+02  0.32530247585E+03  0.33389307008E+03  0.00000000000E+00 0.  1.
<mgrwt>
<rscale>  1 0.14590578E+03</rscale>
<asrwt>0</asrwt>
<pdfrwt beam="1">  1       21 0.35929960E+00 0.14590578E+03</pdfrwt>
<pdfrwt beam="2">  1       21 0.10690162E-02 0.14590578E+03</pdfrwt>
<totfact> 0.54828326E+04</totfact>
</mgrwt>
</event>
<event>
 6    1  0.4244577E-002  0.1261024E+03  0.7546771E-02  0.1233356E+00
         21   -1    0    0  503  502  0.00000000000E+00  0.00000000000E+00  0.36510734679E+02  0.36510734679E+02  0.00000000000E+00 0. -1.
         21   -1    0    0  504  503 -0.00000000000E+00 -0.00000000000E+00 -0.34314262560E+03  0.34314262560E+03  0.00000000000E+00 0. -1.
         25    2    1    2    0    0  0.16796474534E+02 -0.67212641132E+00 -0.73586985355E+02  0.14600297761E+03  0.12497700487E+03 0.  0.
          5    1    3    3  501    0  0.35062162021E+02 -0.33697004439E+02 -0.91961588616E+02  0.10402781885E+03  0.10000000000E+00 0. -1.
         -5    1    3    3    0  501 -0.18265687487E+02  0.33024878028E+02  0.18374603261E+02  0.41975158762E+02  0.10000000000E+00 0. -1.
         21    1    1    2  504  502 -0.16796474534E+02  0.67212641132E+00 -0.23304490557E+03  0.23365038267E+03  0.00000000000E+00 0. -1.
<mgrwt>
<rscale>  1 0.12610244E+03</rscale>
<asrwt>0</asrwt>
<pdfrwt beam="1">  1       21 0.56170359E-02 0.12610244E+03</pdfrwt>
<pdfrwt beam="2">  1       21 0.52791175E-01 0.12610244E+03</pdfrwt>
<totfact> 0.75430004E+05</totfact>
</mgrwt>
</event>
<event>
 6    1  0.4244577E-002  0.1303308E+03  0.7546771E-02  0.1226966E+00
         21   -1    0    0  503  502  0.00000000000E+00  0.00000000000E+00  0.15926986087E+03  0.15926986087E+03  0.00000000000E+00 0.  1.
         21   -1    0    0  504  503 -0.00000000000E+00 -0.00000000000E+00 -0.17707052547E+03  0.17707052547E+03  0.00000000000E+00 0. -1.
         25    2    1    2    0    0  0.25738351354E+02  0.26414904173E+02  0.12995579858E+03  0.18405058924E+03  0.12500359964E+03 0.  0.
          5    1    3    3  501    0 -0.46134702219E+02  0.33604723776E+02  0.68908873420E+02  0.89476986119E+02  0.10000000000E+00 0.  1.
         -5    1    3    3    0  501  0.71873053573E+02 -0.71898196025E+01  0.61046925157E+02  0.94573603120E+02  0.10000000000E+00 0.  1.
         21    1    1    2  504  502 -0.25738351354E+02 -0.26414904173E+02 -0.14775646317E+03  0.15228979710E+03  0.00000000000E+00 0. -1.
<mgrwt>
<rscale>  1 0.13033077E+03</rscale>
<asrwt>0</asrwt>
<pdfrwt beam="1">  1       21 0.24503055E-01 0.13033077E+03</pdfrwt>
<pdfrwt beam="2">  1       21 0.27241620E-01 0.13033077E+03</pdfrwt>
<totfact> 0.20559571E+05</totfact>
</mgrwt>
</event>
<event>
 6    1  0.4244577E-002  0.1263169E+03  0.7546771E-02  0.1233025E+00
         21   -1    0    0  504  502  0.00000000000E+00  0.00000000000E+00  0.11697693006E+03  0.11697693006E+03  0.00000000000E+00 0. -1.
         21   -1    0    0  502  503 -0.00000000000E+00 -0.00000000000E+00 -0.45248703375E+02  0.45248703375E+02  0.00000000000E+00 0. -1.
         25    2    1    2    0    0  0.15500815558E+01 -0.18132363468E+02  0.68657052357E+02  0.14376980862E+03  0.12499912670E+03 0.  0.
          5    1    3    3  501    0  0.45449437714E+02  0.32771493538E+02  0.15682929754E+02  0.58185792621E+02  0.10000000000E+00 0. -1.
         -5    1    3    3    0  501 -0.43899356158E+02 -0.50903857006E+02  0.52974122603E+02  0.85584016000E+02  0.10000000000E+00 0. -1.
         21    1    1    2  504  503 -0.15500815558E+01  0.18132363468E+02  0.30711743257E+01  0.18455824812E+02  0.00000000000E+00 0. -1.
<mgrwt>
<rscale>  1 0.12631693E+03</rscale>
<asrwt>0</asrwt>
<pdfrwt beam="1">  1       21 0.17996451E-01 0.12631693E+03</pdfrwt>
<pdfrwt beam="2">  1       21 0.69613390E-02 0.12631693E+03</pdfrwt>
<totfact> 0.42282887E+06</totfact>
</mgrwt>
</event>
<event>
 6    1  0.4244577E-002  0.1514018E+03  0.7546771E-02  0.1198761E+00
         21   -1    0    0  503  502  0.00000000000E+00  0.00000000000E+00  0.45324600087E+02  0.45324600087E+02  0.00000000000E+00 0.  1.
         21   -1    0    0  504  503 -0.00000000000E+00 -0.00000000000E+00 -0.34253230113E+03  0.34253230113E+03  0.00000000000E+00 0.  1.
         25    2    1    2    0    0  0.67043205471E+02  0.52964139020E+02 -0.12782688773E+03  0.19814698756E+03  0.12499009573E+03 0.  0.
          5    1    3    3  501    0  0.46824081673E+02 -0.30750128121E+02 -0.85421965245E+02  0.10215178486E+03  0.10000000000E+00 0. -1.
         -5    1    3    3    0  501  0.20219123798E+02  0.83714267141E+02 -0.42404922486E+02  0.95995202699E+02  0.10000000000E+00 0. -1.
         21    1    1    2  504  502 -0.67043205471E+02 -0.52964139020E+02 -0.16938081331E+03  0.18970991366E+03  0.00000000000E+00 0.  1.
<mgrwt>
<rscale>  1 0.15140183E+03</rscale>
<asrwt>0</asrwt>
<pdfrwt beam="1">  1       21 0.69730158E-02 0.15140183E+03</pdfrwt>
<pdfrwt beam="2">  1       21 0.52697274E-01 0.15140183E+03</pdfrwt>
<totfact> 0.52315760E+05</totfact>
</mgrwt>
</event>
<event>
 6    1  0.4244577E-002  0.1260344E+03  0.7546771E-02  0.1233462E+00
         21   -1    0    0  503  502  0.00000000000E+00  0.00000000000E+00  0.11022528090E+04  0.11022528090E+04  0.00000000000E+00 0.  1.
         21   -1    0    0  504  503 -0.00000000000E+00 -0.00000000000E+00 -0.47543966467E+01  0.47543966467E+01  0.00000000000E+00 0.  1.
         25    2    1    2    0    0 -0.94108484451E+01 -0.13056485756E+02  0.10264453851E+04  0.10341541441E+04  0.12500251744E+03 0.  0.
          5    1    3    3  501    0 -0.19347154896E+02  0.48004339488E+02  0.69917190940E+03  0.70108494343E+03  0.10000000000E+00 0. -1.
         -5    1    3    3    0  501  0.99363064507E+01 -0.61060825244E+02  0.32727347567E+03  0.33306920068E+03  0.10000000000E+00 0. -1.
         21    1    1    2  504  502  0.94108484451E+01  0.13056485756E+02  0.71053027290E+02  0.72853061541E+02  0.00000000000E+00 0.  1.
<mgrwt>
<rscale>  1 0.12603438E+03</rscale>
<asrwt>0</asrwt>
<pdfrwt beam="1">  1       21 0.16957715E+00 0.12603438E+03</pdfrwt>
<pdfrwt beam="2">  1       21 0.73144651E-03 0.12603438E+03</pdfrwt>
<totfact> 0.13379571E+06</totfact>
</mgrwt>
</event>
<event>
 6    1  0.4244577E-002  0.1259625E+03  0.7546771E-02  0.1233573E+00
         21   -1    0    0  503  502  0.00000000000E+00  0.00000000000E+00  0.90646798970E+02  0.90646798970E+02  0.00000000000E+00 0.  1.
         21   -1    0    0  504  503 -0.00000000000E+00 -0.00000000000E+00 -0.15277602273E+03  0.15277602273E+03  0.00000000000E+00 0.  1.
         25    2    1    2    0    0 -0.74603456153E+01 -0.13843105214E+02  0.46042839571E+02  0.13411370221E+03  0.12497701279E+03 0.  0.
          5    1    3    3  501    0 -0.58140493617E+02  0.23680976553E+02  0.25948431998E+02  0.67929645750E+02  0.10000000000E+00 0. -1.
         -5    1    3    3    0  501  0.50680148001E+02 -0.37524081767E+02  0.20094407572E+02  0.66184056460E+02  0.10000000000E+00 0. -1.
         21    1    1    2  504  502  0.74603456153E+01  0.13843105214E+02 -0.10817206333E+03  0.10930911949E+03  0.00000000000E+00 0.  1.
<mgrwt>
<rscale>  1 0.12596246E+03</rscale>
<asrwt>0</asrwt>
<pdfrwt beam="1">  1       21 0.13945661E-01 0.12596246E+03</pdfrwt>
<pdfrwt beam="2">  1       21 0.23504003E-01 0.12596246E+03</pdfrwt>
<totfact> 0.76550884E+05</totfact>
</mgrwt>
</event>
<event>
 6    1  0.4244577E-002  0.1274020E+03  0.7546771E-02  0.1231362E+00
         21   -1    0    0  504  502  0.00000000000E+00  0.00000000000E+00  0.14472475787E+03  0.14472475787E+03  0.00000000000E+00 0.  1.
         21   -1    0    0  502  503 -0.00000000000E+00 -0.00000000000E+00 -0.58312947618E+02  0.58312947618E+02  0.00000000000E+00 0.  1.
         25    2    1    2    0    0  0.24099417764E+02  0.52998214166E+01  0.11043208981E+03  0.16860162159E+03  0.12498956076E+03 0.  0.
          5    1    3    3  501    0  0.45738918369E+02 -0.33203257402E+02  0.11085504102E+03  0.12443213040E+03  0.10000000000E+00 0.  1.
         -5    1    3    3    0  501 -0.21639500605E+02  0.38503078819E+02 -0.42295120429E+00  0.44169491198E+02  0.10000000000E+00 0.  1.
         21    1    1    2  504  503 -0.24099417764E+02 -0.52998214166E+01 -0.24020279563E+02  0.34436083893E+02  0.00000000000E+00 0.  1.
<mgrwt>
<rscale>  1 0.12740196E+03</rscale>
<asrwt>0</asrwt>
<pdfrwt beam="1">  1       21 0.22265347E-01 0.12740196E+03</pdfrwt>
<pdfrwt beam="2">  1       21 0.89712228E-02 0.12740196E+03</pdfrwt>
<totfact> 0.18438407E+06</totfact>
</mgrwt>
</event>
<event>
 6    1  0.4244577E-002  0.1324341E+03  0.7546771E-02  0.1223888E+00
         21   -1    0    0  503  502  0.00000000000E+00  0.00000000000E+00  0.16164546587E+03  0.16164546587E+03  0.00000000000E+00 0. -1.
         21   -1    0    0  504  503 -0.00000000000E+00 -0.00000000000E+00 -0.85831047592E+02  0.85831047592E+02  0.00000000000E+00 0. -1.
         25    2    1    2    0    0  0.42724744218E+02 -0.95462472868E+01  0.12466530965E+03  0.18187968280E+03  0.12498897943E+03 0.  0.
          5    1    3    3  501    0  0.59081162602E+02 -0.93172922918E+01  0.14437023811E+03  0.15626954714E+03  0.10000000000E+00 0.  1.
         -5    1    3    3    0  501 -0.16356418384E+02 -0.22895499498E+00 -0.19704928465E+02  0.25610135661E+02  0.10000000000E+00 0.  1.
         21    1    1    2  504  502 -0.42724744218E+02  0.95462472868E+01 -0.48850891369E+02  0.65596830665E+02  0.00000000000E+00 0. -1.
<mgrwt>
<rscale>  1 0.13243406E+03</rscale>
<asrwt>0</asrwt>
<pdfrwt beam="1">  1       21 0.24868533E-01 0.13243406E+03</pdfrwt>
<pdfrwt beam="2">  1       21 0.13204777E-01 0.13243406E+03</pdfrwt>
<totfact> 0.75904452E+05</totfact>
</mgrwt>
</event>
<event>
 6    1  0.4244577E-002  0.1259741E+03  0.7546771E-02  0.1233555E+00
         21   -1    0    0  504  502  0.00000000000E+00  0.00000000000E+00  0.18210277650E+03  0.18210277650E+03  0.00000000000E+00 0. -1.
         21   -1    0    0  502  503 -0.00000000000E+00 -0.00000000000E+00 -0.61982459155E+03  0.61982459155E+03  0.00000000000E+00 0. -1.
         25    2    1    2    0    0  0.12625589723E+02 -0.92903466947E+01  0.16020133600E+03  0.20379877767E+03  0.12499503055E+03 0.  0.
          5    1    3    3  501    0 -0.30040767657E+02  0.28864663371E+02  0.96924906669E+01  0.42773483471E+02  0.10000000000E+00 0. -1.
         -5    1    3    3    0  501  0.42666357380E+02 -0.38155010066E+02  0.15050884534E+03  0.16102529419E+03  0.10000000000E+00 0. -1.
         21    1    1    2  504  503 -0.12625589723E+02  0.92903466947E+01 -0.59792315106E+03  0.59812859039E+03  0.00000000000E+00 0. -1.
<mgrwt>
<rscale>  1 0.12597410E+03</rscale>
<asrwt>0</asrwt>
<pdfrwt beam="1">  1       21 0.28015812E-01 0.12597410E+03</pdfrwt>
<pdfrwt beam="2">  1       21 0.95357628E-01 0.12597410E+03</pdfrwt>
<totfact> 0.11760220E+04</totfact>
</mgrwt>
</event>
<event>
 6    1  0.4244577E-002  0.1264190E+03  0.7546771E-02  0.1232868E+00
         21   -1    0    0  503  502  0.00000000000E+00  0.00000000000E+00  0.10172123427E+04  0.10172123427E+04  0.00000000000E+00 0. -1.
         21   -1    0    0  504  503 -0.00000000000E+00 -0.00000000000E+00 -0.58090970416E+01  0.58090970416E+01  0.00000000000E+00 0. -1.
         25    2    1    2    0    0  0.12410187861E+02 -0.14182366382E+02  0.95970208136E+03  0.96799269572E+03  0.12500648670E+03 0.  0.
          5    1    3    3  501    0 -0.69655200334E+01  0.34854154685E+02  0.77757926652E+03  0.77839119747E+03  0.10000000000E+00 0.  1.
         -5    1    3    3    0  501  0.19375707894E+02 -0.49036521067E+02  0.18212281484E+03  0.18960149825E+03  0.10000000000E+00 0.  1.
         21    1    1    2  504  502 -0.12410187861E+02  0.14182366382E+02  0.51701164289E+02  0.55028744014E+02  0.00000000000E+00 0. -1.
<mgrwt>
<rscale>  1 0.12641904E+03</rscale>
<asrwt>0</asrwt>
<pdfrwt beam="1">  1       21 0.15649407E+00 0.12641904E+03</pdfrwt>
<pdfrwt beam="2">  1       21 0.89370804E-03 0.12641904E+03</pdfrwt>
<totfact> 0.12109163E+06</totfact>
</mgrwt>
</event>
<event>
 6    1  0.4244577E-002  0.1333585E+03  0.7546771E-02  0.1222556E+00
         21   -1    0    0  504  502  0.00000000000E+00  0.00000000000E+00  0.70213476495E+01  0.70213476495E+01  0.00000000000E+00 0. -1.
         21   -1    0    0  502  503 -0.00000000000E+00 -0.00000000000E+00 -0.14934091939E+04  0.14934091939E+04  0.00000000000E+00 0. -1.
         25    2    1    2    0    0  0.72274355589E+01 -0.45906977011E+02 -0.69497312337E+03  0.70765254617E+03  0.12499919013E+03 0.  0.
          5    1    3    3  501    0 -0.17175860181E+02  0.39207932141E+02 -0.28757654977E+03  0.29074482643E+03  0.10000000000E+00 0. -1.
         -5    1    3    3    0  501  0.24403295740E+02 -0.85114909152E+02 -0.40739657359E+03  0.41690771974E+03  0.10000000000E+00 0. -1.
         21    1    1    2  504  503 -0.72274355589E+01  0.45906977011E+02 -0.79141472291E+03  0.79277799541E+03  0.00000000000E+00 0. -1.
<mgrwt>
<rscale>  1 0.13335848E+03</rscale>
<asrwt>0</asrwt>
<pdfrwt beam="1">  1       21 0.10802069E-02 0.13335848E+03</pdfrwt>
<pdfrwt beam="2">  1       21 0.22975536E+00 0.13335848E+03</pdfrwt>
<totfact> 0.30081270E+05</totfact>
</mgrwt>
</event>
<event>
 6    1  0.4244577E-002  0.1387496E+03  0.7546771E-02  0.1215021E+00
         21   -1    0    0  503  502  0.00000000000E+00  0.00000000000E+00  0.50166669493E+03  0.50166669493E+03  0.00000000000E+00 0.  1.
         21   -1    0    0  504  503 -0.00000000000E+00 -0.00000000000E+00 -0.36743661868E+02  0.36743661868E+02  0.00000000000E+00 0.  1.
         25    2    1    2    0    0 -0.57516787345E+02  0.17828328113E+02  0.45709212714E+03  0.47768677656E+03  0.12500165477E+03 0.  0.
          5    1    3    3  501    0 -0.21415785942E+02 -0.35296092788E+02  0.46841877717E+02  0.62438942670E+02  0.10000000000E+00 0.  1.
         -5    1    3    3    0  501 -0.36101001402E+02  0.53124420901E+02  0.41025024942E+03  0.41524783389E+03  0.10000000000E+00 0.  1.
         21    1    1    2  504  502  0.57516787345E+02 -0.17828328113E+02  0.78309059250E+01  0.60723580241E+02  0.00000000000E+00 0.  1.
<mgrwt>
<rscale>  1 0.13874957E+03</rscale>
<asrwt>0</asrwt>
<pdfrwt beam="1">  1       21 0.77179487E-01 0.13874957E+03</pdfrwt>
<pdfrwt beam="2">  1       21 0.56528714E-02 0.13874957E+03</pdfrwt>
<totfact> 0.32954785E+05</totfact>
</mgrwt>
</event>
<event>
 6    1  0.4244577E-002  0.1272602E+03  0.7546771E-02  0.1231579E+00
         21   -1    0    0  503  502  0.00000000000E+00  0.00000000000E+00  0.53128237237E+02  0.53128237237E+02  0.00000000000E+00 0. -1.
         21   -1    0    0  504  503 -0.00000000000E+00 -0.00000000000E+00 -0.25246461173E+03  0.25246461173E+03  0.00000000000E+00 0. -1.
         25    2    1    2    0    0 -0.22964413737E+02 -0.65191129453E+01 -0.25078866074E+02  0.12970782296E+03  0.12500122672E+03 0.  0.
          5    1    3    3  501    0 -0.51400538144E+02  0.26278977987E+02  0.25453020966E+02  0.63090936606E+02  0.10000000000E+00 0.  1.
         -5    1    3    3    0  501  0.28436124407E+02 -0.32798090932E+02 -0.50531887040E+02  0.66616886357E+02  0.10000000000E+00 0.  1.
         21    1    1    2  504  502  0.22964413737E+02  0.65191129453E+01 -0.17425750842E+03  0.17588502600E+03  0.00000000000E+00 0. -1.
<mgrwt>
<rscale>  1 0.12726024E+03</rscale>
<asrwt>0</asrwt>
<pdfrwt beam="1">  1       21 0.81735749E-02 0.12726024E+03</pdfrwt>
<pdfrwt beam="2">  1       21 0.38840710E-01 0.12726024E+03</pdfrwt>
<totfact> 0.74214477E+05</totfact>
</mgrwt>
</event>
<event>
 6    1  0.4244577E-002  0.1568493E+03  0.7546771E-02  0.1192300E+00
         21   -1    0    0  504  502  0.00000000000E+00  0.00000000000E+00  0.17809411781E+03  0.17809411781E+03  0.00000000000E+00 0. -1.
         21   -1    0    0  502  503 -0.00000000000E+00 -0.00000000000E+00 -0.11638322966E+03  0.11638322966E+03  0.00000000000E+00 0. -1.
         25    2    1    2    0    0 -0.94530499315E+02 -0.63079611277E+01  0.10659496960E+03  0.18964230351E+03  0.12500364019E+03 0.  0.
          5    1    3    3  501    0 -0.18645956481E+02 -0.24139460907E+01  0.11190407512E+03  0.11347259959E+03  0.10000000000E+00 0.  1.
         -5    1    3    3    0  501 -0.75884542834E+02 -0.38940150370E+01 -0.53091055144E+01  0.76169703922E+02  0.10000000000E+00 0.  1.
         21    1    1    2  504  503  0.94530499315E+02  0.63079611277E+01 -0.44884081447E+02  0.10483504396E+03  0.00000000000E+00 0. -1.
<mgrwt>
<rscale>  1 0.15684934E+03</rscale>
<asrwt>0</asrwt>
<pdfrwt beam="1">  1       21 0.27399095E-01 0.15684934E+03</pdfrwt>
<pdfrwt beam="2">  1       21 0.17905112E-01 0.15684934E+03</pdfrwt>
<totfact> 0.36284735E+05</totfact>
</mgrwt>
</event>
<event>
 6    1  0.4244577E-002  0.1277500E+03  0.7546771E-02  0.1230833E+00
         21   -1    0    0  504  502  0.00000000000E+00  0.00000000000E+00  0.20737052229E+02  0.20737052229E+02  0.00000000000E+00 0. -1.
         21   -1    0    0  502  503 -0.00000000000E+00 -0.00000000000E+00 -0.32802957774E+03  0.32802957774E+03  0.00000000000E+00 0. -1.
         25    2    1    2    0    0 -0.16969804780E+02 -0.20186595799E+02 -0.19284980720E+03  0.23132469241E+03  0.12499836901E+03 0.  0.
          5    1    3    3  501    0  0.54559495259E+02 -0.10352822837E+02 -0.85584162354E+02  0.10202244022E+03  0.10000000000E+00 0.  1.
         -5    1    3    3    0  501 -0.71529300039E+02 -0.98337729618E+01 -0.10726564485E+03  0.12930225218E+03  0.10000000000E+00 0.  1.
         21    1    1    2  504  503  0.16969804780E+02  0.20186595799E+02 -0.11444271830E+03  0.11744193756E+03  0.00000000000E+00 0.  1.
<mgrwt>
<rscale>  1 0.12775001E+03</rscale>
<asrwt>0</asrwt>
<pdfrwt beam="1">  1       21 0.31903159E-02 0.12775001E+03</pdfrwt>
<pdfrwt beam="2">  1       21 0.50466086E-01 0.12775001E+03</pdfrwt>
<totfact> 0.21247737E+06</totfact>
</mgrwt>
</event>
<event>
 6    1  0.4244577E-002  0.1283686E+03  0.7546771E-02  0.1229897E+00
         21   -1    0    0  504  502  0.00000000000E+00  0.00000000000E+00  0.60353730443E+02  0.60353730443E+02  0.00000000000E+00 0.  1.
         21   -1    0    0  502  503 -0.00000000000E+00 -0.00000000000E+00 -0.11100220319E+03  0.11100220319E+03  0.00000000000E+00 0. -1.
         25    2    1    2    0    0  0.89726924643E+00 -0.29191470996E+02 -0.21616759026E+02  0.13017599346E+03  0.12500223171E+03 0.  0.
          5    1    3    3  501    0  0.26273138760E+02  0.29079183309E+02  0.29142080114E+02  0.48837972476E+02  0.10000000000E+00 0.  1.
         -5    1    3    3    0  501 -0.25375869513E+02 -0.58270654305E+02 -0.50758839140E+02  0.81338020984E+02  0.10000000000E+00 0.  1.
         21    1    1    2  504  503 -0.89726924643E+00  0.29191470996E+02 -0.29031713718E+02  0.41179940171E+02  0.00000000000E+00 0. -1.
<mgrwt>
<rscale>  1 0.12836863E+03</rscale>
<asrwt>0</asrwt>
<pdfrwt beam="1">  1       21 0.92851893E-02 0.12836863E+03</pdfrwt>
<pdfrwt beam="2">  1       21 0.17077262E-01 0.12836863E+03</pdfrwt>
<totfact> 0.28335013E+06</totfact>
</mgrwt>
</event>
<event>
 6    1  0.4244577E-002  0.1486926E+03  0.7546771E-02  0.1202089E+00
         21   -1    0    0  503  502  0.00000000000E+00  0.00000000000E+00  0.39165619592E+02  0.39165619592E+02  0.00000000000E+00 0. -1.
         21   -1    0    0  504  503 -0.00000000000E+00 -0.00000000000E+00 -0.37310147621E+03  0.37310147621E+03  0.00000000000E+00 0. -1.
         25    2    1    2    0    0  0.12493182585E+02 -0.79551210042E+02 -0.27448671637E+03  0.31217376482E+03  0.12500010940E+03 0.  0.
          5    1    3    3  501    0  0.63688753589E+02 -0.25051226370E+02 -0.17355503580E+03  0.18656146903E+03  0.10000000000E+00 0.  1.
         -5    1    3    3    0  501 -0.51195571004E+02 -0.54499983672E+02 -0.10093168057E+03  0.12561229579E+03  0.10000000000E+00 0.  1.
         21    1    1    2  504  502 -0.12493182585E+02  0.79551210042E+02 -0.59449140246E+02  0.10009333098E+03  0.00000000000E+00 0. -1.
<mgrwt>
<rscale>  1 0.14869264E+03</rscale>
<asrwt>0</asrwt>
<pdfrwt beam="1">  1       21 0.60254798E-02 0.14869264E+03</pdfrwt>
<pdfrwt beam="2">  1       21 0.57400228E-01 0.14869264E+03</pdfrwt>
<totfact> 0.56122715E+05</totfact>
</mgrwt>
</event>
<event>
 6    1  0.4244577E-002  0.1276710E+03  0.7546771E-02  0.1230953E+00
         21   -1    0    0  503  502  0.00000000000E+00  0.00000000000E+00  0.42967716566E+02  0.42967716566E+02  0.00000000000E+00 0.  1.
         21   -1    0    0  504  503 -0.00000000000E+00 -0.00000000000E+00 -0.22086534501E+03  0.22086534501E+03  0.00000000000E+00 0.  1.
         25    2    1    2    0    0  0.19551458742E+02 -0.17073944056E+02 -0.56365537709E+02  0.13955986180E+03  0.12500440824E+03 0.  0.
          5    1    3    3  501    0  0.49753072523E+02 -0.25507935313E+02  0.18094850347E+02  0.58766117776E+02  0.10000000000E+00 0.  1.
         -5    1    3    3    0  501 -0.30201613781E+02  0.84339912568E+01 -0.74460388057E+02  0.80793744021E+02  0.10000000000E+00 0.  1.
         21    1    1    2  504  502 -0.19551458742E+02  0.17073944056E+02 -0.12153209074E+03  0.12427319978E+03  0.00000000000E+00 0.  1.
<mgrwt>
<rscale>  1 0.12767099E+03</rscale>
<asrwt>0</asrwt>
<pdfrwt beam="1">  1       21 0.66104180E-02 0.12767099E+03</pdfrwt>
<pdfrwt beam="2">  1       21 0.33979284E-01 0.12767099E+03</pdfrwt>
<totfact> 0.13905045E+06</totfact>
</mgrwt>
</event>
<event>
 6    1  0.4244577E-002  0.1498627E+03  0.7546771E-02  0.1200642E+00
         21   -1    0    0  503  502  0.00000000000E+00  0.00000000000E+00  0.61455436474E+02  0.61455436474E+02  0.00000000000E+00 0.  1.
         21   -1    0    0  504  503 -0.00000000000E+00 -0.00000000000E+00 -0.50615965438E+03  0.50615965438E+03  0.00000000000E+00 0.  1.
         25    2    1    2    0    0 -0.24890345328E+02 -0.78873171900E+02 -0.40782481145E+02  0.15531268246E+03  0.12497324526E+03 0.  0.
          5    1    3    3  501    0  0.76180264274E+01 -0.37500032866E+02  0.42255869293E+02  0.57007501974E+02  0.10000000000E+00 0. -1.
         -5    1    3    3    0  501 -0.32508371755E+02 -0.41373139034E+02 -0.83038350438E+02  0.98305180490E+02  0.10000000000E+00 0. -1.
         21    1    1    2  504  502  0.24890345328E+02  0.78873171900E+02 -0.40392173677E+03  0.41230240839E+03  0.00000000000E+00 0.  1.
<mgrwt>
<rscale>  1 0.14986267E+03</rscale>
<asrwt>0</asrwt>
<pdfrwt beam="1">  1       21 0.94546824E-02 0.14986267E+03</pdfrwt>
<pdfrwt beam="2">  1       21 0.77870717E-01 0.14986267E+03</pdfrwt>
<totfact> 0.13297069E+05</totfact>
</mgrwt>
</event>
<event>
 6    1  0.4244577E-002  0.1996249E+03  0.7546771E-02  0.1150056E+00
         21   -1    0    0  504  502  0.00000000000E+00  0.00000000000E+00  0.14075379817E+04  0.14075379817E+04  0.00000000000E+00 0. -1.
         21   -1    0    0  502  503 -0.00000000000E+00 -0.00000000000E+00 -0.60278836401E+02  0.60278836401E+02  0.00000000000E+00 0. -1.
         25    2    1    2    0    0  0.21421944627E+02 -0.15416116055E+03  0.12846274076E+04  0.13000452540E+04  0.12500209198E+03 0.  0.
          5    1    3    3  501    0  0.29591729134E+02 -0.81412465570E+02  0.10654482103E+04  0.10689637780E+04  0.10000000000E+00 0. -1.
         -5    1    3    3    0  501 -0.81697845074E+01 -0.72748694979E+02  0.21917919737E+03  0.23108147602E+03  0.10000000000E+00 0. -1.
         21    1    1    2  504  503 -0.21421944627E+02  0.15416116055E+03  0.62631737627E+02  0.16777156401E+03  0.00000000000E+00 0. -1.
<mgrwt>
<rscale>  1 0.19962486E+03</rscale>
<asrwt>0</asrwt>
<pdfrwt beam="1">  1       21 0.21654428E+00 0.19962486E+03</pdfrwt>
<pdfrwt beam="2">  1       21 0.92736682E-02 0.19962486E+03</pdfrwt>
<totfact> 0.97316776E+03</totfact>
</mgrwt>
</event>
<event>
 6    1  0.4244577E-002  0.1852051E+03  0.7546771E-02  0.1162859E+00
         21   -1    0    0  503  502  0.00000000000E+00  0.00000000000E+00  0.35471286369E+03  0.35471286369E+03  0.00000000000E+00 0. -1.
         21   -1    0    0  504  503 -0.00000000000E+00 -0.00000000000E+00 -0.90195566793E+02  0.90195566793E+02  0.00000000000E+00 0. -1.
         25    2    1    2    0    0 -0.28298340049E+01 -0.13663048310E+03  0.24459788133E+03  0.30680455658E+03  0.12500006206E+03 0.  0.
          5    1    3    3  501    0 -0.45731859326E+02 -0.20392101545E+02  0.12474482381E+03  0.13441920186E+03  0.10000000000E+00 0. -1.
         -5    1    3    3    0  501  0.42902025321E+02 -0.11623838155E+03  0.11985305752E+03  0.17238535471E+03  0.10000000000E+00 0. -1.
         21    1    1    2  504  502  0.28298340049E+01  0.13663048310E+03  0.19919415568E+02  0.13810387391E+03  0.00000000000E+00 0. -1.
<mgrwt>
<rscale>  1 0.18520505E+03</rscale>
<asrwt>0</asrwt>
<pdfrwt beam="1">  1       21 0.54571209E-01 0.18520505E+03</pdfrwt>
<pdfrwt beam="2">  1       21 0.13876241E-01 0.18520505E+03</pdfrwt>
<totfact> 0.14364546E+05</totfact>
</mgrwt>
</event>
<event>
 6    1  0.4244577E-002  0.1337334E+03  0.7546771E-02  0.1222019E+00
         21   -1    0    0  503  502  0.00000000000E+00  0.00000000000E+00  0.35702263085E+02  0.35702263085E+02  0.00000000000E+00 0. -1.
         21   -1    0    0  504  503 -0.00000000000E+00 -0.00000000000E+00 -0.24990060259E+03  0.24990060259E+03  0.00000000000E+00 0. -1.
         25    2    1    2    0    0  0.39180986461E+01  0.47375428596E+02 -0.11821216214E+03  0.17849017279E+03  0.12499937509E+03 0.  0.
          5    1    3    3  501    0  0.38347777241E+01 -0.31918083213E+02  0.44254243550E+01  0.32450946626E+02  0.10000000000E+00 0.  1.
         -5    1    3    3    0  501  0.83320922019E-01  0.79293511809E+02 -0.12263758649E+03  0.14603922616E+03  0.10000000000E+00 0.  1.
         21    1    1    2  504  502 -0.39180986461E+01 -0.47375428596E+02 -0.95986177369E+02  0.10711269289E+03  0.00000000000E+00 0. -1.
<mgrwt>
<rscale>  1 0.13373342E+03</rscale>
<asrwt>0</asrwt>
<pdfrwt beam="1">  1       21 0.54926559E-02 0.13373342E+03</pdfrwt>
<pdfrwt beam="2">  1       21 0.38446246E-01 0.13373342E+03</pdfrwt>
<totfact> 0.14934163E+06</totfact>
</mgrwt>
</event>
<event>
 6    1  0.4244577E-002  0.1422174E+03  0.7546771E-02  0.1210376E+00
         21   -1    0    0  503  502  0.00000000000E+00  0.00000000000E+00  0.58518328018E+02  0.58518328018E+02  0.00000000000E+00 0.  1.
         21   -1    0    0  504  503 -0.00000000000E+00 -0.00000000000E+00 -0.18854583010E+03  0.18854583010E+03  0.00000000000E+00 0.  1.
         25    2    1    2    0    0  0.48459245554E+02 -0.47483794815E+02 -0.86560827369E+02  0.16648896926E+03  0.12499116289E+03 0.  0.
          5    1    3    3  501    0 -0.38035031595E+02  0.53956271369E+01 -0.38166829009E+02  0.54152500009E+02  0.10000000000E+00 0. -1.
         -5    1    3    3    0  501  0.86494277150E+02 -0.52879421952E+02 -0.48393998360E+02  0.11233646925E+03  0.10000000000E+00 0. -1.
         21    1    1    2  504  502 -0.48459245554E+02  0.47483794815E+02 -0.43466674714E+02  0.80575188864E+02  0.00000000000E+00 0.  1.
<mgrwt>
<rscale>  1 0.14221744E+03</rscale>
<asrwt>0</asrwt>
<pdfrwt beam="1">  1       21 0.90028195E-02 0.14221744E+03</pdfrwt>
<pdfrwt beam="2">  1       21 0.29007051E-01 0.14221744E+03</pdfrwt>
<totfact> 0.11118863E+06</totfact>
</mgrwt>
</event>
<event>
 6    1  0.4244577E-002  0.1266934E+03  0.7546771E-02  0.1232446E+00
         21   -1    0    0  504  502  0.00000000000E+00  0.00000000000E+00  0.23920872605E+03  0.23920872605E+03  0.00000000000E+00 0. -1.
         21   -1    0    0  502  503 -0.00000000000E+00 -0.00000000000E+00 -0.55712956749E+02  0.55712956749E+02  0.00000000000E+00 0. -1.
         25    2    1    2    0    0 -0.22219687914E+01  0.20529136773E+02  0.21948679715E+03  0.25342786775E+03  0.12499938970E+03 0.  0.
          5    1    3    3  501    0 -0.59562643033E+01  0.22542667561E+02  0.23560725402E+03  0.23675818273E+03  0.10000000000E+00 0. -1.
         -5    1    3    3    0  501  0.37342955119E+01 -0.20135307882E+01 -0.16120456862E+02  0.16669685019E+02  0.10000000000E+00 0. -1.
         21    1    1    2  504  503  0.22219687914E+01 -0.20529136773E+02 -0.35991027850E+02  0.41493815053E+02  0.00000000000E+00 0. -1.
<mgrwt>
<rscale>  1 0.12669345E+03</rscale>
<asrwt>0</asrwt>
<pdfrwt beam="1">  1       21 0.36801342E-01 0.12669345E+03</pdfrwt>
<pdfrwt beam="2">  1       21 0.85712243E-02 0.12669345E+03</pdfrwt>
<totfact> 0.76080406E+05</totfact>
</mgrwt>
</event>
<event>
 6    1  0.4244577E-002  0.1260081E+03  0.7546771E-02  0.1233502E+00
         21   -1    0    0  503  502  0.00000000000E+00  0.00000000000E+00  0.20472080888E+03  0.20472080888E+03  0.00000000000E+00 0.  1.
         21   -1    0    0  504  503 -0.00000000000E+00 -0.00000000000E+00 -0.52256536810E+02  0.52256536810E+02  0.00000000000E+00 0.  1.
         25    2    1    2    0    0  0.11936993083E+02 -0.10495609532E+02  0.18321351569E+03  0.22236281685E+03  0.12500152144E+03 0.  0.
          5    1    3    3  501    0 -0.26667315644E+02  0.13099298059E+02 -0.38010105991E+01  0.29953213765E+02  0.10000000000E+00 0.  1.
         -5    1    3    3    0  501  0.38604308726E+02 -0.23594907591E+02  0.18701452629E+03  0.19240960309E+03  0.10000000000E+00 0.  1.
         21    1    1    2  504  502 -0.11936993083E+02  0.10495609532E+02 -0.30749243622E+02  0.34614528837E+02  0.00000000000E+00 0.  1.
<mgrwt>
<rscale>  1 0.12600806E+03</rscale>
<asrwt>0</asrwt>
<pdfrwt beam="1">  1       21 0.31495509E-01 0.12600806E+03</pdfrwt>
<pdfrwt beam="2">  1       21 0.80394673E-02 0.12600806E+03</pdfrwt>
<totfact> 0.11523945E+06</totfact>
</mgrwt>
</event>
<event>
 6    1  0.4244577E-002  0.1283277E+03  0.7546771E-02  0.1229958E+00
         21   -1    0    0  503  502  0.00000000000E+00  0.00000000000E+00  0.25579187110E+02  0.25579187110E+02  0.00000000000E+00 0.  1.
         21   -1    0    0  504  503 -0.00000000000E+00 -0.00000000000E+00 -0.24536601470E+03  0.24536601470E+03  0.00000000000E+00 0.  1.
         25    2    1    2    0    0  0.18419124428E+02  0.22482765711E+02 -0.19043878209E+03  0.22964088395E+03  0.12499306766E+03 0.  0.
          5    1    3    3  501    0 -0.23783954207E+02  0.56522900459E+02 -0.14984751797E+03  0.16190986194E+03  0.10000000000E+00 0. -1.
         -5    1    3    3    0  501  0.42203078635E+02 -0.34040134748E+02 -0.40591264121E+02  0.67731022012E+02  0.10000000000E+00 0. -1.
         21    1    1    2  504  502 -0.18419124428E+02 -0.22482765711E+02 -0.29348045508E+02  0.41304317859E+02  0.00000000000E+00 0.  1.
<mgrwt>
<rscale>  1 0.12832773E+03</rscale>
<asrwt>0</asrwt>
<pdfrwt beam="1">  1       21 0.39352596E-02 0.12832773E+03</pdfrwt>
<pdfrwt beam="2">  1       21 0.37748618E-01 0.12832773E+03</pdfrwt>
<totfact> 0.27037501E+06</totfact>
</mgrwt>
</event>
<event>
 6    1  0.4244577E-002  0.1280267E+03  0.7546771E-02  0.1230413E+00
         21   -1    0    0  504  502  0.00000000000E+00  0.00000000000E+00  0.88926353489E+02  0.88926353489E+02  0.00000000000E+00 0.  1.
         21   -1    0    0  502  503 -0.00000000000E+00 -0.00000000000E+00 -0.74087487980E+02  0.74087487980E+02  0.00000000000E+00 0.  1.
         25    2    1    2    0    0  0.21219797673E+02  0.17772359374E+02 -0.63064367899E+01  0.12818195406E+03  0.12499882252E+03 0.  0.
          5    1    3    3  501    0 -0.48303029337E+02 -0.28286992907E+01 -0.23304020389E+02  0.53705414523E+02  0.10000000000E+00 0.  1.
         -5    1    3    3    0  501  0.69522827010E+02  0.20601058665E+02  0.16997583599E+02  0.74476539540E+02  0.10000000000E+00 0.  1.
         21    1    1    2  504  503 -0.21219797673E+02 -0.17772359374E+02  0.21145302299E+02  0.34831887407E+02  0.00000000000E+00 0.  1.
<mgrwt>
<rscale>  1 0.12802672E+03</rscale>
<asrwt>0</asrwt>
<pdfrwt beam="1">  1       21 0.13680977E-01 0.12802672E+03</pdfrwt>
<pdfrwt beam="2">  1       21 0.11398075E-01 0.12802672E+03</pdfrwt>
<totfact> 0.29518232E+06</totfact>
</mgrwt>
</event>
<event>
 6    1  0.4244577E-002  0.1265114E+03  0.7546771E-02  0.1232726E+00
         21   -1    0    0  504  502  0.00000000000E+00  0.00000000000E+00  0.43711883627E+02  0.43711883627E+02  0.00000000000E+00 0.  1.
         21   -1    0    0  502  503 -0.00000000000E+00 -0.00000000000E+00 -0.13502649372E+03  0.13502649372E+03  0.00000000000E+00 0.  1.
         25    2    1    2    0    0 -0.91307852182E+01 -0.17209993474E+02 -0.55883715982E+02  0.13830443898E+03  0.12500229204E+03 0.  0.
          5    1    3    3  501    0 -0.74624612023E+01  0.24437192019E+02 -0.84149596128E+02  0.87943329534E+02  0.10000000000E+00 0.  1.
         -5    1    3    3    0  501 -0.16683240159E+01 -0.41647185494E+02  0.28265880146E+02  0.50361109450E+02  0.10000000000E+00 0.  1.
         21    1    1    2  504  503  0.91307852182E+01  0.17209993474E+02 -0.35430894111E+02  0.40433938364E+02  0.00000000000E+00 0. -1.
<mgrwt>
<rscale>  1 0.12651138E+03</rscale>
<asrwt>0</asrwt>
<pdfrwt beam="1">  1       21 0.67249053E-02 0.12651138E+03</pdfrwt>
<pdfrwt beam="2">  1       21 0.20773306E-01 0.12651138E+03</pdfrwt>
<totfact> 0.34437129E+06</totfact>
</mgrwt>
</event>
<event>
 6    1  0.4244577E-002  0.1272771E+03  0.7546771E-02  0.1231553E+00
         21   -1    0    0  503  502  0.00000000000E+00  0.00000000000E+00  0.14716057731E+03  0.14716057731E+03  0.00000000000E+00 0.  1.
         21   -1    0    0  504  503 -0.00000000000E+00 -0.00000000000E+00 -0.42238416036E+02  0.42238416036E+02  0.00000000000E+00 0.  1.
         25    2    1    2    0    0  0.20952103912E+02 -0.11789757406E+02  0.10555076804E+03  0.16534937413E+03  0.12498584661E+03 0.  0.
          5    1    3    3  501    0 -0.42411290210E+02 -0.82827196757E+01  0.12148384870E+01  0.43229698300E+02  0.10000000000E+00 0. -1.
         -5    1    3    3    0  501  0.63363394122E+02 -0.35070377300E+01  0.10433592956E+03  0.12211967583E+03  0.10000000000E+00 0. -1.
         21    1    1    2  504  502 -0.20952103912E+02  0.11789757406E+02 -0.62860676887E+00  0.24049619217E+02  0.00000000000E+00 0.  1.
<mgrwt>
<rscale>  1 0.12727706E+03</rscale>
<asrwt>0</asrwt>
<pdfrwt beam="1">  1       21 0.22640089E-01 0.12727706E+03</pdfrwt>
<pdfrwt beam="2">  1       21 0.64982179E-02 0.12727706E+03</pdfrwt>
<totfact> 0.31110996E+06</totfact>
</mgrwt>
</event>
<event>
 6    1  0.4244577E-002  0.1454790E+03  0.7546771E-02  0.1206141E+00
         21   -1    0    0  503  502  0.00000000000E+00  0.00000000000E+00  0.21923167040E+03  0.21923167040E+03  0.00000000000E+00 0.  1.
         21   -1    0    0  504  503 -0.00000000000E+00 -0.00000000000E+00 -0.74904374017E+02  0.74904374017E+02  0.00000000000E+00 0.  1.
         25    2    1    2    0    0  0.66423622535E+02  0.33541722259E+02  0.16191806097E+03  0.21767311378E+03  0.12500792468E+03 0.  0.
          5    1    3    3  501    0  0.39892197216E+02  0.63039255829E+02  0.30843658427E+02  0.80725934119E+02  0.10000000000E+00 0. -1.
         -5    1    3    3    0  501  0.26531425319E+02 -0.29497533569E+02  0.13107440254E+03  0.13694717966E+03  0.10000000000E+00 0. -1.
         21    1    1    2  504  502 -0.66423622535E+02 -0.33541722259E+02 -0.17590764585E+02  0.76462930636E+02  0.00000000000E+00 0.  1.
<mgrwt>
<rscale>  1 0.14547895E+03</rscale>
<asrwt>0</asrwt>
<pdfrwt beam="1">  1       21 0.33727949E-01 0.14547895E+03</pdfrwt>
<pdfrwt beam="2">  1       21 0.11523750E-01 0.14547895E+03</pdfrwt>
<totfact> 0.53755569E+05</totfact>
</mgrwt>
</event>
<event>
 6    1  0.4244577E-002  0.1267814E+03  0.7546771E-02  0.1232311E+00
         21   -1    0    0  504  502  0.00000000000E+00  0.00000000000E+00  0.38687678677E+03  0.38687678677E+03  0.00000000000E+00 0.  1.
         21   -1    0    0  502  503 -0.00000000000E+00 -0.00000000000E+00 -0.75941762598E+02  0.75941762598E+02  0.00000000000E+00 0.  1.
         25    2    1    2    0    0  0.21027215554E+02  0.79862145270E+00  0.37475474767E+03  0.39561930311E+03  0.12502291989E+03 0.  0.
          5    1    3    3  501    0  0.43709193106E+02  0.48064321452E+02  0.27887478084E+03  0.28634214839E+03  0.10000000000E+00 0. -1.
         -5    1    3    3    0  501 -0.22681977552E+02 -0.47265700000E+02  0.95879966834E+02  0.10927715471E+03  0.10000000000E+00 0. -1.
         21    1    1    2  504  503 -0.21027215554E+02 -0.79862145270E+00 -0.63819723502E+02  0.67199246261E+02  0.00000000000E+00 0.  1.
<mgrwt>
<rscale>  1 0.12678136E+03</rscale>
<asrwt>0</asrwt>
<pdfrwt beam="1">  1       21 0.59519505E-01 0.12678136E+03</pdfrwt>
<pdfrwt beam="2">  1       21 0.11683348E-01 0.12678136E+03</pdfrwt>
<totfact> 0.16566776E+05</totfact>
</mgrwt>
</event>
<event>
 6    1  0.4244577E-002  0.1263063E+03  0.7546771E-02  0.1233042E+00
         21   -1    0    0  503  502  0.00000000000E+00  0.00000000000E+00  0.47254562820E+03  0.47254562820E+03  0.00000000000E+00 0.  1.
         21   -1    0    0  504  503 -0.00000000000E+00 -0.00000000000E+00 -0.18559235921E+02  0.18559235921E+02  0.00000000000E+00 0.  1.
         25    2    1    2    0    0 -0.43931785415E+01 -0.17470028860E+02  0.45582178558E+03  0.47299766681E+03  0.12501516175E+03 0.  0.
          5    1    3    3  501    0 -0.25089471768E+02 -0.52136913090E+02  0.39967467312E+03  0.40384104997E+03  0.10000000000E+00 0.  1.
         -5    1    3    3    0  501  0.20696293227E+02  0.34666884229E+02  0.56147112458E+02  0.69156616841E+02  0.10000000000E+00 0.  1.
         21    1    1    2  504  502  0.43931785415E+01  0.17470028860E+02 -0.18353933021E+01  0.18107197316E+02  0.00000000000E+00 0.  1.
<mgrwt>
<rscale>  1 0.12630634E+03</rscale>
<asrwt>0</asrwt>
<pdfrwt beam="1">  1       21 0.72699318E-01 0.12630634E+03</pdfrwt>
<pdfrwt beam="2">  1       21 0.28552674E-02 0.12630634E+03</pdfrwt>
<totfact> 0.11723335E+06</totfact>
</mgrwt>
</event>
<event>
 6    1  0.4244577E-002  0.1304753E+03  0.7546771E-02  0.1226752E+00
         21   -1    0    0  504  502  0.00000000000E+00  0.00000000000E+00  0.98405300974E+02  0.98405300974E+02  0.00000000000E+00 0. -1.
         21   -1    0    0  502  503 -0.00000000000E+00 -0.00000000000E+00 -0.63805558749E+03  0.63805558749E+03  0.00000000000E+00 0. -1.
         25    2    1    2    0    0  0.10747134281E+02  0.35859217915E+02  0.54306302898E+02  0.14132576556E+03  0.12498965186E+03 0.  0.
          5    1    3    3  501    0  0.67431393144E+02  0.28146796433E+02  0.26581801645E+02  0.77754981252E+02  0.10000000000E+00 0. -1.
         -5    1    3    3    0  501 -0.56684258863E+02  0.77124214821E+01  0.27724501253E+02  0.63570784310E+02  0.10000000000E+00 0. -1.
         21    1    1    2  504  503 -0.10747134281E+02 -0.35859217915E+02 -0.59395658941E+03  0.59513512290E+03  0.00000000000E+00 0. -1.
<mgrwt>
<rscale>  1 0.13047528E+03</rscale>
<asrwt>0</asrwt>
<pdfrwt beam="1">  1       21 0.15139276E-01 0.13047528E+03</pdfrwt>
<pdfrwt beam="2">  1       21 0.98162403E-01 0.13047528E+03</pdfrwt>
<totfact> 0.34317829E+04</totfact>
</mgrwt>
</event>
<event>
 6    1  0.4244577E-002  0.1363768E+03  0.7546771E-02  0.1218289E+00
         21   -1    0    0  503  502  0.00000000000E+00  0.00000000000E+00  0.72492028360E+02  0.72492028360E+02  0.00000000000E+00 0.  1.
         21   -1    0    0  504  503 -0.00000000000E+00 -0.00000000000E+00 -0.12585460512E+03  0.12585460512E+03  0.00000000000E+00 0.  1.
         25    2    1    2    0    0 -0.32113837961E+02  0.44059202262E+02 -0.34724398318E+02  0.14072811573E+03  0.12500442722E+03 0.  0.
          5    1    3    3  501    0  0.27922825938E+02  0.50105430955E+02  0.18497881445E+02  0.60269561451E+02  0.10000000000E+00 0. -1.
         -5    1    3    3    0  501 -0.60036663899E+02 -0.60462286926E+01 -0.53222279763E+02  0.80458554279E+02  0.10000000000E+00 0. -1.
         21    1    1    2  504  502  0.32113837961E+02 -0.44059202262E+02 -0.18638178446E+02  0.57618517755E+02  0.00000000000E+00 0.  1.
<mgrwt>
<rscale>  1 0.13637675E+03</rscale>
<asrwt>0</asrwt>
<pdfrwt beam="1">  1       21 0.11152620E-01 0.13637675E+03</pdfrwt>
<pdfrwt beam="2">  1       21 0.19362247E-01 0.13637675E+03</pdfrwt>
<totfact> 0.16352104E+06</totfact>
</mgrwt>
</event>
<event>
 6    1  0.4244577E-002  0.1299181E+03  0.7546771E-02  0.1227577E+00
         21   -1    0    0  503  502  0.00000000000E+00  0.00000000000E+00  0.13301039556E+03  0.13301039556E+03  0.00000000000E+00 0.  1.
         21   -1    0    0  504  503 -0.00000000000E+00 -0.00000000000E+00 -0.65458690647E+02  0.65458690647E+02  0.00000000000E+00 0.  1.
         25    2    1    2    0    0 -0.84131068202E+01  0.34393843061E+02  0.88622284715E+02  0.15726609918E+03  0.12499999919E+03 0.  0.
          5    1    3    3  501    0  0.13518599639E+02  0.58755028895E+02 -0.25867115139E+01  0.60345729203E+02  0.10000000000E+00 0.  1.
         -5    1    3    3    0  501 -0.21931706459E+02 -0.24361185833E+02  0.91208996229E+02  0.96920369977E+02  0.10000000000E+00 0.  1.
         21    1    1    2  504  502  0.84131068202E+01 -0.34393843061E+02 -0.21070579801E+02  0.41202987028E+02  0.00000000000E+00 0.  1.
<mgrwt>
<rscale>  1 0.12991811E+03</rscale>
<asrwt>0</asrwt>
<pdfrwt beam="1">  1       21 0.20463138E-01 0.12991811E+03</pdfrwt>
<pdfrwt beam="2">  1       21 0.10070568E-01 0.12991811E+03</pdfrwt>
<totfact> 0.17644452E+06</totfact>
</mgrwt>
</event>
<event>
 6    1  0.4244577E-002  0.1270205E+03  0.7546771E-02  0.1231945E+00
         21   -1    0    0  504  502  0.00000000000E+00  0.00000000000E+00  0.38026903778E+01  0.38026903778E+01  0.00000000000E+00 0.  1.
         21   -1    0    0  502  503 -0.00000000000E+00 -0.00000000000E+00 -0.15006813208E+04  0.15006813208E+04  0.00000000000E+00 0.  1.
         25    2    1    2    0    0 -0.10084909007E+02  0.20185694699E+02 -0.11843813132E+04  0.11911730778E+04  0.12500015488E+03 0.  0.
          5    1    3    3  501    0 -0.28325455181E+02  0.67699059829E+02 -0.81588347209E+03  0.81917723610E+03  0.10000000000E+00 0. -1.
         -5    1    3    3    0  501  0.18240546174E+02 -0.47513365130E+02 -0.36849784107E+03  0.37199584173E+03  0.10000000000E+00 0. -1.
         21    1    1    2  504  503  0.10084909007E+02 -0.20185694699E+02 -0.31249731722E+03  0.31331093331E+03  0.00000000000E+00 0.  1.
<mgrwt>
<rscale>  1 0.12702050E+03</rscale>
<asrwt>0</asrwt>
<pdfrwt beam="1">  1       21 0.58503010E-03 0.12702050E+03</pdfrwt>
<pdfrwt beam="2">  1       21 0.23087373E+00 0.12702050E+03</pdfrwt>
<totfact> 0.77642491E+05</totfact>
</mgrwt>
</event>
<event>
 6    1  0.4244577E-002  0.1259232E+03  0.7546771E-02  0.1233634E+00
         21   -1    0    0  503  502  0.00000000000E+00  0.00000000000E+00  0.94457666232E+02  0.94457666232E+02  0.00000000000E+00 0. -1.
         21   -1    0    0  504  503 -0.00000000000E+00 -0.00000000000E+00 -0.64875295260E+02  0.64875295260E+02  0.00000000000E+00 0. -1.
         25    2    1    2    0    0 -0.51030377639E+01 -0.14490095048E+02  0.48520225656E+02  0.13494759315E+03  0.12498254579E+03 0.  0.
          5    1    3    3  501    0  0.33827510858E+02  0.23123416380E+02  0.66325161798E+02  0.77961721142E+02  0.10000000000E+00 0. -1.
         -5    1    3    3    0  501 -0.38930548622E+02 -0.37613511428E+02 -0.17804936142E+02  0.56985872012E+02  0.10000000000E+00 0. -1.
         21    1    1    2  504  502  0.51030377639E+01  0.14490095048E+02 -0.18937854684E+02  0.24385368337E+02  0.00000000000E+00 0. -1.
<mgrwt>
<rscale>  1 0.12592315E+03</rscale>
<asrwt>0</asrwt>
<pdfrwt beam="1">  1       21 0.14531949E-01 0.12592315E+03</pdfrwt>
<pdfrwt beam="2">  1       21 0.99808146E-02 0.12592315E+03</pdfrwt>
<totfact> 0.33425700E+06</totfact>
</mgrwt>
</event>
<event>
 6    1  0.4244577E-002  0.1313442E+03  0.7546771E-02  0.1225475E+00
         21   -1    0    0  503  502  0.00000000000E+00  0.00000000000E+00  0.28027778380E+03  0.28027778380E+03  0.00000000000E+00 0.  1.
         21   -1    0    0  504  503 -0.00000000000E+00 -0.00000000000E+00 -0.31171239382E+02  0.31171239382E+02  0.00000000000E+00 0.  1.
         25    2    1    2    0    0 -0.94508016519E+01 -0.39361145354E+02  0.23380878701E+03  0.26817502640E+03  0.12495070422E+03 0.  0.
          5    1    3    3  501    0 -0.31838763590E+02  0.38570763605E+02  0.97272081529E+02  0.10937677321E+03  0.10000000000E+00 0. -1.
         -5    1    3    3    0  501  0.22387961938E+02 -0.77931908959E+02  0.13653670549E+03  0.15879825320E+03  0.10000000000E+00 0. -1.
         21    1    1    2  504  502  0.94508016519E+01  0.39361145354E+02  0.15297757403E+02  0.43273996777E+02  0.00000000000E+00 0.  1.
<mgrwt>
<rscale>  1 0.13134419E+03</rscale>
<asrwt>0</asrwt>
<pdfrwt beam="1">  1       21 0.43119657E-01 0.13134419E+03</pdfrwt>
<pdfrwt beam="2">  1       21 0.47955755E-02 0.13134419E+03</pdfrwt>
<totfact> 0.14904932E+06</totfact>
</mgrwt>
</event>
<event>
 6    1  0.4244577E-002  0.1301887E+03  0.7546771E-02  0.1227176E+00
         21   -1    0    0  504  502  0.00000000000E+00  0.00000000000E+00  0.56957575810E+02  0.56957575810E+02  0.00000000000E+00 0. -1.
         21   -1    0    0  502  503 -0.00000000000E+00 -0.00000000000E+00 -0.14306857845E+03  0.14306857845E+03  0.00000000000E+00 0. -1.
         25    2    1    2    0    0  0.10873396271E+02 -0.34738191446E+02 -0.30750660230E+02  0.13377103972E+03  0.12499646103E+03 0.  0.
          5    1    3    3  501    0  0.22862334982E+01  0.47473023077E+02 -0.10871083234E+02  0.48755566188E+02  0.10000000000E+00 0. -1.
         -5    1    3    3    0  501  0.85871627727E+01 -0.82211214523E+02 -0.19879576996E+02  0.85015473529E+02  0.10000000000E+00 0. -1.
         21    1    1    2  504  503 -0.10873396271E+02  0.34738191446E+02 -0.55360342412E+02  0.66255114545E+02  0.00000000000E+00 0. -1.
<mgrwt>
<rscale>  1 0.13018866E+03</rscale>
<asrwt>0</asrwt>
<pdfrwt beam="1">  1       21 0.87627041E-02 0.13018866E+03</pdfrwt>
<pdfrwt beam="2">  1       21 0.22010550E-01 0.13018866E+03</pdfrwt>
<totfact> 0.19634979E+06</totfact>
</mgrwt>
</event>
<event>
 6    1  0.4244577E-002  0.2281665E+03  0.7546771E-02  0.1127937E+00
         21   -1    0    0  503  502  0.00000000000E+00  0.00000000000E+00  0.51125323209E+03  0.51125323209E+03  0.00000000000E+00 0. -1.
         21   -1    0    0  504  503 -0.00000000000E+00 -0.00000000000E+00 -0.95484963767E+02  0.95484963767E+02  0.00000000000E+00 0. -1.
         25    2    1    2    0    0  0.14824055822E+03 -0.12024406627E+03  0.12857631232E+03  0.26190038156E+03  0.12500417271E+03 0.  0.
          5    1    3    3  501    0  0.11453155414E+02 -0.86373876726E+02  0.53234889215E+02  0.10210575292E+03  0.10000000000E+00 0.  1.
         -5    1    3    3    0  501  0.13678740281E+03 -0.33870189548E+02  0.75341423101E+02  0.15979462864E+03  0.10000000000E+00 0.  1.
         21    1    1    2  504  502 -0.14824055822E+03  0.12024406627E+03  0.28719195601E+03  0.34483781430E+03  0.00000000000E+00 0. -1.
<mgrwt>
<rscale>  1 0.22816648E+03</rscale>
<asrwt>0</asrwt>
<pdfrwt beam="1">  1       21 0.78654342E-01 0.22816648E+03</pdfrwt>
<pdfrwt beam="2">  1       21 0.14689995E-01 0.22816648E+03</pdfrwt>
<totfact> 0.57282452E+04</totfact>
</mgrwt>
</event>
<event>
 6    1  0.4244577E-002  0.1300767E+03  0.7546771E-02  0.1227342E+00
         21   -1    0    0  503  502  0.00000000000E+00  0.00000000000E+00  0.10999348950E+03  0.10999348950E+03  0.00000000000E+00 0.  1.
         21   -1    0    0  504  503 -0.00000000000E+00 -0.00000000000E+00 -0.19339475626E+03  0.19339475626E+03  0.00000000000E+00 0.  1.
         25    2    1    2    0    0  0.16980839289E+02 -0.31715603511E+02  0.68690434357E+02  0.14709968586E+03  0.12500285357E+03 0.  0.
          5    1    3    3  501    0  0.66868477625E+02 -0.20171718498E+02  0.65567290378E+02  0.95798596516E+02  0.10000000000E+00 0.  1.
         -5    1    3    3    0  501 -0.49887638335E+02 -0.11543885013E+02  0.31231439791E+01  0.51301089347E+02  0.10000000000E+00 0.  1.
         21    1    1    2  504  502 -0.16980839289E+02  0.31715603511E+02 -0.15209170112E+03  0.15628855991E+03  0.00000000000E+00 0.  1.
<mgrwt>
<rscale>  1 0.13007668E+03</rscale>
<asrwt>0</asrwt>
<pdfrwt beam="1">  1       21 0.16922076E-01 0.13007668E+03</pdfrwt>
<pdfrwt beam="2">  1       21 0.29753039E-01 0.13007668E+03</pdfrwt>
<totfact> 0.34470336E+05</totfact>
</mgrwt>
</event>
<event>
 6    1  0.4244577E-002  0.1280611E+03  0.7546771E-02  0.1230361E+00
         21   -1    0    0  503  502  0.00000000000E+00  0.00000000000E+00  0.92212278730E+02  0.92212278730E+02  0.00000000000E+00 0. -1.
         21   -1    0    0  504  503 -0.00000000000E+00 -0.00000000000E+00 -0.15933274388E+03  0.15933274388E+03  0.00000000000E+00 0.  1.
         25    2    1    2    0    0 -0.27719145641E+02  0.24160386446E+01  0.45219728874E+02  0.13581038013E+03  0.12500178876E+03 0.  0.
          5    1    3    3  501    0 -0.34010013913E+02 -0.13363638631E+02  0.85017916503E+02  0.92538229993E+02  0.10000000000E+00 0.  1.
         -5    1    3    3    0  501  0.62908682721E+01  0.15779677276E+02 -0.39798187629E+02  0.43272150132E+02  0.10000000000E+00 0.  1.
         21    1    1    2  504  502  0.27719145641E+02 -0.24160386446E+01 -0.11234019402E+03  0.11573464248E+03  0.00000000000E+00 0.  1.
<mgrwt>
<rscale>  1 0.12806106E+03</rscale>
<asrwt>0</asrwt>
<pdfrwt beam="1">  1       21 0.14186504E-01 0.12806106E+03</pdfrwt>
<pdfrwt beam="2">  1       21 0.24512730E-01 0.12806106E+03</pdfrwt>
<totfact> 0.68596281E+05</totfact>
</mgrwt>
</event>
<event>
 6    1  0.4244577E-002  0.1433734E+03  0.7546771E-02  0.1208860E+00
         21   -1    0    0  504  502  0.00000000000E+00  0.00000000000E+00  0.47087655256E+02  0.47087655256E+02  0.00000000000E+00 0.  1.
         21   -1    0    0  502  503 -0.00000000000E+00 -0.00000000000E+00 -0.28098522175E+03  0.28098522175E+03  0.00000000000E+00 0.  1.
         25    2    1    2    0    0 -0.24871112993E+02 -0.65663071221E+02 -0.20925159061E+03  0.25365758751E+03  0.12500292934E+03 0.  0.
          5    1    3    3  501    0 -0.82858818398E+01 -0.21730561329E+02  0.12901432056E+02  0.26595677894E+02  0.10000000000E+00 0.  1.
         -5    1    3    3    0  501 -0.16585231153E+02 -0.43932509892E+02 -0.22215302267E+03  0.22706190962E+03  0.10000000000E+00 0.  1.
         21    1    1    2  504  503  0.24871112993E+02  0.65663071221E+02 -0.24645975884E+02  0.74415289497E+02  0.00000000000E+00 0.  1.
<mgrwt>
<rscale>  1 0.14337344E+03</rscale>
<asrwt>0</asrwt>
<pdfrwt beam="1">  1       21 0.72442546E-02 0.14337344E+03</pdfrwt>
<pdfrwt beam="2">  1       21 0.43228496E-01 0.14337344E+03</pdfrwt>
<totfact> 0.73670211E+05</totfact>
</mgrwt>
</event>
<event>
 6    1  0.4244577E-002  0.1269287E+03  0.7546771E-02  0.1232086E+00
         21   -1    0    0  503  502  0.00000000000E+00  0.00000000000E+00  0.20092846058E+02  0.20092846058E+02  0.00000000000E+00 0.  1.
         21   -1    0    0  504  503 -0.00000000000E+00 -0.00000000000E+00 -0.45599122514E+03  0.45599122514E+03  0.00000000000E+00 0.  1.
         25    2    1    2    0    0 -0.79056651567E+01  0.20644163179E+02 -0.18583590561E+03  0.22504638149E+03  0.12498883548E+03 0.  0.
          5    1    3    3  501    0 -0.29827270551E+02  0.21157659078E+02 -0.19705192849E+03  0.20041652907E+03  0.10000000000E+00 0.  1.
         -5    1    3    3    0  501  0.21921605394E+02 -0.51349589966E+00  0.11216022873E+02  0.24629852419E+02  0.10000000000E+00 0.  1.
         21    1    1    2  504  502  0.79056651567E+01 -0.20644163179E+02 -0.25006247347E+03  0.25103768970E+03  0.00000000000E+00 0.  1.
<mgrwt>
<rscale>  1 0.12692868E+03</rscale>
<asrwt>0</asrwt>
<pdfrwt beam="1">  1       21 0.30912072E-02 0.12692868E+03</pdfrwt>
<pdfrwt beam="2">  1       21 0.70152493E-01 0.12692868E+03</pdfrwt>
<totfact> 0.11128357E+06</totfact>
</mgrwt>
</event>
<event>
 6    1  0.4244577E-002  0.1295997E+03  0.7546771E-02  0.1228051E+00
         21   -1    0    0  504  502  0.00000000000E+00  0.00000000000E+00  0.69247655739E+01  0.69247655739E+01  0.00000000000E+00 0. -1.
         21   -1    0    0  502  503 -0.00000000000E+00 -0.00000000000E+00 -0.19486553290E+04  0.19486553290E+04  0.00000000000E+00 0.  1.
         25    2    1    2    0    0 -0.29208423885E+02 -0.17844832287E+02 -0.61971166145E+03  0.63311816800E+03  0.12499800496E+03 0.  0.
          5    1    3    3  501    0 -0.77211959782E+01 -0.51575573906E+02 -0.10889727159E+03  0.12074055843E+03  0.10000000000E+00 0. -1.
         -5    1    3    3    0  501 -0.21487227907E+02  0.33730741619E+02 -0.51081438986E+03  0.51237760956E+03  0.10000000000E+00 0. -1.
         21    1    1    2  504  503  0.29208423885E+02  0.17844832287E+02 -0.13220189020E+04  0.13224619266E+04  0.00000000000E+00 0.  1.
<mgrwt>
<rscale>  1 0.12959966E+03</rscale>
<asrwt>0</asrwt>
<pdfrwt beam="1">  1       21 0.10653477E-02 0.12959966E+03</pdfrwt>
<pdfrwt beam="2">  1       21 0.29979337E+00 0.12959966E+03</pdfrwt>
<totfact> 0.12292711E+05</totfact>
</mgrwt>
</event>
<event>
 6    1  0.4244577E-002  0.1261256E+03  0.7546771E-02  0.1233321E+00
         21   -1    0    0  504  502  0.00000000000E+00  0.00000000000E+00  0.62941450992E+03  0.62941450992E+03  0.00000000000E+00 0.  1.
         21   -1    0    0  502  503 -0.00000000000E+00 -0.00000000000E+00 -0.11233602140E+02  0.11233602140E+02  0.00000000000E+00 0. -1.
         25    2    1    2    0    0  0.15381570754E+02  0.67540415173E+01  0.60813081825E+03  0.62107225715E+03  0.12500178682E+03 0.  0.
          5    1    3    3  501    0 -0.43073750646E+02 -0.33472523216E+02  0.23431348245E+03  0.24057966635E+03  0.10000000000E+00 0. -1.
         -5    1    3    3    0  501  0.58455321400E+02  0.40226564734E+02  0.37381733580E+03  0.38049259080E+03  0.10000000000E+00 0. -1.
         21    1    1    2  504  503 -0.15381570754E+02 -0.67540415173E+01  0.10050089531E+02  0.19575854905E+02  0.00000000000E+00 0. -1.
<mgrwt>
<rscale>  1 0.12612556E+03</rscale>
<asrwt>0</asrwt>
<pdfrwt beam="1">  1       21 0.96832974E-01 0.12612556E+03</pdfrwt>
<pdfrwt beam="2">  1       21 0.17282470E-02 0.12612556E+03</pdfrwt>
<totfact> 0.13851028E+06</totfact>
</mgrwt>
</event>
<event>
 6    1  0.4244577E-002  0.1280022E+03  0.7546771E-02  0.1230451E+00
         21   -1    0    0  504  502  0.00000000000E+00  0.00000000000E+00  0.17845905083E+03  0.17845905083E+03  0.00000000000E+00 0.  1.
         21   -1    0    0  502  503 -0.00000000000E+00 -0.00000000000E+00 -0.59698802240E+02  0.59698802240E+02  0.00000000000E+00 0.  1.
         25    2    1    2    0    0  0.19618661551E+02  0.19384767836E+02  0.14953151432E+03  0.19683556006E+03  0.12499561122E+03 0.  0.
          5    1    3    3  501    0  0.13691127239E+02  0.53574956011E+02  0.14151160185E+02  0.57078789504E+02  0.10000000000E+00 0. -1.
         -5    1    3    3    0  501  0.59275343115E+01 -0.34190188175E+02  0.13538035413E+03  0.13975677055E+03  0.10000000000E+00 0. -1.
         21    1    1    2  504  503 -0.19618661551E+02 -0.19384767836E+02 -0.30771265730E+02  0.41322293012E+02  0.00000000000E+00 0.  1.
<mgrwt>
<rscale>  1 0.12800220E+03</rscale>
<asrwt>0</asrwt>
<pdfrwt beam="1">  1       21 0.27455238E-01 0.12800220E+03</pdfrwt>
<pdfrwt beam="2">  1       21 0.91844312E-02 0.12800220E+03</pdfrwt>
<totfact> 0.11920583E+06</totfact>
</mgrwt>
</event>
<event>
 6    1  0.4244577E-002  0.1834911E+03  0.7546771E-02  0.1164466E+00
         21   -1    0    0  503  502  0.00000000000E+00  0.00000000000E+00  0.17210057294E+03  0.17210057294E+03  0.00000000000E+00 0.  1.
         21   -1    0    0  504  503 -0.00000000000E+00 -0.00000000000E+00 -0.52816693758E+03  0.52816693758E+03  0.00000000000E+00 0.  1.
         25    2    1    2    0    0 -0.99252793413E+02  0.90513986680E+02  0.11087545181E+03  0.21438834990E+03  0.12500039989E+03 0.  0.
          5    1    3    3  501    0 -0.12393578149E+03  0.63507062293E+02  0.11054148635E+03  0.17779948003E+03  0.10000000000E+00 0.  1.
         -5    1    3    3    0  501  0.24682988076E+02  0.27006924388E+02  0.33396546095E+00  0.36588869867E+02  0.10000000000E+00 0.  1.
         21    1    1    2  504  502  0.99252793413E+02 -0.90513986680E+02 -0.46694181645E+03  0.48587916063E+03  0.00000000000E+00 0.  1.
<mgrwt>
<rscale>  1 0.18349114E+03</rscale>
<asrwt>0</asrwt>
<pdfrwt beam="1">  1       21 0.26477011E-01 0.18349114E+03</pdfrwt>
<pdfrwt beam="2">  1       21 0.81256451E-01 0.18349114E+03</pdfrwt>
<totfact> 0.18118780E+04</totfact>
</mgrwt>
</event>
<event>
 6    1  0.4244577E-002  0.1283761E+03  0.7546771E-02  0.1229885E+00
         21   -1    0    0  504  502  0.00000000000E+00  0.00000000000E+00  0.64868307352E+02  0.64868307352E+02  0.00000000000E+00 0. -1.
         21   -1    0    0  502  503 -0.00000000000E+00 -0.00000000000E+00 -0.96784495732E+02  0.96784495732E+02  0.00000000000E+00 0. -1.
         25    2    1    2    0    0  0.15380588323E+02  0.24810565450E+02 -0.19167543545E+02  0.12979915965E+03  0.12501320116E+03 0.  0.
          5    1    3    3  501    0 -0.25413191107E+00 -0.33610810463E+02 -0.51288409215E+02  0.61320975880E+02  0.10000000000E+00 0.  1.
         -5    1    3    3    0  501  0.15634720234E+02  0.58421375913E+02  0.32120865671E+02  0.68478183766E+02  0.10000000000E+00 0.  1.
         21    1    1    2  504  503 -0.15380588323E+02 -0.24810565450E+02 -0.12748644836E+02  0.31853643438E+02  0.00000000000E+00 0. -1.
<mgrwt>
<rscale>  1 0.12837612E+03</rscale>
<asrwt>0</asrwt>
<pdfrwt beam="1">  1       21 0.99797396E-02 0.12837612E+03</pdfrwt>
<pdfrwt beam="2">  1       21 0.14889922E-01 0.12837612E+03</pdfrwt>
<totfact> 0.32025478E+06</totfact>
</mgrwt>
</event>
<event>
 6    1  0.4244577E-002  0.1261986E+03  0.7546771E-02  0.1233208E+00
         21   -1    0    0  504  502  0.00000000000E+00  0.00000000000E+00  0.39226556669E+03  0.39226556669E+03  0.00000000000E+00 0.  1.
         21   -1    0    0  502  503 -0.00000000000E+00 -0.00000000000E+00 -0.10336195488E+03  0.10336195488E+03  0.00000000000E+00 0. -1.
         25    2    1    2    0    0  0.91281476978E+01  0.14754578549E+02  0.38128701666E+03  0.40162904200E+03  0.12500031054E+03 0.  0.
          5    1    3    3  501    0  0.24970173943E+02  0.37755431520E+02  0.43797300850E+02  0.62985678989E+02  0.10000000000E+00 0. -1.
         -5    1    3    3    0  501 -0.15842026245E+02 -0.23000852970E+02  0.33748971581E+03  0.33864336301E+03  0.10000000000E+00 0. -1.
         21    1    1    2  504  503 -0.91281476978E+01 -0.14754578549E+02 -0.92383404851E+02  0.93998479564E+02  0.00000000000E+00 0. -1.
<mgrwt>
<rscale>  1 0.12619865E+03</rscale>
<asrwt>0</asrwt>
<pdfrwt beam="1">  1       21 0.60348548E-01 0.12619865E+03</pdfrwt>
<pdfrwt beam="2">  1       21 0.15901839E-01 0.12619865E+03</pdfrwt>
<totfact> 0.92717113E+04</totfact>
</mgrwt>
</event>
<event>
 6    1  0.4244577E-002  0.1265197E+03  0.7546771E-02  0.1232713E+00
         21   -1    0    0  504  502  0.00000000000E+00  0.00000000000E+00  0.36574414800E+02  0.36574414800E+02  0.00000000000E+00 0. -1.
         21   -1    0    0  502  503 -0.00000000000E+00 -0.00000000000E+00 -0.25052768115E+03  0.25052768115E+03  0.00000000000E+00 0. -1.
         25    2    1    2    0    0  0.19374205586E+02 -0.14420288893E+01 -0.75588389396E+02  0.14737994859E+03  0.12501921990E+03 0.  0.
          5    1    3    3  501    0  0.17955025434E+02 -0.22999669910E+02  0.28670041230E+02  0.40906588937E+02  0.10000000000E+00 0. -1.
         -5    1    3    3    0  501  0.14191801519E+01  0.21557641021E+02 -0.10425843063E+03  0.10647335965E+03  0.10000000000E+00 0. -1.
         21    1    1    2  504  503 -0.19374205586E+02  0.14420288893E+01 -0.13836487695E+03  0.13972214736E+03  0.00000000000E+00 0. -1.
<mgrwt>
<rscale>  1 0.12651974E+03</rscale>
<asrwt>0</asrwt>
<pdfrwt beam="1">  1       21 0.56268330E-02 0.12651974E+03</pdfrwt>
<pdfrwt beam="2">  1       21 0.38542721E-01 0.12651974E+03</pdfrwt>
<totfact> 0.14252703E+06</totfact>
</mgrwt>
</event>
<event>
 6    1  0.4244577E-002  0.1330578E+03  0.7546771E-02  0.1222988E+00
         21   -1    0    0  504  502  0.00000000000E+00  0.00000000000E+00  0.92716628040E+02  0.92716628040E+02  0.00000000000E+00 0.  1.
         21   -1    0    0  502  503 -0.00000000000E+00 -0.00000000000E+00 -0.94196217486E+02  0.94196217486E+02  0.00000000000E+00 0.  1.
         25    2    1    2    0    0 -0.99301869078E+01 -0.44483078292E+02  0.23225935548E+02  0.13506966052E+03  0.12500806472E+03 0.  0.
          5    1    3    3  501    0  0.39827764545E+02 -0.55010718666E+02 -0.17248019219E+02  0.70070922385E+02  0.10000000000E+00 0. -1.
         -5    1    3    3    0  501 -0.49757951453E+02  0.10527640375E+02  0.40473954768E+02  0.64998738135E+02  0.10000000000E+00 0. -1.
         21    1    1    2  504  503  0.99301869078E+01  0.44483078292E+02 -0.24705524995E+02  0.51843185006E+02  0.00000000000E+00 0.  1.
<mgrwt>
<rscale>  1 0.13305777E+03</rscale>
<asrwt>0</asrwt>
<pdfrwt beam="1">  1       21 0.14264097E-01 0.13305777E+03</pdfrwt>
<pdfrwt beam="2">  1       21 0.14491726E-01 0.13305777E+03</pdfrwt>
<totfact> 0.17878053E+06</totfact>
</mgrwt>
</event>
<event>
 6    1  0.4244577E-002  0.1537246E+03  0.7546771E-02  0.1195969E+00
         21   -1    0    0  504  502  0.00000000000E+00  0.00000000000E+00  0.41917184229E+02  0.41917184229E+02  0.00000000000E+00 0.  1.
         21   -1    0    0  502  503 -0.00000000000E+00 -0.00000000000E+00 -0.71977686377E+03  0.71977686377E+03  0.00000000000E+00 0.  1.
         25    2    1    2    0    0 -0.75716014085E+02 -0.47705563389E+02 -0.11555566836E+03  0.19231321187E+03  0.12499009321E+03 0.  0.
          5    1    3    3  501    0 -0.82160718432E+02 -0.54568831740E+02 -0.13704745367E+03  0.16884950580E+03  0.10000000000E+00 0.  1.
         -5    1    3    3    0  501  0.64447043478E+01  0.68632683516E+01  0.21491785310E+02  0.23463706067E+02  0.10000000000E+00 0.  1.
         21    1    1    2  504  503  0.75716014085E+02  0.47705563389E+02 -0.56230401117E+03  0.56938083613E+03  0.00000000000E+00 0.  1.
<mgrwt>
<rscale>  1 0.15372462E+03</rscale>
<asrwt>0</asrwt>
<pdfrwt beam="1">  1       21 0.64487976E-02 0.15372462E+03</pdfrwt>
<pdfrwt beam="2">  1       21 0.11073490E+00 0.15372462E+03</pdfrwt>
<totfact> 0.11380684E+05</totfact>
</mgrwt>
</event>
<event>
 6    1  0.4244577E-002  0.1259466E+03  0.7546771E-02  0.1233597E+00
         21   -1    0    0  504  502  0.00000000000E+00  0.00000000000E+00  0.96569609584E+03  0.96569609584E+03  0.00000000000E+00 0.  1.
         21   -1    0    0  502  503 -0.00000000000E+00 -0.00000000000E+00 -0.14173934222E+03  0.14173934222E+03  0.00000000000E+00 0. -1.
         25    2    1    2    0    0  0.10857712957E+02  0.10954338791E+02  0.96115564317E+03  0.96937232654E+03  0.12499859833E+03 0.  0.
          5    1    3    3  501    0  0.31523048392E+02  0.43442886082E+02  0.19507390977E+03  0.20232357056E+03  0.10000000000E+00 0.  1.
         -5    1    3    3    0  501 -0.20665335435E+02 -0.32488547291E+02  0.76608173340E+03  0.76704875598E+03  0.10000000000E+00 0.  1.
         21    1    1    2  504  503 -0.10857712957E+02 -0.10954338791E+02 -0.13719888956E+03  0.13806311153E+03  0.00000000000E+00 0. -1.
<mgrwt>
<rscale>  1 0.12594656E+03</rscale>
<asrwt>0</asrwt>
<pdfrwt beam="1">  1       21 0.14856863E+00 0.12594656E+03</pdfrwt>
<pdfrwt beam="2">  1       21 0.21806053E-01 0.12594656E+03</pdfrwt>
<totfact> 0.64024935E+03</totfact>
</mgrwt>
</event>
<event>
 6    1  0.4244577E-002  0.1293434E+03  0.7546771E-02  0.1228433E+00
         21   -1    0    0  503  502  0.00000000000E+00  0.00000000000E+00  0.96682702711E+03  0.96682702711E+03  0.00000000000E+00 0.  1.
         21   -1    0    0  504  503 -0.00000000000E+00 -0.00000000000E+00 -0.82117117584E+01  0.82117117584E+01  0.00000000000E+00 0.  1.
         25    2    1    2    0    0 -0.32483594272E+02  0.72661894627E+01  0.88297640661E+03  0.89239960818E+03  0.12498697786E+03 0.  0.
          5    1    3    3  501    0 -0.13290115167E+02 -0.79245188010E+01  0.86435220902E+01  0.17724153958E+02  0.10000000000E+00 0.  1.
         -5    1    3    3    0  501 -0.19193479104E+02  0.15190708264E+02  0.87433288452E+03  0.87467545422E+03  0.10000000000E+00 0.  1.
         21    1    1    2  504  502  0.32483594272E+02 -0.72661894627E+01  0.75638908743E+02  0.82639130695E+02  0.00000000000E+00 0.  1.
<mgrwt>
<rscale>  1 0.12934344E+03</rscale>
<asrwt>0</asrwt>
<pdfrwt beam="1">  1       21 0.14874253E+00 0.12934344E+03</pdfrwt>
<pdfrwt beam="2">  1       21 0.12633410E-02 0.12934344E+03</pdfrwt>
<totfact> 0.79992046E+05</totfact>
</mgrwt>
</event>
<event>
 6    1  0.4244577E-002  0.1267436E+03  0.7546771E-02  0.1232369E+00
         21   -1    0    0  504  502  0.00000000000E+00  0.00000000000E+00  0.91475603635E+01  0.91475603635E+01  0.00000000000E+00 0.  1.
         21   -1    0    0  502  503 -0.00000000000E+00 -0.00000000000E+00 -0.63809845829E+03  0.63809845829E+03  0.00000000000E+00 0.  1.
         25    2    1    2    0    0 -0.20147350715E+02  0.56997748297E+01 -0.46500328728E+03  0.48196679367E+03  0.12500211937E+03 0.  0.
          5    1    3    3  501    0 -0.70264812776E+02  0.21602639986E+02 -0.24660983622E+03  0.25733293472E+03  0.10000000000E+00 0.  1.
         -5    1    3    3    0  501  0.50117462061E+02 -0.15902865156E+02 -0.21839345106E+03  0.22463385896E+03  0.10000000000E+00 0.  1.
         21    1    1    2  504  503  0.20147350715E+02 -0.56997748297E+01 -0.16394761065E+03  0.16527922498E+03  0.00000000000E+00 0.  1.
<mgrwt>
<rscale>  1 0.12674357E+03</rscale>
<asrwt>0</asrwt>
<pdfrwt beam="1">  1       21 0.14073170E-02 0.12674357E+03</pdfrwt>
<pdfrwt beam="2">  1       21 0.98168990E-01 0.12674357E+03</pdfrwt>
<totfact> 0.18632813E+06</totfact>
</mgrwt>
</event>
<event>
 6    1  0.4244577E-002  0.1269288E+03  0.7546771E-02  0.1232085E+00
         21   -1    0    0  504  502  0.00000000000E+00  0.00000000000E+00  0.86833077845E+02  0.86833077845E+02  0.00000000000E+00 0.  1.
         21   -1    0    0  502  503 -0.00000000000E+00 -0.00000000000E+00 -0.63951704062E+02  0.63951704062E+02  0.00000000000E+00 0.  1.
         25    2    1    2    0    0  0.19082533509E+02  0.11068889427E+02  0.20866406424E+02  0.12863250230E+03  0.12499700130E+03 0.  0.
          5    1    3    3  501    0 -0.35009218455E+02 -0.23389287969E+02 -0.25742970880E+02  0.49349921158E+02  0.10000000000E+00 0. -1.
         -5    1    3    3    0  501  0.54091751965E+02  0.34458177395E+02  0.46609377304E+02  0.79282581143E+02  0.10000000000E+00 0. -1.
         21    1    1    2  504  503 -0.19082533509E+02 -0.11068889427E+02  0.20149673587E+01  0.22152279606E+02  0.00000000000E+00 0.  1.
<mgrwt>
<rscale>  1 0.12692877E+03</rscale>
<asrwt>0</asrwt>
<pdfrwt beam="1">  1       21 0.13358935E-01 0.12692877E+03</pdfrwt>
<pdfrwt beam="2">  1       21 0.98387237E-02 0.12692877E+03</pdfrwt>
<totfact> 0.39865256E+06</totfact>
</mgrwt>
</event>
<event>
 6    1  0.4244577E-002  0.1266582E+03  0.7546771E-02  0.1232500E+00
         21   -1    0    0  504  502  0.00000000000E+00  0.00000000000E+00  0.56377712346E+02  0.56377712346E+02  0.00000000000E+00 0. -1.
         21   -1    0    0  502  503 -0.00000000000E+00 -0.00000000000E+00 -0.11909529957E+03  0.11909529957E+03  0.00000000000E+00 0. -1.
         25    2    1    2    0    0  0.13755899300E+02 -0.15512932721E+02 -0.20320623702E+02  0.12827790239E+03  0.12494965645E+03 0.  0.
          5    1    3    3  501    0  0.34998742417E+02  0.32860664881E+02 -0.48633532108E+02  0.68337147383E+02  0.10000000000E+00 0. -1.
         -5    1    3    3    0  501 -0.21242843117E+02 -0.48373597602E+02  0.28312908406E+02  0.59940755009E+02  0.10000000000E+00 0. -1.
         21    1    1    2  504  503 -0.13755899300E+02  0.15512932721E+02 -0.42396963519E+02  0.47195109522E+02  0.00000000000E+00 0. -1.
<mgrwt>
<rscale>  1 0.12665817E+03</rscale>
<asrwt>0</asrwt>
<pdfrwt beam="1">  1       21 0.86734943E-02 0.12665817E+03</pdfrwt>
<pdfrwt beam="2">  1       21 0.18322354E-01 0.12665817E+03</pdfrwt>
<totfact> 0.28031920E+06</totfact>
</mgrwt>
</event>
<event>
 6    1  0.4244577E-002  0.1272460E+03  0.7546771E-02  0.1231600E+00
         21   -1    0    0  503  502  0.00000000000E+00  0.00000000000E+00  0.41756829913E+03  0.41756829913E+03  0.00000000000E+00 0. -1.
         21   -1    0    0  504  503 -0.00000000000E+00 -0.00000000000E+00 -0.13838709149E+02  0.13838709149E+02  0.00000000000E+00 0. -1.
         25    2    1    2    0    0  0.43278676980E+01 -0.23399177370E+02  0.35635476006E+03  0.37839166663E+03  0.12500114566E+03 0.  0.
          5    1    3    3  501    0  0.24217142390E+02  0.46980518801E+02  0.17622473043E+03  0.18398044665E+03  0.10000000000E+00 0.  1.
         -5    1    3    3    0  501 -0.19889274692E+02 -0.70379696171E+02  0.18013002963E+03  0.19441121998E+03  0.10000000000E+00 0.  1.
         21    1    1    2  504  502 -0.43278676980E+01  0.23399177370E+02  0.47374829914E+02  0.53015341645E+02  0.00000000000E+00 0. -1.
<mgrwt>
<rscale>  1 0.12724598E+03</rscale>
<asrwt>0</asrwt>
<pdfrwt beam="1">  1       21 0.64241267E-01 0.12724598E+03</pdfrwt>
<pdfrwt beam="2">  1       21 0.21290325E-02 0.12724598E+03</pdfrwt>
<totfact> 0.24714413E+06</totfact>
</mgrwt>
</event>
<event>
 6    1  0.4244577E-002  0.1371500E+03  0.7546771E-02  0.1217216E+00
         21   -1    0    0  504  502  0.00000000000E+00  0.00000000000E+00  0.99084099270E+02  0.99084099270E+02  0.00000000000E+00 0.  1.
         21   -1    0    0  502  503 -0.00000000000E+00 -0.00000000000E+00 -0.10465559356E+03  0.10465559356E+03  0.00000000000E+00 0. -1.
         25    2    1    2    0    0  0.53953869825E+02 -0.16544285680E+02  0.25224441453E+02  0.13945032267E+03  0.12500154634E+03 0.  0.
          5    1    3    3  501    0  0.20174909721E+02  0.30646473570E+02 -0.38552098582E+02  0.53221308041E+02  0.10000000000E+00 0. -1.
         -5    1    3    3    0  501  0.33778960104E+02 -0.47190759250E+02  0.63776540034E+02  0.86229014624E+02  0.10000000000E+00 0. -1.
         21    1    1    2  504  503 -0.53953869825E+02  0.16544285680E+02 -0.30795935740E+02  0.64289370162E+02  0.00000000000E+00 0. -1.
<mgrwt>
<rscale>  1 0.13714999E+03</rscale>
<asrwt>0</asrwt>
<pdfrwt beam="1">  1       21 0.15243708E-01 0.13714999E+03</pdfrwt>
<pdfrwt beam="2">  1       21 0.16100860E-01 0.13714999E+03</pdfrwt>
<totfact> 0.13118455E+06</totfact>
</mgrwt>
</event>
<event>
 6    1  0.4244577E-002  0.1261070E+03  0.7546771E-02  0.1233349E+00
         21   -1    0    0  504  502  0.00000000000E+00  0.00000000000E+00  0.14633844488E+03  0.14633844488E+03  0.00000000000E+00 0. -1.
         21   -1    0    0  502  503 -0.00000000000E+00 -0.00000000000E+00 -0.37215359958E+02  0.37215359958E+02  0.00000000000E+00 0. -1.
         25    2    1    2    0    0  0.26664018456E+01  0.16460087243E+02  0.10929490339E+03  0.16687826310E+03  0.12499973847E+03 0.  0.
          5    1    3    3  501    0 -0.95074764119E+01  0.53812328062E+02  0.43473615168E+01  0.54818503366E+02  0.10000000000E+00 0.  1.
         -5    1    3    3    0  501  0.12173878257E+02 -0.37352240818E+02  0.10494754187E+03  0.11205975973E+03  0.10000000000E+00 0.  1.
         21    1    1    2  504  503 -0.26664018456E+01 -0.16460087243E+02 -0.17181846498E+00  0.16675541744E+02  0.00000000000E+00 0. -1.
<mgrwt>
<rscale>  1 0.12610701E+03</rscale>
<asrwt>0</asrwt>
<pdfrwt beam="1">  1       21 0.22513607E-01 0.12610701E+03</pdfrwt>
<pdfrwt beam="2">  1       21 0.57254401E-02 0.12610701E+03</pdfrwt>
<totfact> 0.38956178E+06</totfact>
</mgrwt>
</event>
<event>
 6    1  0.4244577E-002  0.1277314E+03  0.7546771E-02  0.1230861E+00
         21   -1    0    0  504  502  0.00000000000E+00  0.00000000000E+00  0.89832206664E+01  0.89832206664E+01  0.00000000000E+00 0. -1.
         21   -1    0    0  502  503 -0.00000000000E+00 -0.00000000000E+00 -0.67384318001E+03  0.67384318001E+03  0.00000000000E+00 0. -1.
         25    2    1    2    0    0  0.16132299051E+02 -0.20722376371E+02 -0.58412930443E+03  0.59793172123E+03  0.12500252400E+03 0.  0.
          5    1    3    3  501    0  0.36107487082E+02 -0.64730345143E+02 -0.43193028320E+03  0.43824370817E+03  0.10000000000E+00 0. -1.
         -5    1    3    3    0  501 -0.19975188031E+02  0.44007968772E+02 -0.15219902123E+03  0.15968801306E+03  0.10000000000E+00 0. -1.
         21    1    1    2  504  503 -0.16132299051E+02  0.20722376371E+02 -0.80730654914E+02  0.84894679444E+02  0.00000000000E+00 0.  1.
<mgrwt>
<rscale>  1 0.12773135E+03</rscale>
<asrwt>0</asrwt>
<pdfrwt beam="1">  1       21 0.13820343E-02 0.12773135E+03</pdfrwt>
<pdfrwt beam="2">  1       21 0.10366816E+00 0.12773135E+03</pdfrwt>
<totfact> 0.16876541E+06</totfact>
</mgrwt>
</event>
<event>
 6    1  0.4244577E-002  0.1372768E+03  0.7546771E-02  0.1217041E+00
         21   -1    0    0  503  502  0.00000000000E+00  0.00000000000E+00  0.11988250822E+03  0.11988250822E+03  0.00000000000E+00 0.  1.
         21   -1    0    0  504  503 -0.00000000000E+00 -0.00000000000E+00 -0.39033175614E+03  0.39033175614E+03  0.00000000000E+00 0. -1.
         25    2    1    2    0    0 -0.22827931684E+02  0.51963418086E+02  0.77516153223E+02  0.15765046633E+03  0.12499441683E+03 0.  0.
          5    1    3    3  501    0 -0.44412682297E+02 -0.22289635561E+01 -0.16145528487E+02  0.47309013068E+02  0.10000000000E+00 0.  1.
         -5    1    3    3    0  501  0.21584750613E+02  0.54192381642E+02  0.93661681710E+02  0.11034145326E+03  0.10000000000E+00 0.  1.
         21    1    1    2  504  502  0.22827931684E+02 -0.51963418086E+02 -0.34796540115E+03  0.35256379803E+03  0.00000000000E+00 0. -1.
<mgrwt>
<rscale>  1 0.13727678E+03</rscale>
<asrwt>0</asrwt>
<pdfrwt beam="1">  1       21 0.18443462E-01 0.13727678E+03</pdfrwt>
<pdfrwt beam="2">  1       21 0.60051041E-01 0.13727678E+03</pdfrwt>
<totfact> 0.71142234E+04</totfact>
</mgrwt>
</event>
<event>
 6    1  0.4244577E-002  0.1751690E+03  0.7546771E-02  0.1172562E+00
         21   -1    0    0  504  502  0.00000000000E+00  0.00000000000E+00  0.67359897025E+03  0.67359897025E+03  0.00000000000E+00 0. -1.
         21   -1    0    0  502  503 -0.00000000000E+00 -0.00000000000E+00 -0.33512716230E+02  0.33512716230E+02  0.00000000000E+00 0. -1.
         25    2    1    2    0    0 -0.16282133164E+02 -0.12163332246E+03  0.42117473644E+03  0.45614948709E+03  0.12499769184E+03 0.  0.
          5    1    3    3  501    0  0.81663492778E+01 -0.12043669911E+03  0.41309737950E+03  0.43037325975E+03  0.10000000000E+00 0.  1.
         -5    1    3    3    0  501 -0.24448482442E+02 -0.11966233477E+01  0.80773569428E+01  0.25776227348E+02  0.10000000000E+00 0.  1.
         21    1    1    2  504  503  0.16282133164E+02  0.12163332246E+03  0.21891151757E+03  0.25096219938E+03  0.00000000000E+00 0. -1.
<mgrwt>
<rscale>  1 0.17516905E+03</rscale>
<asrwt>0</asrwt>
<pdfrwt beam="1">  1       21 0.10363060E+00 0.17516905E+03</pdfrwt>
<pdfrwt beam="2">  1       21 0.51558030E-02 0.17516905E+03</pdfrwt>
<totfact> 0.19365694E+05</totfact>
</mgrwt>
</event>
<event>
 6    1  0.4244577E-002  0.1259284E+03  0.7546771E-02  0.1233625E+00
         21   -1    0    0  503  502  0.00000000000E+00  0.00000000000E+00  0.95597540268E+03  0.95597540268E+03  0.00000000000E+00 0. -1.
         21   -1    0    0  504  503 -0.00000000000E+00 -0.00000000000E+00 -0.54591325045E+01  0.54591325045E+01  0.00000000000E+00 0. -1.
         25    2    1    2    0    0  0.13423650143E+02 -0.72420251549E+01  0.89667671752E+03  0.90547616904E+03  0.12500126257E+03 0.  0.
          5    1    3    3  501    0 -0.27356765726E+02  0.27449308092E+02  0.71563540735E+03  0.71668396340E+03  0.10000000000E+00 0. -1.
         -5    1    3    3    0  501  0.40780415869E+02 -0.34691333247E+02  0.18104131017E+03  0.18879220563E+03  0.10000000000E+00 0. -1.
         21    1    1    2  504  502 -0.13423650143E+02  0.72420251549E+01  0.53839552656E+02  0.55958366146E+02  0.00000000000E+00 0. -1.
<mgrwt>
<rscale>  1 0.12592838E+03</rscale>
<asrwt>0</asrwt>
<pdfrwt beam="1">  1       21 0.14707301E+00 0.12592838E+03</pdfrwt>
<pdfrwt beam="2">  1       21 0.83986730E-03 0.12592838E+03</pdfrwt>
<totfact> 0.15684167E+06</totfact>
</mgrwt>
</event>
<event>
 6    1  0.4244577E-002  0.1403234E+03  0.7546771E-02  0.1212894E+00
         21   -1    0    0  504  502  0.00000000000E+00  0.00000000000E+00  0.69261303808E+03  0.69261303808E+03  0.00000000000E+00 0. -1.
         21   -1    0    0  502  503 -0.00000000000E+00 -0.00000000000E+00 -0.18663898255E+02  0.18663898255E+02  0.00000000000E+00 0. -1.
         25    2    1    2    0    0  0.59276885869E+02 -0.23410465962E+02  0.58659185717E+03  0.60314232602E+03  0.12501543674E+03 0.  0.
          5    1    3    3  501    0  0.24661418558E+02  0.18823524117E+02  0.49872647289E+03  0.49969051961E+03  0.10000000000E+00 0.  1.
         -5    1    3    3    0  501  0.34615467312E+02 -0.42233990079E+02  0.87865384279E+02  0.10345180641E+03  0.10000000000E+00 0.  1.
         21    1    1    2  504  503 -0.59276885869E+02  0.23410465962E+02  0.87357282654E+02  0.10813461031E+03  0.00000000000E+00 0. -1.
<mgrwt>
<rscale>  1 0.14032341E+03</rscale>
<asrwt>0</asrwt>
<pdfrwt beam="1">  1       21 0.10655583E+00 0.14032341E+03</pdfrwt>
<pdfrwt beam="2">  1       21 0.28713695E-02 0.14032341E+03</pdfrwt>
<totfact> 0.48498699E+05</totfact>
</mgrwt>
</event>
<event>
 6    1  0.4244577E-002  0.1888632E+03  0.7546771E-02  0.1159491E+00
         21   -1    0    0  504  502  0.00000000000E+00  0.00000000000E+00  0.19139542560E+03  0.19139542560E+03  0.00000000000E+00 0.  1.
         21   -1    0    0  502  503 -0.00000000000E+00 -0.00000000000E+00 -0.27830768936E+03  0.27830768936E+03  0.00000000000E+00 0. -1.
         25    2    1    2    0    0  0.14090696570E+03 -0.13780586369E+02  0.11647445240E+03  0.22189102112E+03  0.12499859859E+03 0.  0.
          5    1    3    3  501    0  0.92391287548E+02  0.36317112206E+02  0.17482758629E+02  0.10080049357E+03  0.10000000000E+00 0.  1.
         -5    1    3    3    0  501  0.48515678150E+02 -0.50097698575E+02  0.98991693769E+02  0.12109052756E+03  0.10000000000E+00 0.  1.
         21    1    1    2  504  503 -0.14090696570E+03  0.13780586369E+02 -0.20338671616E+03  0.24781209384E+03  0.00000000000E+00 0. -1.
<mgrwt>
<rscale>  1 0.18886325E+03</rscale>
<asrwt>0</asrwt>
<pdfrwt beam="1">  1       21 0.29445450E-01 0.18886325E+03</pdfrwt>
<pdfrwt beam="2">  1       21 0.42816567E-01 0.18886325E+03</pdfrwt>
<totfact> 0.58073956E+04</totfact>
</mgrwt>
</event>
<event>
 6    1  0.4244577E-002  0.1264367E+03  0.7546771E-02  0.1232841E+00
         21   -1    0    0  503  502  0.00000000000E+00  0.00000000000E+00  0.13438096454E+02  0.13438096454E+02  0.00000000000E+00 0.  1.
         21   -1    0    0  504  503 -0.00000000000E+00 -0.00000000000E+00 -0.76898109458E+03  0.76898109458E+03  0.00000000000E+00 0.  1.
         25    2    1    2    0    0 -0.18933342706E+02 -0.18188043795E+01 -0.28850751726E+03  0.31499655583E+03  0.12499785259E+03 0.  0.
          5    1    3    3  501    0  0.50701663768E+02 -0.15428281681E+02 -0.93401502876E+02  0.10738967047E+03  0.10000000000E+00 0. -1.
         -5    1    3    3    0  501 -0.69635006474E+02  0.13609477301E+02 -0.19510601438E+03  0.20760688536E+03  0.10000000000E+00 0. -1.
         21    1    1    2  504  502  0.18933342706E+02  0.18188043795E+01 -0.46703548087E+03  0.46742263521E+03  0.00000000000E+00 0.  1.
<mgrwt>
<rscale>  1 0.12643671E+03</rscale>
<asrwt>0</asrwt>
<pdfrwt beam="1">  1       21 0.20673989E-02 0.12643671E+03</pdfrwt>
<pdfrwt beam="2">  1       21 0.11830481E+00 0.12643671E+03</pdfrwt>
<totfact> 0.64537876E+05</totfact>
</mgrwt>
</event>
<event>
 6    1  0.4244577E-002  0.1273589E+03  0.7546771E-02  0.1231428E+00
         21   -1    0    0  503  502  0.00000000000E+00  0.00000000000E+00  0.55599993472E+03  0.55599993472E+03  0.00000000000E+00 0. -1.
         21   -1    0    0  504  503 -0.00000000000E+00 -0.00000000000E+00 -0.17078961755E+03  0.17078961755E+03  0.00000000000E+00 0.  1.
         25    2    1    2    0    0  0.45313735311E+01 -0.24001962316E+02  0.54778228736E+03  0.56239285816E+03  0.12499465999E+03 0.  0.
          5    1    3    3  501    0 -0.41566231657E+02 -0.34478284319E+02  0.11514494641E+03  0.12718047172E+03  0.10000000000E+00 0. -1.
         -5    1    3    3    0  501  0.46097605189E+02  0.10476322003E+02  0.43263734095E+03  0.43521238644E+03  0.10000000000E+00 0. -1.
         21    1    1    2  504  502 -0.45313735311E+01  0.24001962316E+02 -0.16257197019E+03  0.16439669411E+03  0.00000000000E+00 0.  1.
<mgrwt>
<rscale>  1 0.12735891E+03</rscale>
<asrwt>0</asrwt>
<pdfrwt beam="1">  1       21 0.85538451E-01 0.12735891E+03</pdfrwt>
<pdfrwt beam="2">  1       21 0.26275326E-01 0.12735891E+03</pdfrwt>
<totfact> 0.17018492E+04</totfact>
</mgrwt>
</event>
<event>
 6    1  0.4244577E-002  0.1263369E+03  0.7546771E-02  0.1232995E+00
         21   -1    0    0  503  502  0.00000000000E+00  0.00000000000E+00  0.83205822690E+03  0.83205822690E+03  0.00000000000E+00 0. -1.
         21   -1    0    0  504  503 -0.00000000000E+00 -0.00000000000E+00 -0.64069095483E+01  0.64069095483E+01  0.00000000000E+00 0. -1.
         25    2    1    2    0    0 -0.14219884016E+02  0.11575188116E+02  0.75365574807E+03  0.76417144845E+03  0.12499930373E+03 0.  0.
          5    1    3    3  501    0 -0.11738061734E+02  0.53866338360E+02  0.16445718009E+03  0.17345183362E+03  0.10000000000E+00 0. -1.
         -5    1    3    3    0  501 -0.24818222822E+01 -0.42291150244E+02  0.58919856798E+03  0.59071961483E+03  0.10000000000E+00 0. -1.
         21    1    1    2  504  502  0.14219884016E+02 -0.11575188116E+02  0.71995569283E+02  0.74293688008E+02  0.00000000000E+00 0. -1.
<mgrwt>
<rscale>  1 0.12633691E+03</rscale>
<asrwt>0</asrwt>
<pdfrwt beam="1">  1       21 0.12800887E+00 0.12633691E+03</pdfrwt>
<pdfrwt beam="2">  1       21 0.98567905E-03 0.12633691E+03</pdfrwt>
<totfact> 0.17314661E+06</totfact>
</mgrwt>
</event>
<event>
 6    1  0.4244577E-002  0.1275627E+03  0.7546771E-02  0.1231118E+00
         21   -1    0    0  504  502  0.00000000000E+00  0.00000000000E+00  0.21122251503E+02  0.21122251503E+02  0.00000000000E+00 0.  1.
         21   -1    0    0  502  503 -0.00000000000E+00 -0.00000000000E+00 -0.28876354705E+03  0.28876354705E+03  0.00000000000E+00 0.  1.
         25    2    1    2    0    0  0.70588557423E+01 -0.24603705648E+02 -0.19644645060E+03  0.23422949860E+03  0.12496831712E+03 0.  0.
          5    1    3    3  501    0  0.46661171326E+02 -0.16389814783E+02 -0.20234251264E+02  0.53435249249E+02  0.10000000000E+00 0.  1.
         -5    1    3    3    0  501 -0.39602315583E+02 -0.82138908655E+01 -0.17621219934E+03  0.18079424935E+03  0.10000000000E+00 0.  1.
         21    1    1    2  504  503 -0.70588557423E+01  0.24603705648E+02 -0.71194844947E+02  0.75656299956E+02  0.00000000000E+00 0. -1.
<mgrwt>
<rscale>  1 0.12756273E+03</rscale>
<asrwt>0</asrwt>
<pdfrwt beam="1">  1       21 0.32495774E-02 0.12756273E+03</pdfrwt>
<pdfrwt beam="2">  1       21 0.44425158E-01 0.12756273E+03</pdfrwt>
<totfact> 0.26757739E+06</totfact>
</mgrwt>
</event>
<event>
 6    1  0.4244577E-002  0.1266184E+03  0.7546771E-02  0.1232561E+00
         21   -1    0    0  504  502  0.00000000000E+00  0.00000000000E+00  0.43717773319E+02  0.43717773319E+02  0.00000000000E+00 0. -1.
         21   -1    0    0  502  503 -0.00000000000E+00 -0.00000000000E+00 -0.32201320647E+03  0.32201320647E+03  0.00000000000E+00 0. -1.
         25    2    1    2    0    0 -0.15628276779E+02 -0.12765869192E+02 -0.49346454573E+02  0.13589441776E+03  0.12500003900E+03 0.  0.
          5    1    3    3  501    0  0.10214072170E+02 -0.11140537387E+02 -0.88044508274E+02  0.89332436890E+02  0.10000000000E+00 0. -1.
         -5    1    3    3    0  501 -0.25842348949E+02 -0.16253318049E+01  0.38698053700E+02  0.46561980874E+02  0.10000000000E+00 0. -1.
         21    1    1    2  504  503  0.15628276779E+02  0.12765869192E+02 -0.22894897858E+03  0.22983656203E+03  0.00000000000E+00 0. -1.
<mgrwt>
<rscale>  1 0.12661840E+03</rscale>
<asrwt>0</asrwt>
<pdfrwt beam="1">  1       21 0.67258115E-02 0.12661840E+03</pdfrwt>
<pdfrwt beam="2">  1       21 0.49540492E-01 0.12661840E+03</pdfrwt>
<totfact> 0.63366183E+05</totfact>
</mgrwt>
</event>
<event>
 6    1  0.4244577E-002  0.1334712E+03  0.7546771E-02  0.1222394E+00
         21   -1    0    0  503  502  0.00000000000E+00  0.00000000000E+00  0.23793118974E+02  0.23793118974E+02  0.00000000000E+00 0. -1.
         21   -1    0    0  504  503 -0.00000000000E+00 -0.00000000000E+00 -0.42935168405E+03  0.42935168405E+03  0.00000000000E+00 0. -1.
         25    2    1    2    0    0 -0.29258769355E+02  0.36515208759E+02 -0.18769312161E+03  0.23031126086E+03  0.12500053170E+03 0.  0.
          5    1    3    3  501    0 -0.35958634581E+02  0.41658223180E+00 -0.19014360404E+03  0.19351433306E+03  0.10000000000E+00 0.  1.
         -5    1    3    3    0  501  0.66998652263E+01  0.36098626527E+02  0.24504824379E+01  0.36796927798E+02  0.10000000000E+00 0.  1.
         21    1    1    2  504  502  0.29258769355E+02 -0.36515208759E+02 -0.21786544347E+03  0.22283354216E+03  0.00000000000E+00 0. -1.
<mgrwt>
<rscale>  1 0.13347123E+03</rscale>
<asrwt>0</asrwt>
<pdfrwt beam="1">  1       21 0.36604798E-02 0.13347123E+03</pdfrwt>
<pdfrwt beam="2">  1       21 0.66054106E-01 0.13347123E+03</pdfrwt>
<totfact> 0.95992881E+05</totfact>
</mgrwt>
</event>
<event>
 6    1  0.4244577E-002  0.1262400E+03  0.7546771E-02  0.1233144E+00
         21   -1    0    0  504  502  0.00000000000E+00  0.00000000000E+00  0.26472083542E+03  0.26472083542E+03  0.00000000000E+00 0. -1.
         21   -1    0    0  502  503 -0.00000000000E+00 -0.00000000000E+00 -0.26549978554E+02  0.26549978554E+02  0.00000000000E+00 0. -1.
         25    2    1    2    0    0  0.47285141743E+01 -0.17359213959E+02  0.24193441436E+03  0.27288969538E+03  0.12495128587E+03 0.  0.
          5    1    3    3  501    0 -0.24287642908E+02 -0.61055771222E+02  0.85099069301E+02  0.10751538678E+03  0.10000000000E+00 0. -1.
         -5    1    3    3    0  501  0.29016157082E+02  0.43696557263E+02  0.15683534506E+03  0.16537430861E+03  0.10000000000E+00 0. -1.
         21    1    1    2  504  503 -0.47285141743E+01  0.17359213959E+02 -0.37635574931E+01  0.18381118589E+02  0.00000000000E+00 0. -1.
<mgrwt>
<rscale>  1 0.12623995E+03</rscale>
<asrwt>0</asrwt>
<pdfrwt beam="1">  1       21 0.40726281E-01 0.12623995E+03</pdfrwt>
<pdfrwt beam="2">  1       21 0.40846123E-02 0.12623995E+03</pdfrwt>
<totfact> 0.21836181E+06</totfact>
</mgrwt>
</event>
<event>
 6    1  0.4244577E-002  0.1463754E+03  0.7546771E-02  0.1204999E+00
         21   -1    0    0  504  502  0.00000000000E+00  0.00000000000E+00  0.11636382240E+03  0.11636382240E+03  0.00000000000E+00 0. -1.
         21   -1    0    0  502  503 -0.00000000000E+00 -0.00000000000E+00 -0.33553207031E+03  0.33553207031E+03  0.00000000000E+00 0.  1.
         25    2    1    2    0    0  0.45852047916E+02 -0.60829686609E+02  0.63197510015E+02  0.15943549826E+03  0.12499236682E+03 0.  0.
          5    1    3    3  501    0  0.28226723113E+02  0.26233194357E+02 -0.14744601146E+02  0.41259443123E+02  0.10000000000E+00 0. -1.
         -5    1    3    3    0  501  0.17625324803E+02 -0.87062880966E+02  0.77942111161E+02  0.11817605514E+03  0.10000000000E+00 0. -1.
         21    1    1    2  504  503 -0.45852047916E+02  0.60829686609E+02 -0.28236575792E+03  0.29246039444E+03  0.00000000000E+00 0.  1.
<mgrwt>
<rscale>  1 0.14637538E+03</rscale>
<asrwt>0</asrwt>
<pdfrwt beam="1">  1       21 0.17902127E-01 0.14637538E+03</pdfrwt>
<pdfrwt beam="2">  1       21 0.51620318E-01 0.14637538E+03</pdfrwt>
<totfact> 0.10290243E+05</totfact>
</mgrwt>
</event>
<event>
 6    1  0.4244577E-002  0.1269459E+03  0.7546771E-02  0.1232059E+00
         21   -1    0    0  504  502  0.00000000000E+00  0.00000000000E+00  0.25353973053E+03  0.25353973053E+03  0.00000000000E+00 0. -1.
         21   -1    0    0  502  503 -0.00000000000E+00 -0.00000000000E+00 -0.49626244652E+02  0.49626244652E+02  0.00000000000E+00 0. -1.
         25    2    1    2    0    0  0.21804383894E+02  0.30382168005E+01  0.23380329863E+03  0.26604370659E+03  0.12502243577E+03 0.  0.
          5    1    3    3  501    0  0.62823612783E+02 -0.33829979962E+02  0.14274022938E+03  0.15958087902E+03  0.10000000000E+00 0. -1.
         -5    1    3    3    0  501 -0.41019228888E+02  0.36868196762E+02  0.91063069258E+02  0.10646282757E+03  0.10000000000E+00 0. -1.
         21    1    1    2  504  503 -0.21804383894E+02 -0.30382168005E+01 -0.29889812759E+02  0.37122268588E+02  0.00000000000E+00 0. -1.
<mgrwt>
<rscale>  1 0.12694594E+03</rscale>
<asrwt>0</asrwt>
<pdfrwt beam="1">  1       21 0.39006112E-01 0.12694594E+03</pdfrwt>
<pdfrwt beam="2">  1       21 0.76348070E-02 0.12694594E+03</pdfrwt>
<totfact> 0.82758386E+05</totfact>
</mgrwt>
</event>
<event>
 6    1  0.4244577E-002  0.1993142E+03  0.7546771E-02  0.1150319E+00
         21   -1    0    0  503  502  0.00000000000E+00  0.00000000000E+00  0.43377509529E+03  0.43377509529E+03  0.00000000000E+00 0. -1.
         21   -1    0    0  504  503 -0.00000000000E+00 -0.00000000000E+00 -0.15670873569E+03  0.15670873569E+03  0.00000000000E+00 0.  1.
         25    2    1    2    0    0  0.13102658962E+03  0.83268833111E+02  0.36220554272E+03  0.41342354108E+03  0.12499801355E+03 0.  0.
          5    1    3    3  501    0  0.12845928556E+03  0.83399502766E+02  0.20348912501E+03  0.25468627585E+03  0.10000000000E+00 0.  1.
         -5    1    3    3    0  501  0.25673040609E+01 -0.13066965553E+00  0.15871641770E+03  0.15873726523E+03  0.10000000000E+00 0.  1.
         21    1    1    2  504  502 -0.13102658962E+03 -0.83268833111E+02 -0.85139183122E+02  0.17706028990E+03  0.00000000000E+00 0.  1.
<mgrwt>
<rscale>  1 0.19931425E+03</rscale>
<asrwt>0</asrwt>
<pdfrwt beam="1">  1       21 0.66734630E-01 0.19931425E+03</pdfrwt>
<pdfrwt beam="2">  1       21 0.24109036E-01 0.19931425E+03</pdfrwt>
<totfact> 0.33280208E+04</totfact>
</mgrwt>
</event>
<event>
 6    1  0.4244577E-002  0.1267145E+03  0.7546771E-02  0.1232414E+00
         21   -1    0    0  503  502  0.00000000000E+00  0.00000000000E+00  0.45287996301E+02  0.45287996301E+02  0.00000000000E+00 0. -1.
         21   -1    0    0  504  503 -0.00000000000E+00 -0.00000000000E+00 -0.15934971912E+03  0.15934971912E+03  0.00000000000E+00 0. -1.
         25    2    1    2    0    0 -0.18430204793E+02  0.96686512565E+01 -0.48210542467E+02  0.13557590818E+03  0.12499366067E+03 0.  0.
          5    1    3    3  501    0 -0.23506485292E+02  0.39669174112E+02 -0.79516951886E+02  0.91919279059E+02  0.10000000000E+00 0. -1.
         -5    1    3    3    0  501  0.50762804996E+01 -0.30000522855E+02  0.31306409419E+02  0.43656629119E+02  0.10000000000E+00 0. -1.
         21    1    1    2  504  502  0.18430204793E+02 -0.96686512565E+01 -0.65851180354E+02  0.69061807244E+02  0.00000000000E+00 0. -1.
<mgrwt>
<rscale>  1 0.12671452E+03</rscale>
<asrwt>0</asrwt>
<pdfrwt beam="1">  1       21 0.69673839E-02 0.12671452E+03</pdfrwt>
<pdfrwt beam="2">  1       21 0.24515342E-01 0.12671452E+03</pdfrwt>
<totfact> 0.23784812E+06</totfact>
</mgrwt>
</event>
<event>
 6    1  0.4244577E-002  0.1379447E+03  0.7546771E-02  0.1216122E+00
         21   -1    0    0  503  502  0.00000000000E+00  0.00000000000E+00  0.41309999154E+02  0.41309999154E+02  0.00000000000E+00 0.  1.
         21   -1    0    0  504  503 -0.00000000000E+00 -0.00000000000E+00 -0.23434572693E+03  0.23434572693E+03  0.00000000000E+00 0.  1.
         25    2    1    2    0    0  0.48935917301E+02  0.31770286188E+02 -0.12654352497E+03  0.18719506748E+03  0.12499861795E+03 0.  0.
          5    1    3    3  501    0  0.78383170647E+01  0.48401362171E+02  0.41296070958E+01  0.49205637169E+02  0.10000000000E+00 0.  1.
         -5    1    3    3    0  501  0.41097600236E+02 -0.16631075983E+02 -0.13067313207E+03  0.13798943031E+03  0.10000000000E+00 0.  1.
         21    1    1    2  504  502 -0.48935917301E+02 -0.31770286188E+02 -0.66492202805E+02  0.88460658603E+02  0.00000000000E+00 0.  1.
<mgrwt>
<rscale>  1 0.13794466E+03</rscale>
<asrwt>0</asrwt>
<pdfrwt beam="1">  1       21 0.63553845E-02 0.13794466E+03</pdfrwt>
<pdfrwt beam="2">  1       21 0.36053189E-01 0.13794466E+03</pdfrwt>
<totfact> 0.13249375E+06</totfact>
</mgrwt>
</event>
<event>
 6    1  0.4244577E-002  0.1272933E+03  0.7546771E-02  0.1231528E+00
         21   -1    0    0  503  502  0.00000000000E+00  0.00000000000E+00  0.30809904555E+03  0.30809904555E+03  0.00000000000E+00 0.  1.
         21   -1    0    0  504  503 -0.00000000000E+00 -0.00000000000E+00 -0.18736341968E+02  0.18736341968E+02  0.00000000000E+00 0.  1.
         25    2    1    2    0    0 -0.21553014628E+02  0.10703102465E+02  0.25321274440E+03  0.28340834075E+03  0.12499801934E+03 0.  0.
          5    1    3    3  501    0 -0.25856945301E+02 -0.22383355914E+02  0.69537365038E+01  0.34899293598E+02  0.10000000000E+00 0. -1.
         -5    1    3    3    0  501  0.43039306726E+01  0.33086458380E+02  0.24625900790E+03  0.24850904716E+03  0.10000000000E+00 0. -1.
         21    1    1    2  504  502  0.21553014628E+02 -0.10703102465E+02  0.36149959177E+02  0.43427046762E+02  0.00000000000E+00 0.  1.
<mgrwt>
<rscale>  1 0.12729334E+03</rscale>
<asrwt>0</asrwt>
<pdfrwt beam="1">  1       21 0.47399849E-01 0.12729334E+03</pdfrwt>
<pdfrwt beam="2">  1       21 0.28825144E-02 0.12729334E+03</pdfrwt>
<totfact> 0.28543716E+06</totfact>
</mgrwt>
</event>
<event>
 6    1  0.4244577E-002  0.1332470E+03  0.7546771E-02  0.1222716E+00
         21   -1    0    0  503  502  0.00000000000E+00  0.00000000000E+00  0.36130570948E+02  0.36130570948E+02  0.00000000000E+00 0.  1.
         21   -1    0    0  504  503 -0.00000000000E+00 -0.00000000000E+00 -0.60973322860E+03  0.60973322860E+03  0.00000000000E+00 0.  1.
         25    2    1    2    0    0 -0.42845079600E+02  0.17168589598E+02 -0.91690977403E+02  0.16174673842E+03  0.12499724292E+03 0.  0.
          5    1    3    3  501    0  0.25173999190E+02  0.28862645272E+02 -0.83979339780E+02  0.92300173549E+02  0.10000000000E+00 0. -1.
         -5    1    3    3    0  501 -0.68019078790E+02 -0.11694055674E+02 -0.77116376224E+01  0.69446564871E+02  0.10000000000E+00 0. -1.
         21    1    1    2  504  502  0.42845079600E+02 -0.17168589598E+02 -0.48191168025E+03  0.48411706113E+03  0.00000000000E+00 0.  1.
<mgrwt>
<rscale>  1 0.13324703E+03</rscale>
<asrwt>0</asrwt>
<pdfrwt beam="1">  1       21 0.55585494E-02 0.13324703E+03</pdfrwt>
<pdfrwt beam="2">  1       21 0.93805111E-01 0.13324703E+03</pdfrwt>
<totfact> 0.21824706E+05</totfact>
</mgrwt>
</event>
<event>
 6    1  0.4244577E-002  0.1303307E+03  0.7546771E-02  0.1226966E+00
         21   -1    0    0  504  502  0.00000000000E+00  0.00000000000E+00  0.76208287475E+03  0.76208287475E+03  0.00000000000E+00 0. -1.
         21   -1    0    0  502  503 -0.00000000000E+00 -0.00000000000E+00 -0.53100430933E+03  0.53100430933E+03  0.00000000000E+00 0.  1.
         25    2    1    2    0    0  0.26918681113E+02  0.25227477303E+02  0.75585829153E+03  0.76701228262E+03  0.12500017521E+03 0.  0.
          5    1    3    3  501    0  0.45045693975E+02 -0.84923293340E+01  0.99643141361E+02  0.10968135586E+03  0.10000000000E+00 0.  1.
         -5    1    3    3    0  501 -0.18127012862E+02  0.33719806637E+02  0.65621515017E+03  0.65733092676E+03  0.10000000000E+00 0.  1.
         21    1    1    2  504  503 -0.26918681113E+02 -0.25227477303E+02 -0.52477972612E+03  0.52607490146E+03  0.00000000000E+00 0.  1.
<mgrwt>
<rscale>  1 0.13033067E+03</rscale>
<asrwt>0</asrwt>
<pdfrwt beam="1">  1       21 0.11724352E+00 0.13033067E+03</pdfrwt>
<pdfrwt beam="2">  1       21 0.81692970E-01 0.13033067E+03</pdfrwt>
<totfact> 0.79187783E+02</totfact>
</mgrwt>
</event>
<event>
 6    1  0.4244577E-002  0.1283780E+03  0.7546771E-02  0.1229883E+00
         21   -1    0    0  504  502  0.00000000000E+00  0.00000000000E+00  0.11598270070E+04  0.11598270070E+04  0.00000000000E+00 0. -1.
         21   -1    0    0  502  503 -0.00000000000E+00 -0.00000000000E+00 -0.63861217414E+01  0.63861217414E+01  0.00000000000E+00 0. -1.
         25    2    1    2    0    0  0.27837230651E+02  0.90146594256E+01  0.10723017394E+04  0.10799592217E+04  0.12499889861E+03 0.  0.
          5    1    3    3  501    0  0.43182403936E+02  0.37533094468E+02  0.22911128471E+03  0.23614708123E+03  0.10000000000E+00 0.  1.
         -5    1    3    3    0  501 -0.15345173285E+02 -0.28518435042E+02  0.84319045469E+03  0.84381214045E+03  0.10000000000E+00 0.  1.
         21    1    1    2  504  503 -0.27837230651E+02 -0.90146594256E+01  0.81139145899E+02  0.86253907112E+02  0.00000000000E+00 0. -1.
<mgrwt>
<rscale>  1 0.12837796E+03</rscale>
<asrwt>0</asrwt>
<pdfrwt beam="1">  1       21 0.17843476E+00 0.12837796E+03</pdfrwt>
<pdfrwt beam="2">  1       21 0.98248119E-03 0.12837796E+03</pdfrwt>
<totfact> 0.73295508E+05</totfact>
</mgrwt>
</event>
<event>
 6    1  0.4244577E-002  0.1413543E+03  0.7546771E-02  0.1211518E+00
         21   -1    0    0  503  502  0.00000000000E+00  0.00000000000E+00  0.61749305065E+01  0.61749305065E+01  0.00000000000E+00 0. -1.
         21   -1    0    0  504  503 -0.00000000000E+00 -0.00000000000E+00 -0.17428510280E+04  0.17428510280E+04  0.00000000000E+00 0. -1.
         25    2    1    2    0    0 -0.39813939998E+02 -0.52629204477E+02 -0.11543301725E+04  0.11629527896E+04  0.12500424257E+03 0.  0.
          5    1    3    3  501    0 -0.22273548041E+02 -0.69092030138E+02 -0.11111898891E+04  0.11135586196E+04  0.10000000000E+00 0.  1.
         -5    1    3    3    0  501 -0.17540391958E+02  0.16462825661E+02 -0.43140283355E+02  0.49394169967E+02  0.10000000000E+00 0.  1.
         21    1    1    2  504  502  0.39813939998E+02  0.52629204477E+02 -0.58234592499E+03  0.58607316892E+03  0.00000000000E+00 0. -1.
<mgrwt>
<rscale>  1 0.14135432E+03</rscale>
<asrwt>0</asrwt>
<pdfrwt beam="1">  1       21 0.94999042E-03 0.14135432E+03</pdfrwt>
<pdfrwt beam="2">  1       21 0.26813061E+00 0.14135432E+03</pdfrwt>
<totfact> 0.21994630E+05</totfact>
</mgrwt>
</event>
<event>
 6    1  0.4244577E-002  0.1265766E+03  0.7546771E-02  0.1232626E+00
         21   -1    0    0  503  502  0.00000000000E+00  0.00000000000E+00  0.51194272352E+02  0.51194272352E+02  0.00000000000E+00 0. -1.
         21   -1    0    0  504  503 -0.00000000000E+00 -0.00000000000E+00 -0.10532863084E+03  0.10532863084E+03  0.00000000000E+00 0. -1.
         25    2    1    2    0    0 -0.19851063777E+02  0.32019373382E+00 -0.50805241702E+02  0.13639207421E+03  0.12500983187E+03 0.  0.
          5    1    3    3  501    0 -0.25085279002E+02  0.29136654767E+02  0.31072267430E+02  0.49433912215E+02  0.10000000000E+00 0. -1.
         -5    1    3    3    0  501  0.52342152252E+01 -0.28816461033E+02 -0.81877509132E+02  0.86958161993E+02  0.10000000000E+00 0. -1.
         21    1    1    2  504  502  0.19851063777E+02 -0.32019373382E+00 -0.33291167904E+01  0.20130828987E+02  0.00000000000E+00 0. -1.
<mgrwt>
<rscale>  1 0.12657656E+03</rscale>
<asrwt>0</asrwt>
<pdfrwt beam="1">  1       21 0.78760420E-02 0.12657656E+03</pdfrwt>
<pdfrwt beam="2">  1       21 0.16204405E-01 0.12657656E+03</pdfrwt>
<totfact> 0.41418880E+06</totfact>
</mgrwt>
</event>
<event>
 6    1  0.4244577E-002  0.1290019E+03  0.7546771E-02  0.1228944E+00
         21   -1    0    0  503  502  0.00000000000E+00  0.00000000000E+00  0.11960360991E+04  0.11960360991E+04  0.00000000000E+00 0.  1.
         21   -1    0    0  504  503 -0.00000000000E+00 -0.00000000000E+00 -0.57576356291E+03  0.57576356291E+03  0.00000000000E+00 0. -1.
         25    2    1    2    0    0  0.30126640067E+02  0.10189350729E+02  0.11921145029E+04  0.11990740102E+04  0.12502022530E+03 0.  0.
          5    1    3    3  501    0  0.57201452611E+02  0.32620601197E+02  0.10693031487E+04  0.10713287747E+04  0.10000000000E+00 0. -1.
         -5    1    3    3    0  501 -0.27074812544E+02 -0.22431250468E+02  0.12281135419E+03  0.12774523549E+03  0.10000000000E+00 0. -1.
         21    1    1    2  504  502 -0.30126640067E+02 -0.10189350729E+02 -0.57184196670E+03  0.57272565177E+03  0.00000000000E+00 0. -1.
<mgrwt>
<rscale>  1 0.12900191E+03</rscale>
<asrwt>0</asrwt>
<pdfrwt beam="1">  1       21 0.18400555E+00 0.12900191E+03</pdfrwt>
<pdfrwt beam="2">  1       21 0.88579010E-01 0.12900191E+03</pdfrwt>
<totfact> 0.20593086E+02</totfact>
</mgrwt>
</event>
<event>
 6    1  0.4244577E-002  0.1357565E+03  0.7546771E-02  0.1219156E+00
         21   -1    0    0  504  502  0.00000000000E+00  0.00000000000E+00  0.67777107294E+02  0.67777107294E+02  0.00000000000E+00 0.  1.
         21   -1    0    0  502  503 -0.00000000000E+00 -0.00000000000E+00 -0.40727507951E+03  0.40727507951E+03  0.00000000000E+00 0.  1.
         25    2    1    2    0    0  0.22757993071E+02  0.47822340087E+02 -0.44345447996E+01  0.13582895226E+03  0.12499974650E+03 0.  0.
          5    1    3    3  501    0 -0.22437629319E+02 -0.34858858634E+02 -0.34076822603E+01  0.41595787445E+02  0.10000000000E+00 0. -1.
         -5    1    3    3    0  501  0.45195622390E+02  0.82681198722E+02 -0.10268625394E+01  0.94233164820E+02  0.10000000000E+00 0. -1.
         21    1    1    2  504  503 -0.22757993071E+02 -0.47822340087E+02 -0.33506342742E+03  0.33922323454E+03  0.00000000000E+00 0. -1.
<mgrwt>
<rscale>  1 0.13575654E+03</rscale>
<asrwt>0</asrwt>
<pdfrwt beam="1">  1       21 0.10427247E-01 0.13575654E+03</pdfrwt>
<pdfrwt beam="2">  1       21 0.62657705E-01 0.13575654E+03</pdfrwt>
<totfact> 0.18094064E+05</totfact>
</mgrwt>
</event>
<event>
 6    1  0.4244577E-002  0.1269460E+03  0.7546771E-02  0.1232059E+00
         21   -1    0    0  504  502  0.00000000000E+00  0.00000000000E+00  0.49955247404E+02  0.49955247404E+02  0.00000000000E+00 0.  1.
         21   -1    0    0  502  503 -0.00000000000E+00 -0.00000000000E+00 -0.11213119161E+03  0.11213119161E+03  0.00000000000E+00 0.  1.
         25    2    1    2    0    0  0.18050219409E+02  0.12875907257E+02 -0.47724387461E+02  0.13562048162E+03  0.12499479376E+03 0.  0.
          5    1    3    3  501    0 -0.48852802445E+02 -0.61642238457E+01 -0.43879446612E+02  0.65954604064E+02  0.10000000000E+00 0. -1.
         -5    1    3    3    0  501  0.66903021854E+02  0.19040131103E+02 -0.38449408492E+01  0.69665877556E+02  0.10000000000E+00 0. -1.
         21    1    1    2  504  503 -0.18050219409E+02 -0.12875907257E+02 -0.14451556746E+02  0.26465957394E+02  0.00000000000E+00 0.  1.
<mgrwt>
<rscale>  1 0.12694604E+03</rscale>
<asrwt>0</asrwt>
<pdfrwt beam="1">  1       21 0.76854227E-02 0.12694604E+03</pdfrwt>
<pdfrwt beam="2">  1       21 0.17250952E-01 0.12694604E+03</pdfrwt>
<totfact> 0.38561130E+06</totfact>
</mgrwt>
</event>
<event>
 6    1  0.4244577E-002  0.1262414E+03  0.7546771E-02  0.1233142E+00
         21   -1    0    0  504  502  0.00000000000E+00  0.00000000000E+00  0.53029666172E+02  0.53029666172E+02  0.00000000000E+00 0.  1.
         21   -1    0    0  502  503 -0.00000000000E+00 -0.00000000000E+00 -0.18514542103E+03  0.18514542103E+03  0.00000000000E+00 0.  1.
         25    2    1    2    0    0  0.15233704977E+02 -0.89195582564E+01 -0.23843748668E+02  0.12847343903E+03  0.12500110359E+03 0.  0.
          5    1    3    3  501    0 -0.14826137006E+02 -0.45103324295E+02 -0.54534493761E+02  0.72305914079E+02  0.10000000000E+00 0. -1.
         -5    1    3    3    0  501  0.30059841983E+02  0.36183766039E+02  0.30690745093E+02  0.56167524952E+02  0.10000000000E+00 0. -1.
         21    1    1    2  504  503 -0.15233704977E+02  0.89195582564E+01 -0.10827200619E+03  0.10970164817E+03  0.00000000000E+00 0.  1.
<mgrwt>
<rscale>  1 0.12624144E+03</rscale>
<asrwt>0</asrwt>
<pdfrwt beam="1">  1       21 0.81584102E-02 0.12624144E+03</pdfrwt>
<pdfrwt beam="2">  1       21 0.28483911E-01 0.12624144E+03</pdfrwt>
<totfact> 0.13637848E+06</totfact>
</mgrwt>
</event>
<event>
 6    1  0.4244577E-002  0.1335471E+03  0.7546771E-02  0.1222285E+00
         21   -1    0    0  504  502  0.00000000000E+00  0.00000000000E+00  0.29851460062E+03  0.29851460062E+03  0.00000000000E+00 0.  1.
         21   -1    0    0  502  503 -0.00000000000E+00 -0.00000000000E+00 -0.10060008740E+03  0.10060008740E+03  0.00000000000E+00 0.  1.
         25    2    1    2    0    0 -0.30071697278E+02  0.36162099775E+02  0.27676627872E+03  0.30730180570E+03  0.12499128893E+03 0.  0.
          5    1    3    3  501    0 -0.16381472779E+02  0.38318408711E+02  0.28704029267E+03  0.29004963836E+03  0.10000000000E+00 0.  1.
         -5    1    3    3    0  501 -0.13690224499E+02 -0.21563089356E+01 -0.10274013950E+02  0.17252167334E+02  0.10000000000E+00 0.  1.
         21    1    1    2  504  503  0.30071697278E+02 -0.36162099775E+02 -0.78851765500E+02  0.91812882319E+02  0.00000000000E+00 0.  1.
<mgrwt>
<rscale>  1 0.13354710E+03</rscale>
<asrwt>0</asrwt>
<pdfrwt beam="1">  1       21 0.45925323E-01 0.13354710E+03</pdfrwt>
<pdfrwt beam="2">  1       21 0.15476937E-01 0.13354710E+03</pdfrwt>
<totfact> 0.17141847E+05</totfact>
</mgrwt>
</event>
<event>
 6    1  0.4244577E-002  0.1259098E+03  0.7546771E-02  0.1233654E+00
         21   -1    0    0  503  502  0.00000000000E+00  0.00000000000E+00  0.32527412254E+03  0.32527412254E+03  0.00000000000E+00 0.  1.
         21   -1    0    0  504  503 -0.00000000000E+00 -0.00000000000E+00 -0.61028201235E+02  0.61028201235E+02  0.00000000000E+00 0. -1.
         25    2    1    2    0    0 -0.50179889126E+01 -0.14236567435E+02  0.31187836007E+03  0.33633524174E+03  0.12500169316E+03 0.  0.
          5    1    3    3  501    0 -0.55567274382E+02 -0.33449081155E+02  0.11356160795E+03  0.13077771910E+03  0.10000000000E+00 0. -1.
         -5    1    3    3    0  501  0.50549285469E+02  0.19212513720E+02  0.19831675212E+03  0.20555752264E+03  0.10000000000E+00 0. -1.
         21    1    1    2  504  502  0.50179889126E+01  0.14236567435E+02 -0.47632438760E+02  0.49967082037E+02  0.00000000000E+00 0. -1.
<mgrwt>
<rscale>  1 0.12590982E+03</rscale>
<asrwt>0</asrwt>
<pdfrwt beam="1">  1       21 0.50042172E-01 0.12590982E+03</pdfrwt>
<pdfrwt beam="2">  1       21 0.93889542E-02 0.12590982E+03</pdfrwt>
<totfact> 0.34936949E+05</totfact>
</mgrwt>
</event>
<event>
 6    1  0.4244577E-002  0.1364805E+03  0.7546771E-02  0.1218145E+00
         21   -1    0    0  504  502  0.00000000000E+00  0.00000000000E+00  0.14618866093E+03  0.14618866093E+03  0.00000000000E+00 0. -1.
         21   -1    0    0  502  503 -0.00000000000E+00 -0.00000000000E+00 -0.50669487239E+03  0.50669487239E+03  0.00000000000E+00 0. -1.
         25    2    1    2    0    0  0.19376779001E+02 -0.51250318873E+02  0.11240425861E+03  0.17680962366E+03  0.12499948367E+03 0.  0.
          5    1    3    3  501    0  0.62693523215E+02  0.22732060977E+01  0.30343381254E+02  0.69687704116E+02  0.10000000000E+00 0.  1.
         -5    1    3    3    0  501 -0.43316744214E+02 -0.53523524970E+02  0.82060877356E+02  0.10712191955E+03  0.10000000000E+00 0.  1.
         21    1    1    2  504  503 -0.19376779001E+02  0.51250318873E+02 -0.47291047007E+03  0.47607390965E+03  0.00000000000E+00 0. -1.
<mgrwt>
<rscale>  1 0.13648050E+03</rscale>
<asrwt>0</asrwt>
<pdfrwt beam="1">  1       21 0.22490563E-01 0.13648050E+03</pdfrwt>
<pdfrwt beam="2">  1       21 0.77953057E-01 0.13648050E+03</pdfrwt>
<totfact> 0.27920346E+04</totfact>
</mgrwt>
</event>
<event>
 6    1  0.4244577E-002  0.1261071E+03  0.7546771E-02  0.1233349E+00
         21   -1    0    0  504  502  0.00000000000E+00  0.00000000000E+00  0.12768595431E+03  0.12768595431E+03  0.00000000000E+00 0.  1.
         21   -1    0    0  502  503 -0.00000000000E+00 -0.00000000000E+00 -0.44885718448E+02  0.44885718448E+02  0.00000000000E+00 0.  1.
         25    2    1    2    0    0  0.11382888125E+02  0.12210594618E+02  0.89442008403E+02  0.15460554058E+03  0.12499732616E+03 0.  0.
          5    1    3    3  501    0 -0.27563389264E+01 -0.42099330984E+02 -0.72493651908E+01  0.42807877420E+02  0.10000000000E+00 0.  1.
         -5    1    3    3    0  501  0.14139227052E+02  0.54309925601E+02  0.96691373594E+02  0.11179766316E+03  0.10000000000E+00 0.  1.
         21    1    1    2  504  503 -0.11382888125E+02 -0.12210594618E+02 -0.66417725413E+01  0.17966132179E+02  0.00000000000E+00 0.  1.
<mgrwt>
<rscale>  1 0.12610710E+03</rscale>
<asrwt>0</asrwt>
<pdfrwt beam="1">  1       21 0.19643993E-01 0.12610710E+03</pdfrwt>
<pdfrwt beam="2">  1       21 0.69054952E-02 0.12610710E+03</pdfrwt>
<totfact> 0.36494109E+06</totfact>
</mgrwt>
</event>
<event>
 6    1  0.4244577E-002  0.1265955E+03  0.7546771E-02  0.1232597E+00
         21   -1    0    0  504  502  0.00000000000E+00  0.00000000000E+00  0.31513488466E+01  0.31513488466E+01  0.00000000000E+00 0.  1.
         21   -1    0    0  502  503 -0.00000000000E+00 -0.00000000000E+00 -0.17369477900E+04  0.17369477900E+04  0.00000000000E+00 0.  1.
         25    2    1    2    0    0  0.18479191277E+02 -0.79369311895E+01 -0.14066868613E+04  0.14123718854E+04  0.12498776608E+03 0.  0.
          5    1    3    3  501    0 -0.31172090140E+02  0.38379896319E+02 -0.87045229360E+03  0.87185544735E+03  0.10000000000E+00 0. -1.
         -5    1    3    3    0  501  0.49651281417E+02 -0.46316827509E+02 -0.53623456767E+03  0.54051643807E+03  0.10000000000E+00 0. -1.
         21    1    1    2  504  503 -0.18479191277E+02  0.79369311895E+01 -0.32710957986E+03  0.32772725340E+03  0.00000000000E+00 0.  1.
<mgrwt>
<rscale>  1 0.12659549E+03</rscale>
<asrwt>0</asrwt>
<pdfrwt beam="1">  1       21 0.48482408E-03 0.12659549E+03</pdfrwt>
<pdfrwt beam="2">  1       21 0.26722209E+00 0.12659549E+03</pdfrwt>
<totfact> 0.64192315E+05</totfact>
</mgrwt>
</event>
<event>
 6    1  0.4244577E-002  0.1279191E+03  0.7546771E-02  0.1230576E+00
         21   -1    0    0  503  502  0.00000000000E+00  0.00000000000E+00  0.10465025281E+02  0.10465025281E+02  0.00000000000E+00 0. -1.
         21   -1    0    0  504  503 -0.00000000000E+00 -0.00000000000E+00 -0.57456726107E+03  0.57456726107E+03  0.00000000000E+00 0. -1.
         25    2    1    2    0    0 -0.19670099970E+02  0.18737277576E+02 -0.46523107843E+03  0.48249690630E+03  0.12500123941E+03 0.  0.
          5    1    3    3  501    0 -0.35500554519E+02  0.63776757399E+02 -0.19779707306E+03  0.21083514002E+03  0.10000000000E+00 0. -1.
         -5    1    3    3    0  501  0.15830454549E+02 -0.45039479823E+02 -0.26743400537E+03  0.27166176628E+03  0.10000000000E+00 0. -1.
         21    1    1    2  504  502  0.19670099970E+02 -0.18737277576E+02 -0.98871157364E+02  0.10253538005E+03  0.00000000000E+00 0. -1.
<mgrwt>
<rscale>  1 0.12791915E+03</rscale>
<asrwt>0</asrwt>
<pdfrwt beam="1">  1       21 0.16100038E-02 0.12791915E+03</pdfrwt>
<pdfrwt beam="2">  1       21 0.88394968E-01 0.12791915E+03</pdfrwt>
<totfact> 0.19137167E+06</totfact>
</mgrwt>
</event>
<event>
 6    1  0.4244577E-002  0.1269116E+03  0.7546771E-02  0.1232112E+00
         21   -1    0    0  503  502  0.00000000000E+00  0.00000000000E+00  0.19356015049E+02  0.19356015049E+02  0.00000000000E+00 0. -1.
         21   -1    0    0  504  503 -0.00000000000E+00 -0.00000000000E+00 -0.43280975715E+03  0.43280975715E+03  0.00000000000E+00 0. -1.
         25    2    1    2    0    0 -0.18980543227E+02 -0.11104416261E+02 -0.19534377186E+03  0.23295006062E+03  0.12499188957E+03 0.  0.
          5    1    3    3  501    0  0.22656138469E+02  0.29191469786E+02 -0.93174122877E+01  0.38108617009E+02  0.10000000000E+00 0.  1.
         -5    1    3    3    0  501 -0.41636681696E+02 -0.40295886048E+02 -0.18602635957E+03  0.19484144361E+03  0.10000000000E+00 0.  1.
         21    1    1    2  504  502  0.18980543227E+02  0.11104416261E+02 -0.21810997025E+03  0.21921571158E+03  0.00000000000E+00 0. -1.
<mgrwt>
<rscale>  1 0.12691155E+03</rscale>
<asrwt>0</asrwt>
<pdfrwt beam="1">  1       21 0.29778489E-02 0.12691155E+03</pdfrwt>
<pdfrwt beam="2">  1       21 0.66586107E-01 0.12691155E+03</pdfrwt>
<totfact> 0.13250148E+06</totfact>
</mgrwt>
</event>
<event>
 6    1  0.4244577E-002  0.1258974E+03  0.7546771E-02  0.1233673E+00
         21   -1    0    0  504  502  0.00000000000E+00  0.00000000000E+00  0.55028164999E+02  0.55028164999E+02  0.00000000000E+00 0.  1.
         21   -1    0    0  502  503 -0.00000000000E+00 -0.00000000000E+00 -0.21091048189E+03  0.21091048189E+03  0.00000000000E+00 0.  1.
         25    2    1    2    0    0  0.14932013248E+02  0.15207471382E+01 -0.17924798634E+02  0.12716705565E+03  0.12499953578E+03 0.  0.
          5    1    3    3  501    0 -0.54963879036E+02  0.80735814831E+01 -0.10910872429E+02  0.56615085038E+02  0.10000000000E+00 0.  1.
         -5    1    3    3    0  501  0.69895892285E+02 -0.65528343448E+01 -0.70139262054E+01  0.70551970611E+02  0.10000000000E+00 0.  1.
         21    1    1    2  504  503 -0.14932013248E+02 -0.15207471382E+01 -0.13795751825E+03  0.13877159124E+03  0.00000000000E+00 0.  1.
<mgrwt>
<rscale>  1 0.12589743E+03</rscale>
<asrwt>0</asrwt>
<pdfrwt beam="1">  1       21 0.84658715E-02 0.12589743E+03</pdfrwt>
<pdfrwt beam="2">  1       21 0.32447766E-01 0.12589743E+03</pdfrwt>
<totfact> 0.99479272E+05</totfact>
</mgrwt>
</event>
<event>
 6    1  0.4244577E-002  0.1286483E+03  0.7546771E-02  0.1229475E+00
         21   -1    0    0  503  502  0.00000000000E+00  0.00000000000E+00  0.76323452173E+03  0.76323452173E+03  0.00000000000E+00 0.  1.
         21   -1    0    0  504  503 -0.00000000000E+00 -0.00000000000E+00 -0.21690268338E+02  0.21690268338E+02  0.00000000000E+00 0. -1.
         25    2    1    2    0    0  0.24640953548E+02  0.17883855647E+02  0.74337325281E+03  0.75442308318E+03  0.12499354607E+03 0.  0.
          5    1    3    3  501    0  0.42251315734E+02  0.50533384333E+02  0.65863587914E+03  0.66192146657E+03  0.10000000000E+00 0. -1.
         -5    1    3    3    0  501 -0.17610362186E+02 -0.32649528686E+02  0.84737373668E+02  0.92501616612E+02  0.10000000000E+00 0. -1.
         21    1    1    2  504  502 -0.24640953548E+02 -0.17883855647E+02 -0.18289994113E+01  0.30501706893E+02  0.00000000000E+00 0. -1.
<mgrwt>
<rscale>  1 0.12864834E+03</rscale>
<asrwt>0</asrwt>
<pdfrwt beam="1">  1       21 0.11742068E+00 0.12864834E+03</pdfrwt>
<pdfrwt beam="2">  1       21 0.33369649E-02 0.12864834E+03</pdfrwt>
<totfact> 0.30089809E+05</totfact>
</mgrwt>
</event>
<event>
 6    1  0.4244577E-002  0.1279434E+03  0.7546771E-02  0.1230540E+00
         21   -1    0    0  504  502  0.00000000000E+00  0.00000000000E+00  0.44600124812E+01  0.44600124812E+01  0.00000000000E+00 0.  1.
         21   -1    0    0  502  503 -0.00000000000E+00 -0.00000000000E+00 -0.13515969914E+04  0.13515969914E+04  0.00000000000E+00 0.  1.
         25    2    1    2    0    0 -0.28233111055E+00 -0.27314619595E+02 -0.11188331994E+04  0.11261248750E+04  0.12499335116E+03 0.  0.
          5    1    3    3  501    0 -0.29453128338E+02  0.40465314094E+02 -0.31994080812E+03  0.32383183771E+03  0.10000000000E+00 0. -1.
         -5    1    3    3    0  501  0.29170797228E+02 -0.67779933688E+02 -0.79889239131E+03  0.80229303731E+03  0.10000000000E+00 0. -1.
         21    1    1    2  504  503  0.28233111055E+00  0.27314619595E+02 -0.22830377946E+03  0.22993212884E+03  0.00000000000E+00 0.  1.
<mgrwt>
<rscale>  1 0.12794337E+03</rscale>
<asrwt>0</asrwt>
<pdfrwt beam="1">  1       21 0.68615539E-03 0.12794337E+03</pdfrwt>
<pdfrwt beam="2">  1       21 0.20793811E+00 0.12794337E+03</pdfrwt>
<totfact> 0.83199551E+05</totfact>
</mgrwt>
</event>
<event>
 6    1  0.4244577E-002  0.1260396E+03  0.7546771E-02  0.1233454E+00
         21   -1    0    0  503  502  0.00000000000E+00  0.00000000000E+00  0.11844455836E+03  0.11844455836E+03  0.00000000000E+00 0.  1.
         21   -1    0    0  504  503 -0.00000000000E+00 -0.00000000000E+00 -0.55811111037E+02  0.55811111037E+02  0.00000000000E+00 0.  1.
         25    2    1    2    0    0 -0.73645188875E+01 -0.14221426660E+02  0.81049581507E+02  0.14984995054E+03  0.12501795031E+03 0.  0.
          5    1    3    3  501    0 -0.35504449252E+02  0.42411318225E+02  0.12734085697E+02  0.56757843236E+02  0.10000000000E+00 0. -1.
         -5    1    3    3    0  501  0.28139930365E+02 -0.56632744885E+02  0.68315495809E+02  0.93092107301E+02  0.10000000000E+00 0. -1.
         21    1    1    2  504  502  0.73645188875E+01  0.14221426660E+02 -0.18416134184E+02  0.24405718858E+02  0.00000000000E+00 0.  1.
<mgrwt>
<rscale>  1 0.12603957E+03</rscale>
<asrwt>0</asrwt>
<pdfrwt beam="1">  1       21 0.18222240E-01 0.12603957E+03</pdfrwt>
<pdfrwt beam="2">  1       21 0.85863248E-02 0.12603957E+03</pdfrwt>
<totfact> 0.28808820E+06</totfact>
</mgrwt>
</event>
<event>
 6    1  0.4244577E-002  0.1268808E+03  0.7546771E-02  0.1232159E+00
         21   -1    0    0  503  502  0.00000000000E+00  0.00000000000E+00  0.68834651847E+03  0.68834651847E+03  0.00000000000E+00 0. -1.
         21   -1    0    0  504  503 -0.00000000000E+00 -0.00000000000E+00 -0.11885127124E+02  0.11885127124E+02  0.00000000000E+00 0. -1.
         25    2    1    2    0    0 -0.70809443958E+00  0.21755939467E+02  0.66211331472E+03  0.67416078825E+03  0.12499961832E+03 0.  0.
          5    1    3    3  501    0  0.42710732737E+02  0.51452855896E+02  0.25334060425E+03  0.26201731781E+03  0.10000000000E+00 0.  1.
         -5    1    3    3    0  501 -0.43418827176E+02 -0.29696916428E+02  0.40877271047E+03  0.41214347044E+03  0.10000000000E+00 0.  1.
         21    1    1    2  504  502  0.70809443958E+00 -0.21755939467E+02  0.14348076623E+02  0.26070857343E+02  0.00000000000E+00 0. -1.
<mgrwt>
<rscale>  1 0.12688076E+03</rscale>
<asrwt>0</asrwt>
<pdfrwt beam="1">  1       21 0.10589943E+00 0.12688076E+03</pdfrwt>
<pdfrwt beam="2">  1       21 0.18284816E-02 0.12688076E+03</pdfrwt>
<totfact> 0.10253857E+06</totfact>
</mgrwt>
</event>
<event>
 6    1  0.4244577E-002  0.1338356E+03  0.7546771E-02  0.1221873E+00
         21   -1    0    0  504  502  0.00000000000E+00  0.00000000000E+00  0.84682799805E+01  0.84682799805E+01  0.00000000000E+00 0.  1.
         21   -1    0    0  502  503 -0.00000000000E+00 -0.00000000000E+00 -0.12416083387E+04  0.12416083387E+04  0.00000000000E+00 0.  1.
         25    2    1    2    0    0 -0.46286081657E+02  0.11984126849E+02 -0.58228767468E+03  0.59747042314E+03  0.12500379909E+03 0.  0.
          5    1    3    3  501    0 -0.34737063187E+02 -0.55425328041E+02 -0.29125282508E+03  0.29850770285E+03  0.10000000000E+00 0.  1.
         -5    1    3    3    0  501 -0.11549018470E+02  0.67409454891E+02 -0.29103484960E+03  0.29896272029E+03  0.10000000000E+00 0.  1.
         21    1    1    2  504  503  0.46286081657E+02 -0.11984126849E+02 -0.65085238402E+03  0.65260619552E+03  0.00000000000E+00 0.  1.
<mgrwt>
<rscale>  1 0.13383561E+03</rscale>
<asrwt>0</asrwt>
<pdfrwt beam="1">  1       21 0.13028126E-02 0.13383561E+03</pdfrwt>
<pdfrwt beam="2">  1       21 0.19101663E+00 0.13383561E+03</pdfrwt>
<totfact> 0.38684692E+05</totfact>
</mgrwt>
</event>
<event>
 6    1  0.4244577E-002  0.1268935E+03  0.7546771E-02  0.1232139E+00
         21   -1    0    0  503  502  0.00000000000E+00  0.00000000000E+00  0.53978337939E+03  0.53978337939E+03  0.00000000000E+00 0. -1.
         21   -1    0    0  504  503 -0.00000000000E+00 -0.00000000000E+00 -0.67892328793E+02  0.67892328793E+02  0.00000000000E+00 0. -1.
         25    2    1    2    0    0 -0.20618349736E+02 -0.72486504292E+01  0.53032154061E+03  0.54529156403E+03  0.12499717633E+03 0.  0.
          5    1    3    3  501    0 -0.30372872841E+02 -0.56066670244E+02  0.17033618226E+03  0.18188020207E+03  0.10000000000E+00 0. -1.
         -5    1    3    3    0  501  0.97545231046E+01  0.48818019815E+02  0.35998535834E+03  0.36341136196E+03  0.10000000000E+00 0. -1.
         21    1    1    2  504  502  0.20618349736E+02  0.72486504292E+01 -0.58430490010E+02  0.62384144153E+02  0.00000000000E+00 0. -1.
<mgrwt>
<rscale>  1 0.12689347E+03</rscale>
<asrwt>0</asrwt>
<pdfrwt beam="1">  1       21 0.83043594E-01 0.12689347E+03</pdfrwt>
<pdfrwt beam="2">  1       21 0.10444974E-01 0.12689347E+03</pdfrwt>
<totfact> 0.97554876E+04</totfact>
</mgrwt>
</event>
<event>
 6    1  0.4244577E-002  0.1316164E+03  0.7546771E-02  0.1225077E+00
         21   -1    0    0  504  502  0.00000000000E+00  0.00000000000E+00  0.53784458352E+02  0.53784458352E+02  0.00000000000E+00 0. -1.
         21   -1    0    0  502  503 -0.00000000000E+00 -0.00000000000E+00 -0.16626764454E+03  0.16626764454E+03  0.00000000000E+00 0. -1.
         25    2    1    2    0    0 -0.41210617557E+02  0.13805518065E+01 -0.41575146246E+02  0.13802667360E+03  0.12499059531E+03 0.  0.
          5    1    3    3  501    0  0.28618338712E+02 -0.66817757238E+01 -0.58728424010E+02  0.65671098850E+02  0.10000000000E+00 0.  1.
         -5    1    3    3    0  501 -0.69828956269E+02  0.80623275303E+01  0.17153277765E+02  0.72355574746E+02  0.10000000000E+00 0.  1.
         21    1    1    2  504  503  0.41210617557E+02 -0.13805518065E+01 -0.70908039947E+02  0.82025429300E+02  0.00000000000E+00 0. -1.
<mgrwt>
<rscale>  1 0.13161637E+03</rscale>
<asrwt>0</asrwt>
<pdfrwt beam="1">  1       21 0.82745322E-02 0.13161637E+03</pdfrwt>
<pdfrwt beam="2">  1       21 0.25579637E-01 0.13161637E+03</pdfrwt>
<totfact> 0.16349983E+06</totfact>
</mgrwt>
</event>
<event>
 6    1  0.4244577E-002  0.1658550E+03  0.7546771E-02  0.1182241E+00
         21   -1    0    0  503  502  0.00000000000E+00  0.00000000000E+00  0.18415588196E+02  0.18415588196E+02  0.00000000000E+00 0. -1.
         21   -1    0    0  504  503 -0.00000000000E+00 -0.00000000000E+00 -0.10425570818E+04  0.10425570818E+04  0.00000000000E+00 0. -1.
         25    2    1    2    0    0  0.83493431777E+02  0.70054197402E+02 -0.54984234534E+03  0.57431218694E+03  0.12501655738E+03 0.  0.
          5    1    3    3  501    0  0.49182859084E+02  0.17871085789E+02 -0.47020259319E+03  0.47310550407E+03  0.10000000000E+00 0. -1.
         -5    1    3    3    0  501  0.34310572693E+02  0.52183111614E+02 -0.79639752147E+02  0.10120668287E+03  0.10000000000E+00 0. -1.
         21    1    1    2  504  502 -0.83493431777E+02 -0.70054197402E+02 -0.47429914830E+03  0.48666048309E+03  0.00000000000E+00 0. -1.
<mgrwt>
<rscale>  1 0.16585501E+03</rscale>
<asrwt>0</asrwt>
<pdfrwt beam="1">  1       21 0.28331674E-02 0.16585501E+03</pdfrwt>
<pdfrwt beam="2">  1       21 0.16039340E+00 0.16585501E+03</pdfrwt>
<totfact> 0.17595764E+05</totfact>
</mgrwt>
</event>
<event>
 6    1  0.4244577E-002  0.1265568E+03  0.7546771E-02  0.1232656E+00
         21   -1    0    0  503  502  0.00000000000E+00  0.00000000000E+00  0.11783668633E+02  0.11783668633E+02  0.00000000000E+00 0.  1.
         21   -1    0    0  504  503 -0.00000000000E+00 -0.00000000000E+00 -0.46160781546E+03  0.46160781546E+03  0.00000000000E+00 0.  1.
         25    2    1    2    0    0 -0.18708008567E+02 -0.64397894934E+01 -0.36596474995E+03  0.38722966588E+03  0.12500062183E+03 0.  0.
          5    1    3    3  501    0 -0.35316659791E+02  0.53497274339E+02 -0.19808347371E+03  0.20819773625E+03  0.10000000000E+00 0. -1.
         -5    1    3    3    0  501  0.16608651224E+02 -0.59937063833E+02 -0.16788127623E+03  0.17903192963E+03  0.10000000000E+00 0. -1.
         21    1    1    2  504  502  0.18708008567E+02  0.64397894934E+01 -0.83859396876E+02  0.86161818212E+02  0.00000000000E+00 0.  1.
<mgrwt>
<rscale>  1 0.12655677E+03</rscale>
<asrwt>0</asrwt>
<pdfrwt beam="1">  1       21 0.18128721E-02 0.12655677E+03</pdfrwt>
<pdfrwt beam="2">  1       21 0.71016585E-01 0.12655677E+03</pdfrwt>
<totfact> 0.25769648E+06</totfact>
</mgrwt>
</event>
<event>
 6    1  0.4244577E-002  0.1471562E+03  0.7546771E-02  0.1204012E+00
         21   -1    0    0  504  502  0.00000000000E+00  0.00000000000E+00  0.45653499203E+02  0.45653499203E+02  0.00000000000E+00 0. -1.
         21   -1    0    0  502  503 -0.00000000000E+00 -0.00000000000E+00 -0.38342824188E+03  0.38342824188E+03  0.00000000000E+00 0.  1.
         25    2    1    2    0    0 -0.70549111646E+02 -0.32422490409E+02 -0.97379111820E+02  0.17645859414E+03  0.12500619579E+03 0.  0.
          5    1    3    3  501    0 -0.19915504604E+02 -0.67195051476E+02 -0.90773298895E+02  0.11468044323E+03  0.10000000000E+00 0. -1.
         -5    1    3    3    0  501 -0.50633607043E+02  0.34772561066E+02 -0.66058129249E+01  0.61778150909E+02  0.10000000000E+00 0. -1.
         21    1    1    2  504  503  0.70549111646E+02  0.32422490409E+02 -0.24039563085E+03  0.25262314694E+03  0.00000000000E+00 0.  1.
<mgrwt>
<rscale>  1 0.14715619E+03</rscale>
<asrwt>0</asrwt>
<pdfrwt beam="1">  1       21 0.70236154E-02 0.14715619E+03</pdfrwt>
<pdfrwt beam="2">  1       21 0.58988959E-01 0.14715619E+03</pdfrwt>
<totfact> 0.40763584E+05</totfact>
</mgrwt>
</event>
<event>
 6    1  0.4244577E-002  0.1675551E+03  0.7546771E-02  0.1180422E+00
         21   -1    0    0  504  502  0.00000000000E+00  0.00000000000E+00  0.22727094847E+03  0.22727094847E+03  0.00000000000E+00 0.  1.
         21   -1    0    0  502  503 -0.00000000000E+00 -0.00000000000E+00 -0.21637778371E+03  0.21637778371E+03  0.00000000000E+00 0.  1.
         25    2    1    2    0    0  0.19169683742E+02  0.10991797957E+03  0.17688282556E+03  0.24364371599E+03  0.12500114941E+03 0.  0.
          5    1    3    3  501    0  0.18469470339E+02  0.13795798238E+03  0.15260226813E+03  0.20654536663E+03  0.10000000000E+00 0. -1.
         -5    1    3    3    0  501  0.70021340337E+00 -0.28040002806E+02  0.24280557430E+02  0.37098349360E+02  0.10000000000E+00 0. -1.
         21    1    1    2  504  503 -0.19169683742E+02 -0.10991797957E+03 -0.16598966080E+03  0.20000501619E+03  0.00000000000E+00 0.  1.
<mgrwt>
<rscale>  1 0.16755514E+03</rscale>
<asrwt>0</asrwt>
<pdfrwt beam="1">  1       21 0.34964761E-01 0.16755514E+03</pdfrwt>
<pdfrwt beam="2">  1       21 0.33288890E-01 0.16755514E+03</pdfrwt>
<totfact> 0.69278542E+04</totfact>
</mgrwt>
</event>
<event>
 6    1  0.4244577E-002  0.1266786E+03  0.7546771E-02  0.1232469E+00
         21   -1    0    0  504  502  0.00000000000E+00  0.00000000000E+00  0.51177792991E+01  0.51177792991E+01  0.00000000000E+00 0. -1.
         21   -1    0    0  502  503 -0.00000000000E+00 -0.00000000000E+00 -0.13406404539E+04  0.13406404539E+04  0.00000000000E+00 0. -1.
         25    2    1    2    0    0  0.19458315699E+02 -0.65933483783E+01 -0.81105860668E+03  0.82089191037E+03  0.12500146703E+03 0.  0.
          5    1    3    3  501    0 -0.45298646378E+02 -0.32463551718E+02 -0.41749456316E+03  0.42119777993E+03  0.10000000000E+00 0. -1.
         -5    1    3    3    0  501  0.64756962077E+02  0.25870203339E+02 -0.39356404352E+03  0.39969413044E+03  0.10000000000E+00 0. -1.
         21    1    1    2  504  503 -0.19458315699E+02  0.65933483783E+01 -0.52446406795E+03  0.52486632286E+03  0.00000000000E+00 0. -1.
<mgrwt>
<rscale>  1 0.12667859E+03</rscale>
<asrwt>0</asrwt>
<pdfrwt beam="1">  1       21 0.78735087E-03 0.12667859E+03</pdfrwt>
<pdfrwt beam="2">  1       21 0.20625232E+00 0.12667859E+03</pdfrwt>
<totfact> 0.68780493E+05</totfact>
</mgrwt>
</event>
<event>
 6    1  0.4244577E-002  0.1273396E+03  0.7546771E-02  0.1231458E+00
         21   -1    0    0  504  502  0.00000000000E+00  0.00000000000E+00  0.46386533963E+03  0.46386533963E+03  0.00000000000E+00 0. -1.
         21   -1    0    0  502  503 -0.00000000000E+00 -0.00000000000E+00 -0.14975987174E+02  0.14975987174E+02  0.00000000000E+00 0. -1.
         25    2    1    2    0    0  0.23155357283E+02 -0.75225044554E+01  0.42870055460E+03  0.44721307672E+03  0.12499044698E+03 0.  0.
          5    1    3    3  501    0  0.57154887221E+02 -0.47877369469E+02  0.25417747880E+03  0.26488700303E+03  0.10000000000E+00 0.  1.
         -5    1    3    3    0  501 -0.33999529938E+02  0.40354865013E+02  0.17452307579E+03  0.18232607370E+03  0.10000000000E+00 0.  1.
         21    1    1    2  504  503 -0.23155357283E+02  0.75225044554E+01  0.20188797861E+02  0.31628250082E+02  0.00000000000E+00 0. -1.
<mgrwt>
<rscale>  1 0.12733959E+03</rscale>
<asrwt>0</asrwt>
<pdfrwt beam="1">  1       21 0.71363888E-01 0.12733959E+03</pdfrwt>
<pdfrwt beam="2">  1       21 0.23039984E-02 0.12733959E+03</pdfrwt>
<totfact> 0.17316415E+06</totfact>
</mgrwt>
</event>
<event>
 6    1  0.4244577E-002  0.1271309E+03  0.7546771E-02  0.1231776E+00
         21   -1    0    0  503  502  0.00000000000E+00  0.00000000000E+00  0.10140632983E+02  0.10140632983E+02  0.00000000000E+00 0.  1.
         21   -1    0    0  504  503 -0.00000000000E+00 -0.00000000000E+00 -0.64205393994E+03  0.64205393994E+03  0.00000000000E+00 0.  1.
         25    2    1    2    0    0 -0.23131384281E+02 -0.39733768432E+00 -0.41460745442E+03  0.43366070287E+03  0.12500818026E+03 0.  0.
          5    1    3    3  501    0  0.19623959788E+02 -0.38278519986E+02 -0.56423718768E+02  0.70950623181E+02  0.10000000000E+00 0.  1.
         -5    1    3    3    0  501 -0.42755344069E+02  0.37881182302E+02 -0.35818373566E+03  0.36271007969E+03  0.10000000000E+00 0.  1.
         21    1    1    2  504  502  0.23131384281E+02  0.39733768432E+00 -0.21730585253E+03  0.21853387005E+03  0.00000000000E+00 0.  1.
<mgrwt>
<rscale>  1 0.12713089E+03</rscale>
<asrwt>0</asrwt>
<pdfrwt beam="1">  1       21 0.15600969E-02 0.12713089E+03</pdfrwt>
<pdfrwt beam="2">  1       21 0.98777557E-01 0.12713089E+03</pdfrwt>
<totfact> 0.15581675E+06</totfact>
</mgrwt>
</event>
<event>
 6    1  0.4244577E-002  0.1275314E+03  0.7546771E-02  0.1231165E+00
         21   -1    0    0  503  502  0.00000000000E+00  0.00000000000E+00  0.96580655462E+02  0.96580655462E+02  0.00000000000E+00 0.  1.
         21   -1    0    0  504  503 -0.00000000000E+00 -0.00000000000E+00 -0.17063695139E+03  0.17063695139E+03  0.00000000000E+00 0.  1.
         25    2    1    2    0    0  0.45948653309E+01 -0.24854199508E+02  0.52681499904E+02  0.13798404731E+03  0.12500165142E+03 0.  0.
          5    1    3    3  501    0 -0.20555438457E+02  0.17592565697E+02  0.77978134321E+02  0.82538620355E+02  0.10000000000E+00 0. -1.
         -5    1    3    3    0  501  0.25150303787E+02 -0.42446765205E+02 -0.25296634417E+02  0.55445426952E+02  0.10000000000E+00 0. -1.
         21    1    1    2  504  502 -0.45948653309E+01  0.24854199508E+02 -0.12673779583E+03  0.12923355955E+03  0.00000000000E+00 0.  1.
<mgrwt>
<rscale>  1 0.12753140E+03</rscale>
<asrwt>0</asrwt>
<pdfrwt beam="1">  1       21 0.14858562E-01 0.12753140E+03</pdfrwt>
<pdfrwt beam="2">  1       21 0.26251839E-01 0.12753140E+03</pdfrwt>
<totfact> 0.55442826E+05</totfact>
</mgrwt>
</event>
<event>
 6    1  0.4244577E-002  0.1260623E+03  0.7546771E-02  0.1233418E+00
         21   -1    0    0  503  502  0.00000000000E+00  0.00000000000E+00  0.46025209048E+02  0.46025209048E+02  0.00000000000E+00 0.  1.
         21   -1    0    0  504  503 -0.00000000000E+00 -0.00000000000E+00 -0.11262523948E+03  0.11262523948E+03  0.00000000000E+00 0.  1.
         25    2    1    2    0    0 -0.22593309956E+01 -0.16183492478E+02 -0.50776666804E+02  0.13590426551E+03  0.12499875794E+03 0.  0.
          5    1    3    3  501    0 -0.93195744995E+01 -0.70556407028E+02 -0.26539078514E+02  0.75956525262E+02  0.10000000000E+00 0. -1.
         -5    1    3    3    0  501  0.70602435039E+01  0.54372914549E+02 -0.24237588290E+02  0.59947740249E+02  0.10000000000E+00 0. -1.
         21    1    1    2  504  502  0.22593309956E+01  0.16183492478E+02 -0.15823363632E+02  0.22746183020E+02  0.00000000000E+00 0.  1.
<mgrwt>
<rscale>  1 0.12606228E+03</rscale>
<asrwt>0</asrwt>
<pdfrwt beam="1">  1       21 0.70808015E-02 0.12606228E+03</pdfrwt>
<pdfrwt beam="2">  1       21 0.17326960E-01 0.12606228E+03</pdfrwt>
<totfact> 0.44010303E+06</totfact>
</mgrwt>
</event>
<event>
 6    1  0.4244577E-002  0.1320149E+03  0.7546771E-02  0.1224496E+00
         21   -1    0    0  504  502  0.00000000000E+00  0.00000000000E+00  0.15007236368E+04  0.15007236368E+04  0.00000000000E+00 0. -1.
         21   -1    0    0  502  503 -0.00000000000E+00 -0.00000000000E+00 -0.12621313268E+02  0.12621313268E+02  0.00000000000E+00 0. -1.
         25    2    1    2    0    0  0.25454697742E+02 -0.33988934802E+02  0.14508884504E+04  0.14568820270E+04  0.12499902356E+03 0.  0.
          5    1    3    3  501    0 -0.49121595955E+02 -0.40437958692E+01  0.42437477564E+03  0.42722739106E+03  0.10000000000E+00 0. -1.
         -5    1    3    3    0  501  0.74576293697E+02 -0.29945138933E+02  0.10265136747E+04  0.10296546360E+04  0.10000000000E+00 0. -1.
         21    1    1    2  504  503 -0.25454697742E+02  0.33988934802E+02  0.37213873213E+02  0.56462923106E+02  0.00000000000E+00 0. -1.
<mgrwt>
<rscale>  1 0.13201494E+03</rscale>
<asrwt>0</asrwt>
<pdfrwt beam="1">  1       21 0.23088042E+00 0.13201494E+03</pdfrwt>
<pdfrwt beam="2">  1       21 0.19417417E-02 0.13201494E+03</pdfrwt>
<totfact> 0.11628367E+05</totfact>
</mgrwt>
</event>
<event>
 6    1  0.4244577E-002  0.1259037E+03  0.7546771E-02  0.1233664E+00
         21   -1    0    0  503  502  0.00000000000E+00  0.00000000000E+00  0.35695416996E+02  0.35695416996E+02  0.00000000000E+00 0. -1.
         21   -1    0    0  504  503 -0.00000000000E+00 -0.00000000000E+00 -0.51097572084E+03  0.51097572084E+03  0.00000000000E+00 0.  1.
         25    2    1    2    0    0  0.12305408941E+02  0.87604363706E+01 -0.75914063894E+02  0.14701933695E+03  0.12499428790E+03 0.  0.
          5    1    3    3  501    0 -0.55782481634E+02  0.14312267732E+02 -0.34904658139E+02  0.67341453984E+02  0.10000000000E+00 0.  1.
         -5    1    3    3    0  501  0.68087890575E+02 -0.55518313613E+01 -0.41009405755E+02  0.79677882971E+02  0.10000000000E+00 0.  1.
         21    1    1    2  504  502 -0.12305408941E+02 -0.87604363706E+01 -0.39936623995E+03  0.39965180088E+03  0.00000000000E+00 0.  1.
<mgrwt>
<rscale>  1 0.12590369E+03</rscale>
<asrwt>0</asrwt>
<pdfrwt beam="1">  1       21 0.54916027E-02 0.12590369E+03</pdfrwt>
<pdfrwt beam="2">  1       21 0.78611648E-01 0.12590369E+03</pdfrwt>
<totfact> 0.33303002E+05</totfact>
</mgrwt>
</event>
<event>
 6    1  0.4244577E-002  0.1400292E+03  0.7546771E-02  0.1213290E+00
         21   -1    0    0  503  502  0.00000000000E+00  0.00000000000E+00  0.48430018762E+03  0.48430018762E+03  0.00000000000E+00 0. -1.
         21   -1    0    0  504  503 -0.00000000000E+00 -0.00000000000E+00 -0.30777920010E+02  0.30777920010E+02  0.00000000000E+00 0. -1.
         25    2    1    2    0    0  0.30333141447E+02  0.55335073789E+02  0.42182728008E+03  0.44446194733E+03  0.12500439408E+03 0.  0.
          5    1    3    3  501    0 -0.45058693592E+01  0.89103032883E+02  0.23288049779E+03  0.24938522326E+03  0.10000000000E+00 0. -1.
         -5    1    3    3    0  501  0.34839010806E+02 -0.33767959094E+02  0.18894678229E+03  0.19507672407E+03  0.10000000000E+00 0. -1.
         21    1    1    2  504  502 -0.30333141447E+02 -0.55335073789E+02  0.31694987522E+02  0.70616160298E+02  0.00000000000E+00 0. -1.
<mgrwt>
<rscale>  1 0.14002917E+03</rscale>
<asrwt>0</asrwt>
<pdfrwt beam="1">  1       21 0.74507716E-01 0.14002917E+03</pdfrwt>
<pdfrwt beam="2">  1       21 0.47350650E-02 0.14002917E+03</pdfrwt>
<totfact> 0.48022817E+05</totfact>
</mgrwt>
</event>
<event>
 6    1  0.4244577E-002  0.1276158E+03  0.7546771E-02  0.1231037E+00
         21   -1    0    0  504  502  0.00000000000E+00  0.00000000000E+00  0.20399288895E+02  0.20399288895E+02  0.00000000000E+00 0. -1.
         21   -1    0    0  502  503 -0.00000000000E+00 -0.00000000000E+00 -0.28889118061E+03  0.28889118061E+03  0.00000000000E+00 0. -1.
         25    2    1    2    0    0  0.19602028544E+02  0.16646675282E+02 -0.22915048397E+03  0.26228943032E+03  0.12499779852E+03 0.  0.
          5    1    3    3  501    0 -0.45151629949E+02  0.30713891124E+02 -0.14655530053E+03  0.15639846198E+03  0.10000000000E+00 0.  1.
         -5    1    3    3    0  501  0.64753658493E+02 -0.14067215843E+02 -0.82595183440E+02  0.10589096835E+03  0.10000000000E+00 0.  1.
         21    1    1    2  504  503 -0.19602028544E+02 -0.16646675282E+02 -0.39341407749E+02  0.47001039187E+02  0.00000000000E+00 0. -1.
<mgrwt>
<rscale>  1 0.12761583E+03</rscale>
<asrwt>0</asrwt>
<pdfrwt beam="1">  1       21 0.31383522E-02 0.12761583E+03</pdfrwt>
<pdfrwt beam="2">  1       21 0.44444796E-01 0.12761583E+03</pdfrwt>
<totfact> 0.28309601E+06</totfact>
</mgrwt>
</event>
<event>
 6    1  0.4244577E-002  0.1284427E+03  0.7546771E-02  0.1229785E+00
         21   -1    0    0  503  502  0.00000000000E+00  0.00000000000E+00  0.12929851802E+02  0.12929851802E+02  0.00000000000E+00 0. -1.
         21   -1    0    0  504  503 -0.00000000000E+00 -0.00000000000E+00 -0.54284046050E+03  0.54284046050E+03  0.00000000000E+00 0. -1.
         25    2    1    2    0    0  0.24718916321E+02  0.16239796558E+02 -0.33777570341E+03  0.36137232454E+03  0.12499110093E+03 0.  0.
          5    1    3    3  501    0  0.24417746936E+02  0.32499297140E+02 -0.24063079777E+02  0.47238464077E+02  0.10000000000E+00 0. -1.
         -5    1    3    3    0  501  0.30116938469E+00 -0.16259500582E+02 -0.31371262363E+03  0.31413386046E+03  0.10000000000E+00 0. -1.
         21    1    1    2  504  502 -0.24718916321E+02 -0.16239796558E+02 -0.19213490529E+03  0.19439798777E+03  0.00000000000E+00 0. -1.
<mgrwt>
<rscale>  1 0.12844272E+03</rscale>
<asrwt>0</asrwt>
<pdfrwt beam="1">  1       21 0.19892076E-02 0.12844272E+03</pdfrwt>
<pdfrwt beam="2">  1       21 0.83513931E-01 0.12844272E+03</pdfrwt>
<totfact> 0.15495267E+06</totfact>
</mgrwt>
</event>
<event>
 6    1  0.4244577E-002  0.1301106E+03  0.7546771E-02  0.1227292E+00
         21   -1    0    0  503  502  0.00000000000E+00  0.00000000000E+00  0.73327088326E+02  0.73327088326E+02  0.00000000000E+00 0.  1.
         21   -1    0    0  504  503 -0.00000000000E+00 -0.00000000000E+00 -0.11637894601E+03  0.11637894601E+03  0.00000000000E+00 0.  1.
         25    2    1    2    0    0  0.34326152565E+02 -0.11214906759E+02  0.42685322908E+01  0.13018059279E+03  0.12499882995E+03 0.  0.
          5    1    3    3  501    0  0.39517140787E+02  0.37408966083E+02 -0.37322684164E+02  0.65985058252E+02  0.10000000000E+00 0. -1.
         -5    1    3    3    0  501 -0.51909882218E+01 -0.48623872842E+02  0.41591216455E+02  0.64195534541E+02  0.10000000000E+00 0. -1.
         21    1    1    2  504  502 -0.34326152565E+02  0.11214906759E+02 -0.47320389979E+02  0.59525441547E+02  0.00000000000E+00 0.  1.
<mgrwt>
<rscale>  1 0.13011059E+03</rscale>
<asrwt>0</asrwt>
<pdfrwt beam="1">  1       21 0.11281091E-01 0.13011059E+03</pdfrwt>
<pdfrwt beam="2">  1       21 0.17904453E-01 0.13011059E+03</pdfrwt>
<totfact> 0.18485544E+06</totfact>
</mgrwt>
</event>
<event>
 6    1  0.4244577E-002  0.1260140E+03  0.7546771E-02  0.1233493E+00
         21   -1    0    0  503  502  0.00000000000E+00  0.00000000000E+00  0.21129634385E+02  0.21129634385E+02  0.00000000000E+00 0.  1.
         21   -1    0    0  504  503 -0.00000000000E+00 -0.00000000000E+00 -0.30292373263E+03  0.30292373263E+03  0.00000000000E+00 0.  1.
         25    2    1    2    0    0 -0.76029384564E+01  0.14023843812E+02 -0.17263227821E+03  0.21373212780E+03  0.12500018443E+03 0.  0.
          5    1    3    3  501    0 -0.29885253130E+02 -0.48764764330E+02 -0.99771348101E+02  0.11500201084E+03  0.10000000000E+00 0.  1.
         -5    1    3    3    0  501  0.22282314673E+02  0.62788608141E+02 -0.72860930111E+02  0.98730116966E+02  0.10000000000E+00 0.  1.
         21    1    1    2  504  502  0.76029384564E+01 -0.14023843812E+02 -0.10916182004E+03  0.11032123922E+03  0.00000000000E+00 0.  1.
<mgrwt>
<rscale>  1 0.12601396E+03</rscale>
<asrwt>0</asrwt>
<pdfrwt beam="1">  1       21 0.32507132E-02 0.12601396E+03</pdfrwt>
<pdfrwt beam="2">  1       21 0.46603648E-01 0.12601396E+03</pdfrwt>
<totfact> 0.24251860E+06</totfact>
</mgrwt>
</event>
<event>
 6    1  0.4244577E-002  0.1273503E+03  0.7546771E-02  0.1231441E+00
         21   -1    0    0  504  502  0.00000000000E+00  0.00000000000E+00  0.34508748436E+03  0.34508748436E+03  0.00000000000E+00 0. -1.
         21   -1    0    0  502  503 -0.00000000000E+00 -0.00000000000E+00 -0.79304755943E+02  0.79304755943E+02  0.00000000000E+00 0. -1.
         25    2    1    2    0    0  0.44757231610E+01  0.23954340026E+02  0.33106276831E+03  0.35471207016E+03  0.12499701458E+03 0.  0.
          5    1    3    3  501    0  0.61603089550E+02 -0.67421406122E+01  0.14568802997E+03  0.15832058988E+03  0.10000000000E+00 0. -1.
         -5    1    3    3    0  501 -0.57127366389E+02  0.30696480639E+02  0.18537473834E+03  0.19639148028E+03  0.10000000000E+00 0. -1.
         21    1    1    2  504  503 -0.44757231610E+01 -0.23954340026E+02 -0.65280039887E+02  0.69680170146E+02  0.00000000000E+00 0. -1.
<mgrwt>
<rscale>  1 0.12735029E+03</rscale>
<asrwt>0</asrwt>
<pdfrwt beam="1">  1       21 0.53090381E-01 0.12735029E+03</pdfrwt>
<pdfrwt beam="2">  1       21 0.12200732E-01 0.12735029E+03</pdfrwt>
<totfact> 0.19503042E+05</totfact>
</mgrwt>
</event>
<event>
 6    1  0.4244577E-002  0.1282505E+03  0.7546771E-02  0.1230075E+00
         21   -1    0    0  504  502  0.00000000000E+00  0.00000000000E+00  0.26538276553E+02  0.26538276553E+02  0.00000000000E+00 0. -1.
         21   -1    0    0  502  503 -0.00000000000E+00 -0.00000000000E+00 -0.26107156839E+03  0.26107156839E+03  0.00000000000E+00 0. -1.
         25    2    1    2    0    0  0.11022099364E+01  0.28674669792E+02 -0.14494876103E+03  0.19354157338E+03  0.12499898299E+03 0.  0.
          5    1    3    3  501    0  0.38136796511E+02 -0.25156247096E+02 -0.14992260875E+02  0.48083572062E+02  0.10000000000E+00 0.  1.
         -5    1    3    3    0  501 -0.37034586575E+02  0.53830916888E+02 -0.12995650015E+03  0.14545800132E+03  0.10000000000E+00 0.  1.
         21    1    1    2  504  503 -0.11022099364E+01 -0.28674669792E+02 -0.89584530806E+02  0.94068271559E+02  0.00000000000E+00 0. -1.
<mgrwt>
<rscale>  1 0.12825053E+03</rscale>
<asrwt>0</asrwt>
<pdfrwt beam="1">  1       21 0.40828118E-02 0.12825053E+03</pdfrwt>
<pdfrwt beam="2">  1       21 0.40164857E-01 0.12825053E+03</pdfrwt>
<totfact> 0.22477858E+06</totfact>
</mgrwt>
</event>
<event>
 6    1  0.4244577E-002  0.1330987E+03  0.7546771E-02  0.1222929E+00
         21   -1    0    0  504  502  0.00000000000E+00  0.00000000000E+00  0.37802208773E+03  0.37802208773E+03  0.00000000000E+00 0.  1.
         21   -1    0    0  502  503 -0.00000000000E+00 -0.00000000000E+00 -0.12174949673E+03  0.12174949673E+03  0.00000000000E+00 0.  1.
         25    2    1    2    0    0 -0.12609257828E+02  0.43959318011E+02  0.36139876886E+03  0.38512897330E+03  0.12499536358E+03 0.  0.
          5    1    3    3  501    0  0.18524118917E+02 -0.34625153133E+02  0.19006236941E+03  0.19407668195E+03  0.10000000000E+00 0. -1.
         -5    1    3    3    0  501 -0.31133376745E+02  0.78584471144E+02  0.17133639945E+03  0.19105229135E+03  0.10000000000E+00 0. -1.
         21    1    1    2  504  503  0.12609257828E+02 -0.43959318011E+02 -0.10512617786E+03  0.11464261116E+03  0.00000000000E+00 0.  1.
<mgrwt>
<rscale>  1 0.13309867E+03</rscale>
<asrwt>0</asrwt>
<pdfrwt beam="1">  1       21 0.58157244E-01 0.13309867E+03</pdfrwt>
<pdfrwt beam="2">  1       21 0.18730692E-01 0.13309867E+03</pdfrwt>
<totfact> 0.74159151E+04</totfact>
</mgrwt>
</event>
<event>
 6    1  0.4244577E-002  0.1424424E+03  0.7546771E-02  0.1210080E+00
         21   -1    0    0  504  502  0.00000000000E+00  0.00000000000E+00  0.70529808543E+01  0.70529808543E+01  0.00000000000E+00 0. -1.
         21   -1    0    0  502  503 -0.00000000000E+00 -0.00000000000E+00 -0.16270432619E+04  0.16270432619E+04  0.00000000000E+00 0. -1.
         25    2    1    2    0    0  0.11515610024E+02 -0.67343278527E+02 -0.94797087345E+03  0.95861285242E+03  0.12498838935E+03 0.  0.
          5    1    3    3  501    0  0.66571078195E+02 -0.38842103943E+02 -0.41987044469E+03  0.42688595411E+03  0.10000000000E+00 0. -1.
         -5    1    3    3    0  501 -0.55055468171E+02 -0.28501174584E+02 -0.52810042876E+03  0.53172689831E+03  0.10000000000E+00 0. -1.
         21    1    1    2  504  503 -0.11515610024E+02  0.67343278527E+02 -0.67201940764E+03  0.67548339038E+03  0.00000000000E+00 0. -1.
<mgrwt>
<rscale>  1 0.14244235E+03</rscale>
<asrwt>0</asrwt>
<pdfrwt beam="1">  1       21 0.10850733E-02 0.14244235E+03</pdfrwt>
<pdfrwt beam="2">  1       21 0.25031450E+00 0.14244235E+03</pdfrwt>
<totfact> 0.22531610E+05</totfact>
</mgrwt>
</event>
<event>
 6    1  0.4244577E-002  0.1275869E+03  0.7546771E-02  0.1231081E+00
         21   -1    0    0  503  502  0.00000000000E+00  0.00000000000E+00  0.77615560388E+03  0.77615560388E+03  0.00000000000E+00 0. -1.
         21   -1    0    0  504  503 -0.00000000000E+00 -0.00000000000E+00 -0.16147977282E+03  0.16147977282E+03  0.00000000000E+00 0.  1.
         25    2    1    2    0    0 -0.20147622755E+02  0.15730405413E+02  0.76985971054E+03  0.78036043016E+03  0.12500021876E+03 0.  0.
          5    1    3    3  501    0 -0.62607380426E+02  0.86629666289E+01  0.64888904962E+03  0.65195992192E+03  0.10000000000E+00 0. -1.
         -5    1    3    3    0  501  0.42459757672E+02  0.70674387844E+01  0.12097066092E+03  0.12840050824E+03  0.10000000000E+00 0. -1.
         21    1    1    2  504  502  0.20147622755E+02 -0.15730405413E+02 -0.15518387948E+03  0.15727494654E+03  0.00000000000E+00 0.  1.
<mgrwt>
<rscale>  1 0.12758694E+03</rscale>
<asrwt>0</asrwt>
<pdfrwt beam="1">  1       21 0.11940855E+00 0.12758694E+03</pdfrwt>
<pdfrwt beam="2">  1       21 0.24843042E-01 0.12758694E+03</pdfrwt>
<totfact> 0.86534327E+03</totfact>
</mgrwt>
</event>
<event>
 6    1  0.4244577E-002  0.1312392E+03  0.7546771E-02  0.1225628E+00
         21   -1    0    0  504  502  0.00000000000E+00  0.00000000000E+00  0.41272957949E+02  0.41272957949E+02  0.00000000000E+00 0.  1.
         21   -1    0    0  502  503 -0.00000000000E+00 -0.00000000000E+00 -0.29496975814E+03  0.29496975814E+03  0.00000000000E+00 0.  1.
         25    2    1    2    0    0 -0.20301825702E+02 -0.34451227314E+02 -0.70985751363E+02  0.14920694797E+03  0.12499874094E+03 0.  0.
          5    1    3    3  501    0 -0.35089515311E+02 -0.83752994248E+01 -0.10071903037E+03  0.10698482511E+03  0.10000000000E+00 0.  1.
         -5    1    3    3    0  501  0.14787689608E+02 -0.26075927889E+02  0.29733279002E+02  0.42222122868E+02  0.10000000000E+00 0.  1.
         21    1    1    2  504  503  0.20301825702E+02  0.34451227314E+02 -0.18271104883E+03  0.18703576812E+03  0.00000000000E+00 0.  1.
<mgrwt>
<rscale>  1 0.13123923E+03</rscale>
<asrwt>0</asrwt>
<pdfrwt beam="1">  1       21 0.63496859E-02 0.13123923E+03</pdfrwt>
<pdfrwt beam="2">  1       21 0.45379962E-01 0.13123923E+03</pdfrwt>
<totfact> 0.83642090E+05</totfact>
</mgrwt>
</event>
<event>
 6    1  0.4244577E-002  0.1268884E+03  0.7546771E-02  0.1232147E+00
         21   -1    0    0  503  502  0.00000000000E+00  0.00000000000E+00  0.16837855930E+03  0.16837855930E+03  0.00000000000E+00 0.  1.
         21   -1    0    0  504  503 -0.00000000000E+00 -0.00000000000E+00 -0.41480526489E+02  0.41480526489E+02  0.00000000000E+00 0.  1.
         25    2    1    2    0    0  0.20021354782E+02  0.87142950890E+01  0.13617919973E+03  0.18613286305E+03  0.12499549865E+03 0.  0.
          5    1    3    3  501    0 -0.84867713591E+01 -0.20248457074E+02 -0.16928294660E+02  0.27723680529E+02  0.10000000000E+00 0.  1.
         -5    1    3    3    0  501  0.28508126142E+02  0.28962752163E+02  0.15310749439E+03  0.15840918252E+03  0.10000000000E+00 0.  1.
         21    1    1    2  504  502 -0.20021354782E+02 -0.87142950890E+01 -0.92811669166E+01  0.23726222741E+02  0.00000000000E+00 0.  1.
<mgrwt>
<rscale>  1 0.12688841E+03</rscale>
<asrwt>0</asrwt>
<pdfrwt beam="1">  1       21 0.25904393E-01 0.12688841E+03</pdfrwt>
<pdfrwt beam="2">  1       21 0.63816196E-02 0.12688841E+03</pdfrwt>
<totfact> 0.24894767E+06</totfact>
</mgrwt>
</event>
<event>
 6    1  0.4244577E-002  0.1301300E+03  0.7546771E-02  0.1227263E+00
         21   -1    0    0  503  502  0.00000000000E+00  0.00000000000E+00  0.27901667185E+03  0.27901667185E+03  0.00000000000E+00 0. -1.
         21   -1    0    0  504  503 -0.00000000000E+00 -0.00000000000E+00 -0.60151992188E+02  0.60151992188E+02  0.00000000000E+00 0. -1.
         25    2    1    2    0    0 -0.67286154806E+01  0.35545090665E+02  0.25609294065E+03  0.28725844200E+03  0.12500036205E+03 0.  0.
          5    1    3    3  501    0 -0.21874983211E+02  0.59018948332E+02  0.53091055908E+02  0.82343314059E+02  0.10000000000E+00 0. -1.
         -5    1    3    3    0  501  0.15146367731E+02 -0.23473857668E+02  0.20300188474E+03  0.20491512794E+03  0.10000000000E+00 0. -1.
         21    1    1    2  504  502  0.67286154806E+01 -0.35545090665E+02 -0.37228260985E+02  0.51910222043E+02  0.00000000000E+00 0. -1.
<mgrwt>
<rscale>  1 0.13013001E+03</rscale>
<asrwt>0</asrwt>
<pdfrwt beam="1">  1       21 0.42925641E-01 0.13013001E+03</pdfrwt>
<pdfrwt beam="2">  1       21 0.92541528E-02 0.13013001E+03</pdfrwt>
<totfact> 0.48969374E+05</totfact>
</mgrwt>
</event>
