<event>
 6    1  0.4202038E-002  0.1266496E+03  0.7546771E-02  0.1232514E+00
         21   -1    0    0  503  502  0.00000000000E+00  0.00000000000E+00  0.27353986178E+02  0.27353986178E+02  0.00000000000E+00 0.  1.
         21   -1    0    0  504  503 -0.00000000000E+00 -0.00000000000E+00 -0.23662964904E+03  0.23662964904E+03  0.00000000000E+00 0.  1.
         25    2    1    2    0    0 -0.16592325704E+02  0.11838480974E+02 -0.12752251869E+03  0.17972788476E+03  0.12499865952E+03 0.  0.
          5    1    3    3  501    0 -0.10148902429E+02 -0.32661370210E+02  0.95161120312E+01  0.35501150865E+02  0.10000000000E+00 0. -1.
         -5    1    3    3    0  501 -0.64434232751E+01  0.44499851184E+02 -0.13703863072E+03  0.14422673389E+03  0.10000000000E+00 0. -1.
         21    1    1    2  504  502  0.16592325704E+02 -0.11838480974E+02 -0.81753144175E+02  0.84255750465E+02  0.00000000000E+00 0.  1.
<mgrwt>
<rscale>  1 0.12664959E+03</rscale>
<asrwt>0</asrwt>
<pdfrwt beam="1">  1       21 0.42083055E-02 0.12664959E+03</pdfrwt>
<pdfrwt beam="2">  1       21 0.36404562E-01 0.12664959E+03</pdfrwt>
<totfact> 0.25971845E+06</totfact>
</mgrwt>
</event>
<event>
 6    1  0.4202038E-002  0.1281641E+03  0.7546771E-02  0.1230206E+00
         21   -1    0    0  504  502  0.00000000000E+00  0.00000000000E+00  0.35975849055E+03  0.35975849055E+03  0.00000000000E+00 0.  1.
         21   -1    0    0  502  503 -0.00000000000E+00 -0.00000000000E+00 -0.23050262326E+02  0.23050262326E+02  0.00000000000E+00 0.  1.
         25    2    1    2    0    0  0.27351508532E+02 -0.71173622455E+01  0.32963608322E+03  0.35367497353E+03  0.12500911036E+03 0.  0.
          5    1    3    3  501    0 -0.11216201827E+02 -0.83062472062E+01  0.31012040345E+03  0.31043432729E+03  0.10000000000E+00 0.  1.
         -5    1    3    3    0  501  0.38567710360E+02  0.11888849607E+01  0.19515679772E+02  0.43240646235E+02  0.10000000000E+00 0.  1.
         21    1    1    2  504  503 -0.27351508532E+02  0.71173622455E+01  0.70721450056E+01  0.29133779352E+02  0.00000000000E+00 0.  1.
<mgrwt>
<rscale>  1 0.12816411E+03</rscale>
<asrwt>0</asrwt>
<pdfrwt beam="1">  1       21 0.55347456E-01 0.12816411E+03</pdfrwt>
<pdfrwt beam="2">  1       21 0.35461945E-02 0.12816411E+03</pdfrwt>
<totfact> 0.14731863E+06</totfact>
</mgrwt>
</event>
<event>
 6    1  0.4202038E-002  0.1317754E+03  0.7546771E-02  0.1224845E+00
         21   -1    0    0  504  502  0.00000000000E+00  0.00000000000E+00  0.41077272743E+02  0.41077272743E+02  0.00000000000E+00 0. -1.
         21   -1    0    0  502  503 -0.00000000000E+00 -0.00000000000E+00 -0.25185795509E+03  0.25185795509E+03  0.00000000000E+00 0.  1.
         25    2    1    2    0    0  0.27034123558E+02 -0.31767442805E+02 -0.76602809449E+02  0.15242289444E+03  0.12499893630E+03 0.  0.
          5    1    3    3  501    0  0.27501290627E+02 -0.24108201016E+02 -0.11116111321E+03  0.11702277314E+03  0.10000000000E+00 0. -1.
         -5    1    3    3    0  501 -0.46716706881E+00 -0.76592417886E+01  0.34558303761E+02  0.35400121309E+02  0.10000000000E+00 0. -1.
         21    1    1    2  504  503 -0.27034123558E+02  0.31767442805E+02 -0.13417787290E+03  0.14051233339E+03  0.00000000000E+00 0.  1.
<mgrwt>
<rscale>  1 0.13177537E+03</rscale>
<asrwt>0</asrwt>
<pdfrwt beam="1">  1       21 0.63195802E-02 0.13177537E+03</pdfrwt>
<pdfrwt beam="2">  1       21 0.38747379E-01 0.13177537E+03</pdfrwt>
<totfact> 0.11590727E+06</totfact>
</mgrwt>
</event>
<event>
 6    1  0.4202038E-002  0.1259578E+03  0.7546771E-02  0.1233580E+00
         21   -1    0    0  504  502  0.00000000000E+00  0.00000000000E+00  0.31986191780E+02  0.31986191780E+02  0.00000000000E+00 0.  1.
         21   -1    0    0  502  503 -0.00000000000E+00 -0.00000000000E+00 -0.35862740026E+03  0.35862740026E+03  0.00000000000E+00 0.  1.
         25    2    1    2    0    0 -0.56573602399E+01 -0.14424353398E+02 -0.93276397076E+02  0.15673498486E+03  0.12500120612E+03 0.  0.
          5    1    3    3  501    0 -0.70640980558E+01 -0.32919801907E+02 -0.11975923383E+03  0.12440216609E+03  0.10000000000E+00 0.  1.
         -5    1    3    3    0  501  0.14067378159E+01  0.18495448509E+02  0.26482836759E+02  0.32332818770E+02  0.10000000000E+00 0.  1.
         21    1    1    2  504  503  0.56573602399E+01  0.14424353398E+02 -0.23336481141E+03  0.23387860719E+03  0.00000000000E+00 0.  1.
<mgrwt>
<rscale>  1 0.12595781E+03</rscale>
<asrwt>0</asrwt>
<pdfrwt beam="1">  1       21 0.49209529E-02 0.12595781E+03</pdfrwt>
<pdfrwt beam="2">  1       21 0.55173443E-01 0.12595781E+03</pdfrwt>
<totfact> 0.85952769E+05</totfact>
</mgrwt>
</event>
<event>
 6    1  0.4202038E-002  0.1293298E+03  0.7546771E-02  0.1228454E+00
         21   -1    0    0  503  502  0.00000000000E+00  0.00000000000E+00  0.12689013320E+02  0.12689013320E+02  0.00000000000E+00 0.  1.
         21   -1    0    0  504  503 -0.00000000000E+00 -0.00000000000E+00 -0.53641969919E+03  0.53641969919E+03  0.00000000000E+00 0.  1.
         25    2    1    2    0    0 -0.23416542151E+02 -0.23508716359E+02 -0.45079330118E+03  0.46897846681E+03  0.12500083099E+03 0.  0.
          5    1    3    3  501    0 -0.67325508959E+02 -0.28047488643E+02 -0.36794444328E+03  0.37510333125E+03  0.10000000000E+00 0.  1.
         -5    1    3    3    0  501  0.43908966809E+02  0.45387722839E+01 -0.82848857907E+02  0.93875135560E+02  0.10000000000E+00 0.  1.
         21    1    1    2  504  502  0.23416542151E+02  0.23508716359E+02 -0.72937384684E+02  0.80130245699E+02  0.00000000000E+00 0.  1.
<mgrwt>
<rscale>  1 0.12932982E+03</rscale>
<asrwt>0</asrwt>
<pdfrwt beam="1">  1       21 0.19521562E-02 0.12932982E+03</pdfrwt>
<pdfrwt beam="2">  1       21 0.82526094E-01 0.12932982E+03</pdfrwt>
<totfact> 0.16407000E+06</totfact>
</mgrwt>
</event>
<event>
 6    1  0.4202038E-002  0.1450555E+03  0.7546771E-02  0.1206684E+00
         21   -1    0    0  504  502  0.00000000000E+00  0.00000000000E+00  0.12948057020E+03  0.12948057020E+03  0.00000000000E+00 0. -1.
         21   -1    0    0  502  503 -0.00000000000E+00 -0.00000000000E+00 -0.27369697302E+03  0.27369697302E+03  0.00000000000E+00 0.  1.
         25    2    1    2    0    0 -0.21052640547E+02 -0.70434038076E+02  0.81089124263E+02  0.16618229448E+03  0.12504775700E+03 0.  0.
          5    1    3    3  501    0 -0.32261641043E+02 -0.99500140358E+02  0.34509788757E+02  0.11014548077E+03  0.10000000000E+00 0.  1.
         -5    1    3    3    0  501  0.11209000496E+02  0.29066102283E+02  0.46579335506E+02  0.56036813705E+02  0.10000000000E+00 0.  1.
         21    1    1    2  504  503  0.21052640547E+02  0.70434038076E+02 -0.22530552708E+03  0.23699524874E+03  0.00000000000E+00 0.  1.
<mgrwt>
<rscale>  1 0.14505554E+03</rscale>
<asrwt>0</asrwt>
<pdfrwt beam="1">  1       21 0.19920088E-01 0.14505554E+03</pdfrwt>
<pdfrwt beam="2">  1       21 0.42107226E-01 0.14505554E+03</pdfrwt>
<totfact> 0.12833388E+05</totfact>
</mgrwt>
</event>
<event>
 6    1  0.4202038E-002  0.2319011E+03  0.7546771E-02  0.1125309E+00
         21   -1    0    0  503  502  0.00000000000E+00  0.00000000000E+00  0.49080460653E+02  0.49080460653E+02  0.00000000000E+00 0.  1.
         21   -1    0    0  504  503 -0.00000000000E+00 -0.00000000000E+00 -0.95802943999E+03  0.95802943999E+03  0.00000000000E+00 0.  1.
         25    2    1    2    0    0  0.17806860976E+03 -0.80282614036E+02 -0.57846674201E+03  0.62321898243E+03  0.12499760216E+03 0.  0.
          5    1    3    3  501    0  0.90923094356E+01 -0.59763206682E+02 -0.12479473578E+03  0.13866523371E+03  0.10000000000E+00 0. -1.
         -5    1    3    3    0  501  0.16897630033E+03 -0.20519407354E+02 -0.45367200624E+03  0.48455374871E+03  0.10000000000E+00 0. -1.
         21    1    1    2  504  502 -0.17806860976E+03  0.80282614036E+02 -0.33048223733E+03  0.38389091822E+03  0.00000000000E+00 0.  1.
<mgrwt>
<rscale>  1 0.23190112E+03</rscale>
<asrwt>0</asrwt>
<pdfrwt beam="1">  1       21 0.75508404E-02 0.23190112E+03</pdfrwt>
<pdfrwt beam="2">  1       21 0.14738914E+00 0.23190112E+03</pdfrwt>
<totfact> 0.40628611E+04</totfact>
</mgrwt>
</event>
<event>
 6    1  0.4202038E-002  0.1327831E+03  0.7546771E-02  0.1223384E+00
         21   -1    0    0  504  502  0.00000000000E+00  0.00000000000E+00  0.11382742598E+03  0.11382742598E+03  0.00000000000E+00 0.  1.
         21   -1    0    0  502  503 -0.00000000000E+00 -0.00000000000E+00 -0.13153995557E+03  0.13153995557E+03  0.00000000000E+00 0.  1.
         25    2    1    2    0    0 -0.41763269499E+02 -0.16153244409E+02  0.67612667300E+02  0.14900614863E+03  0.12500504616E+03 0.  0.
          5    1    3    3  501    0  0.10575047372E+02 -0.43422179870E+02  0.77213046147E+02  0.89214246771E+02  0.10000000000E+00 0.  1.
         -5    1    3    3    0  501 -0.52338316871E+02  0.27268935461E+02 -0.96003788472E+01  0.59791901860E+02  0.10000000000E+00 0.  1.
         21    1    1    2  504  503  0.41763269499E+02  0.16153244409E+02 -0.85325196897E+02  0.96361232919E+02  0.00000000000E+00 0.  1.
<mgrwt>
<rscale>  1 0.13278313E+03</rscale>
<asrwt>0</asrwt>
<pdfrwt beam="1">  1       21 0.17511912E-01 0.13278313E+03</pdfrwt>
<pdfrwt beam="2">  1       21 0.20236916E-01 0.13278313E+03</pdfrwt>
<totfact> 0.67029383E+05</totfact>
</mgrwt>
</event>
<event>
 6    1  0.4202038E-002  0.1263914E+03  0.7546771E-02  0.1232911E+00
         21   -1    0    0  503  502  0.00000000000E+00  0.00000000000E+00  0.11653857835E+02  0.11653857835E+02  0.00000000000E+00 0.  1.
         21   -1    0    0  504  503 -0.00000000000E+00 -0.00000000000E+00 -0.60024585722E+03  0.60024585722E+03  0.00000000000E+00 0.  1.
         25    2    1    2    0    0 -0.44394498441E+01 -0.18254887976E+02 -0.34224768879E+03  0.36484006839E+03  0.12498738083E+03 0.  0.
          5    1    3    3  501    0  0.30338238084E+02  0.39196001071E+02 -0.79834391607E+02  0.93969544392E+02  0.10000000000E+00 0. -1.
         -5    1    3    3    0  501 -0.34777687928E+02 -0.57450889047E+02 -0.26241329719E+03  0.27087052400E+03  0.10000000000E+00 0. -1.
         21    1    1    2  504  502  0.44394498441E+01  0.18254887976E+02 -0.24634431059E+03  0.24705964667E+03  0.00000000000E+00 0.  1.
<mgrwt>
<rscale>  1 0.12639144E+03</rscale>
<asrwt>0</asrwt>
<pdfrwt beam="1">  1       21 0.17929011E-02 0.12639144E+03</pdfrwt>
<pdfrwt beam="2">  1       21 0.92345521E-01 0.12639144E+03</pdfrwt>
<totfact> 0.14569958E+06</totfact>
</mgrwt>
</event>
<event>
 6    1  0.4202038E-002  0.1264145E+03  0.7546771E-02  0.1232875E+00
         21   -1    0    0  504  502  0.00000000000E+00  0.00000000000E+00  0.20524912152E+02  0.20524912152E+02  0.00000000000E+00 0. -1.
         21   -1    0    0  502  503 -0.00000000000E+00 -0.00000000000E+00 -0.12537872731E+04  0.12537872731E+04  0.00000000000E+00 0.  1.
         25    2    1    2    0    0 -0.11373775605E+02 -0.15031871050E+02 -0.17500743483E+03  0.21588939233E+03  0.12500123022E+03 0.  0.
          5    1    3    3  501    0 -0.41896314027E+02  0.42608805393E+01 -0.17477795073E+03  0.17977986065E+03  0.10000000000E+00 0.  1.
         -5    1    3    3    0  501  0.30522538422E+02 -0.19292751590E+02 -0.22948409791E+00  0.36109531686E+02  0.10000000000E+00 0.  1.
         21    1    1    2  504  503  0.11373775605E+02  0.15031871050E+02 -0.10582549261E+04  0.10584227929E+04  0.00000000000E+00 0.  1.
<mgrwt>
<rscale>  1 0.12641451E+03</rscale>
<asrwt>0</asrwt>
<pdfrwt beam="1">  1       21 0.31576792E-02 0.12641451E+03</pdfrwt>
<pdfrwt beam="2">  1       21 0.19289032E+00 0.12641451E+03</pdfrwt>
<totfact> 0.90407695E+04</totfact>
</mgrwt>
</event>
<event>
 6    1  0.4202038E-002  0.1273934E+03  0.7546771E-02  0.1231375E+00
         21   -1    0    0  503  502  0.00000000000E+00  0.00000000000E+00  0.58212121809E+02  0.58212121809E+02  0.00000000000E+00 0. -1.
         21   -1    0    0  504  503 -0.00000000000E+00 -0.00000000000E+00 -0.10001546805E+03  0.10001546805E+03  0.00000000000E+00 0. -1.
         25    2    1    2    0    0  0.10167387239E+02 -0.22417219478E+02 -0.29756309484E+02  0.13082250662E+03  0.12499273096E+03 0.  0.
          5    1    3    3  501    0 -0.33974867118E+02 -0.54093526054E+02  0.84041165187E+01  0.64428567663E+02  0.10000000000E+00 0.  1.
         -5    1    3    3    0  501  0.44142254357E+02  0.31676306575E+02 -0.38160426002E+02  0.66393938960E+02  0.10000000000E+00 0.  1.
         21    1    1    2  504  502 -0.10167387239E+02  0.22417219478E+02 -0.12047036754E+02  0.27405083232E+02  0.00000000000E+00 0.  1.
<mgrwt>
<rscale>  1 0.12739345E+03</rscale>
<asrwt>0</asrwt>
<pdfrwt beam="1">  1       21 0.89557111E-02 0.12739345E+03</pdfrwt>
<pdfrwt beam="2">  1       21 0.15386995E-01 0.12739345E+03</pdfrwt>
<totfact> 0.36438860E+06</totfact>
</mgrwt>
</event>
<event>
 6    1  0.4202038E-002  0.1328196E+03  0.7546771E-02  0.1223331E+00
         21   -1    0    0  503  502  0.00000000000E+00  0.00000000000E+00  0.22554373983E+03  0.22554373983E+03  0.00000000000E+00 0. -1.
         21   -1    0    0  504  503 -0.00000000000E+00 -0.00000000000E+00 -0.35357456512E+02  0.35357456512E+02  0.00000000000E+00 0. -1.
         25    2    1    2    0    0 -0.43364530374E+02  0.11557056616E+02  0.15308850961E+03  0.20267497487E+03  0.12500802219E+03 0.  0.
          5    1    3    3  501    0 -0.11818096827E+02 -0.55207042463E+02  0.47239232680E+02  0.73614129447E+02  0.10000000000E+00 0. -1.
         -5    1    3    3    0  501 -0.31546433548E+02  0.66764099079E+02  0.10584927693E+03  0.12906084543E+03  0.10000000000E+00 0. -1.
         21    1    1    2  504  502  0.43364530374E+02 -0.11557056616E+02  0.37097773703E+02  0.58226221464E+02  0.00000000000E+00 0. -1.
<mgrwt>
<rscale>  1 0.13281963E+03</rscale>
<asrwt>0</asrwt>
<pdfrwt beam="1">  1       21 0.34699036E-01 0.13281963E+03</pdfrwt>
<pdfrwt beam="2">  1       21 0.54396088E-02 0.13281963E+03</pdfrwt>
<totfact> 0.18589970E+06</totfact>
</mgrwt>
</event>
<event>
 6    1  0.4202038E-002  0.1267816E+03  0.7546771E-02  0.1232311E+00
         21   -1    0    0  503  502  0.00000000000E+00  0.00000000000E+00  0.21763506672E+02  0.21763506672E+02  0.00000000000E+00 0.  1.
         21   -1    0    0  504  503 -0.00000000000E+00 -0.00000000000E+00 -0.25880772855E+03  0.25880772855E+03  0.00000000000E+00 0.  1.
         25    2    1    2    0    0  0.59698195421E+01  0.20294338141E+02 -0.18385657166E+03  0.22333117022E+03  0.12500429490E+03 0.  0.
          5    1    3    3  501    0  0.52360851546E+02  0.60244298067E+01 -0.16151984022E+03  0.16990179903E+03  0.10000000000E+00 0. -1.
         -5    1    3    3    0  501 -0.46391032003E+02  0.14269908334E+02 -0.22336731441E+02  0.53429371189E+02  0.10000000000E+00 0. -1.
         21    1    1    2  504  502 -0.59698195421E+01 -0.20294338141E+02 -0.53187650226E+02  0.57240065012E+02  0.00000000000E+00 0.  1.
<mgrwt>
<rscale>  1 0.12678159E+03</rscale>
<asrwt>0</asrwt>
<pdfrwt beam="1">  1       21 0.33482317E-02 0.12678159E+03</pdfrwt>
<pdfrwt beam="2">  1       21 0.39816574E-01 0.12678159E+03</pdfrwt>
<totfact> 0.31746256E+06</totfact>
</mgrwt>
</event>
<event>
 6    1  0.4202038E-002  0.1264276E+03  0.7546771E-02  0.1232855E+00
         21   -1    0    0  503  502  0.00000000000E+00  0.00000000000E+00  0.12103364929E+04  0.12103364929E+04  0.00000000000E+00 0.  1.
         21   -1    0    0  504  503 -0.00000000000E+00 -0.00000000000E+00 -0.44131369281E+01  0.44131369281E+01  0.00000000000E+00 0.  1.
         25    2    1    2    0    0  0.10754860566E+02 -0.15588891082E+02  0.10870119084E+04  0.10943394437E+04  0.12500099425E+03 0.  0.
          5    1    3    3  501    0  0.35728441666E+02 -0.44782272230E+02  0.25139810317E+03  0.25784295555E+03  0.10000000000E+00 0. -1.
         -5    1    3    3    0  501 -0.24973581100E+02  0.29193381148E+02  0.83561380519E+03  0.83649648815E+03  0.10000000000E+00 0. -1.
         21    1    1    2  504  502 -0.10754860566E+02  0.15588891082E+02  0.11891144760E+03  0.12041018612E+03  0.00000000000E+00 0. -1.
<mgrwt>
<rscale>  1 0.12642756E+03</rscale>
<asrwt>0</asrwt>
<pdfrwt beam="1">  1       21 0.18620535E+00 0.12642756E+03</pdfrwt>
<pdfrwt beam="2">  1       21 0.67894511E-03 0.12642756E+03</pdfrwt>
<totfact> 0.11618195E+06</totfact>
</mgrwt>
</event>
<event>
 6    1  0.4202038E-002  0.1296768E+03  0.7546771E-02  0.1227936E+00
         21   -1    0    0  504  502  0.00000000000E+00  0.00000000000E+00  0.25501840017E+02  0.25501840017E+02  0.00000000000E+00 0.  1.
         21   -1    0    0  502  503 -0.00000000000E+00 -0.00000000000E+00 -0.26658332925E+03  0.26658332925E+03  0.00000000000E+00 0.  1.
         25    2    1    2    0    0 -0.22373857505E+02 -0.26199672547E+02 -0.17827677764E+03  0.22045107027E+03  0.12501620933E+03 0.  0.
          5    1    3    3  501    0 -0.20881021595E+02  0.41915279138E+02 -0.25847798930E+02  0.53488563241E+02  0.10000000000E+00 0. -1.
         -5    1    3    3    0  501 -0.14928359106E+01 -0.68114951685E+02 -0.15242897871E+03  0.16696250703E+03  0.10000000000E+00 0. -1.
         21    1    1    2  504  503  0.22373857505E+02  0.26199672547E+02 -0.62804711597E+02  0.71634099003E+02  0.00000000000E+00 0.  1.
<mgrwt>
<rscale>  1 0.12967677E+03</rscale>
<asrwt>0</asrwt>
<pdfrwt beam="1">  1       21 0.39233598E-02 0.12967677E+03</pdfrwt>
<pdfrwt beam="2">  1       21 0.41012822E-01 0.12967677E+03</pdfrwt>
<totfact> 0.23038422E+06</totfact>
</mgrwt>
</event>
<event>
 6    1  0.4202038E-002  0.1360417E+03  0.7546771E-02  0.1218757E+00
         21   -1    0    0  503  502  0.00000000000E+00  0.00000000000E+00  0.25453610750E+03  0.25453610750E+03  0.00000000000E+00 0.  1.
         21   -1    0    0  504  503 -0.00000000000E+00 -0.00000000000E+00 -0.54234332881E+02  0.54234332881E+02  0.00000000000E+00 0.  1.
         25    2    1    2    0    0  0.46412131029E+02 -0.26992744017E+02  0.21379690775E+03  0.25340968935E+03  0.12499863502E+03 0.  0.
          5    1    3    3  501    0  0.81935761924E+02 -0.14747705630E+02  0.83932711107E+02  0.11821875442E+03  0.10000000000E+00 0.  1.
         -5    1    3    3    0  501 -0.35523630895E+02 -0.12245038387E+02  0.12986419664E+03  0.13519093493E+03  0.10000000000E+00 0.  1.
         21    1    1    2  504  502 -0.46412131029E+02  0.26992744017E+02 -0.13495133133E+02  0.55360751029E+02  0.00000000000E+00 0.  1.
<mgrwt>
<rscale>  1 0.13604173E+03</rscale>
<asrwt>0</asrwt>
<pdfrwt beam="1">  1       21 0.39159400E-01 0.13604173E+03</pdfrwt>
<pdfrwt beam="2">  1       21 0.83437437E-02 0.13604173E+03</pdfrwt>
<totfact> 0.70455372E+05</totfact>
</mgrwt>
</event>
<event>
 6    1  0.4202038E-002  0.1305350E+03  0.7546771E-02  0.1226664E+00
         21   -1    0    0  504  502  0.00000000000E+00  0.00000000000E+00  0.11192124887E+03  0.11192124887E+03  0.00000000000E+00 0.  1.
         21   -1    0    0  502  503 -0.00000000000E+00 -0.00000000000E+00 -0.21599866500E+03  0.21599866500E+03  0.00000000000E+00 0.  1.
         25    2    1    2    0    0  0.31381852055E+02 -0.20706241292E+02  0.71176054285E+02  0.14867888074E+03  0.12500323919E+03 0.  0.
          5    1    3    3  501    0  0.39698807101E+02 -0.42029302036E+02 -0.14824773287E+02  0.59684515729E+02  0.10000000000E+00 0.  1.
         -5    1    3    3    0  501 -0.83169550459E+01  0.21323060744E+02  0.86000827572E+02  0.88994365011E+02  0.10000000000E+00 0.  1.
         21    1    1    2  504  503 -0.31381852055E+02  0.20706241292E+02 -0.17525347041E+03  0.17924103313E+03  0.00000000000E+00 0.  1.
<mgrwt>
<rscale>  1 0.13053497E+03</rscale>
<asrwt>0</asrwt>
<pdfrwt beam="1">  1       21 0.17218654E-01 0.13053497E+03</pdfrwt>
<pdfrwt beam="2">  1       21 0.33230564E-01 0.13053497E+03</pdfrwt>
<totfact> 0.26948128E+05</totfact>
</mgrwt>
</event>
<event>
 6    1  0.4202038E-002  0.1261255E+03  0.7546771E-02  0.1233321E+00
         21   -1    0    0  504  502  0.00000000000E+00  0.00000000000E+00  0.22902970768E+03  0.22902970768E+03  0.00000000000E+00 0. -1.
         21   -1    0    0  502  503 -0.00000000000E+00 -0.00000000000E+00 -0.23961191535E+02  0.23961191535E+02  0.00000000000E+00 0. -1.
         25    2    1    2    0    0 -0.16791004758E+02 -0.66142567408E+00  0.19800447934E+03  0.23476246152E+03  0.12500105671E+03 0.  0.
          5    1    3    3  501    0  0.45257284376E+02 -0.21440879916E+02  0.41187935478E+02  0.64841261166E+02  0.10000000000E+00 0. -1.
         -5    1    3    3    0  501 -0.62048289135E+02  0.20779454241E+02  0.15681654386E+03  0.16992120036E+03  0.10000000000E+00 0. -1.
         21    1    1    2  504  503  0.16791004758E+02  0.66142567408E+00  0.70640368105E+01  0.18228437694E+02  0.00000000000E+00 0. -1.
<mgrwt>
<rscale>  1 0.12612549E+03</rscale>
<asrwt>0</asrwt>
<pdfrwt beam="1">  1       21 0.35235338E-01 0.12612549E+03</pdfrwt>
<pdfrwt beam="2">  1       21 0.36863373E-02 0.12612549E+03</pdfrwt>
<totfact> 0.34495730E+06</totfact>
</mgrwt>
</event>
<event>
 6    1  0.4202038E-002  0.1313675E+03  0.7546771E-02  0.1225441E+00
         21   -1    0    0  504  502  0.00000000000E+00  0.00000000000E+00  0.91544647412E+02  0.91544647412E+02  0.00000000000E+00 0.  1.
         21   -1    0    0  502  503 -0.00000000000E+00 -0.00000000000E+00 -0.96739690770E+02  0.96739690770E+02  0.00000000000E+00 0.  1.
         25    2    1    2    0    0 -0.40358222379E+02 -0.18049838349E+01  0.29949567801E+02  0.13473821065E+03  0.12500145886E+03 0.  0.
          5    1    3    3  501    0 -0.41616937849E+02 -0.36320472158E+02 -0.31981156772E+02  0.63827506626E+02  0.10000000000E+00 0.  1.
         -5    1    3    3    0  501  0.12587154696E+01  0.34515488323E+02  0.61930724573E+02  0.70910704022E+02  0.10000000000E+00 0.  1.
         21    1    1    2  504  503  0.40358222379E+02  0.18049838349E+01 -0.35144611160E+02  0.53546127534E+02  0.00000000000E+00 0.  1.
<mgrwt>
<rscale>  1 0.13136746E+03</rscale>
<asrwt>0</asrwt>
<pdfrwt beam="1">  1       21 0.14083792E-01 0.13136746E+03</pdfrwt>
<pdfrwt beam="2">  1       21 0.14883029E-01 0.13136746E+03</pdfrwt>
<totfact> 0.17428911E+06</totfact>
</mgrwt>
</event>
<event>
 6    1  0.4202038E-002  0.1569502E+03  0.7546771E-02  0.1192184E+00
         21   -1    0    0  503  502  0.00000000000E+00  0.00000000000E+00  0.95617154921E+02  0.95617154921E+02  0.00000000000E+00 0.  1.
         21   -1    0    0  504  503 -0.00000000000E+00 -0.00000000000E+00 -0.12716440585E+04  0.12716440585E+04  0.00000000000E+00 0. -1.
         25    2    1    2    0    0 -0.40421454219E+02  0.85872516940E+02  0.28060641089E+02  0.15943887617E+03  0.12500149011E+03 0.  0.
          5    1    3    3  501    0 -0.23308123434E+01  0.13495162928E+02 -0.46677694762E+02  0.48645341986E+02  0.10000000000E+00 0. -1.
         -5    1    3    3    0  501 -0.38090641875E+02  0.72377354012E+02  0.74738335851E+02  0.11079353419E+03  0.10000000000E+00 0. -1.
         21    1    1    2  504  502  0.40421454219E+02 -0.85872516940E+02 -0.12040875447E+04  0.12078223373E+04  0.00000000000E+00 0. -1.
<mgrwt>
<rscale>  1 0.15695017E+03</rscale>
<asrwt>0</asrwt>
<pdfrwt beam="1">  1       21 0.14710332E-01 0.15695017E+03</pdfrwt>
<pdfrwt beam="2">  1       21 0.19563754E+00 0.15695017E+03</pdfrwt>
<totfact> 0.60274475E+03</totfact>
</mgrwt>
</event>
<event>
 6    1  0.4202038E-002  0.1266076E+03  0.7546771E-02  0.1232578E+00
         21   -1    0    0  503  502  0.00000000000E+00  0.00000000000E+00  0.16568899792E+04  0.16568899792E+04  0.00000000000E+00 0.  1.
         21   -1    0    0  504  503 -0.00000000000E+00 -0.00000000000E+00 -0.34872349379E+01  0.34872349379E+01  0.00000000000E+00 0.  1.
         25    2    1    2    0    0 -0.11159051645E+02  0.16721226878E+02  0.15408941393E+04  0.15460867506E+04  0.12500147213E+03 0.  0.
          5    1    3    3  501    0 -0.39148678631E+02 -0.18687897870E+02  0.21031686361E+03  0.21474414936E+03  0.10000000000E+00 0.  1.
         -5    1    3    3    0  501  0.27989626985E+02  0.35409124749E+02  0.13305772757E+04  0.13313426013E+04  0.10000000000E+00 0.  1.
         21    1    1    2  504  502  0.11159051645E+02 -0.16721226878E+02  0.11250860499E+03  0.11429046355E+03  0.00000000000E+00 0.  1.
<mgrwt>
<rscale>  1 0.12660763E+03</rscale>
<asrwt>0</asrwt>
<pdfrwt beam="1">  1       21 0.25490552E+00 0.12660763E+03</pdfrwt>
<pdfrwt beam="2">  1       21 0.53649901E-03 0.12660763E+03</pdfrwt>
<totfact> 0.64482271E+05</totfact>
</mgrwt>
</event>
<event>
 6    1  0.4202038E-002  0.1559645E+03  0.7546771E-02  0.1193330E+00
         21   -1    0    0  503  502  0.00000000000E+00  0.00000000000E+00  0.16680546331E+03  0.16680546331E+03  0.00000000000E+00 0. -1.
         21   -1    0    0  504  503 -0.00000000000E+00 -0.00000000000E+00 -0.30086643411E+03  0.30086643411E+03  0.00000000000E+00 0.  1.
         25    2    1    2    0    0  0.11835186532E+02 -0.92587388029E+02  0.12014241440E+03  0.19687334293E+03  0.12494965929E+03 0.  0.
          5    1    3    3  501    0 -0.25111401740E+02  0.15461320660E+01  0.86832578170E+02  0.90403980296E+02  0.10000000000E+00 0.  1.
         -5    1    3    3    0  501  0.36946588272E+02 -0.94133520095E+02  0.33309836235E+02  0.10646936264E+03  0.10000000000E+00 0.  1.
         21    1    1    2  504  502 -0.11835186532E+02  0.92587388029E+02 -0.25420338520E+03  0.27079855449E+03  0.00000000000E+00 0.  1.
<mgrwt>
<rscale>  1 0.15596446E+03</rscale>
<asrwt>0</asrwt>
<pdfrwt beam="1">  1       21 0.25662379E-01 0.15596446E+03</pdfrwt>
<pdfrwt beam="2">  1       21 0.46287144E-01 0.15596446E+03</pdfrwt>
<totfact> 0.65503619E+04</totfact>
</mgrwt>
</event>
<event>
 6    1  0.4202038E-002  0.1326943E+03  0.7546771E-02  0.1223512E+00
         21   -1    0    0  504  502  0.00000000000E+00  0.00000000000E+00  0.71918325907E+03  0.71918325907E+03  0.00000000000E+00 0.  1.
         21   -1    0    0  502  503 -0.00000000000E+00 -0.00000000000E+00 -0.11183314181E+03  0.11183314181E+03  0.00000000000E+00 0. -1.
         25    2    1    2    0    0 -0.36071245017E+02 -0.26110207589E+02  0.70833120767E+03  0.72065309955E+03  0.12499964991E+03 0.  0.
          5    1    3    3  501    0 -0.31518067972E+02  0.17397013321E+02  0.62925093606E+03  0.63027993401E+03  0.10000000000E+00 0.  1.
         -5    1    3    3    0  501 -0.45531770445E+01 -0.43507220911E+02  0.79080271607E+02  0.90373165542E+02  0.10000000000E+00 0.  1.
         21    1    1    2  504  503  0.36071245017E+02  0.26110207589E+02 -0.10098109041E+03  0.11036330132E+03  0.00000000000E+00 0. -1.
<mgrwt>
<rscale>  1 0.13269435E+03</rscale>
<asrwt>0</asrwt>
<pdfrwt beam="1">  1       21 0.11064358E+00 0.13269435E+03</pdfrwt>
<pdfrwt beam="2">  1       21 0.17205099E-01 0.13269435E+03</pdfrwt>
<totfact> 0.20466152E+04</totfact>
</mgrwt>
</event>
<event>
 6    1  0.4202038E-002  0.1262270E+03  0.7546771E-02  0.1233164E+00
         21   -1    0    0  504  502  0.00000000000E+00  0.00000000000E+00  0.19234215021E+02  0.19234215021E+02  0.00000000000E+00 0. -1.
         21   -1    0    0  502  503 -0.00000000000E+00 -0.00000000000E+00 -0.27132141927E+03  0.27132141927E+03  0.00000000000E+00 0. -1.
         25    2    1    2    0    0 -0.35154439538E+01 -0.17187159916E+02 -0.21091127087E+03  0.24579835218E+03  0.12500203576E+03 0.  0.
          5    1    3    3  501    0  0.48977290902E+02 -0.26222022939E+02 -0.16937355374E+03  0.17825201322E+03  0.10000000000E+00 0. -1.
         -5    1    3    3    0  501 -0.52492734855E+02  0.90348630226E+01 -0.41537717126E+02  0.67546338957E+02  0.10000000000E+00 0. -1.
         21    1    1    2  504  503  0.35154439538E+01  0.17187159916E+02 -0.41175933381E+02  0.44757282111E+02  0.00000000000E+00 0. -1.
<mgrwt>
<rscale>  1 0.12622704E+03</rscale>
<asrwt>0</asrwt>
<pdfrwt beam="1">  1       21 0.29591103E-02 0.12622704E+03</pdfrwt>
<pdfrwt beam="2">  1       21 0.41741753E-01 0.12622704E+03</pdfrwt>
<totfact> 0.35373364E+06</totfact>
</mgrwt>
</event>
<event>
 6    1  0.4202038E-002  0.1262891E+03  0.7546771E-02  0.1233068E+00
         21   -1    0    0  504  502  0.00000000000E+00  0.00000000000E+00  0.19935832397E+03  0.19935832397E+03  0.00000000000E+00 0.  1.
         21   -1    0    0  502  503 -0.00000000000E+00 -0.00000000000E+00 -0.84603297788E+02  0.84603297788E+02  0.00000000000E+00 0.  1.
         25    2    1    2    0    0 -0.65340157868E+01 -0.16764128069E+02  0.17797604212E+03  0.21823015129E+03  0.12500079204E+03 0.  0.
          5    1    3    3  501    0  0.14122647540E+02 -0.32678711531E+02 -0.26810661821E+01  0.35700776977E+02  0.10000000000E+00 0. -1.
         -5    1    3    3    0  501 -0.20656663327E+02  0.15914583462E+02  0.18065710831E+03  0.18252937432E+03  0.10000000000E+00 0. -1.
         21    1    1    2  504  503  0.65340157868E+01  0.16764128069E+02 -0.63221015944E+02  0.65731470463E+02  0.00000000000E+00 0.  1.
<mgrwt>
<rscale>  1 0.12628906E+03</rscale>
<asrwt>0</asrwt>
<pdfrwt beam="1">  1       21 0.30670511E-01 0.12628906E+03</pdfrwt>
<pdfrwt beam="2">  1       21 0.13015892E-01 0.12628906E+03</pdfrwt>
<totfact> 0.52172551E+05</totfact>
</mgrwt>
</event>
<event>
 6    1  0.4202038E-002  0.1332565E+03  0.7546771E-02  0.1222702E+00
         21   -1    0    0  503  502  0.00000000000E+00  0.00000000000E+00  0.14082133873E+03  0.14082133873E+03  0.00000000000E+00 0.  1.
         21   -1    0    0  504  503 -0.00000000000E+00 -0.00000000000E+00 -0.57816936204E+02  0.57816936204E+02  0.00000000000E+00 0.  1.
         25    2    1    2    0    0  0.42191823518E+02  0.18758483336E+02  0.52115010411E+02  0.14308483027E+03  0.12500105469E+03 0.  0.
          5    1    3    3  501    0 -0.18272785760E+02 -0.42604623914E+02  0.25559232692E+02  0.52937066920E+02  0.10000000000E+00 0.  1.
         -5    1    3    3    0  501  0.60464609278E+02  0.61363107250E+02  0.26555777719E+02  0.90147763349E+02  0.10000000000E+00 0.  1.
         21    1    1    2  504  502 -0.42191823518E+02 -0.18758483336E+02  0.30889392113E+02  0.55553444663E+02  0.00000000000E+00 0.  1.
<mgrwt>
<rscale>  1 0.13325650E+03</rscale>
<asrwt>0</asrwt>
<pdfrwt beam="1">  1       21 0.21664821E-01 0.13325650E+03</pdfrwt>
<pdfrwt beam="2">  1       21 0.88949133E-02 0.13325650E+03</pdfrwt>
<totfact> 0.19716956E+06</totfact>
</mgrwt>
</event>
<event>
 6    1  0.4202038E-002  0.1261331E+03  0.7546771E-02  0.1233309E+00
         21   -1    0    0  503  502  0.00000000000E+00  0.00000000000E+00  0.46731161800E+01  0.46731161800E+01  0.00000000000E+00 0. -1.
         21   -1    0    0  504  503 -0.00000000000E+00 -0.00000000000E+00 -0.11056407062E+04  0.11056407062E+04  0.00000000000E+00 0. -1.
         25    2    1    2    0    0  0.92737745956E+01 -0.14008649020E+02 -0.92810711261E+03  0.93663886796E+03  0.12500924506E+03 0.  0.
          5    1    3    3  501    0  0.27481996059E+02 -0.64984590552E+02 -0.59389995111E+03  0.59807643244E+03  0.10000000000E+00 0. -1.
         -5    1    3    3    0  501 -0.18208221464E+02  0.50975941532E+02 -0.33420716150E+03  0.33856243551E+03  0.10000000000E+00 0. -1.
         21    1    1    2  504  502 -0.92737745956E+01  0.14008649020E+02 -0.17286047736E+03  0.17367495438E+03  0.00000000000E+00 0.  1.
<mgrwt>
<rscale>  1 0.12613309E+03</rscale>
<asrwt>0</asrwt>
<pdfrwt beam="1">  1       21 0.71894085E-03 0.12613309E+03</pdfrwt>
<pdfrwt beam="2">  1       21 0.17009860E+00 0.12613309E+03</pdfrwt>
<totfact> 0.13630804E+06</totfact>
</mgrwt>
</event>
<event>
 6    1  0.4202038E-002  0.1263282E+03  0.7546771E-02  0.1233008E+00
         21   -1    0    0  503  502  0.00000000000E+00  0.00000000000E+00  0.49155453127E+02  0.49155453127E+02  0.00000000000E+00 0. -1.
         21   -1    0    0  504  503 -0.00000000000E+00 -0.00000000000E+00 -0.12332269235E+03  0.12332269235E+03  0.00000000000E+00 0. -1.
         25    2    1    2    0    0 -0.30937544477E+01  0.18010875259E+02 -0.37939840617E+02  0.13190244642E+03  0.12499944369E+03 0.  0.
          5    1    3    3  501    0  0.27128876182E+02  0.45634947360E+02 -0.64163466222E+02  0.83279557762E+02  0.10000000000E+00 0. -1.
         -5    1    3    3    0  501 -0.30222630629E+02 -0.27624072101E+02  0.26223625605E+02  0.48622888658E+02  0.10000000000E+00 0. -1.
         21    1    1    2  504  502  0.30937544477E+01 -0.18010875259E+02 -0.36227398603E+02  0.40575699054E+02  0.00000000000E+00 0. -1.
<mgrwt>
<rscale>  1 0.12632824E+03</rscale>
<asrwt>0</asrwt>
<pdfrwt beam="1">  1       21 0.75623775E-02 0.12632824E+03</pdfrwt>
<pdfrwt beam="2">  1       21 0.18972722E-01 0.12632824E+03</pdfrwt>
<totfact> 0.33302203E+06</totfact>
</mgrwt>
</event>
<event>
 6    1  0.4202038E-002  0.1302836E+03  0.7546771E-02  0.1227036E+00
         21   -1    0    0  504  502  0.00000000000E+00  0.00000000000E+00  0.41187357833E+02  0.41187357833E+02  0.00000000000E+00 0.  1.
         21   -1    0    0  502  503 -0.00000000000E+00 -0.00000000000E+00 -0.17309079634E+03  0.17309079634E+03  0.00000000000E+00 0.  1.
         25    2    1    2    0    0  0.36667737200E+02 -0.21001105843E+01 -0.88896157285E+02  0.15772234409E+03  0.12499951052E+03 0.  0.
          5    1    3    3  501    0  0.17852282729E+02 -0.51426917744E+00 -0.12000748469E+03  0.12132920033E+03  0.10000000000E+00 0. -1.
         -5    1    3    3    0  501  0.18815454471E+02 -0.15858414068E+01  0.31111327405E+02  0.36393143761E+02  0.10000000000E+00 0. -1.
         21    1    1    2  504  503 -0.36667737200E+02  0.21001105843E+01 -0.43007281223E+02  0.56555810082E+02  0.00000000000E+00 0.  1.
<mgrwt>
<rscale>  1 0.13028358E+03</rscale>
<asrwt>0</asrwt>
<pdfrwt beam="1">  1       21 0.63365166E-02 0.13028358E+03</pdfrwt>
<pdfrwt beam="2">  1       21 0.26629353E-01 0.13028358E+03</pdfrwt>
<totfact> 0.23930767E+06</totfact>
</mgrwt>
</event>
<event>
 6    1  0.4202038E-002  0.1466174E+03  0.7546771E-02  0.1204692E+00
         21   -1    0    0  504  502  0.00000000000E+00  0.00000000000E+00  0.45502444229E+02  0.45502444229E+02  0.00000000000E+00 0.  1.
         21   -1    0    0  502  503 -0.00000000000E+00 -0.00000000000E+00 -0.28794558138E+03  0.28794558138E+03  0.00000000000E+00 0.  1.
         25    2    1    2    0    0 -0.36341439798E+02  0.67454543063E+02 -0.12218880491E+03  0.19085798371E+03  0.12500340105E+03 0.  0.
          5    1    3    3  501    0  0.15451713792E+01 -0.36041872995E+02 -0.24756569573E+02  0.43752735922E+02  0.10000000000E+00 0. -1.
         -5    1    3    3    0  501 -0.37886611177E+02  0.10349641606E+03 -0.97432235338E+02  0.14710524779E+03  0.10000000000E+00 0. -1.
         21    1    1    2  504  503  0.36341439798E+02 -0.67454543063E+02 -0.12025433224E+03  0.14259004190E+03  0.00000000000E+00 0.  1.
<mgrwt>
<rscale>  1 0.14661741E+03</rscale>
<asrwt>0</asrwt>
<pdfrwt beam="1">  1       21 0.70003759E-02 0.14661741E+03</pdfrwt>
<pdfrwt beam="2">  1       21 0.44299321E-01 0.14661741E+03</pdfrwt>
<totfact> 0.74338724E+05</totfact>
</mgrwt>
</event>
<event>
 6    1  0.4202038E-002  0.1401974E+03  0.7546771E-02  0.1213064E+00
         21   -1    0    0  503  502  0.00000000000E+00  0.00000000000E+00  0.18901796222E+03  0.18901796222E+03  0.00000000000E+00 0. -1.
         21   -1    0    0  504  503 -0.00000000000E+00 -0.00000000000E+00 -0.63320156118E+02  0.63320156118E+02  0.00000000000E+00 0. -1.
         25    2    1    2    0    0 -0.52598455258E+02 -0.35553378070E+02  0.12651994569E+03  0.18884547230E+03  0.12499870224E+03 0.  0.
          5    1    3    3  501    0 -0.15239809544E+01  0.44886569598E+02  0.40455328858E+02  0.60446424884E+02  0.10000000000E+00 0.  1.
         -5    1    3    3    0  501 -0.51074474303E+02 -0.80439947668E+02  0.86064616834E+02  0.12839904741E+03  0.10000000000E+00 0.  1.
         21    1    1    2  504  502  0.52598455258E+02  0.35553378070E+02 -0.82213958899E+00  0.63492646040E+02  0.00000000000E+00 0. -1.
<mgrwt>
<rscale>  1 0.14019742E+03</rscale>
<asrwt>0</asrwt>
<pdfrwt beam="1">  1       21 0.29079686E-01 0.14019742E+03</pdfrwt>
<pdfrwt beam="2">  1       21 0.97415626E-02 0.14019742E+03</pdfrwt>
<totfact> 0.96413303E+05</totfact>
</mgrwt>
</event>
<event>
 6    1  0.4202038E-002  0.1326863E+03  0.7546771E-02  0.1223523E+00
         21   -1    0    0  503  502  0.00000000000E+00  0.00000000000E+00  0.39414205832E+02  0.39414205832E+02  0.00000000000E+00 0.  1.
         21   -1    0    0  504  503 -0.00000000000E+00 -0.00000000000E+00 -0.21048767952E+03  0.21048767952E+03  0.00000000000E+00 0.  1.
         25    2    1    2    0    0  0.63680875270E+01 -0.44034678083E+02 -0.15122346884E+03  0.20118199101E+03  0.12500420219E+03 0.  0.
          5    1    3    3  501    0 -0.24888556678E+02 -0.40500952424E+02 -0.84066181433E+00  0.47544548720E+02  0.10000000000E+00 0. -1.
         -5    1    3    3    0  501  0.31256644205E+02 -0.35337256589E+01 -0.15038280702E+03  0.15363744229E+03  0.10000000000E+00 0. -1.
         21    1    1    2  504  502 -0.63680875270E+01  0.44034678083E+02 -0.19850004853E+02  0.48719894348E+02  0.00000000000E+00 0.  1.
<mgrwt>
<rscale>  1 0.13268631E+03</rscale>
<asrwt>0</asrwt>
<pdfrwt beam="1">  1       21 0.60637240E-02 0.13268631E+03</pdfrwt>
<pdfrwt beam="2">  1       21 0.32382720E-01 0.13268631E+03</pdfrwt>
<totfact> 0.17705163E+06</totfact>
</mgrwt>
</event>
<event>
 6    1  0.4202038E-002  0.1281678E+03  0.7546771E-02  0.1230200E+00
         21   -1    0    0  503  502  0.00000000000E+00  0.00000000000E+00  0.37920645940E+03  0.37920645940E+03  0.00000000000E+00 0. -1.
         21   -1    0    0  504  503 -0.00000000000E+00 -0.00000000000E+00 -0.27779591257E+02  0.27779591257E+02  0.00000000000E+00 0. -1.
         25    2    1    2    0    0  0.12813004188E+02 -0.25248090090E+02  0.35594272371E+03  0.37831494881E+03  0.12500135520E+03 0.  0.
          5    1    3    3  501    0 -0.47274911174E+02 -0.21255840320E+02  0.76164658857E+02  0.92129220299E+02  0.10000000000E+00 0.  1.
         -5    1    3    3    0  501  0.60087915363E+02 -0.39922497700E+01  0.27977806485E+03  0.28618572851E+03  0.10000000000E+00 0.  1.
         21    1    1    2  504  502 -0.12813004188E+02  0.25248090090E+02 -0.45158555676E+01  0.28671101846E+02  0.00000000000E+00 0. -1.
<mgrwt>
<rscale>  1 0.12816777E+03</rscale>
<asrwt>0</asrwt>
<pdfrwt beam="1">  1       21 0.58339451E-01 0.12816777E+03</pdfrwt>
<pdfrwt beam="2">  1       21 0.42737836E-02 0.12816777E+03</pdfrwt>
<totfact> 0.96762634E+05</totfact>
</mgrwt>
</event>
<event>
 6    1  0.4202038E-002  0.1266668E+03  0.7546771E-02  0.1232487E+00
         21   -1    0    0  503  502  0.00000000000E+00  0.00000000000E+00  0.48195165889E+03  0.48195165889E+03  0.00000000000E+00 0.  1.
         21   -1    0    0  504  503 -0.00000000000E+00 -0.00000000000E+00 -0.12167769218E+03  0.12167769218E+03  0.00000000000E+00 0.  1.
         25    2    1    2    0    0  0.43773949586E+01  0.20009965571E+02  0.47268753238E+03  0.48936487690E+03  0.12499967665E+03 0.  0.
          5    1    3    3  501    0  0.28121859446E+02 -0.46998230815E+02  0.23342327694E+03  0.23976260946E+03  0.10000000000E+00 0. -1.
         -5    1    3    3    0  501 -0.23744464487E+02  0.67008196387E+02  0.23926425544E+03  0.24960226744E+03  0.10000000000E+00 0. -1.
         21    1    1    2  504  502 -0.43773949586E+01 -0.20009965571E+02 -0.11241356568E+03  0.11426447417E+03  0.00000000000E+00 0.  1.
<mgrwt>
<rscale>  1 0.12666680E+03</rscale>
<asrwt>0</asrwt>
<pdfrwt beam="1">  1       21 0.74146408E-01 0.12666680E+03</pdfrwt>
<pdfrwt beam="2">  1       21 0.18719645E-01 0.12666680E+03</pdfrwt>
<totfact> 0.44111376E+04</totfact>
</mgrwt>
</event>
<event>
 6    1  0.4202038E-002  0.1259108E+03  0.7546771E-02  0.1233653E+00
         21   -1    0    0  503  502  0.00000000000E+00  0.00000000000E+00  0.41400894500E+03  0.41400894500E+03  0.00000000000E+00 0.  1.
         21   -1    0    0  504  503 -0.00000000000E+00 -0.00000000000E+00 -0.13238596170E+02  0.13238596170E+02  0.00000000000E+00 0.  1.
         25    2    1    2    0    0 -0.13711831118E+02  0.63730253103E+01  0.38636419228E+03  0.40636292696E+03  0.12499963826E+03 0.  0.
          5    1    3    3  501    0 -0.13445685224E+02  0.15585696768E+02  0.39391218554E+03  0.39444964230E+03  0.10000000000E+00 0.  1.
         -5    1    3    3    0  501 -0.26614589406E+00 -0.92126714576E+01 -0.75479932612E+01  0.11913284656E+02  0.10000000000E+00 0.  1.
         21    1    1    2  504  502  0.13711831118E+02 -0.63730253103E+01  0.14406156552E+02  0.20884614212E+02  0.00000000000E+00 0. -1.
<mgrwt>
<rscale>  1 0.12591084E+03</rscale>
<asrwt>0</asrwt>
<pdfrwt beam="1">  1       21 0.63693674E-01 0.12591084E+03</pdfrwt>
<pdfrwt beam="2">  1       21 0.20367074E-02 0.12591084E+03</pdfrwt>
<totfact> 0.27033674E+06</totfact>
</mgrwt>
</event>
<event>
 6    1  0.4202038E-002  0.1467616E+03  0.7546771E-02  0.1204510E+00
         21   -1    0    0  504  502  0.00000000000E+00  0.00000000000E+00  0.70516613567E+02  0.70516613567E+02  0.00000000000E+00 0. -1.
         21   -1    0    0  502  503 -0.00000000000E+00 -0.00000000000E+00 -0.20093725717E+03  0.20093725717E+03  0.00000000000E+00 0. -1.
         25    2    1    2    0    0  0.35259407577E+02 -0.68334943353E+02 -0.38727115728E+02  0.15178518912E+03  0.12500425528E+03 0.  0.
          5    1    3    3  501    0  0.12832620535E+02 -0.46824898729E+02  0.42682969035E+02  0.64645905798E+02  0.10000000000E+00 0.  1.
         -5    1    3    3    0  501  0.22426787043E+02 -0.21510044624E+02 -0.81410084763E+02  0.87139283322E+02  0.10000000000E+00 0.  1.
         21    1    1    2  504  503 -0.35259407577E+02  0.68334943353E+02 -0.91693527877E+02  0.11966868162E+03  0.00000000000E+00 0. -1.
<mgrwt>
<rscale>  1 0.14676156E+03</rscale>
<asrwt>0</asrwt>
<pdfrwt beam="1">  1       21 0.10848710E-01 0.14676156E+03</pdfrwt>
<pdfrwt beam="2">  1       21 0.30913424E-01 0.14676156E+03</pdfrwt>
<totfact> 0.70895096E+05</totfact>
</mgrwt>
</event>
<event>
 6    1  0.4202038E-002  0.1343068E+03  0.7546771E-02  0.1221202E+00
         21   -1    0    0  503  502  0.00000000000E+00  0.00000000000E+00  0.53559654717E+02  0.53559654717E+02  0.00000000000E+00 0. -1.
         21   -1    0    0  504  503 -0.00000000000E+00 -0.00000000000E+00 -0.20127476066E+03  0.20127476066E+03  0.00000000000E+00 0. -1.
         25    2    1    2    0    0 -0.11238080474E+01 -0.49087664223E+02 -0.46134708571E+02  0.14200960049E+03  0.12500981391E+03 0.  0.
          5    1    3    3  501    0 -0.15503351542E+02  0.38695524469E+02  0.25531966282E+00  0.41686601098E+02  0.10000000000E+00 0. -1.
         -5    1    3    3    0  501  0.14379543494E+02 -0.87783188692E+02 -0.46390028234E+02  0.10032299939E+03  0.10000000000E+00 0. -1.
         21    1    1    2  504  502  0.11238080474E+01  0.49087664223E+02 -0.10158039738E+03  0.11282481489E+03  0.00000000000E+00 0. -1.
<mgrwt>
<rscale>  1 0.13430680E+03</rscale>
<asrwt>0</asrwt>
<pdfrwt beam="1">  1       21 0.82399469E-02 0.13430680E+03</pdfrwt>
<pdfrwt beam="2">  1       21 0.30965348E-01 0.13430680E+03</pdfrwt>
<totfact> 0.11422431E+06</totfact>
</mgrwt>
</event>
<event>
 6    1  0.4202038E-002  0.1264357E+03  0.7546771E-02  0.1232842E+00
         21   -1    0    0  503  502  0.00000000000E+00  0.00000000000E+00  0.75166439829E+02  0.75166439829E+02  0.00000000000E+00 0.  1.
         21   -1    0    0  504  503 -0.00000000000E+00 -0.00000000000E+00 -0.90301600325E+02  0.90301600325E+02  0.00000000000E+00 0.  1.
         25    2    1    2    0    0  0.14095602755E+01  0.18887723471E+02  0.17593655097E+02  0.12765391147E+03  0.12500900550E+03 0.  0.
          5    1    3    3  501    0 -0.49904331805E+02  0.38963881645E+02 -0.12991672288E+02  0.64632963375E+02  0.10000000000E+00 0. -1.
         -5    1    3    3    0  501  0.51313892081E+02 -0.20076158173E+02  0.30585327385E+02  0.63020948095E+02  0.10000000000E+00 0. -1.
         21    1    1    2  504  502 -0.14095602755E+01 -0.18887723471E+02 -0.32728815593E+02  0.37814128685E+02  0.00000000000E+00 0.  1.
<mgrwt>
<rscale>  1 0.12643569E+03</rscale>
<asrwt>0</asrwt>
<pdfrwt beam="1">  1       21 0.11564068E-01 0.12643569E+03</pdfrwt>
<pdfrwt beam="2">  1       21 0.13892554E-01 0.12643569E+03</pdfrwt>
<totfact> 0.27981181E+06</totfact>
</mgrwt>
</event>
<event>
 6    1  0.4202038E-002  0.1363449E+03  0.7546771E-02  0.1218333E+00
         21   -1    0    0  504  502  0.00000000000E+00  0.00000000000E+00  0.15274621686E+04  0.15274621686E+04  0.00000000000E+00 0.  1.
         21   -1    0    0  502  503 -0.00000000000E+00 -0.00000000000E+00 -0.61655284833E+01  0.61655284833E+01  0.00000000000E+00 0.  1.
         25    2    1    2    0    0 -0.49117385773E+01 -0.54241016725E+02  0.94883455814E+03  0.95858070042E+03  0.12499490959E+03 0.  0.
          5    1    3    3  501    0  0.56649784419E+02 -0.47648532068E+02  0.55329436283E+03  0.55822418670E+03  0.10000000000E+00 0. -1.
         -5    1    3    3    0  501 -0.61561522996E+02 -0.65924846565E+01  0.39554019531E+03  0.40035651372E+03  0.10000000000E+00 0. -1.
         21    1    1    2  504  503  0.49117385773E+01  0.54241016725E+02  0.57246208197E+03  0.57504699666E+03  0.00000000000E+00 0.  1.
<mgrwt>
<rscale>  1 0.13634493E+03</rscale>
<asrwt>0</asrwt>
<pdfrwt beam="1">  1       21 0.23499388E+00 0.13634493E+03</pdfrwt>
<pdfrwt beam="2">  1       21 0.94854406E-03 0.13634493E+03</pdfrwt>
<totfact> 0.34338318E+05</totfact>
</mgrwt>
</event>
<event>
 6    1  0.4202038E-002  0.1288074E+03  0.7546771E-02  0.1229236E+00
         21   -1    0    0  504  502  0.00000000000E+00  0.00000000000E+00  0.43713701449E+02  0.43713701449E+02  0.00000000000E+00 0. -1.
         21   -1    0    0  502  503 -0.00000000000E+00 -0.00000000000E+00 -0.17316790782E+03  0.17316790782E+03  0.00000000000E+00 0. -1.
         25    2    1    2    0    0 -0.32125865979E+01 -0.30855392973E+02 -0.62670284627E+02  0.14324419900E+03  0.12501583893E+03 0.  0.
          5    1    3    3  501    0  0.52155207908E+02 -0.42416662074E+02 -0.14097580074E+02  0.68688359257E+02  0.10000000000E+00 0. -1.
         -5    1    3    3    0  501 -0.55367794506E+02  0.11561269100E+02 -0.48572704553E+02  0.74555839740E+02  0.10000000000E+00 0. -1.
         21    1    1    2  504  503  0.32125865979E+01  0.30855392973E+02 -0.66783921744E+02  0.73637410273E+02  0.00000000000E+00 0. -1.
<mgrwt>
<rscale>  1 0.12880736E+03</rscale>
<asrwt>0</asrwt>
<pdfrwt beam="1">  1       21 0.67251847E-02 0.12880736E+03</pdfrwt>
<pdfrwt beam="2">  1       21 0.26641217E-01 0.12880736E+03</pdfrwt>
<totfact> 0.21596206E+06</totfact>
</mgrwt>
</event>
<event>
 6    1  0.4202038E-002  0.2297950E+03  0.7546771E-02  0.1126784E+00
         21   -1    0    0  504  502  0.00000000000E+00  0.00000000000E+00  0.21337603996E+03  0.21337603996E+03  0.00000000000E+00 0. -1.
         21   -1    0    0  502  503 -0.00000000000E+00 -0.00000000000E+00 -0.22457159765E+03  0.22457159765E+03  0.00000000000E+00 0. -1.
         25    2    1    2    0    0  0.17827520399E+03  0.73476362261E+02  0.50914836271E+02  0.23536796142E+03  0.12499973015E+03 0.  0.
          5    1    3    3  501    0  0.16012826778E+03  0.19892585616E+02  0.69683085946E+02  0.17576267969E+03  0.10000000000E+00 0. -1.
         -5    1    3    3    0  501  0.18146936213E+02  0.53583776645E+02 -0.18768249675E+02  0.59605281724E+02  0.10000000000E+00 0. -1.
         21    1    1    2  504  503 -0.17827520399E+03 -0.73476362261E+02 -0.62110393963E+02  0.20257967620E+03  0.00000000000E+00 0. -1.
<mgrwt>
<rscale>  1 0.22979503E+03</rscale>
<asrwt>0</asrwt>
<pdfrwt beam="1">  1       21 0.32827083E-01 0.22979503E+03</pdfrwt>
<pdfrwt beam="2">  1       21 0.34549476E-01 0.22979503E+03</pdfrwt>
<totfact> 0.70999440E+04</totfact>
</mgrwt>
</event>
<event>
 6    1  0.4202038E-002  0.1266835E+03  0.7546771E-02  0.1232461E+00
         21   -1    0    0  503  502  0.00000000000E+00  0.00000000000E+00  0.17531605409E+04  0.17531605409E+04  0.00000000000E+00 0. -1.
         21   -1    0    0  504  503 -0.00000000000E+00 -0.00000000000E+00 -0.50317354188E+02  0.50317354188E+02  0.00000000000E+00 0. -1.
         25    2    1    2    0    0 -0.19685563462E+02 -0.59598647049E+01  0.17486669724E+04  0.17532498081E+04  0.12500267106E+03 0.  0.
          5    1    3    3  501    0 -0.27105144347E+02 -0.15755499106E+02  0.17332539546E+04  0.17335374832E+04  0.10000000000E+00 0.  1.
         -5    1    3    3    0  501  0.74195808853E+01  0.97956344006E+01  0.15413017831E+02  0.19712324887E+02  0.10000000000E+00 0.  1.
         21    1    1    2  504  502  0.19685563462E+02  0.59598647049E+01 -0.45823785655E+02  0.50228087041E+02  0.00000000000E+00 0. -1.
<mgrwt>
<rscale>  1 0.12668350E+03</rscale>
<asrwt>0</asrwt>
<pdfrwt beam="1">  1       21 0.26971696E+00 0.12668350E+03</pdfrwt>
<pdfrwt beam="2">  1       21 0.77411328E-02 0.12668350E+03</pdfrwt>
<totfact> 0.70316267E+03</totfact>
</mgrwt>
</event>
<event>
 6    1  0.4202038E-002  0.1268473E+03  0.7546771E-02  0.1232210E+00
         21   -1    0    0  504  502  0.00000000000E+00  0.00000000000E+00  0.53450678701E+01  0.53450678701E+01  0.00000000000E+00 0. -1.
         21   -1    0    0  502  503 -0.00000000000E+00 -0.00000000000E+00 -0.11806334344E+04  0.11806334344E+04  0.00000000000E+00 0. -1.
         25    2    1    2    0    0 -0.17373410744E+02 -0.12792360464E+02 -0.79293453662E+03  0.80301645306E+03  0.12499905854E+03 0.  0.
          5    1    3    3  501    0  0.38020186776E+02 -0.58303012445E+01 -0.62215510099E+03  0.62334300886E+03  0.10000000000E+00 0.  1.
         -5    1    3    3    0  501 -0.55393597520E+02 -0.69620592192E+01 -0.17077943563E+03  0.17967344419E+03  0.10000000000E+00 0.  1.
         21    1    1    2  504  503  0.17373410744E+02  0.12792360464E+02 -0.38235382988E+03  0.38296204918E+03  0.00000000000E+00 0. -1.
<mgrwt>
<rscale>  1 0.12684733E+03</rscale>
<asrwt>0</asrwt>
<pdfrwt beam="1">  1       21 0.82231827E-03 0.12684733E+03</pdfrwt>
<pdfrwt beam="2">  1       21 0.18163588E+00 0.12684733E+03</pdfrwt>
<totfact> 0.92309431E+05</totfact>
</mgrwt>
</event>
<event>
 6    1  0.4202038E-002  0.1302779E+03  0.7546771E-02  0.1227044E+00
         21   -1    0    0  503  502  0.00000000000E+00  0.00000000000E+00  0.16463660498E+03  0.16463660498E+03  0.00000000000E+00 0.  1.
         21   -1    0    0  504  503 -0.00000000000E+00 -0.00000000000E+00 -0.73468365544E+02  0.73468365544E+02  0.00000000000E+00 0.  1.
         25    2    1    2    0    0  0.16672848439E+02  0.32686766891E+02  0.13044213390E+03  0.18435697157E+03  0.12500373621E+03 0.  0.
          5    1    3    3  501    0  0.23750382215E+02  0.17150846337E+02 -0.18363341009E+02  0.34575344950E+02  0.10000000000E+00 0.  1.
         -5    1    3    3    0  501 -0.70775337754E+01  0.15535920555E+02  0.14880547491E+03  0.14978162662E+03  0.10000000000E+00 0.  1.
         21    1    1    2  504  502 -0.16672848439E+02 -0.32686766891E+02 -0.39273894462E+02  0.53747998950E+02  0.00000000000E+00 0.  1.
<mgrwt>
<rscale>  1 0.13027794E+03</rscale>
<asrwt>0</asrwt>
<pdfrwt beam="1">  1       21 0.25328708E-01 0.13027794E+03</pdfrwt>
<pdfrwt beam="2">  1       21 0.11302826E-01 0.13027794E+03</pdfrwt>
<totfact> 0.96614273E+05</totfact>
</mgrwt>
</event>
<event>
 6    1  0.4202038E-002  0.1264418E+03  0.7546771E-02  0.1232833E+00
         21   -1    0    0  503  502  0.00000000000E+00  0.00000000000E+00  0.42696918141E+03  0.42696918141E+03  0.00000000000E+00 0. -1.
         21   -1    0    0  504  503 -0.00000000000E+00 -0.00000000000E+00 -0.17144713490E+02  0.17144713490E+02  0.00000000000E+00 0. -1.
         25    2    1    2    0    0 -0.10501753271E+02  0.15909537629E+02  0.40523917546E+03  0.42450713290E+03  0.12499646532E+03 0.  0.
          5    1    3    3  501    0  0.20428454557E+02 -0.25056681621E+02  0.33981411491E+03  0.34134850481E+03  0.10000000000E+00 0.  1.
         -5    1    3    3    0  501 -0.30930207827E+02  0.40966219251E+02  0.65425060556E+02  0.83158628083E+02  0.10000000000E+00 0.  1.
         21    1    1    2  504  502  0.10501753271E+02 -0.15909537629E+02  0.45852924595E+01  0.19606762004E+02  0.00000000000E+00 0. -1.
<mgrwt>
<rscale>  1 0.12644175E+03</rscale>
<asrwt>0</asrwt>
<pdfrwt beam="1">  1       21 0.65687558E-01 0.12644175E+03</pdfrwt>
<pdfrwt beam="2">  1       21 0.26376486E-02 0.12644175E+03</pdfrwt>
<totfact> 0.16635706E+06</totfact>
</mgrwt>
</event>
<event>
 6    1  0.4202038E-002  0.1262209E+03  0.7546771E-02  0.1233173E+00
         21   -1    0    0  503  502  0.00000000000E+00  0.00000000000E+00  0.15217066911E+03  0.15217066911E+03  0.00000000000E+00 0. -1.
         21   -1    0    0  504  503 -0.00000000000E+00 -0.00000000000E+00 -0.34687939244E+02  0.34687939244E+02  0.00000000000E+00 0. -1.
         25    2    1    2    0    0  0.73684022053E+01  0.15880185241E+02  0.11132666790E+03  0.16830137975E+03  0.12500101522E+03 0.  0.
          5    1    3    3  501    0 -0.16501688821E+02 -0.11317859833E+01 -0.24382013046E+02  0.29463184377E+02  0.10000000000E+00 0. -1.
         -5    1    3    3    0  501  0.23870091026E+02  0.17011971224E+02  0.13570868095E+03  0.13883819538E+03  0.10000000000E+00 0. -1.
         21    1    1    2  504  502 -0.73684022053E+01 -0.15880185241E+02  0.61560619584E+01  0.18557228597E+02  0.00000000000E+00 0.  1.
<mgrwt>
<rscale>  1 0.12622095E+03</rscale>
<asrwt>0</asrwt>
<pdfrwt beam="1">  1       21 0.23410872E-01 0.12622095E+03</pdfrwt>
<pdfrwt beam="2">  1       21 0.53366061E-02 0.12622095E+03</pdfrwt>
<totfact> 0.40770649E+06</totfact>
</mgrwt>
</event>
<event>
 6    1  0.4202038E-002  0.1497771E+03  0.7546771E-02  0.1200747E+00
         21   -1    0    0  503  502  0.00000000000E+00  0.00000000000E+00  0.14457890358E+03  0.14457890358E+03  0.00000000000E+00 0. -1.
         21   -1    0    0  504  503 -0.00000000000E+00 -0.00000000000E+00 -0.25024682346E+03  0.25024682346E+03  0.00000000000E+00 0.  1.
         25    2    1    2    0    0 -0.37061100719E+02  0.73711734183E+02  0.95338360877E+02  0.17754602286E+03  0.12500496884E+03 0.  0.
          5    1    3    3  501    0 -0.72597999610E+02  0.18376319351E+02  0.80852358919E+02  0.11020559243E+03  0.10000000000E+00 0. -1.
         -5    1    3    3    0  501  0.35536898891E+02  0.55335414832E+02  0.14486001958E+02  0.67340430428E+02  0.10000000000E+00 0. -1.
         21    1    1    2  504  502  0.37061100719E+02 -0.73711734183E+02 -0.20100628076E+03  0.21727970418E+03  0.00000000000E+00 0.  1.
<mgrwt>
<rscale>  1 0.14977713E+03</rscale>
<asrwt>0</asrwt>
<pdfrwt beam="1">  1       21 0.22242908E-01 0.14977713E+03</pdfrwt>
<pdfrwt beam="2">  1       21 0.38499511E-01 0.14977713E+03</pdfrwt>
<totfact> 0.12487780E+05</totfact>
</mgrwt>
</event>
<event>
 6    1  0.4202038E-002  0.1655736E+03  0.7546771E-02  0.1182544E+00
         21   -1    0    0  504  502  0.00000000000E+00  0.00000000000E+00  0.20443011693E+03  0.20443011693E+03  0.00000000000E+00 0. -1.
         21   -1    0    0  502  503 -0.00000000000E+00 -0.00000000000E+00 -0.38864430381E+03  0.38864430381E+03  0.00000000000E+00 0. -1.
         25    2    1    2    0    0 -0.26047306455E+02  0.10542477482E+03  0.16114388578E+03  0.23104535607E+03  0.12498703659E+03 0.  0.
          5    1    3    3  501    0 -0.34748042490E+02  0.88695355580E+02  0.31937864853E+02  0.10047054180E+03  0.10000000000E+00 0. -1.
         -5    1    3    3    0  501  0.87007360345E+01  0.16729419241E+02  0.12920602093E+03  0.13057481426E+03  0.10000000000E+00 0. -1.
         21    1    1    2  504  503  0.26047306455E+02 -0.10542477482E+03 -0.34535807266E+03  0.36202906468E+03  0.00000000000E+00 0. -1.
<mgrwt>
<rscale>  1 0.16557356E+03</rscale>
<asrwt>0</asrwt>
<pdfrwt beam="1">  1       21 0.31450787E-01 0.16557356E+03</pdfrwt>
<pdfrwt beam="2">  1       21 0.59791431E-01 0.16557356E+03</pdfrwt>
<totfact> 0.25771039E+04</totfact>
</mgrwt>
</event>
<event>
 6    1  0.4202038E-002  0.1312823E+03  0.7546771E-02  0.1225565E+00
         21   -1    0    0  503  502  0.00000000000E+00  0.00000000000E+00  0.22008054667E+03  0.22008054667E+03  0.00000000000E+00 0. -1.
         21   -1    0    0  504  503 -0.00000000000E+00 -0.00000000000E+00 -0.37756509583E+02  0.37756509583E+02  0.00000000000E+00 0. -1.
         25    2    1    2    0    0 -0.13936155753E+02  0.37693245186E+02  0.96065211683E+02  0.16267623380E+03  0.12498013833E+03 0.  0.
          5    1    3    3  501    0  0.48048451342E+02  0.34365792928E+02  0.15690003044E+02  0.61121580440E+02  0.10000000000E+00 0.  1.
         -5    1    3    3    0  501 -0.61984607095E+02  0.33274522580E+01  0.80375208639E+02  0.10155465336E+03  0.10000000000E+00 0.  1.
         21    1    1    2  504  502  0.13936155753E+02 -0.37693245186E+02  0.86258825400E+02  0.95160822450E+02  0.00000000000E+00 0. -1.
<mgrwt>
<rscale>  1 0.13128226E+03</rscale>
<asrwt>0</asrwt>
<pdfrwt beam="1">  1       21 0.33858545E-01 0.13128226E+03</pdfrwt>
<pdfrwt beam="2">  1       21 0.58086939E-02 0.13128226E+03</pdfrwt>
<totfact> 0.17451851E+06</totfact>
</mgrwt>
</event>
<event>
 6    1  0.4202038E-002  0.1328372E+03  0.7546771E-02  0.1223306E+00
         21   -1    0    0  503  502  0.00000000000E+00  0.00000000000E+00  0.14162377946E+03  0.14162377946E+03  0.00000000000E+00 0. -1.
         21   -1    0    0  504  503 -0.00000000000E+00 -0.00000000000E+00 -0.66815090375E+02  0.66815090375E+02  0.00000000000E+00 0. -1.
         25    2    1    2    0    0  0.22492965550E+02 -0.38989950264E+02  0.90537909797E+02  0.16075702732E+03  0.12497823411E+03 0.  0.
          5    1    3    3  501    0  0.50991685235E+02 -0.14286267137E+02 -0.95404486134E+01  0.53807801958E+02  0.10000000000E+00 0. -1.
         -5    1    3    3    0  501 -0.28498719685E+02 -0.24703683128E+02  0.10007835841E+03  0.10694922536E+03  0.10000000000E+00 0. -1.
         21    1    1    2  504  502 -0.22492965550E+02  0.38989950264E+02 -0.15729220715E+02  0.47681842510E+02  0.00000000000E+00 0. -1.
<mgrwt>
<rscale>  1 0.13283715E+03</rscale>
<asrwt>0</asrwt>
<pdfrwt beam="1">  1       21 0.21788274E-01 0.13283715E+03</pdfrwt>
<pdfrwt beam="2">  1       21 0.10279245E-01 0.13283715E+03</pdfrwt>
<totfact> 0.15154808E+06</totfact>
</mgrwt>
</event>
<event>
 6    1  0.4202038E-002  0.1275968E+03  0.7546771E-02  0.1231066E+00
         21   -1    0    0  503  502  0.00000000000E+00  0.00000000000E+00  0.28026356956E+03  0.28026356956E+03  0.00000000000E+00 0. -1.
         21   -1    0    0  504  503 -0.00000000000E+00 -0.00000000000E+00 -0.21175138589E+02  0.21175138589E+02  0.00000000000E+00 0. -1.
         25    2    1    2    0    0 -0.19305518218E+02  0.16761404017E+02  0.20257064713E+03  0.23940720334E+03  0.12500917660E+03 0.  0.
          5    1    3    3  501    0 -0.34766186355E+02 -0.10803473261E+02  0.21066520579E+01  0.36467118491E+02  0.10000000000E+00 0.  1.
         -5    1    3    3    0  501  0.15460668137E+02  0.27564877278E+02  0.20046399507E+03  0.20294008485E+03  0.10000000000E+00 0.  1.
         21    1    1    2  504  502  0.19305518218E+02 -0.16761404017E+02  0.56517783839E+02  0.62031504805E+02  0.00000000000E+00 0. -1.
<mgrwt>
<rscale>  1 0.12759679E+03</rscale>
<asrwt>0</asrwt>
<pdfrwt beam="1">  1       21 0.43117470E-01 0.12759679E+03</pdfrwt>
<pdfrwt beam="2">  1       21 0.32577138E-02 0.12759679E+03</pdfrwt>
<totfact> 0.28308871E+06</totfact>
</mgrwt>
</event>
<event>
 6    1  0.4202038E-002  0.1314199E+03  0.7546771E-02  0.1225364E+00
         21   -1    0    0  503  502  0.00000000000E+00  0.00000000000E+00  0.10444239936E+02  0.10444239936E+02  0.00000000000E+00 0. -1.
         21   -1    0    0  504  503 -0.00000000000E+00 -0.00000000000E+00 -0.72178763256E+03  0.72178763256E+03  0.00000000000E+00 0. -1.
         25    2    1    2    0    0 -0.23339369176E+02 -0.33182823118E+02 -0.49692702643E+03  0.51401133268E+03  0.12500141850E+03 0.  0.
          5    1    3    3  501    0  0.32170656252E+02 -0.28147710679E+02 -0.60718976011E+02  0.74256641372E+02  0.10000000000E+00 0. -1.
         -5    1    3    3    0  501 -0.55510025428E+02 -0.50351124390E+01 -0.43620805042E+03  0.43975469131E+03  0.10000000000E+00 0. -1.
         21    1    1    2  504  502  0.23339369176E+02  0.33182823118E+02 -0.21441636619E+03  0.21822053981E+03  0.00000000000E+00 0.  1.
<mgrwt>
<rscale>  1 0.13141986E+03</rscale>
<asrwt>0</asrwt>
<pdfrwt beam="1">  1       21 0.16068060E-02 0.13141986E+03</pdfrwt>
<pdfrwt beam="2">  1       21 0.11104426E+00 0.13141986E+03</pdfrwt>
<totfact> 0.11266742E+06</totfact>
</mgrwt>
</event>
<event>
 6    1  0.4202038E-002  0.1267088E+03  0.7546771E-02  0.1232423E+00
         21   -1    0    0  503  502  0.00000000000E+00  0.00000000000E+00  0.99019686614E+01  0.99019686614E+01  0.00000000000E+00 0. -1.
         21   -1    0    0  504  503 -0.00000000000E+00 -0.00000000000E+00 -0.57881695337E+03  0.57881695337E+03  0.00000000000E+00 0. -1.
         25    2    1    2    0    0 -0.13356879425E+02 -0.15280650274E+02 -0.42839519450E+03  0.44674105073E+03  0.12507285569E+03 0.  0.
          5    1    3    3  501    0  0.53713413283E+02 -0.19208045597E+02 -0.24121732224E+03  0.24787070487E+03  0.10000000000E+00 0. -1.
         -5    1    3    3    0  501 -0.67070292707E+02  0.39273953233E+01 -0.18717787226E+03  0.19887034586E+03  0.10000000000E+00 0. -1.
         21    1    1    2  504  502  0.13356879425E+02  0.15280650274E+02 -0.14051979021E+03  0.14197787131E+03  0.00000000000E+00 0. -1.
<mgrwt>
<rscale>  1 0.12670881E+03</rscale>
<asrwt>0</asrwt>
<pdfrwt beam="1">  1       21 0.15233791E-02 0.12670881E+03</pdfrwt>
<pdfrwt beam="2">  1       21 0.89048802E-01 0.12670881E+03</pdfrwt>
<totfact> 0.20555189E+06</totfact>
</mgrwt>
</event>
<event>
 6    1  0.4202038E-002  0.1263847E+03  0.7546771E-02  0.1232921E+00
         21   -1    0    0  503  502  0.00000000000E+00  0.00000000000E+00  0.34041866059E+03  0.34041866059E+03  0.00000000000E+00 0. -1.
         21   -1    0    0  504  503 -0.00000000000E+00 -0.00000000000E+00 -0.29962736877E+03  0.29962736877E+03  0.00000000000E+00 0.  1.
         25    2    1    2    0    0 -0.54875932443E+01 -0.17787430487E+02  0.32837690865E+03  0.35185860185E+03  0.12500630062E+03 0.  0.
          5    1    3    3  501    0 -0.12303910852E+02 -0.38320161654E+02  0.24302155386E+02  0.47015165296E+02  0.10000000000E+00 0.  1.
         -5    1    3    3    0  501  0.68163176080E+01  0.20532731167E+02  0.30407475327E+03  0.30484343655E+03  0.10000000000E+00 0.  1.
         21    1    1    2  504  502  0.54875932443E+01  0.17787430487E+02 -0.28758561683E+03  0.28818742751E+03  0.00000000000E+00 0.  1.
<mgrwt>
<rscale>  1 0.12638466E+03</rscale>
<asrwt>0</asrwt>
<pdfrwt beam="1">  1       21 0.52372102E-01 0.12638466E+03</pdfrwt>
<pdfrwt beam="2">  1       21 0.46096518E-01 0.12638466E+03</pdfrwt>
<totfact> 0.16325526E+04</totfact>
</mgrwt>
</event>
<event>
 6    1  0.4202038E-002  0.1282835E+03  0.7546771E-02  0.1230025E+00
         21   -1    0    0  504  502  0.00000000000E+00  0.00000000000E+00  0.95887717940E+03  0.95887717940E+03  0.00000000000E+00 0.  1.
         21   -1    0    0  502  503 -0.00000000000E+00 -0.00000000000E+00 -0.64914357182E+01  0.64914357182E+01  0.00000000000E+00 0.  1.
         25    2    1    2    0    0  0.28248669990E+02  0.59149358085E+01  0.74112522555E+03  0.75214577313E+03  0.12499476100E+03 0.  0.
          5    1    3    3  501    0 -0.34138334558E+02  0.42097844916E+02  0.25469604226E+03  0.26039919042E+03  0.10000000000E+00 0. -1.
         -5    1    3    3    0  501  0.62387004548E+02 -0.36182909107E+02  0.48642918329E+03  0.49174658271E+03  0.10000000000E+00 0. -1.
         21    1    1    2  504  503 -0.28248669990E+02 -0.59149358085E+01  0.21126051814E+03  0.21322284199E+03  0.00000000000E+00 0.  1.
<mgrwt>
<rscale>  1 0.12828353E+03</rscale>
<asrwt>0</asrwt>
<pdfrwt beam="1">  1       21 0.14751945E+00 0.12828353E+03</pdfrwt>
<pdfrwt beam="2">  1       21 0.99868318E-03 0.12828353E+03</pdfrwt>
<totfact> 0.11853125E+06</totfact>
</mgrwt>
</event>
<event>
 6    1  0.4202038E-002  0.1318966E+03  0.7546771E-02  0.1224668E+00
         21   -1    0    0  503  502  0.00000000000E+00  0.00000000000E+00  0.23031014492E+03  0.23031014492E+03  0.00000000000E+00 0. -1.
         21   -1    0    0  504  503 -0.00000000000E+00 -0.00000000000E+00 -0.42447469140E+02  0.42447469140E+02  0.00000000000E+00 0. -1.
         25    2    1    2    0    0  0.37289247707E+02 -0.19525688793E+02  0.18920877158E+03  0.23064404747E+03  0.12499990749E+03 0.  0.
          5    1    3    3  501    0  0.48677052047E+02 -0.67080642721E+02  0.12362813405E+03  0.14883948922E+03  0.10000000000E+00 0. -1.
         -5    1    3    3    0  501 -0.11387804341E+02  0.47554953928E+02  0.65580637532E+02  0.81804558247E+02  0.10000000000E+00 0. -1.
         21    1    1    2  504  502 -0.37289247707E+02  0.19525688793E+02 -0.13460957962E+01  0.42113566594E+02  0.00000000000E+00 0. -1.
<mgrwt>
<rscale>  1 0.13189662E+03</rscale>
<asrwt>0</asrwt>
<pdfrwt beam="1">  1       21 0.35432330E-01 0.13189662E+03</pdfrwt>
<pdfrwt beam="2">  1       21 0.65303800E-02 0.13189662E+03</pdfrwt>
<totfact> 0.13083844E+06</totfact>
</mgrwt>
</event>
<event>
 6    1  0.4202038E-002  0.1285523E+03  0.7546771E-02  0.1229620E+00
         21   -1    0    0  503  502  0.00000000000E+00  0.00000000000E+00  0.14285959621E+03  0.14285959621E+03  0.00000000000E+00 0.  1.
         21   -1    0    0  504  503 -0.00000000000E+00 -0.00000000000E+00 -0.86406528233E+02  0.86406528233E+02  0.00000000000E+00 0.  1.
         25    2    1    2    0    0  0.16014008125E+02  0.25373901582E+02  0.10914067999E+03  0.16863389046E+03  0.12500167057E+03 0.  0.
          5    1    3    3  501    0  0.55799600903E+00 -0.13647527815E+02  0.12351621774E+03  0.12426919336E+03  0.10000000000E+00 0.  1.
         -5    1    3    3    0  501  0.15456012116E+02  0.39021429398E+02 -0.14375537748E+02  0.44364697095E+02  0.10000000000E+00 0.  1.
         21    1    1    2  504  502 -0.16014008125E+02 -0.25373901582E+02 -0.52687612016E+02  0.60632233982E+02  0.00000000000E+00 0.  1.
<mgrwt>
<rscale>  1 0.12855233E+03</rscale>
<asrwt>0</asrwt>
<pdfrwt beam="1">  1       21 0.21978399E-01 0.12855233E+03</pdfrwt>
<pdfrwt beam="2">  1       21 0.13293312E-01 0.12855233E+03</pdfrwt>
<totfact> 0.94568753E+05</totfact>
</mgrwt>
</event>
<event>
 6    1  0.4202038E-002  0.1262077E+03  0.7546771E-02  0.1233194E+00
         21   -1    0    0  503  502  0.00000000000E+00  0.00000000000E+00  0.16479983233E+03  0.16479983233E+03  0.00000000000E+00 0. -1.
         21   -1    0    0  504  503 -0.00000000000E+00 -0.00000000000E+00 -0.31851975900E+02  0.31851975900E+02  0.00000000000E+00 0. -1.
         25    2    1    2    0    0  0.15747077864E+02  0.70316788120E+01  0.12510458383E+03  0.17770631026E+03  0.12502384110E+03 0.  0.
          5    1    3    3  501    0  0.39969427384E+02 -0.17070583384E+02  0.13524950146E+03  0.14206124591E+03  0.10000000000E+00 0. -1.
         -5    1    3    3    0  501 -0.24222349520E+02  0.24102262196E+02 -0.10144917629E+02  0.35645064356E+02  0.10000000000E+00 0. -1.
         21    1    1    2  504  502 -0.15747077864E+02 -0.70316788120E+01  0.78432725951E+01  0.18945497966E+02  0.00000000000E+00 0. -1.
<mgrwt>
<rscale>  1 0.12620767E+03</rscale>
<asrwt>0</asrwt>
<pdfrwt beam="1">  1       21 0.25353820E-01 0.12620767E+03</pdfrwt>
<pdfrwt beam="2">  1       21 0.49003041E-02 0.12620767E+03</pdfrwt>
<totfact> 0.40492434E+06</totfact>
</mgrwt>
</event>
<event>
 6    1  0.4202038E-002  0.1260350E+03  0.7546771E-02  0.1233461E+00
         21   -1    0    0  503  502  0.00000000000E+00  0.00000000000E+00  0.51562088963E+02  0.51562088963E+02  0.00000000000E+00 0. -1.
         21   -1    0    0  504  503 -0.00000000000E+00 -0.00000000000E+00 -0.10791574114E+03  0.10791574114E+03  0.00000000000E+00 0. -1.
         25    2    1    2    0    0  0.83736948191E+01  0.13790393185E+02 -0.31609208706E+02  0.12993834480E+03  0.12499815065E+03 0.  0.
          5    1    3    3  501    0  0.66818277417E+01  0.47743667686E+02  0.31966366774E+02  0.57844301628E+02  0.10000000000E+00 0. -1.
         -5    1    3    3    0  501  0.16918670773E+01 -0.33953274502E+02 -0.63575575480E+02  0.72094043174E+02  0.10000000000E+00 0. -1.
         21    1    1    2  504  502 -0.83736948191E+01 -0.13790393185E+02 -0.24744443467E+02  0.29539485297E+02  0.00000000000E+00 0. -1.
<mgrwt>
<rscale>  1 0.12603504E+03</rscale>
<asrwt>0</asrwt>
<pdfrwt beam="1">  1       21 0.79326292E-02 0.12603504E+03</pdfrwt>
<pdfrwt beam="2">  1       21 0.16602421E-01 0.12603504E+03</pdfrwt>
<totfact> 0.39140956E+06</totfact>
</mgrwt>
</event>
<event>
 6    1  0.4202038E-002  0.1320922E+03  0.7546771E-02  0.1224384E+00
         21   -1    0    0  503  502  0.00000000000E+00  0.00000000000E+00  0.12085052767E+02  0.12085052767E+02  0.00000000000E+00 0. -1.
         21   -1    0    0  504  503 -0.00000000000E+00 -0.00000000000E+00 -0.81883755280E+03  0.81883755280E+03  0.00000000000E+00 0. -1.
         25    2    1    2    0    0 -0.42605391966E+02  0.31691322810E+01 -0.38537121640E+03  0.40738105032E+03  0.12499233139E+03 0.  0.
          5    1    3    3  501    0  0.16775671152E+02  0.44440569100E+02 -0.75629316536E+02  0.89309522697E+02  0.10000000000E+00 0.  1.
         -5    1    3    3    0  501 -0.59381063118E+02 -0.41271436819E+02 -0.30974189986E+03  0.31807152762E+03  0.10000000000E+00 0.  1.
         21    1    1    2  504  502  0.42605391966E+02 -0.31691322810E+01 -0.42138128363E+03  0.42354155525E+03  0.00000000000E+00 0. -1.
<mgrwt>
<rscale>  1 0.13209219E+03</rscale>
<asrwt>0</asrwt>
<pdfrwt beam="1">  1       21 0.18592387E-02 0.13209219E+03</pdfrwt>
<pdfrwt beam="2">  1       21 0.12597502E+00 0.13209219E+03</pdfrwt>
<totfact> 0.65585069E+05</totfact>
</mgrwt>
</event>
<event>
 6    1  0.4202038E-002  0.1301559E+03  0.7546771E-02  0.1227225E+00
         21   -1    0    0  503  502  0.00000000000E+00  0.00000000000E+00  0.14196586886E+04  0.14196586886E+04  0.00000000000E+00 0.  1.
         21   -1    0    0  504  503 -0.00000000000E+00 -0.00000000000E+00 -0.14377625342E+02  0.14377625342E+02  0.00000000000E+00 0.  1.
         25    2    1    2    0    0  0.32426041517E+02 -0.16249733073E+02  0.13875917867E+04  0.13936827206E+04  0.12500022826E+03 0.  0.
          5    1    3    3  501    0 -0.39924465172E+02  0.38891541775E+01  0.21646507683E+03  0.22015046656E+03  0.10000000000E+00 0.  1.
         -5    1    3    3    0  501  0.72350506689E+02 -0.20138887251E+02  0.11711267099E+04  0.11735322540E+04  0.10000000000E+00 0.  1.
         21    1    1    2  504  502 -0.32426041517E+02  0.16249733073E+02  0.17689276543E+02  0.40353593372E+02  0.00000000000E+00 0.  1.
<mgrwt>
<rscale>  1 0.13015590E+03</rscale>
<asrwt>0</asrwt>
<pdfrwt beam="1">  1       21 0.21840892E+00 0.13015590E+03</pdfrwt>
<pdfrwt beam="2">  1       21 0.22119435E-02 0.13015590E+03</pdfrwt>
<totfact> 0.11192880E+05</totfact>
</mgrwt>
</event>
<event>
 6    1  0.4202038E-002  0.1328990E+03  0.7546771E-02  0.1223216E+00
         21   -1    0    0  504  502  0.00000000000E+00  0.00000000000E+00  0.29473203927E+03  0.29473203927E+03  0.00000000000E+00 0.  1.
         21   -1    0    0  502  503 -0.00000000000E+00 -0.00000000000E+00 -0.35466261204E+02  0.35466261204E+02  0.00000000000E+00 0.  1.
         25    2    1    2    0    0  0.37097185873E+02 -0.25501446708E+02  0.25158651479E+03  0.28453106858E+03  0.12504251110E+03 0.  0.
          5    1    3    3  501    0 -0.69116840763E+01  0.25124187176E+02  0.20529974157E+01  0.26138495680E+02  0.10000000000E+00 0.  1.
         -5    1    3    3    0  501  0.44008869949E+02 -0.50625633884E+02  0.24953351737E+03  0.25839257290E+03  0.10000000000E+00 0.  1.
         21    1    1    2  504  503 -0.37097185873E+02  0.25501446708E+02  0.76792632787E+01  0.45667231889E+02  0.00000000000E+00 0.  1.
<mgrwt>
<rscale>  1 0.13289904E+03</rscale>
<asrwt>0</asrwt>
<pdfrwt beam="1">  1       21 0.45343389E-01 0.13289904E+03</pdfrwt>
<pdfrwt beam="2">  1       21 0.54563481E-02 0.13289904E+03</pdfrwt>
<totfact> 0.10833671E+06</totfact>
</mgrwt>
</event>
<event>
 6    1  0.4202038E-002  0.1272808E+03  0.7546771E-02  0.1231547E+00
         21   -1    0    0  504  502  0.00000000000E+00  0.00000000000E+00  0.11901040014E+04  0.11901040014E+04  0.00000000000E+00 0. -1.
         21   -1    0    0  502  503 -0.00000000000E+00 -0.00000000000E+00 -0.12477042280E+02  0.12477042280E+02  0.00000000000E+00 0. -1.
         25    2    1    2    0    0 -0.19196702596E+02  0.14397302659E+02  0.11707093430E+04  0.11776080758E+04  0.12499847429E+03 0.  0.
          5    1    3    3  501    0 -0.28704671619E+02  0.58591102125E+02  0.95429931661E+03  0.95652708853E+03  0.10000000000E+00 0.  1.
         -5    1    3    3    0  501  0.95079690228E+01 -0.44193799467E+02  0.21641002641E+03  0.22108098723E+03  0.10000000000E+00 0.  1.
         21    1    1    2  504  503  0.19196702596E+02 -0.14397302659E+02  0.69176161220E+01  0.24972967930E+02  0.00000000000E+00 0. -1.
<mgrwt>
<rscale>  1 0.12728085E+03</rscale>
<asrwt>0</asrwt>
<pdfrwt beam="1">  1       21 0.18309283E+00 0.12728085E+03</pdfrwt>
<pdfrwt beam="2">  1       21 0.19195459E-02 0.12728085E+03</pdfrwt>
<totfact> 0.23505343E+05</totfact>
</mgrwt>
</event>
<event>
 6    1  0.4202038E-002  0.1358840E+03  0.7546771E-02  0.1218977E+00
         21   -1    0    0  503  502  0.00000000000E+00  0.00000000000E+00  0.34246822815E+02  0.34246822815E+02  0.00000000000E+00 0. -1.
         21   -1    0    0  504  503 -0.00000000000E+00 -0.00000000000E+00 -0.26433942080E+03  0.26433942080E+03  0.00000000000E+00 0. -1.
         25    2    1    2    0    0 -0.36377414170E+02 -0.38932173876E+02 -0.17929728729E+03  0.22497106846E+03  0.12500173595E+03 0.  0.
          5    1    3    3  501    0  0.93315460811E+01 -0.68067574323E+02 -0.50606836373E+02  0.85330734874E+02  0.10000000000E+00 0.  1.
         -5    1    3    3    0  501 -0.45708960251E+02  0.29135400447E+02 -0.12869045092E+03  0.13964033359E+03  0.10000000000E+00 0.  1.
         21    1    1    2  504  502  0.36377414170E+02  0.38932173876E+02 -0.50795310688E+02  0.73615175149E+02  0.00000000000E+00 0. -1.
<mgrwt>
<rscale>  1 0.13588401E+03</rscale>
<asrwt>0</asrwt>
<pdfrwt beam="1">  1       21 0.52687420E-02 0.13588401E+03</pdfrwt>
<pdfrwt beam="2">  1       21 0.40667603E-01 0.13588401E+03</pdfrwt>
<totfact> 0.14322895E+06</totfact>
</mgrwt>
</event>
<event>
 6    1  0.4202038E-002  0.1331822E+03  0.7546771E-02  0.1222809E+00
         21   -1    0    0  504  502  0.00000000000E+00  0.00000000000E+00  0.10501006009E+02  0.10501006009E+02  0.00000000000E+00 0. -1.
         21   -1    0    0  502  503 -0.00000000000E+00 -0.00000000000E+00 -0.82401694923E+03  0.82401694923E+03  0.00000000000E+00 0. -1.
         25    2    1    2    0    0  0.14822010694E+02 -0.43497241227E+02 -0.49089623685E+03  0.50864194057E+03  0.12500322541E+03 0.  0.
          5    1    3    3  501    0  0.17918640245E+02 -0.53341584739E+02 -0.81066425967E+02  0.98682205841E+02  0.10000000000E+00 0. -1.
         -5    1    3    3    0  501 -0.30966295507E+01  0.98443435117E+01 -0.40982981088E+03  0.40995973473E+03  0.10000000000E+00 0. -1.
         21    1    1    2  504  503 -0.14822010694E+02  0.43497241227E+02 -0.32261970638E+03  0.32587601467E+03  0.00000000000E+00 0. -1.
<mgrwt>
<rscale>  1 0.13318224E+03</rscale>
<asrwt>0</asrwt>
<pdfrwt beam="1">  1       21 0.16155392E-02 0.13318224E+03</pdfrwt>
<pdfrwt beam="2">  1       21 0.12677185E+00 0.13318224E+03</pdfrwt>
<totfact> 0.80902594E+05</totfact>
</mgrwt>
</event>
<event>
 6    1  0.4202038E-002  0.1259775E+03  0.7546771E-02  0.1233549E+00
         21   -1    0    0  503  502  0.00000000000E+00  0.00000000000E+00  0.10552496505E+02  0.10552496505E+02  0.00000000000E+00 0.  1.
         21   -1    0    0  504  503 -0.00000000000E+00 -0.00000000000E+00 -0.10459912806E+04  0.10459912806E+04  0.00000000000E+00 0.  1.
         25    2    1    2    0    0  0.12159414762E+02  0.97332110323E+01 -0.36879304393E+03  0.38971611598E+03  0.12501101967E+03 0.  0.
          5    1    3    3  501    0  0.68422800055E+02 -0.21712661061E+01 -0.19783846816E+03  0.20934770944E+03  0.10000000000E+00 0.  1.
         -5    1    3    3    0  501 -0.56263385293E+02  0.11904477138E+02 -0.17095457577E+03  0.18036840654E+03  0.10000000000E+00 0.  1.
         21    1    1    2  504  502 -0.12159414762E+02 -0.97332110323E+01 -0.66664574016E+03  0.66682766112E+03  0.00000000000E+00 0.  1.
<mgrwt>
<rscale>  1 0.12597754E+03</rscale>
<asrwt>0</asrwt>
<pdfrwt beam="1">  1       21 0.16234607E-02 0.12597754E+03</pdfrwt>
<pdfrwt beam="2">  1       21 0.16092176E+00 0.12597754E+03</pdfrwt>
<totfact> 0.43686034E+05</totfact>
</mgrwt>
</event>
<event>
 6    1  0.4202038E-002  0.1271910E+03  0.7546771E-02  0.1231684E+00
         21   -1    0    0  503  502  0.00000000000E+00  0.00000000000E+00  0.25768046968E+02  0.25768046968E+02  0.00000000000E+00 0. -1.
         21   -1    0    0  504  503 -0.00000000000E+00 -0.00000000000E+00 -0.22342162456E+03  0.22342162456E+03  0.00000000000E+00 0. -1.
         25    2    1    2    0    0  0.21749016108E+02  0.90138010544E+01 -0.17639603797E+03  0.21746978341E+03  0.12499310451E+03 0.  0.
          5    1    3    3  501    0  0.40035183202E+02 -0.38583503480E+01 -0.56743668926E+00  0.40224802620E+02  0.10000000000E+00 0. -1.
         -5    1    3    3    0  501 -0.18286167094E+02  0.12872151402E+02 -0.17582860128E+03  0.17724498079E+03  0.10000000000E+00 0. -1.
         21    1    1    2  504  502 -0.21749016108E+02 -0.90138010544E+01 -0.21257539622E+02  0.31719888113E+02  0.00000000000E+00 0. -1.
<mgrwt>
<rscale>  1 0.12719098E+03</rscale>
<asrwt>0</asrwt>
<pdfrwt beam="1">  1       21 0.39643149E-02 0.12719098E+03</pdfrwt>
<pdfrwt beam="2">  1       21 0.34372558E-01 0.12719098E+03</pdfrwt>
<totfact> 0.32115885E+06</totfact>
</mgrwt>
</event>
<event>
 6    1  0.4202038E-002  0.1627271E+03  0.7546771E-02  0.1185652E+00
         21   -1    0    0  503  502  0.00000000000E+00  0.00000000000E+00  0.27355730894E+03  0.27355730894E+03  0.00000000000E+00 0. -1.
         21   -1    0    0  504  503 -0.00000000000E+00 -0.00000000000E+00 -0.65109677026E+02  0.65109677026E+02  0.00000000000E+00 0. -1.
         25    2    1    2    0    0  0.10398523286E+03  0.65257701369E+01  0.12740461286E+03  0.20666893573E+03  0.12499839714E+03 0.  0.
          5    1    3    3  501    0  0.11233381509E+03  0.33738143825E+02  0.13334680938E+03  0.17759090611E+03  0.10000000000E+00 0.  1.
         -5    1    3    3    0  501 -0.83485822272E+01 -0.27212373688E+02 -0.59421965182E+01  0.29078029617E+02  0.10000000000E+00 0.  1.
         21    1    1    2  504  502 -0.10398523286E+03 -0.65257701369E+01  0.81043019046E+02  0.13199805023E+03  0.00000000000E+00 0. -1.
<mgrwt>
<rscale>  1 0.16272711E+03</rscale>
<asrwt>0</asrwt>
<pdfrwt beam="1">  1       21 0.42085739E-01 0.16272711E+03</pdfrwt>
<pdfrwt beam="2">  1       21 0.10016874E-01 0.16272711E+03</pdfrwt>
<totfact> 0.44208704E+05</totfact>
</mgrwt>
</event>
<event>
 6    1  0.4202038E-002  0.1581563E+03  0.7546771E-02  0.1190794E+00
         21   -1    0    0  503  502  0.00000000000E+00  0.00000000000E+00  0.23184027003E+04  0.23184027003E+04  0.00000000000E+00 0.  1.
         21   -1    0    0  504  503 -0.00000000000E+00 -0.00000000000E+00 -0.22529741595E+02  0.22529741595E+02  0.00000000000E+00 0.  1.
         25    2    1    2    0    0 -0.50266790766E+02  0.82812085354E+02  0.21963826238E+04  0.22020694934E+04  0.12501532610E+03 0.  0.
          5    1    3    3  501    0  0.95910917043E+01  0.94946368819E+02  0.11793492437E+04  0.11832038922E+04  0.10000000000E+00 0. -1.
         -5    1    3    3    0  501 -0.59857882470E+02 -0.12134283465E+02  0.10170333801E+04  0.10188656012E+04  0.10000000000E+00 0. -1.
         21    1    1    2  504  502  0.50266790766E+02 -0.82812085354E+02  0.99490334914E+02  0.13886294854E+03  0.00000000000E+00 0.  1.
<mgrwt>
<rscale>  1 0.15815633E+03</rscale>
<asrwt>0</asrwt>
<pdfrwt beam="1">  1       21 0.35667715E+00 0.15815633E+03</pdfrwt>
<pdfrwt beam="2">  1       21 0.34661159E-02 0.15815633E+03</pdfrwt>
<totfact> 0.83237699E+03</totfact>
</mgrwt>
</event>
<event>
 6    1  0.4202038E-002  0.1315374E+03  0.7546771E-02  0.1225192E+00
         21   -1    0    0  503  502  0.00000000000E+00  0.00000000000E+00  0.69875653533E+03  0.69875653533E+03  0.00000000000E+00 0.  1.
         21   -1    0    0  504  503 -0.00000000000E+00 -0.00000000000E+00 -0.12573513589E+03  0.12573513589E+03  0.00000000000E+00 0. -1.
         25    2    1    2    0    0 -0.39006217105E+02  0.12558662586E+02  0.68902235889E+03  0.70146554564E+03  0.12499158246E+03 0.  0.
          5    1    3    3  501    0  0.33879087831E+02  0.38802968697E+02  0.21036097121E+03  0.21657610944E+03  0.10000000000E+00 0.  1.
         -5    1    3    3    0  501 -0.72885304936E+02 -0.26244306111E+02  0.47866138768E+03  0.48488943620E+03  0.10000000000E+00 0.  1.
         21    1    1    2  504  502  0.39006217105E+02 -0.12558662586E+02 -0.11600095946E+03  0.12302612557E+03  0.00000000000E+00 0. -1.
<mgrwt>
<rscale>  1 0.13153745E+03</rscale>
<asrwt>0</asrwt>
<pdfrwt beam="1">  1       21 0.10750100E+00 0.13153745E+03</pdfrwt>
<pdfrwt beam="2">  1       21 0.19343867E-01 0.13153745E+03</pdfrwt>
<totfact> 0.17699993E+04</totfact>
</mgrwt>
</event>
<event>
 6    1  0.4202038E-002  0.1265298E+03  0.7546771E-02  0.1232698E+00
         21   -1    0    0  504  502  0.00000000000E+00  0.00000000000E+00  0.75175815162E+01  0.75175815162E+01  0.00000000000E+00 0.  1.
         21   -1    0    0  502  503 -0.00000000000E+00 -0.00000000000E+00 -0.12476955901E+04  0.12476955901E+04  0.00000000000E+00 0.  1.
         25    2    1    2    0    0  0.99227998326E+01 -0.16901681964E+02 -0.53484853489E+03  0.54961144594E+03  0.12500262969E+03 0.  0.
          5    1    3    3  501    0 -0.13998641405E+01  0.26855228229E+02 -0.46884462719E+03  0.46961522265E+03  0.10000000000E+00 0.  1.
         -5    1    3    3    0  501  0.11322663973E+02 -0.43756910194E+02 -0.66003907699E+02  0.79996223290E+02  0.10000000000E+00 0.  1.
         21    1    1    2  504  503 -0.99227998326E+01  0.16901681964E+02 -0.70532947365E+03  0.70560172563E+03  0.00000000000E+00 0.  1.
<mgrwt>
<rscale>  1 0.12652978E+03</rscale>
<asrwt>0</asrwt>
<pdfrwt beam="1">  1       21 0.11565510E-02 0.12652978E+03</pdfrwt>
<pdfrwt beam="2">  1       21 0.19195317E+00 0.12652978E+03</pdfrwt>
<totfact> 0.46224911E+05</totfact>
</mgrwt>
</event>
<event>
 6    1  0.4202038E-002  0.1553286E+03  0.7546771E-02  0.1194074E+00
         21   -1    0    0  504  502  0.00000000000E+00  0.00000000000E+00  0.39525137857E+03  0.39525137857E+03  0.00000000000E+00 0.  1.
         21   -1    0    0  502  503 -0.00000000000E+00 -0.00000000000E+00 -0.54164396940E+02  0.54164396940E+02  0.00000000000E+00 0.  1.
         25    2    1    2    0    0 -0.85330647193E+02  0.34952046989E+02  0.31868246575E+03  0.35452148026E+03  0.12499600413E+03 0.  0.
          5    1    3    3  501    0 -0.31026445505E+02  0.78666489258E+02  0.15397588841E+03  0.17566912382E+03  0.10000000000E+00 0.  1.
         -5    1    3    3    0  501 -0.54304201688E+02 -0.43714442269E+02  0.16470657735E+03  0.17885235645E+03  0.10000000000E+00 0.  1.
         21    1    1    2  504  503  0.85330647193E+02 -0.34952046989E+02  0.22404515877E+02  0.94894295249E+02  0.00000000000E+00 0.  1.
<mgrwt>
<rscale>  1 0.15532857E+03</rscale>
<asrwt>0</asrwt>
<pdfrwt beam="1">  1       21 0.60807903E-01 0.15532857E+03</pdfrwt>
<pdfrwt beam="2">  1       21 0.83329844E-02 0.15532857E+03</pdfrwt>
<totfact> 0.28405390E+05</totfact>
</mgrwt>
</event>
<event>
 6    1  0.4202038E-002  0.1376560E+03  0.7546771E-02  0.1216518E+00
         21   -1    0    0  504  502  0.00000000000E+00  0.00000000000E+00  0.32216425724E+02  0.32216425724E+02  0.00000000000E+00 0. -1.
         21   -1    0    0  502  503 -0.00000000000E+00 -0.00000000000E+00 -0.35245447060E+03  0.35245447060E+03  0.00000000000E+00 0. -1.
         25    2    1    2    0    0  0.55271342446E+02 -0.16369483400E+02 -0.28656240243E+03  0.31791065234E+03  0.12500516430E+03 0.  0.
          5    1    3    3  501    0 -0.20715927599E+02  0.37975197872E+02 -0.73833946730E+02  0.85572933802E+02  0.10000000000E+00 0. -1.
         -5    1    3    3    0  501  0.75987270045E+02 -0.54344681271E+02 -0.21272845570E+03  0.23233771854E+03  0.10000000000E+00 0. -1.
         21    1    1    2  504  503 -0.55271342446E+02  0.16369483400E+02 -0.33675642443E+02  0.66760243982E+02  0.00000000000E+00 0. -1.
<mgrwt>
<rscale>  1 0.13765599E+03</rscale>
<asrwt>0</asrwt>
<pdfrwt beam="1">  1       21 0.49563734E-02 0.13765599E+03</pdfrwt>
<pdfrwt beam="2">  1       21 0.54223763E-01 0.13765599E+03</pdfrwt>
<totfact> 0.88075059E+05</totfact>
</mgrwt>
</event>
<event>
 6    1  0.4202038E-002  0.1272356E+03  0.7546771E-02  0.1231616E+00
         21   -1    0    0  504  502  0.00000000000E+00  0.00000000000E+00  0.18204638316E+03  0.18204638316E+03  0.00000000000E+00 0.  1.
         21   -1    0    0  502  503 -0.00000000000E+00 -0.00000000000E+00 -0.14444765900E+03  0.14444765900E+03  0.00000000000E+00 0.  1.
         25    2    1    2    0    0  0.11472926802E+02  0.20763037016E+02  0.15852047958E+03  0.20326741076E+03  0.12500466422E+03 0.  0.
          5    1    3    3  501    0  0.20765180840E+02 -0.40591767757E+02  0.16861423690E+02  0.48612775624E+02  0.10000000000E+00 0.  1.
         -5    1    3    3    0  501 -0.92922540378E+01  0.61354804773E+02  0.14165905589E+03  0.15465463513E+03  0.10000000000E+00 0.  1.
         21    1    1    2  504  503 -0.11472926802E+02 -0.20763037016E+02 -0.12092175542E+03  0.12322663141E+03  0.00000000000E+00 0.  1.
<mgrwt>
<rscale>  1 0.12723560E+03</rscale>
<asrwt>0</asrwt>
<pdfrwt beam="1">  1       21 0.28007136E-01 0.12723560E+03</pdfrwt>
<pdfrwt beam="2">  1       21 0.22222717E-01 0.12723560E+03</pdfrwt>
<totfact> 0.23438855E+05</totfact>
</mgrwt>
</event>
<event>
 6    1  0.4202038E-002  0.1267430E+03  0.7546771E-02  0.1232370E+00
         21   -1    0    0  503  502  0.00000000000E+00  0.00000000000E+00  0.59415589215E+02  0.59415589215E+02  0.00000000000E+00 0. -1.
         21   -1    0    0  504  503 -0.00000000000E+00 -0.00000000000E+00 -0.10914843731E+03  0.10914843731E+03  0.00000000000E+00 0. -1.
         25    2    1    2    0    0 -0.20922256445E+02 -0.18996655518E+00 -0.14477035344E+02  0.12756708475E+03  0.12500399857E+03 0.  0.
          5    1    3    3  501    0  0.17634999405E+02 -0.54829820690E+02  0.52737107498E+01  0.57837050980E+02  0.10000000000E+00 0.  1.
         -5    1    3    3    0  501 -0.38557255850E+02  0.54639854135E+02 -0.19750746093E+02  0.69730033772E+02  0.10000000000E+00 0.  1.
         21    1    1    2  504  502  0.20922256445E+02  0.18996655518E+00 -0.35255812751E+02  0.40996941774E+02  0.00000000000E+00 0. -1.
<mgrwt>
<rscale>  1 0.12674295E+03</rscale>
<asrwt>0</asrwt>
<pdfrwt beam="1">  1       21 0.91408599E-02 0.12674295E+03</pdfrwt>
<pdfrwt beam="2">  1       21 0.16792067E-01 0.12674295E+03</pdfrwt>
<totfact> 0.30009512E+06</totfact>
</mgrwt>
</event>
<event>
 6    1  0.4202038E-002  0.1270704E+03  0.7546771E-02  0.1231869E+00
         21   -1    0    0  504  502  0.00000000000E+00  0.00000000000E+00  0.14396665576E+03  0.14396665576E+03  0.00000000000E+00 0. -1.
         21   -1    0    0  502  503 -0.00000000000E+00 -0.00000000000E+00 -0.42787056376E+02  0.42787056376E+02  0.00000000000E+00 0. -1.
         25    2    1    2    0    0  0.18593364410E+02  0.13242059997E+02  0.10339268278E+03  0.16381982692E+03  0.12500329390E+03 0.  0.
          5    1    3    3  501    0 -0.44565462474E+02 -0.16207870635E+02  0.74647462221E+02  0.88436582544E+02  0.10000000000E+00 0.  1.
         -5    1    3    3    0  501  0.63158826883E+02  0.29449930632E+02  0.28745220558E+02  0.75383244374E+02  0.10000000000E+00 0.  1.
         21    1    1    2  504  503 -0.18593364410E+02 -0.13242059997E+02 -0.22130833948E+01  0.22933885217E+02  0.00000000000E+00 0. -1.
<mgrwt>
<rscale>  1 0.12707041E+03</rscale>
<asrwt>0</asrwt>
<pdfrwt beam="1">  1       21 0.22148716E-01 0.12707041E+03</pdfrwt>
<pdfrwt beam="2">  1       21 0.65826241E-02 0.12707041E+03</pdfrwt>
<totfact> 0.31706023E+06</totfact>
</mgrwt>
</event>
<event>
 6    1  0.4202038E-002  0.1261169E+03  0.7546771E-02  0.1233334E+00
         21   -1    0    0  504  502  0.00000000000E+00  0.00000000000E+00  0.19611686539E+02  0.19611686539E+02  0.00000000000E+00 0.  1.
         21   -1    0    0  502  503 -0.00000000000E+00 -0.00000000000E+00 -0.26046906067E+03  0.26046906067E+03  0.00000000000E+00 0.  1.
         25    2    1    2    0    0  0.15362966333E+00 -0.16758463190E+02 -0.20973957462E+03  0.24473690564E+03  0.12499837650E+03 0.  0.
          5    1    3    3  501    0  0.31074452314E+02  0.41981777275E+02 -0.52485847279E+02  0.74046373135E+02  0.10000000000E+00 0. -1.
         -5    1    3    3    0  501 -0.30920822651E+02 -0.58740240465E+02 -0.15725372735E+03  0.17069053251E+03  0.10000000000E+00 0. -1.
         21    1    1    2  504  503 -0.15362966333E+00  0.16758463190E+02 -0.31117799506E+02  0.35343841566E+02  0.00000000000E+00 0.  1.
<mgrwt>
<rscale>  1 0.12611687E+03</rscale>
<asrwt>0</asrwt>
<pdfrwt beam="1">  1       21 0.30171828E-02 0.12611687E+03</pdfrwt>
<pdfrwt beam="2">  1       21 0.40072160E-01 0.12611687E+03</pdfrwt>
<totfact> 0.37184164E+06</totfact>
</mgrwt>
</event>
<event>
 6    1  0.4202038E-002  0.1327793E+03  0.7546771E-02  0.1223389E+00
         21   -1    0    0  504  502  0.00000000000E+00  0.00000000000E+00  0.28116129833E+02  0.28116129833E+02  0.00000000000E+00 0. -1.
         21   -1    0    0  502  503 -0.00000000000E+00 -0.00000000000E+00 -0.28060055285E+03  0.28060055285E+03  0.00000000000E+00 0. -1.
         25    2    1    2    0    0  0.44306451425E+02  0.64584360734E+01 -0.18446904377E+03  0.22728656019E+03  0.12500231718E+03 0.  0.
          5    1    3    3  501    0  0.57408756339E+02 -0.32431896392E+02 -0.17229475414E+03  0.18448058303E+03  0.10000000000E+00 0.  1.
         -5    1    3    3    0  501 -0.13102304914E+02  0.38890332465E+02 -0.12174289624E+02  0.42805977166E+02  0.10000000000E+00 0.  1.
         21    1    1    2  504  503 -0.44306451425E+02 -0.64584360734E+01 -0.68015379246E+02  0.81430122488E+02  0.00000000000E+00 0. -1.
<mgrwt>
<rscale>  1 0.13277934E+03</rscale>
<asrwt>0</asrwt>
<pdfrwt beam="1">  1       21 0.43255586E-02 0.13277934E+03</pdfrwt>
<pdfrwt beam="2">  1       21 0.43169314E-01 0.13277934E+03</pdfrwt>
<totfact> 0.17674644E+06</totfact>
</mgrwt>
</event>
<event>
 6    1  0.4202038E-002  0.1502191E+03  0.7546771E-02  0.1200204E+00
         21   -1    0    0  503  502  0.00000000000E+00  0.00000000000E+00  0.93543621527E+03  0.93543621527E+03  0.00000000000E+00 0.  1.
         21   -1    0    0  504  503 -0.00000000000E+00 -0.00000000000E+00 -0.16559941196E+02  0.16559941196E+02  0.00000000000E+00 0.  1.
         25    2    1    2    0    0 -0.27639436699E+02 -0.78738856572E+02  0.73318568600E+03  0.74841634289E+03  0.12490807083E+03 0.  0.
          5    1    3    3  501    0 -0.14781419694E+02  0.27976918499E+02  0.31696616507E+03  0.31854161131E+03  0.10000000000E+00 0. -1.
         -5    1    3    3    0  501 -0.12858017005E+02 -0.10671577507E+03  0.41621952093E+03  0.42987473158E+03  0.10000000000E+00 0. -1.
         21    1    1    2  504  502  0.27639436699E+02  0.78738856572E+02  0.18569058808E+03  0.20357981358E+03  0.00000000000E+00 0.  1.
<mgrwt>
<rscale>  1 0.15021908E+03</rscale>
<asrwt>0</asrwt>
<pdfrwt beam="1">  1       21 0.14391322E+00 0.15021908E+03</pdfrwt>
<pdfrwt beam="2">  1       21 0.25476840E-02 0.15021908E+03</pdfrwt>
<totfact> 0.28006507E+05</totfact>
</mgrwt>
</event>
<event>
 6    1  0.4202038E-002  0.1315314E+03  0.7546771E-02  0.1225201E+00
         21   -1    0    0  504  502  0.00000000000E+00  0.00000000000E+00  0.17758203516E+03  0.17758203516E+03  0.00000000000E+00 0.  1.
         21   -1    0    0  502  503 -0.00000000000E+00 -0.00000000000E+00 -0.43023090663E+02  0.43023090663E+02  0.00000000000E+00 0.  1.
         25    2    1    2    0    0 -0.38194638072E+02  0.14770051637E+02  0.11703700497E+03  0.17606297536E+03  0.12499410369E+03 0.  0.
          5    1    3    3  501    0 -0.66415304968E+02 -0.38736166826E+01  0.12474152910E+03  0.14137346541E+03  0.10000000000E+00 0.  1.
         -5    1    3    3    0  501  0.28220666897E+02  0.18643668320E+02 -0.77045241318E+01  0.34689509951E+02  0.10000000000E+00 0.  1.
         21    1    1    2  504  503  0.38194638072E+02 -0.14770051637E+02  0.17521939530E+02  0.44542150461E+02  0.00000000000E+00 0.  1.
<mgrwt>
<rscale>  1 0.13153141E+03</rscale>
<asrwt>0</asrwt>
<pdfrwt beam="1">  1       21 0.27320313E-01 0.13153141E+03</pdfrwt>
<pdfrwt beam="2">  1       21 0.66189371E-02 0.13153141E+03</pdfrwt>
<totfact> 0.21164741E+06</totfact>
</mgrwt>
</event>
<event>
 6    1  0.4202038E-002  0.1566422E+03  0.7546771E-02  0.1192541E+00
         21   -1    0    0  504  502  0.00000000000E+00  0.00000000000E+00  0.25718049042E+02  0.25718049042E+02  0.00000000000E+00 0.  1.
         21   -1    0    0  502  503 -0.00000000000E+00 -0.00000000000E+00 -0.12562037736E+04  0.12562037736E+04  0.00000000000E+00 0.  1.
         25    2    1    2    0    0  0.54908646961E+02  0.76757743942E+02 -0.23777108212E+03  0.28473123299E+03  0.12502030549E+03 0.  0.
          5    1    3    3  501    0 -0.57472488106E+01  0.64085315684E+02 -0.20453136241E+03  0.21441326164E+03  0.10000000000E+00 0.  1.
         -5    1    3    3    0  501  0.60655895772E+02  0.12672428258E+02 -0.33239719705E+02  0.70317971358E+02  0.10000000000E+00 0.  1.
         21    1    1    2  504  503 -0.54908646961E+02 -0.76757743942E+02 -0.99271464247E+03  0.99719058968E+03  0.00000000000E+00 0.  1.
<mgrwt>
<rscale>  1 0.15664223E+03</rscale>
<asrwt>0</asrwt>
<pdfrwt beam="1">  1       21 0.39566235E-02 0.15664223E+03</pdfrwt>
<pdfrwt beam="2">  1       21 0.19326209E+00 0.15664223E+03</pdfrwt>
<totfact> 0.60650002E+04</totfact>
</mgrwt>
</event>
<event>
 6    1  0.4202038E-002  0.1266884E+03  0.7546771E-02  0.1232454E+00
         21   -1    0    0  504  502  0.00000000000E+00  0.00000000000E+00  0.20509248773E+03  0.20509248773E+03  0.00000000000E+00 0.  1.
         21   -1    0    0  502  503 -0.00000000000E+00 -0.00000000000E+00 -0.40611809488E+02  0.40611809488E+02  0.00000000000E+00 0.  1.
         25    2    1    2    0    0  0.18991264525E+02 -0.80299837300E+01  0.17984747631E+03  0.21998879121E+03  0.12499921902E+03 0.  0.
          5    1    3    3  501    0 -0.37261463630E+00 -0.18433209200E+02 -0.15084263189E+02  0.23821566678E+02  0.10000000000E+00 0.  1.
         -5    1    3    3    0  501  0.19363879161E+02  0.10403225469E+02  0.19493173950E+03  0.19616722453E+03  0.10000000000E+00 0.  1.
         21    1    1    2  504  503 -0.18991264525E+02  0.80299837300E+01 -0.15366798061E+02  0.25715506015E+02  0.00000000000E+00 0.  1.
<mgrwt>
<rscale>  1 0.12668841E+03</rscale>
<asrwt>0</asrwt>
<pdfrwt beam="1">  1       21 0.31552690E-01 0.12668841E+03</pdfrwt>
<pdfrwt beam="2">  1       21 0.62479708E-02 0.12668841E+03</pdfrwt>
<totfact> 0.17679147E+06</totfact>
</mgrwt>
</event>
<event>
 6    1  0.4202038E-002  0.1436264E+03  0.7546771E-02  0.1208531E+00
         21   -1    0    0  504  502  0.00000000000E+00  0.00000000000E+00  0.31437720266E+03  0.31437720266E+03  0.00000000000E+00 0. -1.
         21   -1    0    0  502  503 -0.00000000000E+00 -0.00000000000E+00 -0.50541965226E+02  0.50541965226E+02  0.00000000000E+00 0.  1.
         25    2    1    2    0    0 -0.33114128674E+02 -0.62501687661E+02  0.25628348320E+03  0.29378524159E+03  0.12500215173E+03 0.  0.
          5    1    3    3  501    0 -0.40081092428E+02 -0.86648036446E+02  0.11128296439E+03  0.14662293256E+03  0.10000000000E+00 0. -1.
         -5    1    3    3    0  501  0.69669637540E+01  0.24146348785E+02  0.14500051881E+03  0.14716230903E+03  0.10000000000E+00 0. -1.
         21    1    1    2  504  503  0.33114128674E+02  0.62501687661E+02  0.75517542371E+01  0.71133926296E+02  0.00000000000E+00 0.  1.
<mgrwt>
<rscale>  1 0.14362641E+03</rscale>
<asrwt>0</asrwt>
<pdfrwt beam="1">  1       21 0.48365722E-01 0.14362641E+03</pdfrwt>
<pdfrwt beam="2">  1       21 0.77756872E-02 0.14362641E+03</pdfrwt>
<totfact> 0.51847742E+05</totfact>
</mgrwt>
</event>
<event>
 6    1  0.4202038E-002  0.1264555E+03  0.7546771E-02  0.1232812E+00
         21   -1    0    0  503  502  0.00000000000E+00  0.00000000000E+00  0.11704940345E+04  0.11704940345E+04  0.00000000000E+00 0. -1.
         21   -1    0    0  504  503 -0.00000000000E+00 -0.00000000000E+00 -0.47053378420E+01  0.47053378420E+01  0.00000000000E+00 0. -1.
         25    2    1    2    0    0  0.41586654317E+01 -0.18488645536E+02  0.91518382231E+03  0.92387900397E+03  0.12502744037E+03 0.  0.
          5    1    3    3  501    0  0.19368967467E+02  0.39452577407E+02  0.67162205223E+03  0.67305858126E+03  0.10000000000E+00 0.  1.
         -5    1    3    3    0  501 -0.15210302036E+02 -0.57941222943E+02  0.24356177008E+03  0.25082042271E+03  0.10000000000E+00 0.  1.
         21    1    1    2  504  502 -0.41586654317E+01  0.18488645536E+02  0.25060487434E+03  0.25132036836E+03  0.00000000000E+00 0. -1.
<mgrwt>
<rscale>  1 0.12645547E+03</rscale>
<asrwt>0</asrwt>
<pdfrwt beam="1">  1       21 0.18007577E+00 0.12645547E+03</pdfrwt>
<pdfrwt beam="2">  1       21 0.72389906E-03 0.12645547E+03</pdfrwt>
<totfact> 0.11539450E+06</totfact>
</mgrwt>
</event>
<event>
 6    1  0.4202038E-002  0.2303399E+03  0.7546771E-02  0.1126401E+00
         21   -1    0    0  504  502  0.00000000000E+00  0.00000000000E+00  0.19539483811E+03  0.19539483811E+03  0.00000000000E+00 0. -1.
         21   -1    0    0  502  503 -0.00000000000E+00 -0.00000000000E+00 -0.63607477769E+03  0.63607477769E+03  0.00000000000E+00 0. -1.
         25    2    1    2    0    0  0.19338151874E+03  0.60698711910E+01  0.10452967350E+03  0.25294841713E+03  0.12499277563E+03 0.  0.
          5    1    3    3  501    0  0.87376943616E+02  0.41871647488E+02 -0.41326775463E+01  0.96979658500E+02  0.10000000000E+00 0.  1.
         -5    1    3    3    0  501  0.10600457513E+03 -0.35801776297E+02  0.10866235105E+03  0.15596875863E+03  0.10000000000E+00 0.  1.
         21    1    1    2  504  503 -0.19338151874E+03 -0.60698711910E+01 -0.54520961308E+03  0.57852119868E+03  0.00000000000E+00 0. -1.
<mgrwt>
<rscale>  1 0.23033986E+03</rscale>
<asrwt>0</asrwt>
<pdfrwt beam="1">  1       21 0.30060744E-01 0.23033986E+03</pdfrwt>
<pdfrwt beam="2">  1       21 0.97857659E-01 0.23033986E+03</pdfrwt>
<totfact> 0.89395391E+03</totfact>
</mgrwt>
</event>
<event>
 6    1  0.4202038E-002  0.1272898E+03  0.7546771E-02  0.1231533E+00
         21   -1    0    0  503  502  0.00000000000E+00  0.00000000000E+00  0.74997048199E+03  0.74997048199E+03  0.00000000000E+00 0.  1.
         21   -1    0    0  504  503 -0.00000000000E+00 -0.00000000000E+00 -0.77136326938E+01  0.77136326938E+01  0.00000000000E+00 0.  1.
         25    2    1    2    0    0  0.52777785748E+01  0.23446325144E+02  0.65014418335E+03  0.66248785248E+03  0.12500044173E+03 0.  0.
          5    1    3    3  501    0 -0.82271000693E+01  0.57002698778E+02  0.58619374468E+03  0.58901622147E+03  0.10000000000E+00 0.  1.
         -5    1    3    3    0  501  0.13504878644E+02 -0.33556373634E+02  0.63950438669E+02  0.73471631019E+02  0.10000000000E+00 0.  1.
         21    1    1    2  504  502 -0.52777785748E+01 -0.23446325144E+02  0.92112665942E+02  0.95196262197E+02  0.00000000000E+00 0.  1.
<mgrwt>
<rscale>  1 0.12728981E+03</rscale>
<asrwt>0</asrwt>
<pdfrwt beam="1">  1       21 0.11538002E+00 0.12728981E+03</pdfrwt>
<pdfrwt beam="2">  1       21 0.11867133E-02 0.12728981E+03</pdfrwt>
<totfact> 0.16652194E+06</totfact>
</mgrwt>
</event>
<event>
 6    1  0.4202038E-002  0.1265293E+03  0.7546771E-02  0.1232698E+00
         21   -1    0    0  504  502  0.00000000000E+00  0.00000000000E+00  0.13629619406E+03  0.13629619406E+03  0.00000000000E+00 0. -1.
         21   -1    0    0  502  503 -0.00000000000E+00 -0.00000000000E+00 -0.40034626794E+02  0.40034626794E+02  0.00000000000E+00 0. -1.
         25    2    1    2    0    0  0.19527961444E+02  0.19478213920E+01  0.91469774895E+02  0.15612942089E+03  0.12499816424E+03 0.  0.
          5    1    3    3  501    0 -0.38163298053E+02 -0.30531395700E+02  0.72181975722E+02  0.87171389004E+02  0.10000000000E+00 0. -1.
         -5    1    3    3    0  501  0.57691259497E+02  0.32479217092E+02  0.19287799172E+02  0.68958031890E+02  0.10000000000E+00 0. -1.
         21    1    1    2  504  503 -0.19527961444E+02 -0.19478213920E+01  0.47917923745E+01  0.20201399963E+02  0.00000000000E+00 0. -1.
<mgrwt>
<rscale>  1 0.12652935E+03</rscale>
<asrwt>0</asrwt>
<pdfrwt beam="1">  1       21 0.20968645E-01 0.12652935E+03</pdfrwt>
<pdfrwt beam="2">  1       21 0.61591734E-02 0.12652935E+03</pdfrwt>
<totfact> 0.39303807E+06</totfact>
</mgrwt>
</event>
<event>
 6    1  0.4202038E-002  0.1706845E+03  0.7546771E-02  0.1177136E+00
         21   -1    0    0  504  502  0.00000000000E+00  0.00000000000E+00  0.87318729081E+03  0.87318729081E+03  0.00000000000E+00 0.  1.
         21   -1    0    0  502  503 -0.00000000000E+00 -0.00000000000E+00 -0.50456576408E+02  0.50456576408E+02  0.00000000000E+00 0. -1.
         25    2    1    2    0    0 -0.34215477270E+02 -0.11107418855E+03  0.78212089702E+03  0.80052875233E+03  0.12500004598E+03 0.  0.
          5    1    3    3  501    0 -0.25731834599E+02 -0.15813669146E+02  0.30772059229E+02  0.43117619054E+02  0.10000000000E+00 0. -1.
         -5    1    3    3    0  501 -0.84836426711E+01 -0.95260519408E+02  0.75134883779E+03  0.75741113327E+03  0.10000000000E+00 0. -1.
         21    1    1    2  504  503  0.34215477270E+02  0.11107418855E+03  0.40609817383E+02  0.12311511490E+03  0.00000000000E+00 0. -1.
<mgrwt>
<rscale>  1 0.17068446E+03</rscale>
<asrwt>0</asrwt>
<pdfrwt beam="1">  1       21 0.13433650E+00 0.17068446E+03</pdfrwt>
<pdfrwt beam="2">  1       21 0.77625508E-02 0.17068446E+03</pdfrwt>
<totfact> 0.50911702E+04</totfact>
</mgrwt>
</event>
<event>
 6    1  0.4202038E-002  0.1262855E+03  0.7546771E-02  0.1233074E+00
         21   -1    0    0  504  502  0.00000000000E+00  0.00000000000E+00  0.50626929092E+01  0.50626929092E+01  0.00000000000E+00 0. -1.
         21   -1    0    0  502  503 -0.00000000000E+00 -0.00000000000E+00 -0.12893839944E+04  0.12893839944E+04  0.00000000000E+00 0. -1.
         25    2    1    2    0    0 -0.12046056747E+02  0.13887664345E+02 -0.81144287101E+03  0.82121103278E+03  0.12494019666E+03 0.  0.
          5    1    3    3  501    0 -0.52971293555E+02  0.47655794927E+01 -0.70198720113E+03  0.70399908327E+03  0.10000000000E+00 0. -1.
         -5    1    3    3    0  501  0.40925236808E+02  0.91220848527E+01 -0.10945566988E+03  0.11721194951E+03  0.10000000000E+00 0. -1.
         21    1    1    2  504  503  0.12046056747E+02 -0.13887664345E+02 -0.47287843044E+03  0.47323565449E+03  0.00000000000E+00 0. -1.
<mgrwt>
<rscale>  1 0.12628550E+03</rscale>
<asrwt>0</asrwt>
<pdfrwt beam="1">  1       21 0.77887656E-03 0.12628550E+03</pdfrwt>
<pdfrwt beam="2">  1       21 0.19836658E+00 0.12628550E+03</pdfrwt>
<totfact> 0.78359087E+05</totfact>
</mgrwt>
</event>
<event>
 6    1  0.4202038E-002  0.1403926E+03  0.7546771E-02  0.1212802E+00
         21   -1    0    0  503  502  0.00000000000E+00  0.00000000000E+00  0.90345305823E+02  0.90345305823E+02  0.00000000000E+00 0.  1.
         21   -1    0    0  504  503 -0.00000000000E+00 -0.00000000000E+00 -0.16097417307E+03  0.16097417307E+03  0.00000000000E+00 0.  1.
         25    2    1    2    0    0 -0.19606061220E+02 -0.60833848031E+02  0.18538025273E+02  0.14161127763E+03  0.12499976347E+03 0.  0.
          5    1    3    3  501    0 -0.23923882968E+02  0.36117463108E+02  0.45449620439E+01  0.43560188218E+02  0.10000000000E+00 0.  1.
         -5    1    3    3    0  501  0.43178217483E+01 -0.96951311139E+02  0.13993063230E+02  0.98051089411E+02  0.10000000000E+00 0.  1.
         21    1    1    2  504  502  0.19606061220E+02  0.60833848031E+02 -0.89166892524E+02  0.10970820127E+03  0.00000000000E+00 0.  1.
<mgrwt>
<rscale>  1 0.14039265E+03</rscale>
<asrwt>0</asrwt>
<pdfrwt beam="1">  1       21 0.13899278E-01 0.14039265E+03</pdfrwt>
<pdfrwt beam="2">  1       21 0.24765257E-01 0.14039265E+03</pdfrwt>
<totfact> 0.69782716E+05</totfact>
</mgrwt>
</event>
<event>
 6    1  0.4202038E-002  0.1462839E+03  0.7546771E-02  0.1205115E+00
         21   -1    0    0  503  502  0.00000000000E+00  0.00000000000E+00  0.78981093240E+02  0.78981093240E+02  0.00000000000E+00 0.  1.
         21   -1    0    0  504  503 -0.00000000000E+00 -0.00000000000E+00 -0.16970443755E+03  0.16970443755E+03  0.00000000000E+00 0.  1.
         25    2    1    2    0    0  0.32556635553E+02  0.68664532770E+02 -0.25392556067E+02  0.14847143761E+03  0.12499693318E+03 0.  0.
          5    1    3    3  501    0  0.19191930366E+02  0.59979082161E+02 -0.74086572581E+02  0.97235028281E+02  0.10000000000E+00 0.  1.
         -5    1    3    3    0  501  0.13364705188E+02  0.86854506094E+01  0.48694016514E+02  0.51236409332E+02  0.10000000000E+00 0.  1.
         21    1    1    2  504  502 -0.32556635553E+02 -0.68664532770E+02 -0.65330788245E+02  0.10021409318E+03  0.00000000000E+00 0.  1.
<mgrwt>
<rscale>  1 0.14628392E+03</rscale>
<asrwt>0</asrwt>
<pdfrwt beam="1">  1       21 0.12150938E-01 0.14628392E+03</pdfrwt>
<pdfrwt beam="2">  1       21 0.26108375E-01 0.14628392E+03</pdfrwt>
<totfact> 0.80262429E+05</totfact>
</mgrwt>
</event>
<event>
 6    1  0.4202038E-002  0.1280890E+03  0.7546771E-02  0.1230319E+00
         21   -1    0    0  503  502  0.00000000000E+00  0.00000000000E+00  0.20244942351E+02  0.20244942351E+02  0.00000000000E+00 0. -1.
         21   -1    0    0  504  503 -0.00000000000E+00 -0.00000000000E+00 -0.11587932997E+04  0.11587932997E+04  0.00000000000E+00 0. -1.
         25    2    1    2    0    0 -0.13665372132E+02 -0.24467411178E+02 -0.18464503004E+03  0.22472332838E+03  0.12498556154E+03 0.  0.
          5    1    3    3  501    0  0.38744910981E+02 -0.55047188294E+02 -0.10140665814E+03  0.12171557575E+03  0.10000000000E+00 0. -1.
         -5    1    3    3    0  501 -0.52410283112E+02  0.30579777116E+02 -0.83238371903E+02  0.10300775263E+03  0.10000000000E+00 0. -1.
         21    1    1    2  504  502  0.13665372132E+02  0.24467411178E+02 -0.95390332734E+03  0.95431491370E+03  0.00000000000E+00 0. -1.
<mgrwt>
<rscale>  1 0.12808898E+03</rscale>
<asrwt>0</asrwt>
<pdfrwt beam="1">  1       21 0.31146065E-02 0.12808898E+03</pdfrwt>
<pdfrwt beam="2">  1       21 0.17827589E+00 0.12808898E+03</pdfrwt>
<totfact> 0.11514529E+05</totfact>
</mgrwt>
</event>
<event>
 6    1  0.4202038E-002  0.1337239E+03  0.7546771E-02  0.1222032E+00
         21   -1    0    0  504  502  0.00000000000E+00  0.00000000000E+00  0.67910744744E+03  0.67910744744E+03  0.00000000000E+00 0. -1.
         21   -1    0    0  502  503 -0.00000000000E+00 -0.00000000000E+00 -0.17570070216E+02  0.17570070216E+02  0.00000000000E+00 0. -1.
         25    2    1    2    0    0 -0.23091311539E+02 -0.41276455100E+02  0.61830232237E+03  0.63259768946E+03  0.12508045586E+03 0.  0.
          5    1    3    3  501    0  0.24698852112E+02  0.28533620693E+02  0.90427538872E+02  0.97986481680E+02  0.10000000000E+00 0.  1.
         -5    1    3    3    0  501 -0.47790163652E+02 -0.69810075793E+02  0.52787478350E+03  0.53461120778E+03  0.10000000000E+00 0.  1.
         21    1    1    2  504  503  0.23091311539E+02  0.41276455100E+02  0.43235054851E+02  0.64079828201E+02  0.00000000000E+00 0. -1.
<mgrwt>
<rscale>  1 0.13372388E+03</rscale>
<asrwt>0</asrwt>
<pdfrwt beam="1">  1       21 0.10447805E+00 0.13372388E+03</pdfrwt>
<pdfrwt beam="2">  1       21 0.27030883E-02 0.13372388E+03</pdfrwt>
<totfact> 0.56161107E+05</totfact>
</mgrwt>
</event>
<event>
 6    1  0.4202038E-002  0.1296418E+03  0.7546771E-02  0.1227988E+00
         21   -1    0    0  503  502  0.00000000000E+00  0.00000000000E+00  0.73552369511E+02  0.73552369511E+02  0.00000000000E+00 0. -1.
         21   -1    0    0  504  503 -0.00000000000E+00 -0.00000000000E+00 -0.99947437795E+02  0.99947437795E+02  0.00000000000E+00 0. -1.
         25    2    1    2    0    0  0.33682394532E+02  0.68241967894E+01 -0.41269668594E+02  0.13605214920E+03  0.12500371352E+03 0.  0.
          5    1    3    3  501    0  0.29048679580E+02 -0.47070850428E+02 -0.57291315081E+02  0.79635391184E+02  0.10000000000E+00 0.  1.
         -5    1    3    3    0  501  0.46337149521E+01  0.53895047218E+02  0.16021646487E+02  0.56416758016E+02  0.10000000000E+00 0.  1.
         21    1    1    2  504  502 -0.33682394532E+02 -0.68241967894E+01  0.14874600310E+02  0.37447658106E+02  0.00000000000E+00 0. -1.
<mgrwt>
<rscale>  1 0.12964182E+03</rscale>
<asrwt>0</asrwt>
<pdfrwt beam="1">  1       21 0.11315749E-01 0.12964182E+03</pdfrwt>
<pdfrwt beam="2">  1       21 0.15376529E-01 0.12964182E+03</pdfrwt>
<totfact> 0.24244592E+06</totfact>
</mgrwt>
</event>
<event>
 6    1  0.4202038E-002  0.1694384E+03  0.7546771E-02  0.1178435E+00
         21   -1    0    0  504  502  0.00000000000E+00  0.00000000000E+00  0.33874537570E+03  0.33874537570E+03  0.00000000000E+00 0. -1.
         21   -1    0    0  502  503 -0.00000000000E+00 -0.00000000000E+00 -0.10027083723E+03  0.10027083723E+03  0.00000000000E+00 0. -1.
         25    2    1    2    0    0 -0.85968222787E+02 -0.75460006525E+02  0.27143055255E+03  0.31997484711E+03  0.12499844004E+03 0.  0.
          5    1    3    3  501    0  0.62332447720E+01  0.18105419136E+02  0.81964768254E+00  0.19166151539E+02  0.10000000000E+00 0. -1.
         -5    1    3    3    0  501 -0.92201467559E+02 -0.93565425661E+02  0.27061090487E+03  0.30080869557E+03  0.10000000000E+00 0. -1.
         21    1    1    2  504  503  0.85968222787E+02  0.75460006525E+02 -0.32956014078E+02  0.11904136583E+03  0.00000000000E+00 0. -1.
<mgrwt>
<rscale>  1 0.16943836E+03</rscale>
<asrwt>0</asrwt>
<pdfrwt beam="1">  1       21 0.52114673E-01 0.16943836E+03</pdfrwt>
<pdfrwt beam="2">  1       21 0.15426283E-01 0.16943836E+03</pdfrwt>
<totfact> 0.13131248E+05</totfact>
</mgrwt>
</event>
<event>
 6    1  0.4202038E-002  0.1434493E+03  0.7546771E-02  0.1208762E+00
         21   -1    0    0  504  502  0.00000000000E+00  0.00000000000E+00  0.12367545732E+04  0.12367545732E+04  0.00000000000E+00 0.  1.
         21   -1    0    0  502  503 -0.00000000000E+00 -0.00000000000E+00 -0.25368387921E+02  0.25368387921E+02  0.00000000000E+00 0.  1.
         25    2    1    2    0    0 -0.70319249303E+02 -0.16811133051E+01  0.11734888553E+04  0.11822240839E+04  0.12502027028E+03 0.  0.
          5    1    3    3  501    0 -0.57888796499E+02  0.45888555289E+02  0.97278196567E+03  0.97558271561E+03  0.10000000000E+00 0. -1.
         -5    1    3    3    0  501 -0.12430452804E+02 -0.47569668594E+02  0.20070688967E+03  0.20664136829E+03  0.10000000000E+00 0. -1.
         21    1    1    2  504  503  0.70319249303E+02  0.16811133051E+01  0.37897329937E+02  0.79898877219E+02  0.00000000000E+00 0.  1.
<mgrwt>
<rscale>  1 0.14344926E+03</rscale>
<asrwt>0</asrwt>
<pdfrwt beam="1">  1       21 0.19026989E+00 0.14344926E+03</pdfrwt>
<pdfrwt beam="2">  1       21 0.39028299E-02 0.14344926E+03</pdfrwt>
<totfact> 0.65449802E+04</totfact>
</mgrwt>
</event>
<event>
 6    1  0.4202038E-002  0.1594612E+03  0.7546771E-02  0.1189306E+00
         21   -1    0    0  503  502  0.00000000000E+00  0.00000000000E+00  0.12280815796E+04  0.12280815796E+04  0.00000000000E+00 0.  1.
         21   -1    0    0  504  503 -0.00000000000E+00 -0.00000000000E+00 -0.13911630747E+02  0.13911630747E+02  0.00000000000E+00 0.  1.
         25    2    1    2    0    0 -0.46406797557E+02 -0.87469438304E+02  0.83619197233E+03  0.85126076451E+03  0.12499352424E+03 0.  0.
          5    1    3    3  501    0 -0.77651154341E+02 -0.25106264458E+02  0.31404691194E+03  0.32447727068E+03  0.10000000000E+00 0. -1.
         -5    1    3    3    0  501  0.31244356784E+02 -0.62363173846E+02  0.52214506039E+03  0.52678349383E+03  0.10000000000E+00 0. -1.
         21    1    1    2  504  502  0.46406797557E+02  0.87469438304E+02  0.37797797651E+03  0.39073244582E+03  0.00000000000E+00 0.  1.
<mgrwt>
<rscale>  1 0.15946120E+03</rscale>
<asrwt>0</asrwt>
<pdfrwt beam="1">  1       21 0.18893554E+00 0.15946120E+03</pdfrwt>
<pdfrwt beam="2">  1       21 0.21402518E-02 0.15946120E+03</pdfrwt>
<totfact> 0.17764068E+05</totfact>
</mgrwt>
</event>
<event>
 6    1  0.4202038E-002  0.1281061E+03  0.7546771E-02  0.1230293E+00
         21   -1    0    0  504  502  0.00000000000E+00  0.00000000000E+00  0.46741650478E+02  0.46741650478E+02  0.00000000000E+00 0. -1.
         21   -1    0    0  502  503 -0.00000000000E+00 -0.00000000000E+00 -0.13167319470E+03  0.13167319470E+03  0.00000000000E+00 0. -1.
         25    2    1    2    0    0  0.27459570627E+02 -0.58206191396E+01 -0.76023152051E+02  0.14896544659E+03  0.12499310782E+03 0.  0.
          5    1    3    3  501    0  0.61465282044E+02 -0.16454222597E+02  0.14991849613E+01  0.63647308612E+02  0.10000000000E+00 0.  1.
         -5    1    3    3    0  501 -0.34005711417E+02  0.10633603458E+02 -0.77522337012E+02  0.85318137974E+02  0.10000000000E+00 0.  1.
         21    1    1    2  504  503 -0.27459570627E+02  0.58206191396E+01 -0.89083921663E+01  0.29449398587E+02  0.00000000000E+00 0. -1.
<mgrwt>
<rscale>  1 0.12810615E+03</rscale>
<asrwt>0</asrwt>
<pdfrwt beam="1">  1       21 0.71910232E-02 0.12810615E+03</pdfrwt>
<pdfrwt beam="2">  1       21 0.20257415E-01 0.12810615E+03</pdfrwt>
<totfact> 0.32190955E+06</totfact>
</mgrwt>
</event>
<event>
 6    1  0.4202038E-002  0.1269600E+03  0.7546771E-02  0.1232038E+00
         21   -1    0    0  503  502  0.00000000000E+00  0.00000000000E+00  0.20577676664E+03  0.20577676664E+03  0.00000000000E+00 0. -1.
         21   -1    0    0  504  503 -0.00000000000E+00 -0.00000000000E+00 -0.29469972755E+02  0.29469972755E+02  0.00000000000E+00 0. -1.
         25    2    1    2    0    0 -0.22091844404E+02  0.23603656066E+01  0.16995246144E+03  0.21213833279E+03  0.12500084870E+03 0.  0.
          5    1    3    3  501    0 -0.45221684335E+01 -0.51557969449E+02  0.13723082759E+03  0.14666623423E+03  0.10000000000E+00 0.  1.
         -5    1    3    3    0  501 -0.17569675971E+02  0.53918335055E+02  0.32721633847E+02  0.65472098565E+02  0.10000000000E+00 0.  1.
         21    1    1    2  504  502  0.22091844404E+02 -0.23603656066E+01  0.63543324485E+01  0.23108406606E+02  0.00000000000E+00 0. -1.
<mgrwt>
<rscale>  1 0.12695997E+03</rscale>
<asrwt>0</asrwt>
<pdfrwt beam="1">  1       21 0.31657963E-01 0.12695997E+03</pdfrwt>
<pdfrwt beam="2">  1       21 0.45338421E-02 0.12695997E+03</pdfrwt>
<totfact> 0.30148488E+06</totfact>
</mgrwt>
</event>
<event>
 6    1  0.4202038E-002  0.1285245E+03  0.7546771E-02  0.1229662E+00
         21   -1    0    0  504  502  0.00000000000E+00  0.00000000000E+00  0.43717060342E+02  0.43717060342E+02  0.00000000000E+00 0.  1.
         21   -1    0    0  502  503 -0.00000000000E+00 -0.00000000000E+00 -0.14923890297E+03  0.14923890297E+03  0.00000000000E+00 0.  1.
         25    2    1    2    0    0  0.25801261398E+02 -0.15092578128E+02 -0.69381657515E+02  0.14605602745E+03  0.12500023100E+03 0.  0.
          5    1    3    3  501    0 -0.45951093696E+02 -0.89724013044E+01 -0.11214252625E+01  0.46832409628E+02  0.10000000000E+00 0. -1.
         -5    1    3    3    0  501  0.71752355093E+02 -0.61201768233E+01 -0.68260232253E+02  0.99223617818E+02  0.10000000000E+00 0. -1.
         21    1    1    2  504  503 -0.25801261398E+02  0.15092578128E+02 -0.36140185114E+02  0.46899935867E+02  0.00000000000E+00 0.  1.
<mgrwt>
<rscale>  1 0.12852451E+03</rscale>
<asrwt>0</asrwt>
<pdfrwt beam="1">  1       21 0.67257017E-02 0.12852451E+03</pdfrwt>
<pdfrwt beam="2">  1       21 0.22959831E-01 0.12852451E+03</pdfrwt>
<totfact> 0.28589079E+06</totfact>
</mgrwt>
</event>
<event>
 6    1  0.4202038E-002  0.1303770E+03  0.7546771E-02  0.1226897E+00
         21   -1    0    0  503  502  0.00000000000E+00  0.00000000000E+00  0.33073820616E+03  0.33073820616E+03  0.00000000000E+00 0. -1.
         21   -1    0    0  504  503 -0.00000000000E+00 -0.00000000000E+00 -0.27879691055E+02  0.27879691055E+02  0.00000000000E+00 0. -1.
         25    2    1    2    0    0  0.26430396312E+01 -0.36959454586E+02  0.29234780726E+03  0.32010216120E+03  0.12500066501E+03 0.  0.
          5    1    3    3  501    0  0.42441923387E+02 -0.67052234405E+02  0.19936526197E+03  0.21457827635E+03  0.10000000000E+00 0. -1.
         -5    1    3    3    0  501 -0.39798883756E+02  0.30092779819E+02  0.92982545287E+02  0.10552388485E+03  0.10000000000E+00 0. -1.
         21    1    1    2  504  502 -0.26430396312E+01  0.36959454586E+02  0.10510707850E+02  0.38515736022E+02  0.00000000000E+00 0. -1.
<mgrwt>
<rscale>  1 0.13037697E+03</rscale>
<asrwt>0</asrwt>
<pdfrwt beam="1">  1       21 0.50882798E-01 0.13037697E+03</pdfrwt>
<pdfrwt beam="2">  1       21 0.42891835E-02 0.13037697E+03</pdfrwt>
<totfact> 0.12803416E+06</totfact>
</mgrwt>
</event>
<event>
 6    1  0.4202038E-002  0.2248367E+03  0.7546771E-02  0.1130328E+00
         21   -1    0    0  504  502  0.00000000000E+00  0.00000000000E+00  0.21018476879E+03  0.21018476879E+03  0.00000000000E+00 0. -1.
         21   -1    0    0  502  503 -0.00000000000E+00 -0.00000000000E+00 -0.21476314812E+03  0.21476314812E+03  0.00000000000E+00 0. -1.
         25    2    1    2    0    0  0.35212754099E+02 -0.18354047535E+03  0.49847984530E+02  0.23029624540E+03  0.12499797975E+03 0.  0.
          5    1    3    3  501    0  0.22391551562E+02 -0.14385748172E+03 -0.21980124516E+02  0.14723957518E+03  0.10000000000E+00 0.  1.
         -5    1    3    3    0  501  0.12821202537E+02 -0.39682993630E+02  0.71828109046E+02  0.83056670214E+02  0.10000000000E+00 0.  1.
         21    1    1    2  504  503 -0.35212754099E+02  0.18354047535E+03 -0.54426363858E+02  0.19465167152E+03  0.00000000000E+00 0. -1.
<mgrwt>
<rscale>  1 0.22483669E+03</rscale>
<asrwt>0</asrwt>
<pdfrwt beam="1">  1       21 0.32336118E-01 0.22483669E+03</pdfrwt>
<pdfrwt beam="2">  1       21 0.33040484E-01 0.22483669E+03</pdfrwt>
<totfact> 0.80077259E+04</totfact>
</mgrwt>
</event>
<event>
 6    1  0.4202038E-002  0.1308982E+03  0.7546771E-02  0.1226129E+00
         21   -1    0    0  504  502  0.00000000000E+00  0.00000000000E+00  0.86481513140E+01  0.86481513140E+01  0.00000000000E+00 0.  1.
         21   -1    0    0  502  503 -0.00000000000E+00 -0.00000000000E+00 -0.89236835052E+03  0.89236835052E+03  0.00000000000E+00 0.  1.
         25    2    1    2    0    0 -0.35713666426E+02  0.15312305907E+02 -0.76445050231E+03  0.77557650312E+03  0.12499763604E+03 0.  0.
          5    1    3    3  501    0 -0.44125304070E+02 -0.24278603238E+02 -0.12385015526E+03  0.13369878081E+03  0.10000000000E+00 0.  1.
         -5    1    3    3    0  501  0.84116376434E+01  0.39590909146E+02 -0.64060034706E+03  0.64187772230E+03  0.10000000000E+00 0.  1.
         21    1    1    2  504  503  0.35713666426E+02 -0.15312305907E+02 -0.11926969689E+03  0.12543999872E+03  0.00000000000E+00 0.  1.
<mgrwt>
<rscale>  1 0.13089821E+03</rscale>
<asrwt>0</asrwt>
<pdfrwt beam="1">  1       21 0.13304845E-02 0.13089821E+03</pdfrwt>
<pdfrwt beam="2">  1       21 0.13728747E+00 0.13089821E+03</pdfrwt>
<totfact> 0.90417730E+05</totfact>
</mgrwt>
</event>
<event>
 6    1  0.4202038E-002  0.1291367E+03  0.7546771E-02  0.1228742E+00
         21   -1    0    0  503  502  0.00000000000E+00  0.00000000000E+00  0.71655357383E+03  0.71655357383E+03  0.00000000000E+00 0.  1.
         21   -1    0    0  504  503 -0.00000000000E+00 -0.00000000000E+00 -0.92260202556E+01  0.92260202556E+01  0.00000000000E+00 0.  1.
         25    2    1    2    0    0 -0.23402667718E+02  0.22415494884E+02  0.59610224103E+03  0.60992965055E+03  0.12500463027E+03 0.  0.
          5    1    3    3  501    0 -0.29505137847E+02  0.72670288041E+02  0.37273635140E+03  0.38089883378E+03  0.10000000000E+00 0. -1.
         -5    1    3    3    0  501  0.61024701292E+01 -0.50254793157E+02  0.22336588963E+03  0.22903081676E+03  0.10000000000E+00 0. -1.
         21    1    1    2  504  502  0.23402667718E+02 -0.22415494884E+02  0.11122531254E+03  0.11584994354E+03  0.00000000000E+00 0.  1.
<mgrwt>
<rscale>  1 0.12913674E+03</rscale>
<asrwt>0</asrwt>
<pdfrwt beam="1">  1       21 0.11023897E+00 0.12913674E+03</pdfrwt>
<pdfrwt beam="2">  1       21 0.14193883E-02 0.12913674E+03</pdfrwt>
<totfact> 0.13977187E+06</totfact>
</mgrwt>
</event>
<event>
 6    1  0.4202038E-002  0.1261364E+03  0.7546771E-02  0.1233304E+00
         21   -1    0    0  504  502  0.00000000000E+00  0.00000000000E+00  0.22212220826E+02  0.22212220826E+02  0.00000000000E+00 0. -1.
         21   -1    0    0  502  503 -0.00000000000E+00 -0.00000000000E+00 -0.23185524234E+03  0.23185524234E+03  0.00000000000E+00 0. -1.
         25    2    1    2    0    0 -0.12205502953E+02 -0.11673052725E+02 -0.17744370108E+03  0.21770772308E+03  0.12500060470E+03 0.  0.
          5    1    3    3  501    0 -0.36437884892E+02 -0.49076312730E+02 -0.39582076004E+02  0.72821388804E+02  0.10000000000E+00 0. -1.
         -5    1    3    3    0  501  0.24232381939E+02  0.37403260004E+02 -0.13786162507E+03  0.14488633428E+03  0.10000000000E+00 0. -1.
         21    1    1    2  504  503  0.12205502953E+02  0.11673052725E+02 -0.32199320444E+02  0.36359740088E+02  0.00000000000E+00 0. -1.
<mgrwt>
<rscale>  1 0.12613638E+03</rscale>
<asrwt>0</asrwt>
<pdfrwt beam="1">  1       21 0.34172646E-02 0.12613638E+03</pdfrwt>
<pdfrwt beam="2">  1       21 0.35670039E-01 0.12613638E+03</pdfrwt>
<totfact> 0.38163523E+06</totfact>
</mgrwt>
</event>
<event>
 6    1  0.4202038E-002  0.1391102E+03  0.7546771E-02  0.1214531E+00
         21   -1    0    0  503  502  0.00000000000E+00  0.00000000000E+00  0.18842009981E+03  0.18842009981E+03  0.00000000000E+00 0.  1.
         21   -1    0    0  504  503 -0.00000000000E+00 -0.00000000000E+00 -0.60422658244E+02  0.60422658244E+02  0.00000000000E+00 0.  1.
         25    2    1    2    0    0  0.59872967612E+02 -0.11839120591E+02  0.12613674101E+03  0.18778213872E+03  0.12500686846E+03 0.  0.
          5    1    3    3  501    0  0.28814590288E+02 -0.59539690415E+02  0.11044575127E+03  0.12873822013E+03  0.10000000000E+00 0. -1.
         -5    1    3    3    0  501  0.31058377324E+02  0.47700569823E+02  0.15690989736E+02  0.59043918589E+02  0.10000000000E+00 0. -1.
         21    1    1    2  504  502 -0.59872967612E+02  0.11839120591E+02  0.18607005592E+01  0.61060619335E+02  0.00000000000E+00 0.  1.
<mgrwt>
<rscale>  1 0.13911022E+03</rscale>
<asrwt>0</asrwt>
<pdfrwt beam="1">  1       21 0.28987707E-01 0.13911022E+03</pdfrwt>
<pdfrwt beam="2">  1       21 0.92957937E-02 0.13911022E+03</pdfrwt>
<totfact> 0.10527146E+06</totfact>
</mgrwt>
</event>
<event>
 6    1  0.4202038E-002  0.1264667E+03  0.7546771E-02  0.1232795E+00
         21   -1    0    0  503  502  0.00000000000E+00  0.00000000000E+00  0.54601515207E+02  0.54601515207E+02  0.00000000000E+00 0. -1.
         21   -1    0    0  504  503 -0.00000000000E+00 -0.00000000000E+00 -0.30915908955E+03  0.30915908955E+03  0.00000000000E+00 0. -1.
         25    2    1    2    0    0 -0.82920243920E+01 -0.17310819966E+02 -0.19548051303E+02  0.12796853942E+03  0.12500159445E+03 0.  0.
          5    1    3    3  501    0 -0.17811388623E+02  0.13096939546E+02  0.48240279814E+02  0.53065148513E+02  0.10000000000E+00 0.  1.
         -5    1    3    3    0  501  0.95193642306E+01 -0.30407759512E+02 -0.67788331117E+02  0.74903390908E+02  0.10000000000E+00 0.  1.
         21    1    1    2  504  502  0.82920243920E+01  0.17310819966E+02 -0.23500952304E+03  0.23579206534E+03  0.00000000000E+00 0. -1.
<mgrwt>
<rscale>  1 0.12646668E+03</rscale>
<asrwt>0</asrwt>
<pdfrwt beam="1">  1       21 0.84002331E-02 0.12646668E+03</pdfrwt>
<pdfrwt beam="2">  1       21 0.47562937E-01 0.12646668E+03</pdfrwt>
<totfact> 0.47034361E+05</totfact>
</mgrwt>
</event>
<event>
 6    1  0.4202038E-002  0.1281162E+03  0.7546771E-02  0.1230278E+00
         21   -1    0    0  504  502  0.00000000000E+00  0.00000000000E+00  0.45407913683E+02  0.45407913683E+02  0.00000000000E+00 0. -1.
         21   -1    0    0  502  503 -0.00000000000E+00 -0.00000000000E+00 -0.17755882765E+03  0.17755882765E+03  0.00000000000E+00 0. -1.
         25    2    1    2    0    0  0.62973022251E+01  0.27375327561E+02 -0.52408049129E+02  0.13842096044E+03  0.12499877640E+03 0.  0.
          5    1    3    3  501    0  0.70932996058E+01  0.57868885511E+02  0.18551662863E+02  0.61182489362E+02  0.10000000000E+00 0.  1.
         -5    1    3    3    0  501 -0.79599738074E+00 -0.30493557950E+02 -0.70959711992E+02  0.77238471077E+02  0.10000000000E+00 0.  1.
         21    1    1    2  504  503 -0.62973022251E+01 -0.27375327561E+02 -0.79742864842E+02  0.84545780897E+02  0.00000000000E+00 0. -1.
<mgrwt>
<rscale>  1 0.12811619E+03</rscale>
<asrwt>0</asrwt>
<pdfrwt beam="1">  1       21 0.69858329E-02 0.12811619E+03</pdfrwt>
<pdfrwt beam="2">  1       21 0.27316743E-01 0.12811619E+03</pdfrwt>
<totfact> 0.19292215E+06</totfact>
</mgrwt>
</event>
<event>
 6    1  0.4202038E-002  0.1285799E+03  0.7546771E-02  0.1229578E+00
         21   -1    0    0  504  502  0.00000000000E+00  0.00000000000E+00  0.14629002545E+03  0.14629002545E+03  0.00000000000E+00 0.  1.
         21   -1    0    0  502  503 -0.00000000000E+00 -0.00000000000E+00 -0.58223500969E+02  0.58223500969E+02  0.00000000000E+00 0.  1.
         25    2    1    2    0    0  0.20558141125E+02  0.22039849647E+02  0.10838326033E+03  0.16816573565E+03  0.12499756553E+03 0.  0.
          5    1    3    3  501    0 -0.44050916907E+02 -0.21208372174E+02  0.56397485448E+02  0.74638895326E+02  0.10000000000E+00 0. -1.
         -5    1    3    3    0  501  0.64609058032E+02  0.43248221822E+02  0.51985774879E+02  0.93526840321E+02  0.10000000000E+00 0. -1.
         21    1    1    2  504  503 -0.20558141125E+02 -0.22039849647E+02 -0.20316735842E+02  0.36347790776E+02  0.00000000000E+00 0.  1.
<mgrwt>
<rscale>  1 0.12857987E+03</rscale>
<asrwt>0</asrwt>
<pdfrwt beam="1">  1       21 0.22506158E-01 0.12857987E+03</pdfrwt>
<pdfrwt beam="2">  1       21 0.89574617E-02 0.12857987E+03</pdfrwt>
<totfact> 0.18124051E+06</totfact>
</mgrwt>
</event>
<event>
 6    1  0.4202038E-002  0.1283847E+03  0.7546771E-02  0.1229872E+00
         21   -1    0    0  503  502  0.00000000000E+00  0.00000000000E+00  0.89056841765E+01  0.89056841765E+01  0.00000000000E+00 0.  1.
         21   -1    0    0  504  503 -0.00000000000E+00 -0.00000000000E+00 -0.76518963625E+03  0.76518963625E+03  0.00000000000E+00 0.  1.
         25    2    1    2    0    0  0.86847086413E+01 -0.28003806827E+02 -0.50323742418E+03  0.51935587975E+03  0.12499194921E+03 0.  0.
          5    1    3    3  501    0  0.50671462124E+02  0.20086591867E+02 -0.13436968282E+03  0.14500444789E+03  0.10000000000E+00 0.  1.
         -5    1    3    3    0  501 -0.41986753483E+02 -0.48090398694E+02 -0.36886774136E+03  0.37435143185E+03  0.10000000000E+00 0.  1.
         21    1    1    2  504  502 -0.86847086413E+01  0.28003806827E+02 -0.25304652789E+03  0.25473944068E+03  0.00000000000E+00 0.  1.
<mgrwt>
<rscale>  1 0.12838467E+03</rscale>
<asrwt>0</asrwt>
<pdfrwt beam="1">  1       21 0.13701049E-02 0.12838467E+03</pdfrwt>
<pdfrwt beam="2">  1       21 0.11772152E+00 0.12838467E+03</pdfrwt>
<totfact> 0.12628715E+06</totfact>
</mgrwt>
</event>
<event>
 6    1  0.4202038E-002  0.1457442E+03  0.7546771E-02  0.1205802E+00
         21   -1    0    0  503  502  0.00000000000E+00  0.00000000000E+00  0.64986623306E+03  0.64986623306E+03  0.00000000000E+00 0.  1.
         21   -1    0    0  504  503 -0.00000000000E+00 -0.00000000000E+00 -0.18750510708E+02  0.18750510708E+02  0.00000000000E+00 0.  1.
         25    2    1    2    0    0 -0.15868602239E+02 -0.73258235701E+02  0.40856394888E+03  0.43378090001E+03  0.12499114873E+03 0.  0.
          5    1    3    3  501    0  0.54079198214E+02 -0.38577281300E+02  0.15993524610E+03  0.17318215629E+03  0.10000000000E+00 0.  1.
         -5    1    3    3    0  501 -0.69947800453E+02 -0.34680954401E+02  0.24862870278E+03  0.26059874372E+03  0.10000000000E+00 0.  1.
         21    1    1    2  504  502  0.15868602239E+02  0.73258235701E+02  0.22255177348E+03  0.23483584376E+03  0.00000000000E+00 0. -1.
<mgrwt>
<rscale>  1 0.14574419E+03</rscale>
<asrwt>0</asrwt>
<pdfrwt beam="1">  1       21 0.99979403E-01 0.14574419E+03</pdfrwt>
<pdfrwt beam="2">  1       21 0.28846945E-02 0.14574419E+03</pdfrwt>
<totfact> 0.55932105E+05</totfact>
</mgrwt>
</event>
<event>
 6    1  0.4202038E-002  0.1345491E+03  0.7546771E-02  0.1220858E+00
         21   -1    0    0  503  502  0.00000000000E+00  0.00000000000E+00  0.23832011301E+03  0.23832011301E+03  0.00000000000E+00 0.  1.
         21   -1    0    0  504  503 -0.00000000000E+00 -0.00000000000E+00 -0.45110311470E+02  0.45110311470E+02  0.00000000000E+00 0.  1.
         25    2    1    2    0    0 -0.27218423416E+01 -0.49717366266E+02  0.19094359288E+03  0.23358706348E+03  0.12499694247E+03 0.  0.
          5    1    3    3  501    0 -0.12187871209E+02  0.35927087128E+02  0.21787576867E+02  0.43749380565E+02  0.10000000000E+00 0. -1.
         -5    1    3    3    0  501  0.94660288673E+01 -0.85644453394E+02  0.16915601602E+03  0.18983768292E+03  0.10000000000E+00 0. -1.
         21    1    1    2  504  502  0.27218423416E+01  0.49717366266E+02  0.22662086557E+01  0.49843361001E+02  0.00000000000E+00 0.  1.
<mgrwt>
<rscale>  1 0.13454910E+03</rscale>
<asrwt>0</asrwt>
<pdfrwt beam="1">  1       21 0.36664632E-01 0.13454910E+03</pdfrwt>
<pdfrwt beam="2">  1       21 0.69400481E-02 0.13454910E+03</pdfrwt>
<totfact> 0.11025158E+06</totfact>
</mgrwt>
</event>
<event>
 6    1  0.4202038E-002  0.1722520E+03  0.7546771E-02  0.1175520E+00
         21   -1    0    0  503  502  0.00000000000E+00  0.00000000000E+00  0.73609714412E+02  0.73609714412E+02  0.00000000000E+00 0.  1.
         21   -1    0    0  504  503 -0.00000000000E+00 -0.00000000000E+00 -0.46677176696E+03  0.46677176696E+03  0.00000000000E+00 0.  1.
         25    2    1    2    0    0 -0.46061853179E+02 -0.10919423047E+03 -0.53085469126E+02  0.18024656654E+03  0.12500273370E+03 0.  0.
          5    1    3    3  501    0  0.27702475258E+02 -0.56737912322E+02 -0.62995696049E+02  0.89191286294E+02  0.10000000000E+00 0. -1.
         -5    1    3    3    0  501 -0.73764328437E+02 -0.52456318150E+02  0.99102269228E+01  0.91055280249E+02  0.10000000000E+00 0. -1.
         21    1    1    2  504  502  0.46061853179E+02  0.10919423047E+03 -0.34007658343E+03  0.36013491483E+03  0.00000000000E+00 0.  1.
<mgrwt>
<rscale>  1 0.17225202E+03</rscale>
<asrwt>0</asrwt>
<pdfrwt beam="1">  1       21 0.11324572E-01 0.17225202E+03</pdfrwt>
<pdfrwt beam="2">  1       21 0.71811040E-01 0.17225202E+03</pdfrwt>
<totfact> 0.11484266E+05</totfact>
</mgrwt>
</event>
<event>
 6    1  0.4202038E-002  0.1287503E+03  0.7546771E-02  0.1229322E+00
         21   -1    0    0  504  502  0.00000000000E+00  0.00000000000E+00  0.52617857452E+03  0.52617857452E+03  0.00000000000E+00 0.  1.
         21   -1    0    0  502  503 -0.00000000000E+00 -0.00000000000E+00 -0.12107866243E+02  0.12107866243E+02  0.00000000000E+00 0.  1.
         25    2    1    2    0    0  0.49827689846E+01 -0.30429472285E+02  0.42000633419E+03  0.43929711183E+03  0.12500340368E+03 0.  0.
          5    1    3    3  501    0  0.49513492809E+02 -0.50847310286E+02  0.32200567661E+03  0.32973428803E+03  0.10000000000E+00 0.  1.
         -5    1    3    3    0  501 -0.44530723825E+02  0.20417838001E+02  0.98000657580E+02  0.10956282380E+03  0.10000000000E+00 0.  1.
         21    1    1    2  504  503 -0.49827689846E+01  0.30429472285E+02  0.94064374088E+02  0.98989328934E+02  0.00000000000E+00 0.  1.
<mgrwt>
<rscale>  1 0.12875027E+03</rscale>
<asrwt>0</asrwt>
<pdfrwt beam="1">  1       21 0.80950532E-01 0.12875027E+03</pdfrwt>
<pdfrwt beam="2">  1       21 0.18627491E-02 0.12875027E+03</pdfrwt>
<totfact> 0.18474466E+06</totfact>
</mgrwt>
</event>
<event>
 6    1  0.4202038E-002  0.1413251E+03  0.7546771E-02  0.1211557E+00
         21   -1    0    0  504  502  0.00000000000E+00  0.00000000000E+00  0.75479254605E+01  0.75479254605E+01  0.00000000000E+00 0. -1.
         21   -1    0    0  502  503 -0.00000000000E+00 -0.00000000000E+00 -0.14714281275E+04  0.14714281275E+04  0.00000000000E+00 0. -1.
         25    2    1    2    0    0 -0.63799119483E+02 -0.16629170196E+02 -0.86377689542E+03  0.87526185273E+03  0.12500371526E+03 0.  0.
          5    1    3    3  501    0 -0.82605578675E+02 -0.18122704578E+02 -0.84286649008E+03  0.84709860356E+03  0.10000000000E+00 0.  1.
         -5    1    3    3    0  501  0.18806459192E+02  0.14935343819E+01 -0.20910405341E+02  0.28163249170E+02  0.10000000000E+00 0.  1.
         21    1    1    2  504  503  0.63799119483E+02  0.16629170196E+02 -0.60010330660E+03  0.60371420022E+03  0.00000000000E+00 0. -1.
<mgrwt>
<rscale>  1 0.14132511E+03</rscale>
<asrwt>0</asrwt>
<pdfrwt beam="1">  1       21 0.11612203E-02 0.14132511E+03</pdfrwt>
<pdfrwt beam="2">  1       21 0.22637336E+00 0.14132511E+03</pdfrwt>
<totfact> 0.27968219E+05</totfact>
</mgrwt>
</event>
<event>
 6    1  0.4202038E-002  0.1263392E+03  0.7546771E-02  0.1232991E+00
         21   -1    0    0  503  502  0.00000000000E+00  0.00000000000E+00  0.67983864802E+03  0.67983864802E+03  0.00000000000E+00 0. -1.
         21   -1    0    0  504  503 -0.00000000000E+00 -0.00000000000E+00 -0.77033786583E+01  0.77033786583E+01  0.00000000000E+00 0. -1.
         25    2    1    2    0    0  0.11874317924E+02  0.14027118891E+02  0.58315106397E+03  0.59667977764E+03  0.12499533651E+03 0.  0.
          5    1    3    3  501    0  0.50692728603E+02  0.27932970075E+02  0.13831673598E+03  0.14993843071E+03  0.10000000000E+00 0.  1.
         -5    1    3    3    0  501 -0.38818410679E+02 -0.13905851184E+02  0.44483432799E+03  0.44674134693E+03  0.10000000000E+00 0.  1.
         21    1    1    2  504  502 -0.11874317924E+02 -0.14027118891E+02  0.88984205393E+02  0.90862249036E+02  0.00000000000E+00 0. -1.
<mgrwt>
<rscale>  1 0.12633920E+03</rscale>
<asrwt>0</asrwt>
<pdfrwt beam="1">  1       21 0.10459051E+00 0.12633920E+03</pdfrwt>
<pdfrwt beam="2">  1       21 0.11851357E-02 0.12633920E+03</pdfrwt>
<totfact> 0.21091582E+06</totfact>
</mgrwt>
</event>
<event>
 6    1  0.4202038E-002  0.1266130E+03  0.7546771E-02  0.1232570E+00
         21   -1    0    0  503  502  0.00000000000E+00  0.00000000000E+00  0.27610548284E+02  0.27610548284E+02  0.00000000000E+00 0.  1.
         21   -1    0    0  504  503 -0.00000000000E+00 -0.00000000000E+00 -0.22381836131E+03  0.22381836131E+03  0.00000000000E+00 0.  1.
         25    2    1    2    0    0  0.13205488273E+02 -0.15235683293E+02 -0.12695104454E+03  0.17929700994E+03  0.12499735637E+03 0.  0.
          5    1    3    3  501    0  0.65459075884E+02  0.29235091316E+01 -0.41692080793E+02  0.77663872695E+02  0.10000000000E+00 0.  1.
         -5    1    3    3    0  501 -0.52253587611E+02 -0.18159192425E+02 -0.85258963747E+02  0.10163313725E+03  0.10000000000E+00 0.  1.
         21    1    1    2  504  502 -0.13205488273E+02  0.15235683293E+02 -0.69256768488E+02  0.72131899651E+02  0.00000000000E+00 0.  1.
<mgrwt>
<rscale>  1 0.12661299E+03</rscale>
<asrwt>0</asrwt>
<pdfrwt beam="1">  1       21 0.42477767E-02 0.12661299E+03</pdfrwt>
<pdfrwt beam="2">  1       21 0.34433594E-01 0.12661299E+03</pdfrwt>
<totfact> 0.28528403E+06</totfact>
</mgrwt>
</event>
<event>
 6    1  0.4202038E-002  0.1263092E+03  0.7546771E-02  0.1233037E+00
         21   -1    0    0  503  502  0.00000000000E+00  0.00000000000E+00  0.32085851935E+03  0.32085851935E+03  0.00000000000E+00 0. -1.
         21   -1    0    0  504  503 -0.00000000000E+00 -0.00000000000E+00 -0.41068590967E+02  0.41068590967E+02  0.00000000000E+00 0. -1.
         25    2    1    2    0    0  0.45951734429E+01 -0.17521421737E+02  0.30543972949E+03  0.33052602537E+03  0.12500363700E+03 0.  0.
          5    1    3    3  501    0 -0.12427691232E+02 -0.64719652820E+02  0.10554128847E+03  0.12442690442E+03  0.10000000000E+00 0. -1.
         -5    1    3    3    0  501  0.17022864675E+02  0.47198231084E+02  0.19989844102E+03  0.20609912096E+03  0.10000000000E+00 0. -1.
         21    1    1    2  504  502 -0.45951734429E+01  0.17521421737E+02 -0.25649801106E+02  0.31401084940E+02  0.00000000000E+00 0. -1.
<mgrwt>
<rscale>  1 0.12630924E+03</rscale>
<asrwt>0</asrwt>
<pdfrwt beam="1">  1       21 0.49362847E-01 0.12630924E+03</pdfrwt>
<pdfrwt beam="2">  1       21 0.63182450E-02 0.12630924E+03</pdfrwt>
<totfact> 0.71007630E+05</totfact>
</mgrwt>
</event>
<event>
 6    1  0.4202038E-002  0.1274168E+03  0.7546771E-02  0.1231340E+00
         21   -1    0    0  503  502  0.00000000000E+00  0.00000000000E+00  0.25735836585E+02  0.25735836585E+02  0.00000000000E+00 0.  1.
         21   -1    0    0  504  503 -0.00000000000E+00 -0.00000000000E+00 -0.23389661475E+03  0.23389661475E+03  0.00000000000E+00 0.  1.
         25    2    1    2    0    0  0.22116319209E+02 -0.11023512886E+02 -0.15244135801E+03  0.19867916435E+03  0.12499757319E+03 0.  0.
          5    1    3    3  501    0  0.32605733531E+02  0.30260528455E+02 -0.44808595012E+01  0.44709300412E+02  0.10000000000E+00 0.  1.
         -5    1    3    3    0  501 -0.10489414323E+02 -0.41284041341E+02 -0.14796049851E+03  0.15396986394E+03  0.10000000000E+00 0.  1.
         21    1    1    2  504  502 -0.22116319209E+02  0.11023512886E+02 -0.55719420160E+02  0.60953286988E+02  0.00000000000E+00 0.  1.
<mgrwt>
<rscale>  1 0.12741681E+03</rscale>
<asrwt>0</asrwt>
<pdfrwt beam="1">  1       21 0.39593594E-02 0.12741681E+03</pdfrwt>
<pdfrwt beam="2">  1       21 0.35984095E-01 0.12741681E+03</pdfrwt>
<totfact> 0.29413897E+06</totfact>
</mgrwt>
</event>
<event>
 6    1  0.4202038E-002  0.1260221E+03  0.7546771E-02  0.1233480E+00
         21   -1    0    0  503  502  0.00000000000E+00  0.00000000000E+00  0.16666163671E+02  0.16666163671E+02  0.00000000000E+00 0. -1.
         21   -1    0    0  504  503 -0.00000000000E+00 -0.00000000000E+00 -0.31301730424E+03  0.31301730424E+03  0.00000000000E+00 0. -1.
         25    2    1    2    0    0  0.14076156265E+02 -0.75193872287E+01 -0.23946598524E+03  0.27060216583E+03  0.12500757858E+03 0.  0.
          5    1    3    3  501    0  0.68602568512E+02 -0.16003621967E+02 -0.14481209197E+03  0.16103720161E+03  0.10000000000E+00 0.  1.
         -5    1    3    3    0  501 -0.54526412247E+02  0.84842347384E+01 -0.94653893279E+02  0.10956496422E+03  0.10000000000E+00 0.  1.
         21    1    1    2  504  502 -0.14076156265E+02  0.75193872287E+01 -0.56885155325E+02  0.59081302084E+02  0.00000000000E+00 0. -1.
<mgrwt>
<rscale>  1 0.12602212E+03</rscale>
<asrwt>0</asrwt>
<pdfrwt beam="1">  1       21 0.25640254E-02 0.12602212E+03</pdfrwt>
<pdfrwt beam="2">  1       21 0.48156503E-01 0.12602212E+03</pdfrwt>
<totfact> 0.33440489E+06</totfact>
</mgrwt>
</event>
<event>
 6    1  0.4202038E-002  0.1314321E+03  0.7546771E-02  0.1225346E+00
         21   -1    0    0  503  502  0.00000000000E+00  0.00000000000E+00  0.34285232742E+02  0.34285232742E+02  0.00000000000E+00 0. -1.
         21   -1    0    0  504  503 -0.00000000000E+00 -0.00000000000E+00 -0.21736706687E+03  0.21736706687E+03  0.00000000000E+00 0. -1.
         25    2    1    2    0    0  0.33030425389E+02 -0.23634399064E+02 -0.13054784642E+03  0.18524888340E+03  0.12499925910E+03 0.  0.
          5    1    3    3  501    0 -0.12390020338E+02 -0.42311081351E+02 -0.12876768629E+03  0.13610608819E+03  0.10000000000E+00 0. -1.
         -5    1    3    3    0  501  0.45420445727E+02  0.18676682288E+02 -0.17801601324E+01  0.49142795213E+02  0.10000000000E+00 0. -1.
         21    1    1    2  504  502 -0.33030425389E+02  0.23634399064E+02 -0.52533987705E+02  0.66403416212E+02  0.00000000000E+00 0. -1.
<mgrwt>
<rscale>  1 0.13143214E+03</rscale>
<asrwt>0</asrwt>
<pdfrwt beam="1">  1       21 0.52746511E-02 0.13143214E+03</pdfrwt>
<pdfrwt beam="2">  1       21 0.33441088E-01 0.13143214E+03</pdfrwt>
<totfact> 0.21044404E+06</totfact>
</mgrwt>
</event>
<event>
 6    1  0.4202038E-002  0.1261026E+03  0.7546771E-02  0.1233356E+00
         21   -1    0    0  503  502  0.00000000000E+00  0.00000000000E+00  0.67283131059E+03  0.67283131059E+03  0.00000000000E+00 0. -1.
         21   -1    0    0  504  503 -0.00000000000E+00 -0.00000000000E+00 -0.90247555221E+01  0.90247555221E+01  0.00000000000E+00 0. -1.
         25    2    1    2    0    0 -0.16401299954E+02 -0.25554175283E+01  0.64295341667E+03  0.65520299537E+03  0.12500534523E+03 0.  0.
          5    1    3    3  501    0 -0.58355788827E+02 -0.26686921186E+02  0.50385641130E+03  0.50792606063E+03  0.10000000000E+00 0. -1.
         -5    1    3    3    0  501  0.41954488873E+02  0.24131503658E+02  0.13909700537E+03  0.14727693474E+03  0.10000000000E+00 0. -1.
         21    1    1    2  504  502  0.16401299954E+02  0.25554175283E+01  0.20853138395E+02  0.26653070739E+02  0.00000000000E+00 0. -1.
<mgrwt>
<rscale>  1 0.12610261E+03</rscale>
<asrwt>0</asrwt>
<pdfrwt beam="1">  1       21 0.10351247E+00 0.12610261E+03</pdfrwt>
<pdfrwt beam="2">  1       21 0.13884245E-02 0.12610261E+03</pdfrwt>
<totfact> 0.16810755E+06</totfact>
</mgrwt>
</event>
<event>
 6    1  0.4202038E-002  0.1427359E+03  0.7546771E-02  0.1209694E+00
         21   -1    0    0  503  502  0.00000000000E+00  0.00000000000E+00  0.18028791465E+03  0.18028791465E+03  0.00000000000E+00 0. -1.
         21   -1    0    0  504  503 -0.00000000000E+00 -0.00000000000E+00 -0.13899403244E+03  0.13899403244E+03  0.00000000000E+00 0. -1.
         25    2    1    2    0    0  0.32178910745E+02 -0.60926717439E+02  0.13932288073E+03  0.19946028067E+03  0.12500396503E+03 0.  0.
          5    1    3    3  501    0  0.19803975140E+01  0.37608048438E+02  0.53045416993E+02  0.65054696569E+02  0.10000000000E+00 0. -1.
         -5    1    3    3    0  501  0.30198513231E+02 -0.98534765877E+02  0.86277463736E+02  0.13440558410E+03  0.10000000000E+00 0. -1.
         21    1    1    2  504  502 -0.32178910745E+02  0.60926717439E+02 -0.98028998520E+02  0.11982166643E+03  0.00000000000E+00 0. -1.
<mgrwt>
<rscale>  1 0.14273590E+03</rscale>
<asrwt>0</asrwt>
<pdfrwt beam="1">  1       21 0.27736602E-01 0.14273590E+03</pdfrwt>
<pdfrwt beam="2">  1       21 0.21383697E-01 0.14273590E+03</pdfrwt>
<totfact> 0.25570132E+05</totfact>
</mgrwt>
</event>
<event>
 6    1  0.4202038E-002  0.1272717E+03  0.7546771E-02  0.1231561E+00
         21   -1    0    0  504  502  0.00000000000E+00  0.00000000000E+00  0.30425919043E+02  0.30425919043E+02  0.00000000000E+00 0. -1.
         21   -1    0    0  502  503 -0.00000000000E+00 -0.00000000000E+00 -0.19053053076E+03  0.19053053076E+03  0.00000000000E+00 0. -1.
         25    2    1    2    0    0  0.65075675679E+00 -0.23927415427E+02 -0.14359283668E+03  0.19187753290E+03  0.12500056077E+03 0.  0.
          5    1    3    3  501    0 -0.51422604052E+02 -0.16350211037E+02 -0.12486003988E+03  0.13602078211E+03  0.10000000000E+00 0. -1.
         -5    1    3    3    0  501  0.52073360809E+02 -0.75772043893E+01 -0.18732796800E+02  0.55856750785E+02  0.10000000000E+00 0. -1.
         21    1    1    2  504  503 -0.65075675679E+00  0.23927415427E+02 -0.16511775040E+02  0.29078916904E+02  0.00000000000E+00 0. -1.
<mgrwt>
<rscale>  1 0.12727170E+03</rscale>
<asrwt>0</asrwt>
<pdfrwt beam="1">  1       21 0.46809106E-02 0.12727170E+03</pdfrwt>
<pdfrwt beam="2">  1       21 0.29312390E-01 0.12727170E+03</pdfrwt>
<totfact> 0.33166419E+06</totfact>
</mgrwt>
</event>
<event>
 6    1  0.4202038E-002  0.1275655E+03  0.7546771E-02  0.1231113E+00
         21   -1    0    0  503  502  0.00000000000E+00  0.00000000000E+00  0.23021447397E+02  0.23021447397E+02  0.00000000000E+00 0. -1.
         21   -1    0    0  504  503 -0.00000000000E+00 -0.00000000000E+00 -0.25413910566E+03  0.25413910566E+03  0.00000000000E+00 0. -1.
         25    2    1    2    0    0  0.12808315404E+02 -0.21931807319E+02 -0.19125373213E+03  0.22989333691E+03  0.12501159620E+03 0.  0.
          5    1    3    3  501    0 -0.24827487202E+02  0.24976294463E+02 -0.67795016612E+01  0.35863505805E+02  0.10000000000E+00 0.  1.
         -5    1    3    3    0  501  0.37635802605E+02 -0.46908101782E+02 -0.18447423047E+03  0.19402983111E+03  0.10000000000E+00 0.  1.
         21    1    1    2  504  502 -0.12808315404E+02  0.21931807319E+02 -0.39863926127E+02  0.47267216144E+02  0.00000000000E+00 0.  1.
<mgrwt>
<rscale>  1 0.12756550E+03</rscale>
<asrwt>0</asrwt>
<pdfrwt beam="1">  1       21 0.35417613E-02 0.12756550E+03</pdfrwt>
<pdfrwt beam="2">  1       21 0.39098323E-01 0.12756550E+03</pdfrwt>
<totfact> 0.30012793E+06</totfact>
</mgrwt>
</event>
<event>
 6    1  0.4202038E-002  0.1281607E+03  0.7546771E-02  0.1230211E+00
         21   -1    0    0  504  502  0.00000000000E+00  0.00000000000E+00  0.64089971610E+01  0.64089971610E+01  0.00000000000E+00 0.  1.
         21   -1    0    0  502  503 -0.00000000000E+00 -0.00000000000E+00 -0.96062960581E+03  0.96062960581E+03  0.00000000000E+00 0.  1.
         25    2    1    2    0    0 -0.51224927433E+01  0.27801907554E+02 -0.75014798346E+03  0.76101719062E+03  0.12500392528E+03 0.  0.
          5    1    3    3  501    0 -0.54488130448E+02  0.29324640945E+02 -0.59473061021E+03  0.59794096669E+03  0.10000000000E+00 0.  1.
         -5    1    3    3    0  501  0.49365637705E+02 -0.15227333908E+01 -0.15541737324E+03  0.16307622392E+03  0.10000000000E+00 0.  1.
         21    1    1    2  504  503  0.51224927433E+01 -0.27801907554E+02 -0.20407262519E+03  0.20602141235E+03  0.00000000000E+00 0.  1.
<mgrwt>
<rscale>  1 0.12816071E+03</rscale>
<asrwt>0</asrwt>
<pdfrwt beam="1">  1       21 0.98599904E-03 0.12816071E+03</pdfrwt>
<pdfrwt beam="2">  1       21 0.14778925E+00 0.12816071E+03</pdfrwt>
<totfact> 0.12037534E+06</totfact>
</mgrwt>
</event>
<event>
 6    1  0.4202038E-002  0.1447630E+03  0.7546771E-02  0.1207060E+00
         21   -1    0    0  503  502  0.00000000000E+00  0.00000000000E+00  0.30675754823E+02  0.30675754823E+02  0.00000000000E+00 0.  1.
         21   -1    0    0  504  503 -0.00000000000E+00 -0.00000000000E+00 -0.10045745166E+04  0.10045745166E+04  0.00000000000E+00 0.  1.
         25    2    1    2    0    0 -0.49204361493E+01 -0.72827902759E+02 -0.15122644319E+03  0.20934600465E+03  0.12501279306E+03 0.  0.
          5    1    3    3  501    0 -0.53735592502E+02 -0.76219687996E+02 -0.11705539673E+03  0.14966272296E+03  0.10000000000E+00 0.  1.
         -5    1    3    3    0  501  0.48815156352E+02  0.33917852366E+01 -0.34171046458E+02  0.59683281686E+02  0.10000000000E+00 0.  1.
         21    1    1    2  504  502  0.49204361493E+01  0.72827902759E+02 -0.82267231856E+03  0.82590426675E+03  0.00000000000E+00 0.  1.
<mgrwt>
<rscale>  1 0.14476295E+03</rscale>
<asrwt>0</asrwt>
<pdfrwt beam="1">  1       21 0.47193474E-02 0.14476295E+03</pdfrwt>
<pdfrwt beam="2">  1       21 0.15454991E+00 0.14476295E+03</pdfrwt>
<totfact> 0.84016159E+04</totfact>
</mgrwt>
</event>
<event>
 6    1  0.4202038E-002  0.1278838E+03  0.7546771E-02  0.1230630E+00
         21   -1    0    0  504  502  0.00000000000E+00  0.00000000000E+00  0.36364829555E+02  0.36364829555E+02  0.00000000000E+00 0.  1.
         21   -1    0    0  502  503 -0.00000000000E+00 -0.00000000000E+00 -0.13722252654E+04  0.13722252654E+04  0.00000000000E+00 0. -1.
         25    2    1    2    0    0  0.49588100123E+01 -0.26584900513E+02 -0.76662891519E+02  0.14910218220E+03  0.12499166000E+03 0.  0.
          5    1    3    3  501    0  0.25719356553E+02 -0.74141553273E+00  0.28760202640E+02  0.38590079740E+02  0.10000000000E+00 0.  1.
         -5    1    3    3    0  501 -0.20760546540E+02 -0.25843484980E+02 -0.10542309416E+03  0.11051210246E+03  0.10000000000E+00 0.  1.
         21    1    1    2  504  503 -0.49588100123E+01  0.26584900513E+02 -0.12591975443E+04  0.12594879128E+04  0.00000000000E+00 0. -1.
<mgrwt>
<rscale>  1 0.12788378E+03</rscale>
<asrwt>0</asrwt>
<pdfrwt beam="1">  1       21 0.55945899E-02 0.12788378E+03</pdfrwt>
<pdfrwt beam="2">  1       21 0.21111155E+00 0.12788378E+03</pdfrwt>
<totfact> 0.26801621E+04</totfact>
</mgrwt>
</event>
<event>
 6    1  0.4202038E-002  0.1260432E+03  0.7546771E-02  0.1233448E+00
         21   -1    0    0  503  502  0.00000000000E+00  0.00000000000E+00  0.88431300153E+03  0.88431300153E+03  0.00000000000E+00 0.  1.
         21   -1    0    0  504  503 -0.00000000000E+00 -0.00000000000E+00 -0.16382477666E+02  0.16382477666E+02  0.00000000000E+00 0.  1.
         25    2    1    2    0    0  0.16217832752E+02  0.62338389520E-01  0.87425038650E+03  0.88328965693E+03  0.12499543096E+03 0.  0.
          5    1    3    3  501    0  0.11778482473E+02  0.19134318042E+01  0.33755610459E+01  0.12401543574E+02  0.10000000000E+00 0.  1.
         -5    1    3    3    0  501  0.44393502786E+01 -0.18510934147E+01  0.87087482545E+03  0.87088811336E+03  0.10000000000E+00 0.  1.
         21    1    1    2  504  502 -0.16217832752E+02 -0.62338389520E-01 -0.63198626304E+01  0.17405822270E+02  0.00000000000E+00 0.  1.
<mgrwt>
<rscale>  1 0.12604317E+03</rscale>
<asrwt>0</asrwt>
<pdfrwt beam="1">  1       21 0.13604812E+00 0.12604317E+03</pdfrwt>
<pdfrwt beam="2">  1       21 0.25203819E-02 0.12604317E+03</pdfrwt>
<totfact> 0.33138469E+05</totfact>
</mgrwt>
</event>
<event>
 6    1  0.4202038E-002  0.1294693E+03  0.7546771E-02  0.1228245E+00
         21   -1    0    0  504  502  0.00000000000E+00  0.00000000000E+00  0.37763934022E+03  0.37763934022E+03  0.00000000000E+00 0. -1.
         21   -1    0    0  502  503 -0.00000000000E+00 -0.00000000000E+00 -0.18011348683E+02  0.18011348683E+02  0.00000000000E+00 0. -1.
         25    2    1    2    0    0  0.26936031441E+02  0.20290540582E+02  0.25965567106E+03  0.29014371905E+03  0.12500021744E+03 0.  0.
          5    1    3    3  501    0  0.90724993698E+01  0.57689634039E+02  0.23449618212E+03  0.24165858882E+03  0.10000000000E+00 0. -1.
         -5    1    3    3    0  501  0.17863532071E+02 -0.37399093456E+02  0.25159488939E+02  0.48485130226E+02  0.10000000000E+00 0. -1.
         21    1    1    2  504  503 -0.26936031441E+02 -0.20290540582E+02  0.99972320471E+02  0.10550696985E+03  0.00000000000E+00 0. -1.
<mgrwt>
<rscale>  1 0.12946934E+03</rscale>
<asrwt>0</asrwt>
<pdfrwt beam="1">  1       21 0.58098354E-01 0.12946934E+03</pdfrwt>
<pdfrwt beam="2">  1       21 0.27709770E-02 0.12946934E+03</pdfrwt>
<totfact> 0.19955248E+06</totfact>
</mgrwt>
</event>
<event>
 6    1  0.4202038E-002  0.1261503E+03  0.7546771E-02  0.1233282E+00
         21   -1    0    0  504  502  0.00000000000E+00  0.00000000000E+00  0.34015295288E+02  0.34015295288E+02  0.00000000000E+00 0. -1.
         21   -1    0    0  502  503 -0.00000000000E+00 -0.00000000000E+00 -0.26968984249E+03  0.26968984249E+03  0.00000000000E+00 0. -1.
         25    2    1    2    0    0  0.14900355108E+02 -0.83486461607E+01 -0.85113041289E+02  0.15217795362E+03  0.12498871668E+03 0.  0.
          5    1    3    3  501    0 -0.50795307823E+02 -0.73663726780E+01 -0.66278000889E+02  0.83828456655E+02  0.10000000000E+00 0. -1.
         -5    1    3    3    0  501  0.65695662931E+02 -0.98227348268E+00 -0.18835040400E+02  0.68349496970E+02  0.10000000000E+00 0. -1.
         21    1    1    2  504  503 -0.14900355108E+02  0.83486461607E+01 -0.15056150592E+03  0.15152718416E+03  0.00000000000E+00 0. -1.
<mgrwt>
<rscale>  1 0.12615031E+03</rscale>
<asrwt>0</asrwt>
<pdfrwt beam="1">  1       21 0.52331224E-02 0.12615031E+03</pdfrwt>
<pdfrwt beam="2">  1       21 0.41490745E-01 0.12615031E+03</pdfrwt>
<totfact> 0.13900459E+06</totfact>
</mgrwt>
</event>
<event>
 6    1  0.4202038E-002  0.1802587E+03  0.7546771E-02  0.1167553E+00
         21   -1    0    0  504  502  0.00000000000E+00  0.00000000000E+00  0.25401772505E+02  0.25401772505E+02  0.00000000000E+00 0. -1.
         21   -1    0    0  502  503 -0.00000000000E+00 -0.00000000000E+00 -0.98357871700E+03  0.98357871700E+03  0.00000000000E+00 0. -1.
         25    2    1    2    0    0 -0.62232885690E+01  0.12973134595E+03 -0.45748403543E+03  0.49171620441E+03  0.12499692623E+03 0.  0.
          5    1    3    3  501    0 -0.65511698425E+02  0.62581440711E+02 -0.23741953684E+03  0.25411860583E+03  0.10000000000E+00 0.  1.
         -5    1    3    3    0  501  0.59288409856E+02  0.67149905239E+02 -0.22006449858E+03  0.23759759859E+03  0.10000000000E+00 0.  1.
         21    1    1    2  504  503  0.62232885690E+01 -0.12973134595E+03 -0.50069290907E+03  0.51726428510E+03  0.00000000000E+00 0. -1.
<mgrwt>
<rscale>  1 0.18025866E+03</rscale>
<asrwt>0</asrwt>
<pdfrwt beam="1">  1       21 0.39079657E-02 0.18025866E+03</pdfrwt>
<pdfrwt beam="2">  1       21 0.15131978E+00 0.18025866E+03</pdfrwt>
<totfact> 0.11968124E+05</totfact>
</mgrwt>
</event>
<event>
 6    1  0.4202038E-002  0.1300590E+03  0.7546771E-02  0.1227368E+00
         21   -1    0    0  503  502  0.00000000000E+00  0.00000000000E+00  0.28602502584E+03  0.28602502584E+03  0.00000000000E+00 0. -1.
         21   -1    0    0  504  503 -0.00000000000E+00 -0.00000000000E+00 -0.30102332169E+02  0.30102332169E+02  0.00000000000E+00 0. -1.
         25    2    1    2    0    0  0.18220925518E+02 -0.30804329076E+02  0.24714386581E+03  0.27927662348E+03  0.12503772711E+03 0.  0.
          5    1    3    3  501    0  0.33260829719E+02  0.95957498948E+01  0.23047024154E+03  0.23305558016E+03  0.10000000000E+00 0. -1.
         -5    1    3    3    0  501 -0.15039904201E+02 -0.40400078971E+02  0.16673624267E+02  0.46221043318E+02  0.10000000000E+00 0. -1.
         21    1    1    2  504  502 -0.18220925518E+02  0.30804329076E+02  0.87788278647E+01  0.36850734528E+02  0.00000000000E+00 0. -1.
<mgrwt>
<rscale>  1 0.13005899E+03</rscale>
<asrwt>0</asrwt>
<pdfrwt beam="1">  1       21 0.44003848E-01 0.13005899E+03</pdfrwt>
<pdfrwt beam="2">  1       21 0.46311282E-02 0.13005899E+03</pdfrwt>
<totfact> 0.15163556E+06</totfact>
</mgrwt>
</event>
<event>
 6    1  0.4202038E-002  0.1268657E+03  0.7546771E-02  0.1232182E+00
         21   -1    0    0  504  502  0.00000000000E+00  0.00000000000E+00  0.16739577204E+02  0.16739577204E+02  0.00000000000E+00 0.  1.
         21   -1    0    0  502  503 -0.00000000000E+00 -0.00000000000E+00 -0.48908349526E+03  0.48908349526E+03  0.00000000000E+00 0.  1.
         25    2    1    2    0    0  0.63959988640E+01  0.20755442200E+02 -0.23134362774E+03  0.26384613737E+03  0.12499285151E+03 0.  0.
          5    1    3    3  501    0 -0.16776388422E+01 -0.47593499883E+02 -0.46310047786E+02  0.66427300330E+02  0.10000000000E+00 0. -1.
         -5    1    3    3    0  501  0.80736377062E+01  0.68348942083E+02 -0.18503357995E+03  0.19741883704E+03  0.10000000000E+00 0. -1.
         21    1    1    2  504  503 -0.63959988640E+01 -0.20755442200E+02 -0.24100029032E+03  0.24197693509E+03  0.00000000000E+00 0.  1.
<mgrwt>
<rscale>  1 0.12686572E+03</rscale>
<asrwt>0</asrwt>
<pdfrwt beam="1">  1       21 0.25753203E-02 0.12686572E+03</pdfrwt>
<pdfrwt beam="2">  1       21 0.75243594E-01 0.12686572E+03</pdfrwt>
<totfact> 0.12862796E+06</totfact>
</mgrwt>
</event>
<event>
 6    1  0.4202038E-002  0.1296946E+03  0.7546771E-02  0.1227910E+00
         21   -1    0    0  504  502  0.00000000000E+00  0.00000000000E+00  0.24172462177E+03  0.24172462177E+03  0.00000000000E+00 0. -1.
         21   -1    0    0  502  503 -0.00000000000E+00 -0.00000000000E+00 -0.33814661987E+02  0.33814661987E+02  0.00000000000E+00 0. -1.
         25    2    1    2    0    0  0.34405196129E+02 -0.32919641589E+01  0.10465508992E+03  0.16665345962E+03  0.12500453275E+03 0.  0.
          5    1    3    3  501    0 -0.21926270513E+02  0.23211648493E+02  0.99139435791E+02  0.10415459516E+03  0.10000000000E+00 0.  1.
         -5    1    3    3    0  501  0.56331466641E+02 -0.26503612652E+02  0.55156541299E+01  0.62498864454E+02  0.10000000000E+00 0.  1.
         21    1    1    2  504  503 -0.34405196129E+02  0.32919641589E+01  0.10325486986E+03  0.10888582414E+03  0.00000000000E+00 0. -1.
<mgrwt>
<rscale>  1 0.12969459E+03</rscale>
<asrwt>0</asrwt>
<pdfrwt beam="1">  1       21 0.37188402E-01 0.12969459E+03</pdfrwt>
<pdfrwt beam="2">  1       21 0.52022558E-02 0.12969459E+03</pdfrwt>
<totfact> 0.17473124E+06</totfact>
</mgrwt>
</event>
<event>
 6    1  0.4202038E-002  0.1700061E+03  0.7546771E-02  0.1177841E+00
         21   -1    0    0  504  502  0.00000000000E+00  0.00000000000E+00  0.58202514809E+03  0.58202514809E+03  0.00000000000E+00 0. -1.
         21   -1    0    0  502  503 -0.00000000000E+00 -0.00000000000E+00 -0.51399543989E+02  0.51399543989E+02  0.00000000000E+00 0. -1.
         25    2    1    2    0    0  0.79129171115E+02  0.83763385535E+02  0.47688122257E+03  0.50627836290E+03  0.12499739926E+03 0.  0.
          5    1    3    3  501    0  0.10112002842E+03  0.93957665422E+02  0.44685925277E+03  0.46769274617E+03  0.10000000000E+00 0.  1.
         -5    1    3    3    0  501 -0.21990857302E+02 -0.10194279886E+02  0.30021969800E+02  0.38585616724E+02  0.10000000000E+00 0.  1.
         21    1    1    2  504  503 -0.79129171115E+02 -0.83763385535E+02  0.53744381530E+02  0.12714632918E+03  0.00000000000E+00 0. -1.
<mgrwt>
<rscale>  1 0.17000612E+03</rscale>
<asrwt>0</asrwt>
<pdfrwt beam="1">  1       21 0.89542326E-01 0.17000612E+03</pdfrwt>
<pdfrwt beam="2">  1       21 0.79076226E-02 0.17000612E+03</pdfrwt>
<totfact> 0.13128185E+05</totfact>
</mgrwt>
</event>
<event>
 6    1  0.4202038E-002  0.1261966E+03  0.7546771E-02  0.1233211E+00
         21   -1    0    0  503  502  0.00000000000E+00  0.00000000000E+00  0.71213778055E+03  0.71213778055E+03  0.00000000000E+00 0. -1.
         21   -1    0    0  504  503 -0.00000000000E+00 -0.00000000000E+00 -0.12741462442E+02  0.12741462442E+02  0.00000000000E+00 0.  1.
         25    2    1    2    0    0  0.34199364049E+01  0.16937100274E+02  0.69590032742E+03  0.70725019646E+03  0.12500805316E+03 0.  0.
          5    1    3    3  501    0 -0.45339911553E+02 -0.26010670759E+02  0.18527894257E+03  0.19251119223E+03  0.10000000000E+00 0.  1.
         -5    1    3    3    0  501  0.48759847958E+02  0.42947771034E+02  0.51062138486E+03  0.51473900424E+03  0.10000000000E+00 0.  1.
         21    1    1    2  504  502 -0.34199364049E+01 -0.16937100274E+02  0.34959906832E+01  0.17629046530E+02  0.00000000000E+00 0.  1.
<mgrwt>
<rscale>  1 0.12619657E+03</rscale>
<asrwt>0</asrwt>
<pdfrwt beam="1">  1       21 0.10955963E+00 0.12619657E+03</pdfrwt>
<pdfrwt beam="2">  1       21 0.19602255E-02 0.12619657E+03</pdfrwt>
<totfact> 0.84561046E+05</totfact>
</mgrwt>
</event>
<event>
 6    1  0.4202038E-002  0.1338498E+03  0.7546771E-02  0.1221853E+00
         21   -1    0    0  504  502  0.00000000000E+00  0.00000000000E+00  0.48482709731E+02  0.48482709731E+02  0.00000000000E+00 0. -1.
         21   -1    0    0  502  503 -0.00000000000E+00 -0.00000000000E+00 -0.18648413288E+03  0.18648413288E+03  0.00000000000E+00 0. -1.
         25    2    1    2    0    0  0.39795712466E+02 -0.26582568604E+02 -0.67899825974E+02  0.15008713001E+03  0.12500171416E+03 0.  0.
          5    1    3    3  501    0  0.72838022834E+02 -0.29163101474E+02 -0.45499638734E+01  0.78591196894E+02  0.10000000000E+00 0. -1.
         -5    1    3    3    0  501 -0.33042310368E+02  0.25805328698E+01 -0.63349862101E+02  0.71495933119E+02  0.10000000000E+00 0. -1.
         21    1    1    2  504  503 -0.39795712466E+02  0.26582568604E+02 -0.70101597177E+02  0.84879712600E+02  0.00000000000E+00 0. -1.
<mgrwt>
<rscale>  1 0.13384977E+03</rscale>
<asrwt>0</asrwt>
<pdfrwt beam="1">  1       21 0.74588785E-02 0.13384977E+03</pdfrwt>
<pdfrwt beam="2">  1       21 0.28689866E-01 0.13384977E+03</pdfrwt>
<totfact> 0.15712666E+06</totfact>
</mgrwt>
</event>
<event>
 6    1  0.4202038E-002  0.1398501E+03  0.7546771E-02  0.1213531E+00
         21   -1    0    0  503  502  0.00000000000E+00  0.00000000000E+00  0.14058959743E+04  0.14058959743E+04  0.00000000000E+00 0.  1.
         21   -1    0    0  504  503 -0.00000000000E+00 -0.00000000000E+00 -0.15389125146E+02  0.15389125146E+02  0.00000000000E+00 0.  1.
         25    2    1    2    0    0  0.50809243230E+02  0.36814668359E+02  0.13180007575E+04  0.13253995827E+04  0.12498463068E+03 0.  0.
          5    1    3    3  501    0 -0.23688594547E+01  0.54983192339E+02  0.25296815182E+03  0.25888541629E+03  0.10000000000E+00 0. -1.
         -5    1    3    3    0  501  0.53178102685E+02 -0.18168523980E+02  0.10650326057E+04  0.10665141664E+04  0.10000000000E+00 0. -1.
         21    1    1    2  504  502 -0.50809243230E+02 -0.36814668359E+02  0.72506091635E+02  0.95885516781E+02  0.00000000000E+00 0.  1.
<mgrwt>
<rscale>  1 0.13985012E+03</rscale>
<asrwt>0</asrwt>
<pdfrwt beam="1">  1       21 0.21629159E+00 0.13985012E+03</pdfrwt>
<pdfrwt beam="2">  1       21 0.23675588E-02 0.13985012E+03</pdfrwt>
<totfact> 0.10252235E+05</totfact>
</mgrwt>
</event>
<event>
 6    1  0.4202038E-002  0.1521838E+03  0.7546771E-02  0.1197815E+00
         21   -1    0    0  503  502  0.00000000000E+00  0.00000000000E+00  0.17334615368E+03  0.17334615368E+03  0.00000000000E+00 0.  1.
         21   -1    0    0  504  503 -0.00000000000E+00 -0.00000000000E+00 -0.23040149784E+03  0.23040149784E+03  0.00000000000E+00 0.  1.
         25    2    1    2    0    0  0.57699330262E+02  0.64853938201E+02  0.12831479035E+03  0.19905927182E+03  0.12499864904E+03 0.  0.
          5    1    3    3  501    0  0.29890367872E+02 -0.12522301453E+02 -0.13520688672E+02  0.35114970417E+02  0.10000000000E+00 0.  1.
         -5    1    3    3    0  501  0.27808962390E+02  0.77376239654E+02  0.14183547903E+03  0.16394430140E+03  0.10000000000E+00 0.  1.
         21    1    1    2  504  502 -0.57699330262E+02 -0.64853938201E+02 -0.18537013452E+03  0.20468837970E+03  0.00000000000E+00 0.  1.
<mgrwt>
<rscale>  1 0.15218380E+03</rscale>
<asrwt>0</asrwt>
<pdfrwt beam="1">  1       21 0.26668639E-01 0.15218380E+03</pdfrwt>
<pdfrwt beam="2">  1       21 0.35446384E-01 0.15218380E+03</pdfrwt>
<totfact> 0.10429011E+05</totfact>
</mgrwt>
</event>
<event>
 6    1  0.4202038E-002  0.1263049E+03  0.7546771E-02  0.1233044E+00
         21   -1    0    0  504  502  0.00000000000E+00  0.00000000000E+00  0.17043899172E+02  0.17043899172E+02  0.00000000000E+00 0.  1.
         21   -1    0    0  502  503 -0.00000000000E+00 -0.00000000000E+00 -0.49800167818E+03  0.49800167818E+03  0.00000000000E+00 0.  1.
         25    2    1    2    0    0  0.17903267958E+02 -0.27840278631E+01 -0.22169271739E+03  0.25514819377E+03  0.12499864810E+03 0.  0.
          5    1    3    3  501    0 -0.45098259250E+02 -0.23978734242E+02 -0.51946032965E+02  0.72850758569E+02  0.10000000000E+00 0. -1.
         -5    1    3    3    0  501  0.63001527208E+02  0.21194706379E+02 -0.16974668442E+03  0.18229743520E+03  0.10000000000E+00 0. -1.
         21    1    1    2  504  503 -0.17903267958E+02  0.27840278631E+01 -0.25926506162E+03  0.25989738358E+03  0.00000000000E+00 0.  1.
<mgrwt>
<rscale>  1 0.12630495E+03</rscale>
<asrwt>0</asrwt>
<pdfrwt beam="1">  1       21 0.26221383E-02 0.12630495E+03</pdfrwt>
<pdfrwt beam="2">  1       21 0.76615645E-01 0.12630495E+03</pdfrwt>
<totfact> 0.12001019E+06</totfact>
</mgrwt>
</event>
<event>
 6    1  0.4202038E-002  0.1298756E+03  0.7546771E-02  0.1227640E+00
         21   -1    0    0  503  502  0.00000000000E+00  0.00000000000E+00  0.31029546592E+03  0.31029546592E+03  0.00000000000E+00 0.  1.
         21   -1    0    0  504  503 -0.00000000000E+00 -0.00000000000E+00 -0.83218240266E+02  0.83218240266E+02  0.00000000000E+00 0.  1.
         25    2    1    2    0    0  0.43083783751E+01  0.35001303669E+02  0.29202831534E+03  0.31960634907E+03  0.12499611203E+03 0.  0.
          5    1    3    3  501    0 -0.22925360521E+02 -0.28863424723E+02  0.20494608037E+03  0.20823442391E+03  0.10000000000E+00 0.  1.
         -5    1    3    3    0  501  0.27233738896E+02  0.63864728393E+02  0.87082234970E+02  0.11137192516E+03  0.10000000000E+00 0.  1.
         21    1    1    2  504  502 -0.43083783751E+01 -0.35001303669E+02 -0.64951089691E+02  0.73907357109E+02  0.00000000000E+00 0.  1.
<mgrwt>
<rscale>  1 0.12987564E+03</rscale>
<asrwt>0</asrwt>
<pdfrwt beam="1">  1       21 0.47737764E-01 0.12987564E+03</pdfrwt>
<pdfrwt beam="2">  1       21 0.12802806E-01 0.12987564E+03</pdfrwt>
<totfact> 0.22282568E+05</totfact>
</mgrwt>
</event>
<event>
 6    1  0.4202038E-002  0.1271921E+03  0.7546771E-02  0.1231683E+00
         21   -1    0    0  504  502  0.00000000000E+00  0.00000000000E+00  0.35333783051E+03  0.35333783051E+03  0.00000000000E+00 0.  1.
         21   -1    0    0  502  503 -0.00000000000E+00 -0.00000000000E+00 -0.19177038784E+02  0.19177038784E+02  0.00000000000E+00 0.  1.
         25    2    1    2    0    0 -0.23408346314E+02 -0.16776245028E+01  0.32172570246E+03  0.34595556685E+03  0.12500824578E+03 0.  0.
          5    1    3    3  501    0 -0.10419331267E+02  0.48160794026E+01 -0.92003668011E+01  0.14711010643E+02  0.10000000000E+00 0.  1.
         -5    1    3    3    0  501 -0.12989015046E+02 -0.64937039054E+01  0.33092606926E+03  0.33124455621E+03  0.10000000000E+00 0.  1.
         21    1    1    2  504  503  0.23408346314E+02  0.16776245028E+01  0.12435089268E+02  0.26559302442E+02  0.00000000000E+00 0.  1.
<mgrwt>
<rscale>  1 0.12719209E+03</rscale>
<asrwt>0</asrwt>
<pdfrwt beam="1">  1       21 0.54359662E-01 0.12719209E+03</pdfrwt>
<pdfrwt beam="2">  1       21 0.29503139E-02 0.12719209E+03</pdfrwt>
<totfact> 0.20700552E+06</totfact>
</mgrwt>
</event>
<event>
 6    1  0.4202038E-002  0.1260967E+03  0.7546771E-02  0.1233365E+00
         21   -1    0    0  503  502  0.00000000000E+00  0.00000000000E+00  0.52993458055E+03  0.52993458055E+03  0.00000000000E+00 0.  1.
         21   -1    0    0  504  503 -0.00000000000E+00 -0.00000000000E+00 -0.97359759904E+01  0.97359759904E+01  0.00000000000E+00 0.  1.
         25    2    1    2    0    0  0.13854931379E+02 -0.91626586889E+01  0.43694763547E+03  0.45477864119E+03  0.12499785158E+03 0.  0.
          5    1    3    3  501    0  0.16222998889E+02  0.57067652630E+02  0.22659077525E+03  0.23422914442E+03  0.10000000000E+00 0. -1.
         -5    1    3    3    0  501 -0.23680675099E+01 -0.66230311319E+02  0.21035686022E+03  0.22054949677E+03  0.10000000000E+00 0. -1.
         21    1    1    2  504  502 -0.13854931379E+02  0.91626586889E+01  0.83250969081E+02  0.84891915344E+02  0.00000000000E+00 0.  1.
<mgrwt>
<rscale>  1 0.12609669E+03</rscale>
<asrwt>0</asrwt>
<pdfrwt beam="1">  1       21 0.81528375E-01 0.12609669E+03</pdfrwt>
<pdfrwt beam="2">  1       21 0.14978429E-02 0.12609669E+03</pdfrwt>
<totfact> 0.25775884E+06</totfact>
</mgrwt>
</event>
<event>
 6    1  0.4202038E-002  0.1327630E+03  0.7546771E-02  0.1223413E+00
         21   -1    0    0  503  502  0.00000000000E+00  0.00000000000E+00  0.40460551391E+02  0.40460551391E+02  0.00000000000E+00 0. -1.
         21   -1    0    0  504  503 -0.00000000000E+00 -0.00000000000E+00 -0.20765092313E+03  0.20765092313E+03  0.00000000000E+00 0. -1.
         25    2    1    2    0    0 -0.48263561320E+00  0.44725368945E+02 -0.95238146232E+02  0.16339008218E+03  0.12500169156E+03 0.  0.
          5    1    3    3  501    0  0.57882813401E+02  0.10656237287E+02 -0.19775067206E+02  0.62088958465E+02  0.10000000000E+00 0. -1.
         -5    1    3    3    0  501 -0.58365449014E+02  0.34069131658E+02 -0.75463079026E+02  0.10130112372E+03  0.10000000000E+00 0. -1.
         21    1    1    2  504  502  0.48263561320E+00 -0.44725368945E+02 -0.71952225511E+02  0.84721392342E+02  0.00000000000E+00 0. -1.
<mgrwt>
<rscale>  1 0.13276300E+03</rscale>
<asrwt>0</asrwt>
<pdfrwt beam="1">  1       21 0.62247002E-02 0.13276300E+03</pdfrwt>
<pdfrwt beam="2">  1       21 0.31946296E-01 0.13276300E+03</pdfrwt>
<totfact> 0.17387514E+06</totfact>
</mgrwt>
</event>
<event>
 6    1  0.4202038E-002  0.1834136E+03  0.7546771E-02  0.1164540E+00
         21   -1    0    0  503  502  0.00000000000E+00  0.00000000000E+00  0.74017669643E+03  0.74017669643E+03  0.00000000000E+00 0.  1.
         21   -1    0    0  504  503 -0.00000000000E+00 -0.00000000000E+00 -0.12450308146E+03  0.12450308146E+03  0.00000000000E+00 0.  1.
         25    2    1    2    0    0 -0.97039867466E+02 -0.92730462357E+02  0.68812655539E+03  0.71215075409E+03  0.12499946314E+03 0.  0.
          5    1    3    3  501    0 -0.79864195625E+02  0.65656134737E+01  0.24755516369E+03  0.26020177957E+03  0.10000000000E+00 0. -1.
         -5    1    3    3    0  501 -0.17175671841E+02 -0.99296075830E+02  0.44057139171E+03  0.45194897452E+03  0.10000000000E+00 0. -1.
         21    1    1    2  504  502  0.97039867466E+02  0.92730462357E+02 -0.72452940428E+02  0.15252902381E+03  0.00000000000E+00 0.  1.
<mgrwt>
<rscale>  1 0.18341358E+03</rscale>
<asrwt>0</asrwt>
<pdfrwt beam="1">  1       21 0.11387333E+00 0.18341358E+03</pdfrwt>
<pdfrwt beam="2">  1       21 0.19154321E-01 0.18341358E+03</pdfrwt>
<totfact> 0.15116273E+04</totfact>
</mgrwt>
</event>
<event>
 6    1  0.4202038E-002  0.1268234E+03  0.7546771E-02  0.1232247E+00
         21   -1    0    0  503  502  0.00000000000E+00  0.00000000000E+00  0.44755681001E+02  0.44755681001E+02  0.00000000000E+00 0. -1.
         21   -1    0    0  504  503 -0.00000000000E+00 -0.00000000000E+00 -0.46035640386E+03  0.46035640386E+03  0.00000000000E+00 0. -1.
         25    2    1    2    0    0 -0.17097176957E+02 -0.12910069086E+02 -0.46025959511E+02  0.13491688088E+03  0.12500076982E+03 0.  0.
          5    1    3    3  501    0 -0.19370847476E+02 -0.68234573600E+02 -0.31888022284E+02  0.77769163114E+02  0.10000000000E+00 0. -1.
         -5    1    3    3    0  501  0.22736705181E+01  0.55324504514E+02 -0.14137937227E+02  0.57147717770E+02  0.10000000000E+00 0. -1.
         21    1    1    2  504  502  0.17097176957E+02  0.12910069086E+02 -0.36957476335E+03  0.37019520398E+03  0.00000000000E+00 0. -1.
<mgrwt>
<rscale>  1 0.12682340E+03</rscale>
<asrwt>0</asrwt>
<pdfrwt beam="1">  1       21 0.68854893E-02 0.12682340E+03</pdfrwt>
<pdfrwt beam="2">  1       21 0.70824063E-01 0.12682340E+03</pdfrwt>
<totfact> 0.28545283E+05</totfact>
</mgrwt>
</event>
<event>
 6    1  0.4202038E-002  0.1284930E+03  0.7546771E-02  0.1229709E+00
         21   -1    0    0  504  502  0.00000000000E+00  0.00000000000E+00  0.49640650374E+02  0.49640650374E+02  0.00000000000E+00 0.  1.
         21   -1    0    0  502  503 -0.00000000000E+00 -0.00000000000E+00 -0.12685257615E+03  0.12685257615E+03  0.00000000000E+00 0.  1.
         25    2    1    2    0    0  0.28708214550E+02  0.80115153173E+01 -0.57587151464E+02  0.14080740683E+03  0.12498839884E+03 0.  0.
          5    1    3    3  501    0 -0.20391457733E+02  0.10772246458E+01 -0.82728207804E+02  0.85211139694E+02  0.10000000000E+00 0.  1.
         -5    1    3    3    0  501  0.49099672283E+02  0.69342906715E+01  0.25141056340E+02  0.55596267135E+02  0.10000000000E+00 0.  1.
         21    1    1    2  504  503 -0.28708214550E+02 -0.80115153173E+01 -0.19624774309E+02  0.35685819691E+02  0.00000000000E+00 0.  1.
<mgrwt>
<rscale>  1 0.12849298E+03</rscale>
<asrwt>0</asrwt>
<pdfrwt beam="1">  1       21 0.76370232E-02 0.12849298E+03</pdfrwt>
<pdfrwt beam="2">  1       21 0.19515781E-01 0.12849298E+03</pdfrwt>
<totfact> 0.31107843E+06</totfact>
</mgrwt>
</event>
<event>
 6    1  0.4202038E-002  0.1314195E+03  0.7546771E-02  0.1225364E+00
         21   -1    0    0  503  502  0.00000000000E+00  0.00000000000E+00  0.17261092678E+02  0.17261092678E+02  0.00000000000E+00 0. -1.
         21   -1    0    0  504  503 -0.00000000000E+00 -0.00000000000E+00 -0.43178717103E+03  0.43178717103E+03  0.00000000000E+00 0. -1.
         25    2    1    2    0    0 -0.70503250158E+01  0.39964109882E+02 -0.29918079096E+03  0.32677245872E+03  0.12499702772E+03 0.  0.
          5    1    3    3  501    0 -0.61707539968E+02  0.62292653863E+00 -0.11246399104E+03  0.12828237528E+03  0.10000000000E+00 0. -1.
         -5    1    3    3    0  501  0.54657214952E+02  0.39341183343E+02 -0.18671679992E+03  0.19849008345E+03  0.10000000000E+00 0. -1.
         21    1    1    2  504  502  0.70503250158E+01 -0.39964109882E+02 -0.11534528739E+03  0.12227580498E+03  0.00000000000E+00 0. -1.
<mgrwt>
<rscale>  1 0.13141953E+03</rscale>
<asrwt>0</asrwt>
<pdfrwt beam="1">  1       21 0.26555528E-02 0.13141953E+03</pdfrwt>
<pdfrwt beam="2">  1       21 0.66428793E-01 0.13141953E+03</pdfrwt>
<totfact> 0.16069440E+06</totfact>
</mgrwt>
</event>
<event>
 6    1  0.4202038E-002  0.1358375E+03  0.7546771E-02  0.1219042E+00
         21   -1    0    0  503  502  0.00000000000E+00  0.00000000000E+00  0.35668094745E+02  0.35668094745E+02  0.00000000000E+00 0.  1.
         21   -1    0    0  504  503 -0.00000000000E+00 -0.00000000000E+00 -0.32459731253E+03  0.32459731253E+03  0.00000000000E+00 0.  1.
         25    2    1    2    0    0  0.41666938638E+02 -0.33043567328E+02 -0.11369439391E+03  0.17713907215E+03  0.12499529815E+03 0.  0.
          5    1    3    3  501    0  0.24708970552E+02 -0.47581088719E+02 -0.13562402282E+03  0.14583682249E+03  0.10000000000E+00 0. -1.
         -5    1    3    3    0  501  0.16957968086E+02  0.14537521391E+02  0.21929628907E+02  0.31302249661E+02  0.10000000000E+00 0. -1.
         21    1    1    2  504  502 -0.41666938638E+02  0.33043567328E+02 -0.17523482388E+03  0.18312633513E+03  0.00000000000E+00 0.  1.
<mgrwt>
<rscale>  1 0.13583753E+03</rscale>
<asrwt>0</asrwt>
<pdfrwt beam="1">  1       21 0.54873994E-02 0.13583753E+03</pdfrwt>
<pdfrwt beam="2">  1       21 0.49938046E-01 0.13583753E+03</pdfrwt>
<totfact> 0.88040686E+05</totfact>
</mgrwt>
</event>
<event>
 6    1  0.4202038E-002  0.1272929E+03  0.7546771E-02  0.1231529E+00
         21   -1    0    0  504  502  0.00000000000E+00  0.00000000000E+00  0.88611749330E+02  0.88611749330E+02  0.00000000000E+00 0.  1.
         21   -1    0    0  502  503 -0.00000000000E+00 -0.00000000000E+00 -0.64862036330E+02  0.64862036330E+02  0.00000000000E+00 0.  1.
         25    2    1    2    0    0  0.50393367921E+01  0.23489861825E+02  0.16367725408E+02  0.12834089357E+03  0.12500525591E+03 0.  0.
          5    1    3    3  501    0  0.23990356180E+02 -0.31278746767E+02  0.48162321876E+02  0.62237580588E+02  0.10000000000E+00 0.  1.
         -5    1    3    3    0  501 -0.18951019387E+02  0.54768608592E+02 -0.31794596468E+02  0.66103312984E+02  0.10000000000E+00 0.  1.
         21    1    1    2  504  503 -0.50393367921E+01 -0.23489861825E+02  0.73819875920E+01  0.25132892087E+02  0.00000000000E+00 0.  1.
<mgrwt>
<rscale>  1 0.12729290E+03</rscale>
<asrwt>0</asrwt>
<pdfrwt beam="1">  1       21 0.13632577E-01 0.12729290E+03</pdfrwt>
<pdfrwt beam="2">  1       21 0.99787748E-02 0.12729290E+03</pdfrwt>
<totfact> 0.37513326E+06</totfact>
</mgrwt>
</event>
<event>
 6    1  0.4202038E-002  0.1319229E+03  0.7546771E-02  0.1224630E+00
         21   -1    0    0  503  502  0.00000000000E+00  0.00000000000E+00  0.49536239240E+03  0.49536239240E+03  0.00000000000E+00 0. -1.
         21   -1    0    0  504  503 -0.00000000000E+00 -0.00000000000E+00 -0.13286346369E+03  0.13286346369E+03  0.00000000000E+00 0.  1.
         25    2    1    2    0    0 -0.28951530911E+02 -0.30679063888E+02  0.48292800426E+03  0.50062272784E+03  0.12499704885E+03 0.  0.
          5    1    3    3  501    0 -0.54511722779E+02 -0.44550046730E+02  0.14236969419E+03  0.15882498043E+03  0.10000000000E+00 0.  1.
         -5    1    3    3    0  501  0.25560191868E+02  0.13870982841E+02  0.34055831007E+03  0.34179774740E+03  0.10000000000E+00 0.  1.
         21    1    1    2  504  502  0.28951530911E+02  0.30679063888E+02 -0.12042907555E+03  0.12760312825E+03  0.00000000000E+00 0.  1.
<mgrwt>
<rscale>  1 0.13192293E+03</rscale>
<asrwt>0</asrwt>
<pdfrwt beam="1">  1       21 0.76209598E-01 0.13192293E+03</pdfrwt>
<pdfrwt beam="2">  1       21 0.20440533E-01 0.13192293E+03</pdfrwt>
<totfact> 0.35183965E+04</totfact>
</mgrwt>
</event>
<event>
 6    1  0.4202038E-002  0.1268559E+03  0.7546771E-02  0.1232197E+00
         21   -1    0    0  504  502  0.00000000000E+00  0.00000000000E+00  0.17257785996E+03  0.17257785996E+03  0.00000000000E+00 0.  1.
         21   -1    0    0  502  503 -0.00000000000E+00 -0.00000000000E+00 -0.43212534832E+03  0.43212534832E+03  0.00000000000E+00 0. -1.
         25    2    1    2    0    0 -0.19991260809E+02  0.81274429642E+01  0.14894268132E+03  0.19564340267E+03  0.12500685122E+03 0.  0.
          5    1    3    3  501    0 -0.41045969223E+02  0.50388447696E+02  0.12888577084E+03  0.14434444629E+03  0.10000000000E+00 0.  1.
         -5    1    3    3    0  501  0.21054708414E+02 -0.42261004732E+02  0.20056910483E+02  0.51298956378E+02  0.10000000000E+00 0.  1.
         21    1    1    2  504  503  0.19991260809E+02 -0.81274429642E+01 -0.40849016968E+03  0.40905980561E+03  0.00000000000E+00 0. -1.
<mgrwt>
<rscale>  1 0.12685590E+03</rscale>
<asrwt>0</asrwt>
<pdfrwt beam="1">  1       21 0.26550440E-01 0.12685590E+03</pdfrwt>
<pdfrwt beam="2">  1       21 0.66480822E-01 0.12685590E+03</pdfrwt>
<totfact> 0.29130770E+04</totfact>
</mgrwt>
</event>
<event>
 6    1  0.4202038E-002  0.1286502E+03  0.7546771E-02  0.1229472E+00
         21   -1    0    0  504  502  0.00000000000E+00  0.00000000000E+00  0.66999875318E+03  0.66999875318E+03  0.00000000000E+00 0. -1.
         21   -1    0    0  502  503 -0.00000000000E+00 -0.00000000000E+00 -0.88193269563E+02  0.88193269563E+02  0.00000000000E+00 0. -1.
         25    2    1    2    0    0 -0.14524998505E+02  0.26738397430E+02  0.66097369458E+03  0.67337738305E+03  0.12499983037E+03 0.  0.
          5    1    3    3  501    0  0.29665378056E+02  0.42469907588E+02  0.12437824959E+03  0.13473561770E+03  0.10000000000E+00 0.  1.
         -5    1    3    3    0  501 -0.44190376561E+02 -0.15731510158E+02  0.53659544499E+03  0.53864176535E+03  0.10000000000E+00 0.  1.
         21    1    1    2  504  503  0.14524998505E+02 -0.26738397430E+02 -0.79168210967E+02  0.84814639693E+02  0.00000000000E+00 0. -1.
<mgrwt>
<rscale>  1 0.12865020E+03</rscale>
<asrwt>0</asrwt>
<pdfrwt beam="1">  1       21 0.10307673E+00 0.12865020E+03</pdfrwt>
<pdfrwt beam="2">  1       21 0.13568196E-01 0.12865020E+03</pdfrwt>
<totfact> 0.37301542E+04</totfact>
</mgrwt>
</event>
<event>
 6    1  0.4202038E-002  0.1530017E+03  0.7546771E-02  0.1196832E+00
         21   -1    0    0  504  502  0.00000000000E+00  0.00000000000E+00  0.73199989622E+03  0.73199989622E+03  0.00000000000E+00 0.  1.
         21   -1    0    0  502  503 -0.00000000000E+00 -0.00000000000E+00 -0.99232240774E+02  0.99232240774E+02  0.00000000000E+00 0. -1.
         25    2    1    2    0    0 -0.74819597225E+02 -0.46769012221E+02  0.70237515363E+03  0.71884656659E+03  0.12499686890E+03 0.  0.
          5    1    3    3  501    0  0.13516622305E+02  0.31637224203E+02  0.13573731575E+03  0.14002943234E+03  0.10000000000E+00 0.  1.
         -5    1    3    3    0  501 -0.88336219530E+02 -0.78406236424E+02  0.56663783788E+03  0.57881713425E+03  0.10000000000E+00 0.  1.
         21    1    1    2  504  503  0.74819597225E+02  0.46769012221E+02 -0.69607498178E+02  0.11238557041E+03  0.00000000000E+00 0. -1.
<mgrwt>
<rscale>  1 0.15300173E+03</rscale>
<asrwt>0</asrwt>
<pdfrwt beam="1">  1       21 0.11261536E+00 0.15300173E+03</pdfrwt>
<pdfrwt beam="2">  1       21 0.15266499E-01 0.15300173E+03</pdfrwt>
<totfact> 0.24036291E+04</totfact>
</mgrwt>
</event>
<event>
 6    1  0.4202038E-002  0.1266724E+03  0.7546771E-02  0.1232478E+00
         21   -1    0    0  504  502  0.00000000000E+00  0.00000000000E+00  0.13113738311E+03  0.13113738311E+03  0.00000000000E+00 0.  1.
         21   -1    0    0  502  503 -0.00000000000E+00 -0.00000000000E+00 -0.82047210998E+02  0.82047210998E+02  0.00000000000E+00 0.  1.
         25    2    1    2    0    0  0.19561620778E+02 -0.61993584376E+01  0.97992526187E+02  0.16015130941E+03  0.12499927066E+03 0.  0.
          5    1    3    3  501    0  0.47602248303E+02  0.45935526726E+02  0.63184765526E+02  0.91478802209E+02  0.10000000000E+00 0.  1.
         -5    1    3    3    0  501 -0.28040627525E+02 -0.52134885164E+02  0.34807760661E+02  0.68672507201E+02  0.10000000000E+00 0.  1.
         21    1    1    2  504  503 -0.19561620778E+02  0.61993584376E+01 -0.48902354071E+02  0.53033284701E+02  0.00000000000E+00 0.  1.
<mgrwt>
<rscale>  1 0.12667244E+03</rscale>
<asrwt>0</asrwt>
<pdfrwt beam="1">  1       21 0.20174982E-01 0.12667244E+03</pdfrwt>
<pdfrwt beam="2">  1       21 0.12622648E-01 0.12667244E+03</pdfrwt>
<totfact> 0.12155894E+06</totfact>
</mgrwt>
</event>
<event>
 6    1  0.4202038E-002  0.1262861E+03  0.7546771E-02  0.1233073E+00
         21   -1    0    0  504  502  0.00000000000E+00  0.00000000000E+00  0.41775716120E+03  0.41775716120E+03  0.00000000000E+00 0.  1.
         21   -1    0    0  502  503 -0.00000000000E+00 -0.00000000000E+00 -0.34504844285E+02  0.34504844285E+02  0.00000000000E+00 0.  1.
         25    2    1    2    0    0 -0.10240295785E+02 -0.14775038783E+02  0.40489203953E+03  0.42412940831E+03  0.12500010358E+03 0.  0.
          5    1    3    3  501    0  0.52393630111E+02 -0.71899219147E+01  0.27106776172E+03  0.27617843670E+03  0.10000000000E+00 0.  1.
         -5    1    3    3    0  501 -0.62633925896E+02 -0.75851168681E+01  0.13382427781E+03  0.14795097162E+03  0.10000000000E+00 0.  1.
         21    1    1    2  504  503  0.10240295785E+02  0.14775038783E+02 -0.21639722613E+02  0.28132597171E+02  0.00000000000E+00 0.  1.
<mgrwt>
<rscale>  1 0.12628615E+03</rscale>
<asrwt>0</asrwt>
<pdfrwt beam="1">  1       21 0.64270329E-01 0.12628615E+03</pdfrwt>
<pdfrwt beam="2">  1       21 0.53084379E-02 0.12628615E+03</pdfrwt>
<totfact> 0.54757053E+05</totfact>
</mgrwt>
</event>
<event>
 6    1  0.4202038E-002  0.1344634E+03  0.7546771E-02  0.1220979E+00
         21   -1    0    0  503  502  0.00000000000E+00  0.00000000000E+00  0.11664657706E+03  0.11664657706E+03  0.00000000000E+00 0.  1.
         21   -1    0    0  504  503 -0.00000000000E+00 -0.00000000000E+00 -0.83658405526E+02  0.83658405526E+02  0.00000000000E+00 0.  1.
         25    2    1    2    0    0 -0.18880949292E+02 -0.45817019743E+02  0.56011346508E+02  0.14566290969E+03  0.12499889110E+03 0.  0.
          5    1    3    3  501    0 -0.68143611557E+02 -0.29657166846E+02  0.75590726199E+01  0.74701063716E+02  0.10000000000E+00 0.  1.
         -5    1    3    3    0  501  0.49262662265E+02 -0.16159852897E+02  0.48452273888E+02  0.70961845974E+02  0.10000000000E+00 0.  1.
         21    1    1    2  504  502  0.18880949292E+02  0.45817019743E+02 -0.23023174976E+02  0.54642072894E+02  0.00000000000E+00 0.  1.
<mgrwt>
<rscale>  1 0.13446342E+03</rscale>
<asrwt>0</asrwt>
<pdfrwt beam="1">  1       21 0.17945627E-01 0.13446342E+03</pdfrwt>
<pdfrwt beam="2">  1       21 0.12870524E-01 0.13446342E+03</pdfrwt>
<totfact> 0.14581474E+06</totfact>
</mgrwt>
</event>
<event>
 6    1  0.4202038E-002  0.1290249E+03  0.7546771E-02  0.1228910E+00
         21   -1    0    0  504  502  0.00000000000E+00  0.00000000000E+00  0.38408479603E+03  0.38408479603E+03  0.00000000000E+00 0.  1.
         21   -1    0    0  502  503 -0.00000000000E+00 -0.00000000000E+00 -0.21424399906E+02  0.21424399906E+02  0.00000000000E+00 0.  1.
         25    2    1    2    0    0  0.93859553168E+01 -0.30526002477E+02  0.34644669627E+03  0.36969276050E+03  0.12500996290E+03 0.  0.
          5    1    3    3  501    0 -0.41094608182E+02 -0.14682230998E+02  0.28621671664E+03  0.28952435754E+03  0.10000000000E+00 0. -1.
         -5    1    3    3    0  501  0.50480563499E+02 -0.15843771479E+02  0.60229979628E+02  0.80168402952E+02  0.10000000000E+00 0. -1.
         21    1    1    2  504  503 -0.93859553168E+01  0.30526002477E+02  0.16213699854E+02  0.35816435437E+02  0.00000000000E+00 0. -1.
<mgrwt>
<rscale>  1 0.12902490E+03</rscale>
<asrwt>0</asrwt>
<pdfrwt beam="1">  1       21 0.59089963E-01 0.12902490E+03</pdfrwt>
<pdfrwt beam="2">  1       21 0.32960618E-02 0.12902490E+03</pdfrwt>
<totfact> 0.14482224E+06</totfact>
</mgrwt>
</event>
<event>
 6    1  0.4202038E-002  0.1326020E+03  0.7546771E-02  0.1223645E+00
         21   -1    0    0  503  502  0.00000000000E+00  0.00000000000E+00  0.28746547865E+03  0.28746547865E+03  0.00000000000E+00 0.  1.
         21   -1    0    0  504  503 -0.00000000000E+00 -0.00000000000E+00 -0.37900516582E+02  0.37900516582E+02  0.00000000000E+00 0. -1.
         25    2    1    2    0    0  0.38478017545E+02 -0.21855816710E+02  0.24783631148E+03  0.28108030013E+03  0.12500025310E+03 0.  0.
          5    1    3    3  501    0  0.75132379941E+01 -0.39241033684E+02  0.10785203684E+02  0.41384031803E+02  0.10000000000E+00 0. -1.
         -5    1    3    3    0  501  0.30964779551E+02  0.17385216974E+02  0.23705110780E+03  0.23969626832E+03  0.10000000000E+00 0. -1.
         21    1    1    2  504  502 -0.38478017545E+02  0.21855816710E+02  0.17286505922E+01  0.44285695107E+02  0.00000000000E+00 0. -1.
<mgrwt>
<rscale>  1 0.13260203E+03</rscale>
<asrwt>0</asrwt>
<pdfrwt beam="1">  1       21 0.44225457E-01 0.13260203E+03</pdfrwt>
<pdfrwt beam="2">  1       21 0.58308489E-02 0.13260203E+03</pdfrwt>
<totfact> 0.10187081E+06</totfact>
</mgrwt>
</event>
<event>
 6    1  0.4202038E-002  0.1295736E+03  0.7546771E-02  0.1228090E+00
         21   -1    0    0  504  502  0.00000000000E+00  0.00000000000E+00  0.20161255376E+03  0.20161255376E+03  0.00000000000E+00 0.  1.
         21   -1    0    0  502  503 -0.00000000000E+00 -0.00000000000E+00 -0.33818895295E+02  0.33818895295E+02  0.00000000000E+00 0.  1.
         25    2    1    2    0    0 -0.34091299289E+02 -0.11162372514E+01  0.14472176104E+03  0.19425165883E+03  0.12500342461E+03 0.  0.
          5    1    3    3  501    0 -0.60479973790E+02 -0.29802531316E+02  0.13948170352E+03  0.15492312196E+03  0.10000000000E+00 0. -1.
         -5    1    3    3    0  501  0.26388674501E+02  0.28686294064E+02  0.52400575271E+01  0.39328536865E+02  0.10000000000E+00 0. -1.
         21    1    1    2  504  503  0.34091299289E+02  0.11162372514E+01  0.23071897426E+02  0.41179790233E+02  0.00000000000E+00 0.  1.
<mgrwt>
<rscale>  1 0.12957360E+03</rscale>
<asrwt>0</asrwt>
<pdfrwt beam="1">  1       21 0.31017315E-01 0.12957360E+03</pdfrwt>
<pdfrwt beam="2">  1       21 0.52029071E-02 0.12957360E+03</pdfrwt>
<totfact> 0.24919381E+06</totfact>
</mgrwt>
</event>
<event>
 6    1  0.4202038E-002  0.1270978E+03  0.7546771E-02  0.1231827E+00
         21   -1    0    0  503  502  0.00000000000E+00  0.00000000000E+00  0.67088113442E+03  0.67088113442E+03  0.00000000000E+00 0.  1.
         21   -1    0    0  504  503 -0.00000000000E+00 -0.00000000000E+00 -0.94459851684E+01  0.94459851684E+01  0.00000000000E+00 0.  1.
         25    2    1    2    0    0  0.88875677699E+01 -0.21213770872E+02  0.62040545630E+03  0.63329044624E+03  0.12499938465E+03 0.  0.
          5    1    3    3  501    0 -0.21035138110E+02 -0.49295204736E+02  0.12268213614E+03  0.13387834318E+03  0.10000000000E+00 0. -1.
         -5    1    3    3    0  501  0.29922705880E+02  0.28081433864E+02  0.49772332016E+03  0.49941210306E+03  0.10000000000E+00 0. -1.
         21    1    1    2  504  502 -0.88875677699E+01  0.21213770872E+02  0.41029692953E+02  0.47036673345E+02  0.00000000000E+00 0. -1.
<mgrwt>
<rscale>  1 0.12709783E+03</rscale>
<asrwt>0</asrwt>
<pdfrwt beam="1">  1       21 0.10321244E+00 0.12709783E+03</pdfrwt>
<pdfrwt beam="2">  1       21 0.14532290E-02 0.12709783E+03</pdfrwt>
<totfact> 0.15740694E+06</totfact>
</mgrwt>
</event>
<event>
 6    1  0.4202038E-002  0.1625874E+03  0.7546771E-02  0.1185806E+00
         21   -1    0    0  504  502  0.00000000000E+00  0.00000000000E+00  0.27188542125E+03  0.27188542125E+03  0.00000000000E+00 0. -1.
         21   -1    0    0  502  503 -0.00000000000E+00 -0.00000000000E+00 -0.13494843430E+03  0.13494843430E+03  0.00000000000E+00 0. -1.
         25    2    1    2    0    0 -0.83727848562E+02 -0.61629522456E+02  0.22014219176E+03  0.27367358832E+03  0.12500439069E+03 0.  0.
          5    1    3    3  501    0 -0.65856845928E+02 -0.98535889596E+02  0.13831573750E+03  0.18214746481E+03  0.10000000000E+00 0. -1.
         -5    1    3    3    0  501 -0.17871002633E+02  0.36906367140E+02  0.81826454251E+02  0.91526123516E+02  0.10000000000E+00 0. -1.
         21    1    1    2  504  503  0.83727848562E+02  0.61629522456E+02 -0.83205204805E+02  0.13316026723E+03  0.00000000000E+00 0. -1.
<mgrwt>
<rscale>  1 0.16258736E+03</rscale>
<asrwt>0</asrwt>
<pdfrwt beam="1">  1       21 0.41828526E-01 0.16258736E+03</pdfrwt>
<pdfrwt beam="2">  1       21 0.20761298E-01 0.16258736E+03</pdfrwt>
<totfact> 0.11974014E+05</totfact>
</mgrwt>
</event>
<event>
 6    1  0.4202038E-002  0.1378341E+03  0.7546771E-02  0.1216273E+00
         21   -1    0    0  504  502  0.00000000000E+00  0.00000000000E+00  0.12793264586E+03  0.12793264586E+03  0.00000000000E+00 0.  1.
         21   -1    0    0  502  503 -0.00000000000E+00 -0.00000000000E+00 -0.15131614907E+03  0.15131614907E+03  0.00000000000E+00 0.  1.
         25    2    1    2    0    0  0.45636055251E+02  0.35830221405E+02  0.80964561101E+02  0.15985460399E+03  0.12502711689E+03 0.  0.
          5    1    3    3  501    0 -0.18259420277E+02 -0.33720388569E+02  0.50430738038E+01  0.38677042642E+02  0.10000000000E+00 0. -1.
         -5    1    3    3    0  501  0.63895475528E+02  0.69550609974E+02  0.75921487297E+02  0.12117756135E+03  0.10000000000E+00 0. -1.
         21    1    1    2  504  503 -0.45636055251E+02 -0.35830221405E+02 -0.10434806432E+03  0.11939419094E+03  0.00000000000E+00 0.  1.
<mgrwt>
<rscale>  1 0.13783408E+03</rscale>
<asrwt>0</asrwt>
<pdfrwt beam="1">  1       21 0.19681946E-01 0.13783408E+03</pdfrwt>
<pdfrwt beam="2">  1       21 0.23279408E-01 0.13783408E+03</pdfrwt>
<totfact> 0.41623528E+05</totfact>
</mgrwt>
</event>
<event>
 6    1  0.4202038E-002  0.1289283E+03  0.7546771E-02  0.1229055E+00
         21   -1    0    0  504  502  0.00000000000E+00  0.00000000000E+00  0.36994072158E+03  0.36994072158E+03  0.00000000000E+00 0.  1.
         21   -1    0    0  502  503 -0.00000000000E+00 -0.00000000000E+00 -0.31908911136E+02  0.31908911136E+02  0.00000000000E+00 0.  1.
         25    2    1    2    0    0  0.23894043183E+01  0.31506466770E+02  0.34601946313E+03  0.36925869384E+03  0.12499658960E+03 0.  0.
          5    1    3    3  501    0  0.33688194011E+02 -0.23132978614E+02  0.41299698403E+02  0.58100810696E+02  0.10000000000E+00 0. -1.
         -5    1    3    3    0  501 -0.31298789693E+02  0.54639445384E+02  0.30471976473E+03  0.31115788315E+03  0.10000000000E+00 0. -1.
         21    1    1    2  504  503 -0.23894043183E+01 -0.31506466770E+02 -0.79876526854E+01  0.32590938875E+02  0.00000000000E+00 0.  1.
<mgrwt>
<rscale>  1 0.12892833E+03</rscale>
<asrwt>0</asrwt>
<pdfrwt beam="1">  1       21 0.56913954E-01 0.12892833E+03</pdfrwt>
<pdfrwt beam="2">  1       21 0.49090635E-02 0.12892833E+03</pdfrwt>
<totfact> 0.80860136E+05</totfact>
</mgrwt>
</event>
<event>
 6    1  0.4202038E-002  0.1262125E+03  0.7546771E-02  0.1233186E+00
         21   -1    0    0  503  502  0.00000000000E+00  0.00000000000E+00  0.89755955328E+02  0.89755955328E+02  0.00000000000E+00 0.  1.
         21   -1    0    0  504  503 -0.00000000000E+00 -0.00000000000E+00 -0.67825918604E+02  0.67825918604E+02  0.00000000000E+00 0.  1.
         25    2    1    2    0    0 -0.17392782102E+02 -0.18439131271E+01  0.40033578589E+02  0.13240952575E+03  0.12499474473E+03 0.  0.
          5    1    3    3  501    0  0.44429735168E+02  0.30288681530E+02  0.38752120279E+01  0.53911342630E+02  0.10000000000E+00 0. -1.
         -5    1    3    3    0  501 -0.61822517270E+02 -0.32132594657E+02  0.36158366561E+02  0.78498183121E+02  0.10000000000E+00 0. -1.
         21    1    1    2  504  502  0.17392782102E+02  0.18439131271E+01 -0.18103541865E+02  0.25172348180E+02  0.00000000000E+00 0.  1.
<mgrwt>
<rscale>  1 0.12621250E+03</rscale>
<asrwt>0</asrwt>
<pdfrwt beam="1">  1       21 0.13808609E-01 0.12621250E+03</pdfrwt>
<pdfrwt beam="2">  1       21 0.10434757E-01 0.12621250E+03</pdfrwt>
<totfact> 0.33890298E+06</totfact>
</mgrwt>
</event>
<event>
 6    1  0.4202038E-002  0.1310499E+03  0.7546771E-02  0.1225906E+00
         21   -1    0    0  503  502  0.00000000000E+00  0.00000000000E+00  0.28993677732E+03  0.28993677732E+03  0.00000000000E+00 0. -1.
         21   -1    0    0  504  503 -0.00000000000E+00 -0.00000000000E+00 -0.15488417717E+03  0.15488417717E+03  0.00000000000E+00 0.  1.
         25    2    1    2    0    0  0.26989138583E+02  0.28631913454E+02  0.27221972486E+03  0.30212189993E+03  0.12500345492E+03 0.  0.
          5    1    3    3  501    0  0.16517493838E+02 -0.47443660397E+02  0.73016086848E+02  0.88628931243E+02  0.10000000000E+00 0. -1.
         -5    1    3    3    0  501  0.10471644745E+02  0.76075573851E+02  0.19920363801E+03  0.21349296869E+03  0.10000000000E+00 0. -1.
         21    1    1    2  504  502 -0.26989138583E+02 -0.28631913454E+02 -0.13716712472E+03  0.14269905456E+03  0.00000000000E+00 0.  1.
<mgrwt>
<rscale>  1 0.13104985E+03</rscale>
<asrwt>0</asrwt>
<pdfrwt beam="1">  1       21 0.44605658E-01 0.13104985E+03</pdfrwt>
<pdfrwt beam="2">  1       21 0.23828335E-01 0.13104985E+03</pdfrwt>
<totfact> 0.82169076E+04</totfact>
</mgrwt>
</event>
<event>
 6    1  0.4202038E-002  0.1278451E+03  0.7546771E-02  0.1230689E+00
         21   -1    0    0  503  502  0.00000000000E+00  0.00000000000E+00  0.46412127404E+02  0.46412127404E+02  0.00000000000E+00 0. -1.
         21   -1    0    0  504  503 -0.00000000000E+00 -0.00000000000E+00 -0.13122960302E+03  0.13122960302E+03  0.00000000000E+00 0. -1.
         25    2    1    2    0    0  0.25893784848E+02  0.68210703403E+01 -0.60366468869E+02  0.14138063798E+03  0.12500943619E+03 0.  0.
          5    1    3    3  501    0  0.65099997522E+02 -0.26904809833E+02 -0.13780734080E+02  0.71776020378E+02  0.10000000000E+00 0.  1.
         -5    1    3    3    0  501 -0.39206212674E+02  0.33725880174E+02 -0.46585734789E+02  0.69604617602E+02  0.10000000000E+00 0.  1.
         21    1    1    2  504  502 -0.25893784848E+02 -0.68210703403E+01 -0.24451006750E+02  0.36261092447E+02  0.00000000000E+00 0. -1.
<mgrwt>
<rscale>  1 0.12784512E+03</rscale>
<asrwt>0</asrwt>
<pdfrwt beam="1">  1       21 0.71403273E-02 0.12784512E+03</pdfrwt>
<pdfrwt beam="2">  1       21 0.20189170E-01 0.12784512E+03</pdfrwt>
<totfact> 0.32784750E+06</totfact>
</mgrwt>
</event>
<event>
 6    1  0.4202038E-002  0.1261924E+03  0.7546771E-02  0.1233217E+00
         21   -1    0    0  504  502  0.00000000000E+00  0.00000000000E+00  0.25218525832E+03  0.25218525832E+03  0.00000000000E+00 0.  1.
         21   -1    0    0  502  503 -0.00000000000E+00 -0.00000000000E+00 -0.96608737347E+02  0.96608737347E+02  0.00000000000E+00 0.  1.
         25    2    1    2    0    0  0.14796200012E+02  0.88899600742E+01  0.23541847255E+03  0.26710742297E+03  0.12500623690E+03 0.  0.
          5    1    3    3  501    0  0.79729430270E+00 -0.47814083018E+02  0.18123631555E+03  0.18743914822E+03  0.10000000000E+00 0.  1.
         -5    1    3    3    0  501  0.13998905710E+02  0.56704043093E+02  0.54182157002E+02  0.79668274749E+02  0.10000000000E+00 0.  1.
         21    1    1    2  504  503 -0.14796200012E+02 -0.88899600742E+01 -0.79841951583E+02  0.81686572688E+02  0.00000000000E+00 0.  1.
<mgrwt>
<rscale>  1 0.12619239E+03</rscale>
<asrwt>0</asrwt>
<pdfrwt beam="1">  1       21 0.38797732E-01 0.12619239E+03</pdfrwt>
<pdfrwt beam="2">  1       21 0.14862883E-01 0.12619239E+03</pdfrwt>
<totfact> 0.25949839E+05</totfact>
</mgrwt>
</event>
<event>
 6    1  0.4202038E-002  0.1277290E+03  0.7546771E-02  0.1230865E+00
         21   -1    0    0  504  502  0.00000000000E+00  0.00000000000E+00  0.36040797764E+02  0.36040797764E+02  0.00000000000E+00 0.  1.
         21   -1    0    0  502  503 -0.00000000000E+00 -0.00000000000E+00 -0.74990548793E+03  0.74990548793E+03  0.00000000000E+00 0.  1.
         25    2    1    2    0    0  0.71671016843E+01 -0.25260504039E+02 -0.78256173036E+02  0.14979563729E+03  0.12500097569E+03 0.  0.
          5    1    3    3  501    0 -0.48765045446E+00 -0.74535965277E+02 -0.63146976250E+02  0.97690319543E+02  0.10000000000E+00 0.  1.
         -5    1    3    3    0  501  0.76547521388E+01  0.49275461238E+02 -0.15109196786E+02  0.52105317752E+02  0.10000000000E+00 0.  1.
         21    1    1    2  504  503 -0.71671016843E+01  0.25260504039E+02 -0.63560851713E+03  0.63615064840E+03  0.00000000000E+00 0.  1.
<mgrwt>
<rscale>  1 0.12772903E+03</rscale>
<asrwt>0</asrwt>
<pdfrwt beam="1">  1       21 0.55447380E-02 0.12772903E+03</pdfrwt>
<pdfrwt beam="2">  1       21 0.11537008E+00 0.12772903E+03</pdfrwt>
<totfact> 0.13469662E+05</totfact>
</mgrwt>
</event>
<event>
 6    1  0.4202038E-002  0.1924914E+03  0.7546771E-02  0.1156233E+00
         21   -1    0    0  503  502  0.00000000000E+00  0.00000000000E+00  0.15985421583E+03  0.15985421583E+03  0.00000000000E+00 0.  1.
         21   -1    0    0  504  503 -0.00000000000E+00 -0.00000000000E+00 -0.20223786115E+03  0.20223786115E+03  0.00000000000E+00 0.  1.
         25    2    1    2    0    0  0.92965988275E+02 -0.11307300552E+03  0.36326266810E+02  0.19588909921E+03  0.12499904789E+03 0.  0.
          5    1    3    3  501    0  0.55654794456E+01 -0.91737313810E+02 -0.13743093330E+02  0.92927885593E+02  0.10000000000E+00 0. -1.
         -5    1    3    3    0  501  0.87400508829E+02 -0.21335691715E+02  0.50069360140E+02  0.10296121362E+03  0.10000000000E+00 0. -1.
         21    1    1    2  504  502 -0.92965988275E+02  0.11307300552E+03 -0.78709912128E+02  0.16620297778E+03  0.00000000000E+00 0.  1.
<mgrwt>
<rscale>  1 0.19249141E+03</rscale>
<asrwt>0</asrwt>
<pdfrwt beam="1">  1       21 0.24592956E-01 0.19249141E+03</pdfrwt>
<pdfrwt beam="2">  1       21 0.31113517E-01 0.19249141E+03</pdfrwt>
<totfact> 0.15511626E+05</totfact>
</mgrwt>
</event>
<event>
 6    1  0.4202038E-002  0.1308186E+03  0.7546771E-02  0.1226246E+00
         21   -1    0    0  503  502  0.00000000000E+00  0.00000000000E+00  0.24875141360E+02  0.24875141360E+02  0.00000000000E+00 0.  1.
         21   -1    0    0  504  503 -0.00000000000E+00 -0.00000000000E+00 -0.38938437963E+03  0.38938437963E+03  0.00000000000E+00 0.  1.
         25    2    1    2    0    0 -0.35767609431E+02 -0.14487959912E+02 -0.16258180363E+03  0.20867763530E+03  0.12499715890E+03 0.  0.
          5    1    3    3  501    0  0.35749057051E+02 -0.21329858717E+02 -0.14489010473E+02  0.44078332289E+02  0.10000000000E+00 0.  1.
         -5    1    3    3    0  501 -0.71516666481E+02  0.68418988048E+01 -0.14809279316E+03  0.16459930301E+03  0.10000000000E+00 0.  1.
         21    1    1    2  504  502  0.35767609431E+02  0.14487959912E+02 -0.20192743463E+03  0.20558188569E+03  0.00000000000E+00 0.  1.
<mgrwt>
<rscale>  1 0.13081862E+03</rscale>
<asrwt>0</asrwt>
<pdfrwt beam="1">  1       21 0.38269449E-02 0.13081862E+03</pdfrwt>
<pdfrwt beam="2">  1       21 0.59905287E-01 0.13081862E+03</pdfrwt>
<totfact> 0.10992659E+06</totfact>
</mgrwt>
</event>
<event>
 6    1  0.4202038E-002  0.2126124E+03  0.7546771E-02  0.1139514E+00
         21   -1    0    0  504  502  0.00000000000E+00  0.00000000000E+00  0.31083365986E+03  0.31083365986E+03  0.00000000000E+00 0.  1.
         21   -1    0    0  502  503 -0.00000000000E+00 -0.00000000000E+00 -0.25289061456E+03  0.25289061456E+03  0.00000000000E+00 0. -1.
         25    2    1    2    0    0  0.23747058088E+01  0.17196943502E+03  0.23498786109E+03  0.31689641415E+03  0.12499966652E+03 0.  0.
          5    1    3    3  501    0  0.40241320757E+01  0.17311697458E+03  0.14214904988E+03  0.22403580720E+03  0.10000000000E+00 0. -1.
         -5    1    3    3    0  501 -0.16494262669E+01 -0.11475395681E+01  0.92838811215E+02  0.92860606944E+02  0.10000000000E+00 0. -1.
         21    1    1    2  504  503 -0.23747058088E+01 -0.17196943502E+03 -0.17704481579E+03  0.24682786027E+03  0.00000000000E+00 0. -1.
<mgrwt>
<rscale>  1 0.21261242E+03</rscale>
<asrwt>0</asrwt>
<pdfrwt beam="1">  1       21 0.47820563E-01 0.21261242E+03</pdfrwt>
<pdfrwt beam="2">  1       21 0.38906249E-01 0.21261242E+03</pdfrwt>
<totfact> 0.26332405E+04</totfact>
</mgrwt>
</event>
<event>
 6    1  0.4202038E-002  0.1262762E+03  0.7546771E-02  0.1233088E+00
         21   -1    0    0  504  502  0.00000000000E+00  0.00000000000E+00  0.17483213338E+03  0.17483213338E+03  0.00000000000E+00 0. -1.
         21   -1    0    0  502  503 -0.00000000000E+00 -0.00000000000E+00 -0.29703771544E+02  0.29703771544E+02  0.00000000000E+00 0. -1.
         25    2    1    2    0    0 -0.80428919169E+01 -0.15934688784E+02  0.12682142145E+03  0.17896743835E+03  0.12500827425E+03 0.  0.
          5    1    3    3  501    0  0.17064115080E+01  0.33618761415E+02 -0.83390216832E+01  0.34679709369E+02  0.10000000000E+00 0.  1.
         -5    1    3    3    0  501 -0.97493034249E+01 -0.49553450199E+02  0.13516044314E+03  0.14428772898E+03  0.10000000000E+00 0.  1.
         21    1    1    2  504  503  0.80428919169E+01  0.15934688784E+02  0.18306940382E+02  0.25568466578E+02  0.00000000000E+00 0. -1.
<mgrwt>
<rscale>  1 0.12627617E+03</rscale>
<asrwt>0</asrwt>
<pdfrwt beam="1">  1       21 0.26897251E-01 0.12627617E+03</pdfrwt>
<pdfrwt beam="2">  1       21 0.45698111E-02 0.12627617E+03</pdfrwt>
<totfact> 0.40687389E+06</totfact>
</mgrwt>
</event>
<event>
 6    1  0.4202038E-002  0.1269779E+03  0.7546771E-02  0.1232010E+00
         21   -1    0    0  504  502  0.00000000000E+00  0.00000000000E+00  0.32330070136E+02  0.32330070136E+02  0.00000000000E+00 0.  1.
         21   -1    0    0  502  503 -0.00000000000E+00 -0.00000000000E+00 -0.75308181607E+03  0.75308181607E+03  0.00000000000E+00 0.  1.
         25    2    1    2    0    0  0.19456714516E+02  0.10936489835E+02 -0.93316364842E+02  0.15757964110E+03  0.12500091517E+03 0.  0.
          5    1    3    3  501    0  0.71593088675E+02  0.88139449770E+01 -0.69693354666E+02  0.10030169319E+03  0.10000000000E+00 0.  1.
         -5    1    3    3    0  501 -0.52136374158E+02  0.21225448584E+01 -0.23623010176E+02  0.57277947910E+02  0.10000000000E+00 0.  1.
         21    1    1    2  504  503 -0.19456714516E+02 -0.10936489835E+02 -0.62743538110E+03  0.62783224511E+03  0.00000000000E+00 0.  1.
<mgrwt>
<rscale>  1 0.12697795E+03</rscale>
<asrwt>0</asrwt>
<pdfrwt beam="1">  1       21 0.49738567E-02 0.12697795E+03</pdfrwt>
<pdfrwt beam="2">  1       21 0.11585875E+00 0.12697795E+03</pdfrwt>
<totfact> 0.16013909E+05</totfact>
</mgrwt>
</event>
<event>
 6    1  0.4202038E-002  0.1314463E+03  0.7546771E-02  0.1225325E+00
         21   -1    0    0  504  502  0.00000000000E+00  0.00000000000E+00  0.12718030357E+03  0.12718030357E+03  0.00000000000E+00 0. -1.
         21   -1    0    0  502  503 -0.00000000000E+00 -0.00000000000E+00 -0.63448817238E+02  0.63448817238E+02  0.00000000000E+00 0. -1.
         25    2    1    2    0    0  0.39787136814E+02 -0.83945907819E+01  0.70885600265E+02  0.14934151061E+03  0.12499853221E+03 0.  0.
          5    1    3    3  501    0 -0.15684177575E+02 -0.55770568813E+02  0.38270866328E+02  0.69433558035E+02  0.10000000000E+00 0. -1.
         -5    1    3    3    0  501  0.55471314389E+02  0.47375978031E+02  0.32614733937E+02  0.79907952572E+02  0.10000000000E+00 0. -1.
         21    1    1    2  504  503 -0.39787136814E+02  0.83945907819E+01 -0.71541139292E+01  0.41287610204E+02  0.00000000000E+00 0. -1.
<mgrwt>
<rscale>  1 0.13144626E+03</rscale>
<asrwt>0</asrwt>
<pdfrwt beam="1">  1       21 0.19566200E-01 0.13144626E+03</pdfrwt>
<pdfrwt beam="2">  1       21 0.97613565E-02 0.13144626E+03</pdfrwt>
<totfact> 0.20250683E+06</totfact>
</mgrwt>
</event>
<event>
 6    1  0.4202038E-002  0.1261468E+03  0.7546771E-02  0.1233288E+00
         21   -1    0    0  503  502  0.00000000000E+00  0.00000000000E+00  0.11296137131E+03  0.11296137131E+03  0.00000000000E+00 0.  1.
         21   -1    0    0  504  503 -0.00000000000E+00 -0.00000000000E+00 -0.39306362442E+03  0.39306362442E+03  0.00000000000E+00 0. -1.
         25    2    1    2    0    0  0.34552219622E+01  0.16612151510E+02  0.77479565623E+02  0.14804083514E+03  0.12500041457E+03 0.  0.
          5    1    3    3  501    0 -0.59818097860E+02  0.16683455856E+02  0.46559131412E+02  0.77616398066E+02  0.10000000000E+00 0.  1.
         -5    1    3    3    0  501  0.63273319823E+02 -0.71304345383E-01  0.30920434210E+02  0.70424437076E+02  0.10000000000E+00 0.  1.
         21    1    1    2  504  502 -0.34552219622E+01 -0.16612151510E+02 -0.35758181874E+03  0.35798416059E+03  0.00000000000E+00 0. -1.
<mgrwt>
<rscale>  1 0.12614676E+03</rscale>
<asrwt>0</asrwt>
<pdfrwt beam="1">  1       21 0.17378672E-01 0.12614676E+03</pdfrwt>
<pdfrwt beam="2">  1       21 0.60471327E-01 0.12614676E+03</pdfrwt>
<totfact> 0.78562851E+04</totfact>
</mgrwt>
</event>
<event>
 6    1  0.4202038E-002  0.1270140E+03  0.7546771E-02  0.1231955E+00
         21   -1    0    0  503  502  0.00000000000E+00  0.00000000000E+00  0.49465222446E+02  0.49465222446E+02  0.00000000000E+00 0.  1.
         21   -1    0    0  504  503 -0.00000000000E+00 -0.00000000000E+00 -0.27145235390E+03  0.27145235390E+03  0.00000000000E+00 0.  1.
         25    2    1    2    0    0 -0.52113289935E+01  0.22417823040E+02 -0.33944437219E+02  0.13147161678E+03  0.12491134641E+03 0.  0.
          5    1    3    3  501    0  0.16564074045E+02  0.54456816688E+02 -0.61601872556E+02  0.83873202724E+02  0.10000000000E+00 0. -1.
         -5    1    3    3    0  501 -0.21775403038E+02 -0.32038993648E+02  0.27657435337E+02  0.47598414059E+02  0.10000000000E+00 0. -1.
         21    1    1    2  504  502  0.52113289935E+01 -0.22417823040E+02 -0.18804269424E+03  0.18944595957E+03  0.00000000000E+00 0.  1.
<mgrwt>
<rscale>  1 0.12701402E+03</rscale>
<asrwt>0</asrwt>
<pdfrwt beam="1">  1       21 0.76100344E-02 0.12701402E+03</pdfrwt>
<pdfrwt beam="2">  1       21 0.41761900E-01 0.12701402E+03</pdfrwt>
<totfact> 0.72596915E+05</totfact>
</mgrwt>
</event>
<event>
 6    1  0.4202038E-002  0.1386641E+03  0.7546771E-02  0.1215138E+00
         21   -1    0    0  504  502  0.00000000000E+00  0.00000000000E+00  0.35677542507E+03  0.35677542507E+03  0.00000000000E+00 0.  1.
         21   -1    0    0  502  503 -0.00000000000E+00 -0.00000000000E+00 -0.73412488885E+02  0.73412488885E+02  0.00000000000E+00 0. -1.
         25    2    1    2    0    0 -0.53848457182E+02  0.26513901136E+02  0.32752568451E+03  0.35566951600E+03  0.12500034921E+03 0.  0.
          5    1    3    3  501    0  0.62320366261E+01 -0.24598616800E+01  0.26227055307E+03  0.26235613622E+03  0.10000000000E+00 0. -1.
         -5    1    3    3    0  501 -0.60080493808E+02  0.28973762816E+02  0.65255131432E+02  0.93313379781E+02  0.10000000000E+00 0. -1.
         21    1    1    2  504  503  0.53848457182E+02 -0.26513901136E+02 -0.44162748324E+02  0.74518397955E+02  0.00000000000E+00 0. -1.
<mgrwt>
<rscale>  1 0.13866409E+03</rscale>
<asrwt>0</asrwt>
<pdfrwt beam="1">  1       21 0.54888526E-01 0.13866409E+03</pdfrwt>
<pdfrwt beam="2">  1       21 0.11294229E-01 0.13866409E+03</pdfrwt>
<totfact> 0.20793112E+05</totfact>
</mgrwt>
</event>
<event>
 6    1  0.4202038E-002  0.1278743E+03  0.7546771E-02  0.1230644E+00
         21   -1    0    0  503  502  0.00000000000E+00  0.00000000000E+00  0.25585494559E+03  0.25585494559E+03  0.00000000000E+00 0. -1.
         21   -1    0    0  504  503 -0.00000000000E+00 -0.00000000000E+00 -0.23685421131E+02  0.23685421131E+02  0.00000000000E+00 0. -1.
         25    2    1    2    0    0  0.24207759044E+02 -0.11881134241E+02  0.20203008786E+03  0.23909827741E+03  0.12499861165E+03 0.  0.
          5    1    3    3  501    0 -0.31143134519E+02 -0.46539493337E+02  0.56315131390E+02  0.79418028755E+02  0.10000000000E+00 0. -1.
         -5    1    3    3    0  501  0.55350893563E+02  0.34658359097E+02  0.14571495647E+03  0.15968024866E+03  0.10000000000E+00 0. -1.
         21    1    1    2  504  502 -0.24207759044E+02  0.11881134241E+02  0.30139436598E+02  0.40442089304E+02  0.00000000000E+00 0.  1.
<mgrwt>
<rscale>  1 0.12787427E+03</rscale>
<asrwt>0</asrwt>
<pdfrwt beam="1">  1       21 0.39362297E-01 0.12787427E+03</pdfrwt>
<pdfrwt beam="2">  1       21 0.36439111E-02 0.12787427E+03</pdfrwt>
<totfact> 0.28256197E+06</totfact>
</mgrwt>
</event>
<event>
 6    1  0.4202038E-002  0.1274873E+03  0.7546771E-02  0.1231233E+00
         21   -1    0    0  504  502  0.00000000000E+00  0.00000000000E+00  0.38840330489E+03  0.38840330489E+03  0.00000000000E+00 0.  1.
         21   -1    0    0  502  503 -0.00000000000E+00 -0.00000000000E+00 -0.16253074086E+02  0.16253074086E+02  0.00000000000E+00 0.  1.
         25    2    1    2    0    0  0.24207948496E+02 -0.64237928402E+01  0.34458411584E+03  0.36741150578E+03  0.12500284721E+03 0.  0.
          5    1    3    3  501    0  0.66199238651E+02 -0.35684762538E+02  0.18081190608E+03  0.19582823304E+03  0.10000000000E+00 0.  1.
         -5    1    3    3    0  501 -0.41991290155E+02  0.29260969698E+02  0.16377220975E+03  0.17158327274E+03  0.10000000000E+00 0.  1.
         21    1    1    2  504  503 -0.24207948496E+02  0.64237928402E+01  0.27566114970E+02  0.37244873195E+02  0.00000000000E+00 0.  1.
<mgrwt>
<rscale>  1 0.12748726E+03</rscale>
<asrwt>0</asrwt>
<pdfrwt beam="1">  1       21 0.59754347E-01 0.12748726E+03</pdfrwt>
<pdfrwt beam="2">  1       21 0.25004732E-02 0.12748726E+03</pdfrwt>
<totfact> 0.22223096E+06</totfact>
</mgrwt>
</event>
<event>
 6    1  0.4202038E-002  0.1336483E+03  0.7546771E-02  0.1222141E+00
         21   -1    0    0  503  502  0.00000000000E+00  0.00000000000E+00  0.81195174496E+01  0.81195174496E+01  0.00000000000E+00 0. -1.
         21   -1    0    0  504  503 -0.00000000000E+00 -0.00000000000E+00 -0.10867343247E+04  0.10867343247E+04  0.00000000000E+00 0. -1.
         25    2    1    2    0    0 -0.62450976486E+01 -0.46881855991E+02 -0.64726969187E+03  0.66092352720E+03  0.12499978053E+03 0.  0.
          5    1    3    3  501    0 -0.14998288860E+02  0.24563143413E+02 -0.39319413066E+02  0.48727024605E+02  0.10000000000E+00 0.  1.
         -5    1    3    3    0  501  0.87531912118E+01 -0.71444999404E+02 -0.60795027880E+03  0.61219650259E+03  0.10000000000E+00 0.  1.
         21    1    1    2  504  502  0.62450976486E+01  0.46881855991E+02 -0.43134511535E+03  0.43393031492E+03  0.00000000000E+00 0. -1.
<mgrwt>
<rscale>  1 0.13364825E+03</rscale>
<asrwt>0</asrwt>
<pdfrwt beam="1">  1       21 0.12491568E-02 0.13364825E+03</pdfrwt>
<pdfrwt beam="2">  1       21 0.16718986E+00 0.13364825E+03</pdfrwt>
<totfact> 0.59771397E+05</totfact>
</mgrwt>
</event>
<event>
 6    1  0.4202038E-002  0.1380655E+03  0.7546771E-02  0.1215956E+00
         21   -1    0    0  503  502  0.00000000000E+00  0.00000000000E+00  0.26620070691E+02  0.26620070691E+02  0.00000000000E+00 0. -1.
         21   -1    0    0  504  503 -0.00000000000E+00 -0.00000000000E+00 -0.42716318440E+03  0.42716318440E+03  0.00000000000E+00 0. -1.
         25    2    1    2    0    0 -0.54960010242E+02 -0.20492217698E+02 -0.18772315443E+03  0.23302803141E+03  0.12498618726E+03 0.  0.
          5    1    3    3  501    0 -0.68920908410E+02 -0.89338410427E+01 -0.32449260378E+02  0.76699867216E+02  0.10000000000E+00 0.  1.
         -5    1    3    3    0  501  0.13960898168E+02 -0.11558376656E+02 -0.15527389405E+03  0.15632816420E+03  0.10000000000E+00 0.  1.
         21    1    1    2  504  502  0.54960010242E+02  0.20492217698E+02 -0.21281995929E+03  0.22075522368E+03  0.00000000000E+00 0. -1.
<mgrwt>
<rscale>  1 0.13806549E+03</rscale>
<asrwt>0</asrwt>
<pdfrwt beam="1">  1       21 0.40953957E-02 0.13806549E+03</pdfrwt>
<pdfrwt beam="2">  1       21 0.65717409E-01 0.13806549E+03</pdfrwt>
<totfact> 0.80544491E+05</totfact>
</mgrwt>
</event>
<event>
 6    1  0.4202038E-002  0.1271828E+03  0.7546771E-02  0.1231697E+00
         21   -1    0    0  504  502  0.00000000000E+00  0.00000000000E+00  0.13172896964E+04  0.13172896964E+04  0.00000000000E+00 0.  1.
         21   -1    0    0  502  503 -0.00000000000E+00 -0.00000000000E+00 -0.27540090748E+02  0.27540090748E+02  0.00000000000E+00 0. -1.
         25    2    1    2    0    0  0.18392386908E+02  0.14639161919E+02  0.13085581093E+04  0.13147242267E+04  0.12499152708E+03 0.  0.
          5    1    3    3  501    0 -0.32471828184E+02  0.65021300198E+01  0.10768649598E+04  0.10773740525E+04  0.10000000000E+00 0.  1.
         -5    1    3    3    0  501  0.50864215093E+02  0.81370318991E+01  0.23169314951E+03  0.23735017420E+03  0.10000000000E+00 0.  1.
         21    1    1    2  504  503 -0.18392386908E+02 -0.14639161919E+02 -0.18808503687E+02  0.30105560430E+02  0.00000000000E+00 0. -1.
<mgrwt>
<rscale>  1 0.12718281E+03</rscale>
<asrwt>0</asrwt>
<pdfrwt beam="1">  1       21 0.20265990E+00 0.12718281E+03</pdfrwt>
<pdfrwt beam="2">  1       21 0.42369381E-02 0.12718281E+03</pdfrwt>
<totfact> 0.48198151E+04</totfact>
</mgrwt>
</event>
<event>
 6    1  0.4202038E-002  0.1260388E+03  0.7546771E-02  0.1233455E+00
         21   -1    0    0  503  502  0.00000000000E+00  0.00000000000E+00  0.21208290598E+03  0.21208290598E+03  0.00000000000E+00 0.  1.
         21   -1    0    0  504  503 -0.00000000000E+00 -0.00000000000E+00 -0.33108573096E+02  0.33108573096E+02  0.00000000000E+00 0.  1.
         25    2    1    2    0    0  0.69729251695E+01 -0.14650931490E+02  0.18821531200E+03  0.22651884739E+03  0.12499005190E+03 0.  0.
          5    1    3    3  501    0  0.60923613595E+02  0.16400148341E+02  0.10663729832E+03  0.12390389402E+03  0.10000000000E+00 0.  1.
         -5    1    3    3    0  501 -0.53950688425E+02 -0.31051079831E+02  0.81578013676E+02  0.10261495337E+03  0.10000000000E+00 0.  1.
         21    1    1    2  504  502 -0.69729251695E+01  0.14650931490E+02 -0.92409791172E+01  0.18672631683E+02  0.00000000000E+00 0.  1.
<mgrwt>
<rscale>  1 0.12603882E+03</rscale>
<asrwt>0</asrwt>
<pdfrwt beam="1">  1       21 0.32628139E-01 0.12603882E+03</pdfrwt>
<pdfrwt beam="2">  1       21 0.50936267E-02 0.12603882E+03</pdfrwt>
<totfact> 0.23386745E+06</totfact>
</mgrwt>
</event>
<event>
 6    1  0.4202038E-002  0.1261418E+03  0.7546771E-02  0.1233296E+00
         21   -1    0    0  503  502  0.00000000000E+00  0.00000000000E+00  0.55488674288E+03  0.55488674288E+03  0.00000000000E+00 0. -1.
         21   -1    0    0  504  503 -0.00000000000E+00 -0.00000000000E+00 -0.17121744542E+02  0.17121744542E+02  0.00000000000E+00 0. -1.
         25    2    1    2    0    0  0.16787751612E+02 -0.22495943495E+01  0.54034671050E+03  0.55487505471E+03  0.12499947801E+03 0.  0.
          5    1    3    3  501    0 -0.24834381352E+02  0.45302404337E+02  0.13346897531E+03  0.14311894251E+03  0.10000000000E+00 0. -1.
         -5    1    3    3    0  501  0.41622132964E+02 -0.47551998687E+02  0.40687773520E+03  0.41175611220E+03  0.10000000000E+00 0. -1.
         21    1    1    2  504  502 -0.16787751612E+02  0.22495943495E+01 -0.25817121659E+01  0.17133432716E+02  0.00000000000E+00 0. -1.
<mgrwt>
<rscale>  1 0.12614182E+03</rscale>
<asrwt>0</asrwt>
<pdfrwt beam="1">  1       21 0.85367177E-01 0.12614182E+03</pdfrwt>
<pdfrwt beam="2">  1       21 0.26341150E-02 0.12614182E+03</pdfrwt>
<totfact> 0.93516606E+05</totfact>
</mgrwt>
</event>
<event>
 6    1  0.4202038E-002  0.1260910E+03  0.7546771E-02  0.1233374E+00
         21   -1    0    0  503  502  0.00000000000E+00  0.00000000000E+00  0.45939272278E+02  0.45939272278E+02  0.00000000000E+00 0.  1.
         21   -1    0    0  504  503 -0.00000000000E+00 -0.00000000000E+00 -0.47858137915E+03  0.47858137915E+03  0.00000000000E+00 0.  1.
         25    2    1    2    0    0 -0.38953504895E+01  0.16045436325E+02 -0.41085097687E+02  0.13261566138E+03  0.12500519433E+03 0.  0.
          5    1    3    3  501    0 -0.59500646034E+02  0.29959752028E+02 -0.34200295215E+02  0.74883802072E+02  0.10000000000E+00 0. -1.
         -5    1    3    3    0  501  0.55605295544E+02 -0.13914315703E+02 -0.68848024720E+01  0.57731859307E+02  0.10000000000E+00 0. -1.
         21    1    1    2  504  502  0.38953504895E+01 -0.16045436325E+02 -0.39155700919E+03  0.39190499005E+03  0.00000000000E+00 0.  1.
<mgrwt>
<rscale>  1 0.12609095E+03</rscale>
<asrwt>0</asrwt>
<pdfrwt beam="1">  1       21 0.70675800E-02 0.12609095E+03</pdfrwt>
<pdfrwt beam="2">  1       21 0.73627908E-01 0.12609095E+03</pdfrwt>
<totfact> 0.25077415E+05</totfact>
</mgrwt>
</event>
<event>
 6    1  0.4202038E-002  0.1298546E+03  0.7546771E-02  0.1227672E+00
         21   -1    0    0  503  502  0.00000000000E+00  0.00000000000E+00  0.24530652315E+03  0.24530652315E+03  0.00000000000E+00 0.  1.
         21   -1    0    0  504  503 -0.00000000000E+00 -0.00000000000E+00 -0.32502511899E+02  0.32502511899E+02  0.00000000000E+00 0.  1.
         25    2    1    2    0    0 -0.33374256461E+02 -0.11276548998E+02  0.20345269167E+03  0.24136114444E+03  0.12498481006E+03 0.  0.
          5    1    3    3  501    0  0.41536916356E+02  0.15801391871E+01  0.12669356149E+03  0.13333821951E+03  0.10000000000E+00 0. -1.
         -5    1    3    3    0  501 -0.74911172817E+02 -0.12856688185E+02  0.76759130180E+02  0.10802292493E+03  0.10000000000E+00 0. -1.
         21    1    1    2  504  502  0.33374256461E+02  0.11276548998E+02  0.93513195785E+01  0.36447890604E+02  0.00000000000E+00 0.  1.
<mgrwt>
<rscale>  1 0.12985455E+03</rscale>
<asrwt>0</asrwt>
<pdfrwt beam="1">  1       21 0.37739464E-01 0.12985455E+03</pdfrwt>
<pdfrwt beam="2">  1       21 0.50003866E-02 0.12985455E+03</pdfrwt>
<totfact> 0.18139547E+06</totfact>
</mgrwt>
</event>
<event>
 6    1  0.4202038E-002  0.1259119E+03  0.7546771E-02  0.1233651E+00
         21   -1    0    0  504  502  0.00000000000E+00  0.00000000000E+00  0.50744521993E+01  0.50744521993E+01  0.00000000000E+00 0.  1.
         21   -1    0    0  502  503 -0.00000000000E+00 -0.00000000000E+00 -0.98161503684E+03  0.98161503684E+03  0.00000000000E+00 0.  1.
         25    2    1    2    0    0  0.21826109236E+01  0.14973103007E+02 -0.85902765501E+03  0.86820638377E+03  0.12499942056E+03 0.  0.
          5    1    3    3  501    0 -0.47036795557E+02  0.14281983474E+02 -0.15841631508E+03  0.16586794167E+03  0.10000000000E+00 0.  1.
         -5    1    3    3    0  501  0.49219406481E+02  0.69111953210E+00 -0.70061133993E+03  0.70233844210E+03  0.10000000000E+00 0.  1.
         21    1    1    2  504  503 -0.21826109236E+01 -0.14973103007E+02 -0.11751292963E+03  0.11848310527E+03  0.00000000000E+00 0.  1.
<mgrwt>
<rscale>  1 0.12591192E+03</rscale>
<asrwt>0</asrwt>
<pdfrwt beam="1">  1       21 0.78068483E-03 0.12591192E+03</pdfrwt>
<pdfrwt beam="2">  1       21 0.15101772E+00 0.12591192E+03</pdfrwt>
<totfact> 0.16422578E+06</totfact>
</mgrwt>
</event>
<event>
 6    1  0.4202038E-002  0.1259236E+03  0.7546771E-02  0.1233633E+00
         21   -1    0    0  503  502  0.00000000000E+00  0.00000000000E+00  0.14178919459E+03  0.14178919459E+03  0.00000000000E+00 0. -1.
         21   -1    0    0  504  503 -0.00000000000E+00 -0.00000000000E+00 -0.37229975136E+03  0.37229975136E+03  0.00000000000E+00 0. -1.
         25    2    1    2    0    0  0.27581801964E+01 -0.14959606917E+02  0.11362966350E+03  0.16961269336E+03  0.12500147169E+03 0.  0.
          5    1    3    3  501    0 -0.58847289758E+02 -0.21627090728E+02  0.69120571662E+02  0.93318797635E+02  0.10000000000E+00 0.  1.
         -5    1    3    3    0  501  0.61605469955E+02  0.66674838110E+01  0.44509091836E+02  0.76293895724E+02  0.10000000000E+00 0.  1.
         21    1    1    2  504  502 -0.27581801964E+01  0.14959606917E+02 -0.34414022026E+03  0.34447625259E+03  0.00000000000E+00 0. -1.
<mgrwt>
<rscale>  1 0.12592365E+03</rscale>
<asrwt>0</asrwt>
<pdfrwt beam="1">  1       21 0.21813723E-01 0.12592365E+03</pdfrwt>
<pdfrwt beam="2">  1       21 0.57276884E-01 0.12592365E+03</pdfrwt>
<totfact> 0.57968905E+04</totfact>
</mgrwt>
</event>
<event>
 6    1  0.4202038E-002  0.1353163E+03  0.7546771E-02  0.1219774E+00
         21   -1    0    0  504  502  0.00000000000E+00  0.00000000000E+00  0.15994220695E+04  0.15994220695E+04  0.00000000000E+00 0. -1.
         21   -1    0    0  502  503 -0.00000000000E+00 -0.00000000000E+00 -0.16674698708E+03  0.16674698708E+03  0.00000000000E+00 0. -1.
         25    2    1    2    0    0 -0.29198938852E+02 -0.42819467483E+02  0.15924549693E+04  0.15981937694E+04  0.12499764238E+03 0.  0.
          5    1    3    3  501    0  0.39996659737E+02  0.70395204278E+01  0.82811021210E+03  0.82910543420E+03  0.10000000000E+00 0.  1.
         -5    1    3    3    0  501 -0.69195598588E+02 -0.49858987911E+02  0.76434475719E+03  0.76908833523E+03  0.10000000000E+00 0.  1.
         21    1    1    2  504  503  0.29198938852E+02  0.42819467483E+02 -0.15977988690E+03  0.16797528712E+03  0.00000000000E+00 0. -1.
<mgrwt>
<rscale>  1 0.13531628E+03</rscale>
<asrwt>0</asrwt>
<pdfrwt beam="1">  1       21 0.24606492E+00 0.13531628E+03</pdfrwt>
<pdfrwt beam="2">  1       21 0.25653384E-01 0.13531628E+03</pdfrwt>
<totfact> 0.10963375E+03</totfact>
</mgrwt>
</event>
<event>
 6    1  0.4202038E-002  0.1281695E+03  0.7546771E-02  0.1230197E+00
         21   -1    0    0  504  502  0.00000000000E+00  0.00000000000E+00  0.22898164246E+03  0.22898164246E+03  0.00000000000E+00 0. -1.
         21   -1    0    0  502  503 -0.00000000000E+00 -0.00000000000E+00 -0.28670071051E+02  0.28670071051E+02  0.00000000000E+00 0. -1.
         25    2    1    2    0    0 -0.28296206126E+02 -0.19396126073E+01  0.18599791361E+03  0.22588194521E+03  0.12499196745E+03 0.  0.
          5    1    3    3  501    0 -0.45720279779E+02  0.52942450394E+02  0.90744885659E+02  0.11457701039E+03  0.10000000000E+00 0.  1.
         -5    1    3    3    0  501  0.17424073653E+02 -0.54882063001E+02  0.95253027947E+02  0.11130493482E+03  0.10000000000E+00 0.  1.
         21    1    1    2  504  503  0.28296206126E+02  0.19396126073E+01  0.14313657802E+02  0.31769768300E+02  0.00000000000E+00 0. -1.
<mgrwt>
<rscale>  1 0.12816953E+03</rscale>
<asrwt>0</asrwt>
<pdfrwt beam="1">  1       21 0.35227944E-01 0.12816953E+03</pdfrwt>
<pdfrwt beam="2">  1       21 0.44107803E-02 0.12816953E+03</pdfrwt>
<totfact> 0.25630251E+06</totfact>
</mgrwt>
</event>
<event>
 6    1  0.4202038E-002  0.1345754E+03  0.7546771E-02  0.1220820E+00
         21   -1    0    0  504  502  0.00000000000E+00  0.00000000000E+00  0.13770248032E+02  0.13770248032E+02  0.00000000000E+00 0.  1.
         21   -1    0    0  502  503 -0.00000000000E+00 -0.00000000000E+00 -0.79832063454E+03  0.79832063454E+03  0.00000000000E+00 0.  1.
         25    2    1    2    0    0 -0.30511907097E+02  0.39426946280E+02 -0.35491030201E+03  0.37956797824E+03  0.12500026825E+03 0.  0.
          5    1    3    3  501    0  0.12772520955E+02  0.65171574257E+02 -0.10215882354E+03  0.12184788307E+03  0.10000000000E+00 0. -1.
         -5    1    3    3    0  501 -0.43284428051E+02 -0.25744627976E+02 -0.25275147847E+03  0.25772009516E+03  0.10000000000E+00 0. -1.
         21    1    1    2  504  503  0.30511907097E+02 -0.39426946280E+02 -0.42964008450E+03  0.43252290433E+03  0.00000000000E+00 0.  1.
<mgrwt>
<rscale>  1 0.13457536E+03</rscale>
<asrwt>0</asrwt>
<pdfrwt beam="1">  1       21 0.21184990E-02 0.13457536E+03</pdfrwt>
<pdfrwt beam="2">  1       21 0.12281860E+00 0.13457536E+03</pdfrwt>
<totfact> 0.56533561E+05</totfact>
</mgrwt>
</event>
<event>
 6    1  0.4202038E-002  0.1262079E+03  0.7546771E-02  0.1233193E+00
         21   -1    0    0  504  502  0.00000000000E+00  0.00000000000E+00  0.83708764815E+03  0.83708764815E+03  0.00000000000E+00 0. -1.
         21   -1    0    0  502  503 -0.00000000000E+00 -0.00000000000E+00 -0.27822924955E+02  0.27822924955E+02  0.00000000000E+00 0. -1.
         25    2    1    2    0    0  0.19272074037E+01 -0.17315448883E+02  0.82901915828E+03  0.83857093370E+03  0.12499962865E+03 0.  0.
          5    1    3    3  501    0  0.94840273325E+01  0.34642397502E+01  0.80800065957E+03  0.80806374972E+03  0.10000000000E+00 0. -1.
         -5    1    3    3    0  501 -0.75568199288E+01 -0.20779688633E+02  0.21018498704E+02  0.30507183988E+02  0.10000000000E+00 0. -1.
         21    1    1    2  504  503 -0.19272074037E+01  0.17315448883E+02 -0.19754435083E+02  0.26339639402E+02  0.00000000000E+00 0. -1.
<mgrwt>
<rscale>  1 0.12620795E+03</rscale>
<asrwt>0</asrwt>
<pdfrwt beam="1">  1       21 0.12878270E+00 0.12620795E+03</pdfrwt>
<pdfrwt beam="2">  1       21 0.42804506E-02 0.12620795E+03</pdfrwt>
<totfact> 0.15891735E+05</totfact>
</mgrwt>
</event>
<event>
 6    1  0.4202038E-002  0.1458137E+03  0.7546771E-02  0.1205714E+00
         21   -1    0    0  503  502  0.00000000000E+00  0.00000000000E+00  0.31020160241E+03  0.31020160241E+03  0.00000000000E+00 0. -1.
         21   -1    0    0  504  503 -0.00000000000E+00 -0.00000000000E+00 -0.39367258931E+02  0.39367258931E+02  0.00000000000E+00 0. -1.
         25    2    1    2    0    0  0.22867996565E+02 -0.71521060858E+02  0.18400547535E+03  0.23477574415E+03  0.12499371052E+03 0.  0.
          5    1    3    3  501    0 -0.31792201053E+02  0.59165877309E+01  0.10960995979E+03  0.11428080916E+03  0.10000000000E+00 0.  1.
         -5    1    3    3    0  501  0.54660197618E+02 -0.77437648589E+02  0.74395515561E+02  0.12049493499E+03  0.10000000000E+00 0.  1.
         21    1    1    2  504  502 -0.22867996565E+02  0.71521060858E+02  0.86828868130E+02  0.11479311719E+03  0.00000000000E+00 0. -1.
<mgrwt>
<rscale>  1 0.14581370E+03</rscale>
<asrwt>0</asrwt>
<pdfrwt beam="1">  1       21 0.47723322E-01 0.14581370E+03</pdfrwt>
<pdfrwt beam="2">  1       21 0.60565016E-02 0.14581370E+03</pdfrwt>
<totfact> 0.81768644E+05</totfact>
</mgrwt>
</event>
<event>
 6    1  0.4202038E-002  0.1324389E+03  0.7546771E-02  0.1223881E+00
         21   -1    0    0  504  502  0.00000000000E+00  0.00000000000E+00  0.10767055518E+02  0.10767055518E+02  0.00000000000E+00 0.  1.
         21   -1    0    0  502  503 -0.00000000000E+00 -0.00000000000E+00 -0.72658597991E+03  0.72658597991E+03  0.00000000000E+00 0.  1.
         25    2    1    2    0    0 -0.41655490976E+02  0.13617652631E+02 -0.50956935875E+03  0.52649881157E+03  0.12497778529E+03 0.  0.
          5    1    3    3  501    0  0.15028938962E+01  0.63018784340E+02 -0.31262631699E+03  0.31891824962E+03  0.10000000000E+00 0. -1.
         -5    1    3    3    0  501 -0.43158384872E+02 -0.49401131710E+02 -0.19694304176E+03  0.20758056194E+03  0.10000000000E+00 0. -1.
         21    1    1    2  504  503  0.41655490976E+02 -0.13617652631E+02 -0.20624956565E+03  0.21085422386E+03  0.00000000000E+00 0.  1.
<mgrwt>
<rscale>  1 0.13243892E+03</rscale>
<asrwt>0</asrwt>
<pdfrwt beam="1">  1       21 0.16564696E-02 0.13243892E+03</pdfrwt>
<pdfrwt beam="2">  1       21 0.11178249E+00 0.13243892E+03</pdfrwt>
<totfact> 0.10561067E+06</totfact>
</mgrwt>
</event>
<event>
 6    1  0.4202038E-002  0.1333934E+03  0.7546771E-02  0.1222506E+00
         21   -1    0    0  504  502  0.00000000000E+00  0.00000000000E+00  0.34422535844E+03  0.34422535844E+03  0.00000000000E+00 0. -1.
         21   -1    0    0  502  503 -0.00000000000E+00 -0.00000000000E+00 -0.27602598547E+02  0.27602598547E+02  0.00000000000E+00 0. -1.
         25    2    1    2    0    0 -0.36290906672E+02 -0.29165066430E+02  0.28742936804E+03  0.31687447543E+03  0.12500464217E+03 0.  0.
          5    1    3    3  501    0  0.41471882611E+01  0.43966035210E+02  0.59419031053E+02  0.74032713538E+02  0.10000000000E+00 0.  1.
         -5    1    3    3    0  501 -0.40438094933E+02 -0.73131101640E+02  0.22801033698E+03  0.24284176190E+03  0.10000000000E+00 0.  1.
         21    1    1    2  504  503  0.36290906672E+02  0.29165066430E+02  0.29193391860E+02  0.54953481557E+02  0.00000000000E+00 0. -1.
<mgrwt>
<rscale>  1 0.13339337E+03</rscale>
<asrwt>0</asrwt>
<pdfrwt beam="1">  1       21 0.52957745E-01 0.13339337E+03</pdfrwt>
<pdfrwt beam="2">  1       21 0.42465539E-02 0.13339337E+03</pdfrwt>
<totfact> 0.11984835E+06</totfact>
</mgrwt>
</event>
<event>
 6    1  0.4202038E-002  0.1265994E+03  0.7546771E-02  0.1232591E+00
         21   -1    0    0  504  502  0.00000000000E+00  0.00000000000E+00  0.26768455339E+03  0.26768455339E+03  0.00000000000E+00 0.  1.
         21   -1    0    0  502  503 -0.00000000000E+00 -0.00000000000E+00 -0.20105417661E+02  0.20105417661E+02  0.00000000000E+00 0.  1.
         25    2    1    2    0    0 -0.94745751071E+01 -0.17734085981E+02  0.21211018527E+03  0.24701851258E+03  0.12499259772E+03 0.  0.
          5    1    3    3  501    0 -0.54634587576E+02  0.25061840957E+02  0.72531515393E+02  0.94201192970E+02  0.10000000000E+00 0. -1.
         -5    1    3    3    0  501  0.45160012469E+02 -0.42795926938E+02  0.13957866988E+03  0.15281731961E+03  0.10000000000E+00 0. -1.
         21    1    1    2  504  503  0.94745751071E+01  0.17734085981E+02  0.35468950454E+02  0.40771458465E+02  0.00000000000E+00 0.  1.
<mgrwt>
<rscale>  1 0.12659943E+03</rscale>
<asrwt>0</asrwt>
<pdfrwt beam="1">  1       21 0.41182236E-01 0.12659943E+03</pdfrwt>
<pdfrwt beam="2">  1       21 0.30931414E-02 0.12659943E+03</pdfrwt>
<totfact> 0.33802087E+06</totfact>
</mgrwt>
</event>
<event>
 6    1  0.4202038E-002  0.1280103E+03  0.7546771E-02  0.1230438E+00
         21   -1    0    0  504  502  0.00000000000E+00  0.00000000000E+00  0.59969696639E+03  0.59969696639E+03  0.00000000000E+00 0.  1.
         21   -1    0    0  502  503 -0.00000000000E+00 -0.00000000000E+00 -0.21948910220E+02  0.21948910220E+02  0.00000000000E+00 0.  1.
         25    2    1    2    0    0 -0.39499270998E+01  0.27317567999E+02  0.57999438136E+03  0.59395296375E+03  0.12499915718E+03 0.  0.
          5    1    3    3  501    0 -0.42023000004E+02 -0.34618329868E+02  0.21486362208E+03  0.22165456771E+03  0.10000000000E+00 0.  1.
         -5    1    3    3    0  501  0.38073072904E+02  0.61935897867E+02  0.36513075928E+03  0.37229839604E+03  0.10000000000E+00 0.  1.
         21    1    1    2  504  503  0.39499270998E+01 -0.27317567999E+02 -0.22463251942E+01  0.27692912854E+02  0.00000000000E+00 0.  1.
<mgrwt>
<rscale>  1 0.12801031E+03</rscale>
<asrwt>0</asrwt>
<pdfrwt beam="1">  1       21 0.92261059E-01 0.12801031E+03</pdfrwt>
<pdfrwt beam="2">  1       21 0.33767559E-02 0.12801031E+03</pdfrwt>
<totfact> 0.52140222E+05</totfact>
</mgrwt>
</event>
<event>
 6    1  0.4202038E-002  0.1291338E+03  0.7546771E-02  0.1228747E+00
         21   -1    0    0  503  502  0.00000000000E+00  0.00000000000E+00  0.30226227441E+03  0.30226227441E+03  0.00000000000E+00 0.  1.
         21   -1    0    0  504  503 -0.00000000000E+00 -0.00000000000E+00 -0.31165155662E+02  0.31165155662E+02  0.00000000000E+00 0.  1.
         25    2    1    2    0    0  0.78623443950E+01  0.31525813680E+02  0.27181279907E+03  0.30092811337E+03  0.12497935147E+03 0.  0.
          5    1    3    3  501    0  0.51626951850E+02 -0.12808834728E+02  0.60187800712E+02  0.80324278764E+02  0.10000000000E+00 0. -1.
         -5    1    3    3    0  501 -0.43764607455E+02  0.44334648409E+02  0.21162499836E+03  0.22060383461E+03  0.10000000000E+00 0. -1.
         21    1    1    2  504  502 -0.78623443950E+01 -0.31525813680E+02 -0.71568031939E+00  0.32499316699E+02  0.00000000000E+00 0.  1.
<mgrwt>
<rscale>  1 0.12913377E+03</rscale>
<asrwt>0</asrwt>
<pdfrwt beam="1">  1       21 0.46501886E-01 0.12913377E+03</pdfrwt>
<pdfrwt beam="2">  1       21 0.47946395E-02 0.12913377E+03</pdfrwt>
<totfact> 0.12786286E+06</totfact>
</mgrwt>
</event>
<event>
 6    1  0.4202038E-002  0.1261773E+03  0.7546771E-02  0.1233241E+00
         21   -1    0    0  504  502  0.00000000000E+00  0.00000000000E+00  0.18504309292E+03  0.18504309292E+03  0.00000000000E+00 0.  1.
         21   -1    0    0  502  503 -0.00000000000E+00 -0.00000000000E+00 -0.56732464649E+02  0.56732464649E+02  0.00000000000E+00 0.  1.
         25    2    1    2    0    0  0.94089177560E+01  0.14421174072E+02  0.16116498856E+03  0.20468233736E+03  0.12499683075E+03 0.  0.
          5    1    3    3  501    0  0.38623012259E+02  0.20745147785E+02  0.16832917622E+03  0.17394487575E+03  0.10000000000E+00 0. -1.
         -5    1    3    3    0  501 -0.29214094503E+02 -0.63239737122E+01 -0.71641876684E+01  0.30737461607E+02  0.10000000000E+00 0. -1.
         21    1    1    2  504  503 -0.94089177560E+01 -0.14421174072E+02 -0.32854360290E+02  0.37093220203E+02  0.00000000000E+00 0.  1.
<mgrwt>
<rscale>  1 0.12617728E+03</rscale>
<asrwt>0</asrwt>
<pdfrwt beam="1">  1       21 0.28468168E-01 0.12617728E+03</pdfrwt>
<pdfrwt beam="2">  1       21 0.87280716E-02 0.12617728E+03</pdfrwt>
<totfact> 0.12148693E+06</totfact>
</mgrwt>
</event>
<event>
 6    1  0.4202038E-002  0.1310209E+03  0.7546771E-02  0.1225949E+00
         21   -1    0    0  503  502  0.00000000000E+00  0.00000000000E+00  0.40604849244E+02  0.40604849244E+02  0.00000000000E+00 0.  1.
         21   -1    0    0  504  503 -0.00000000000E+00 -0.00000000000E+00 -0.19721318860E+03  0.19721318860E+03  0.00000000000E+00 0.  1.
         25    2    1    2    0    0  0.16208994234E+02  0.35752155343E+02 -0.85065614813E+02  0.15621344520E+03  0.12500213411E+03 0.  0.
          5    1    3    3  501    0 -0.16508286459E+02  0.49294608431E+02 -0.10384641504E+03  0.11613169188E+03  0.10000000000E+00 0. -1.
         -5    1    3    3    0  501  0.32717280693E+02 -0.13542453088E+02  0.18780800231E+02  0.40081753316E+02  0.10000000000E+00 0. -1.
         21    1    1    2  504  502 -0.16208994234E+02 -0.35752155343E+02 -0.71542724543E+02  0.81604592645E+02  0.00000000000E+00 0.  1.
<mgrwt>
<rscale>  1 0.13102092E+03</rscale>
<asrwt>0</asrwt>
<pdfrwt beam="1">  1       21 0.62468998E-02 0.13102092E+03</pdfrwt>
<pdfrwt beam="2">  1       21 0.30340491E-01 0.13102092E+03</pdfrwt>
<totfact> 0.19093489E+06</totfact>
</mgrwt>
</event>
<event>
 6    1  0.4202038E-002  0.1287551E+03  0.7546771E-02  0.1229315E+00
         21   -1    0    0  503  502  0.00000000000E+00  0.00000000000E+00  0.46305238737E+02  0.46305238737E+02  0.00000000000E+00 0.  1.
         21   -1    0    0  504  503 -0.00000000000E+00 -0.00000000000E+00 -0.14457365641E+03  0.14457365641E+03  0.00000000000E+00 0.  1.
         25    2    1    2    0    0 -0.29831294859E+02  0.79061099531E+01 -0.60949552490E+02  0.14245255494E+03  0.12500187891E+03 0.  0.
          5    1    3    3  501    0  0.47794305197E+02  0.14109528678E+02 -0.32745457034E+02  0.59629266012E+02  0.10000000000E+00 0.  1.
         -5    1    3    3    0  501 -0.77625600056E+02 -0.62034187250E+01 -0.28204095456E+02  0.82823288925E+02  0.10000000000E+00 0.  1.
         21    1    1    2  504  502  0.29831294859E+02 -0.79061099531E+01 -0.37318865179E+02  0.48426340206E+02  0.00000000000E+00 0.  1.
<mgrwt>
<rscale>  1 0.12875513E+03</rscale>
<asrwt>0</asrwt>
<pdfrwt beam="1">  1       21 0.71238830E-02 0.12875513E+03</pdfrwt>
<pdfrwt beam="2">  1       21 0.22242101E-01 0.12875513E+03</pdfrwt>
<totfact> 0.27499666E+06</totfact>
</mgrwt>
</event>
<event>
 6    1  0.4202038E-002  0.1263359E+03  0.7546771E-02  0.1232996E+00
         21   -1    0    0  503  502  0.00000000000E+00  0.00000000000E+00  0.10530026541E+02  0.10530026541E+02  0.00000000000E+00 0.  1.
         21   -1    0    0  504  503 -0.00000000000E+00 -0.00000000000E+00 -0.58109048276E+03  0.58109048276E+03  0.00000000000E+00 0.  1.
         25    2    1    2    0    0 -0.14361719440E+02 -0.11360444732E+02 -0.38588453153E+03  0.40603894812E+03  0.12500174810E+03 0.  0.
          5    1    3    3  501    0 -0.42051870204E+02  0.29303013976E+02 -0.31854976773E+03  0.32264685174E+03  0.10000000000E+00 0.  1.
         -5    1    3    3    0  501  0.27690150764E+02 -0.40663458708E+02 -0.67334763801E+02  0.83392096385E+02  0.10000000000E+00 0.  1.
         21    1    1    2  504  502  0.14361719440E+02  0.11360444732E+02 -0.18467592469E+03  0.18558156118E+03  0.00000000000E+00 0.  1.
<mgrwt>
<rscale>  1 0.12633588E+03</rscale>
<asrwt>0</asrwt>
<pdfrwt beam="1">  1       21 0.16200042E-02 0.12633588E+03</pdfrwt>
<pdfrwt beam="2">  1       21 0.89398531E-01 0.12633588E+03</pdfrwt>
<totfact> 0.18463568E+06</totfact>
</mgrwt>
</event>
<event>
 6    1  0.4202038E-002  0.1262691E+03  0.7546771E-02  0.1233099E+00
         21   -1    0    0  503  502  0.00000000000E+00  0.00000000000E+00  0.15257229284E+02  0.15257229284E+02  0.00000000000E+00 0.  1.
         21   -1    0    0  504  503 -0.00000000000E+00 -0.00000000000E+00 -0.70211486164E+03  0.70211486164E+03  0.00000000000E+00 0.  1.
         25    2    1    2    0    0  0.96235113067E+01  0.15026204624E+02 -0.24932739134E+03  0.27947814189E+03  0.12500193970E+03 0.  0.
          5    1    3    3  501    0  0.22552693752E+02  0.98299683409E+01  0.47184104771E+01  0.25050462480E+02  0.10000000000E+00 0.  1.
         -5    1    3    3    0  501 -0.12929182445E+02  0.51962362831E+01 -0.25404580181E+03  0.25442767941E+03  0.10000000000E+00 0.  1.
         21    1    1    2  504  502 -0.96235113067E+01 -0.15026204624E+02 -0.43753024102E+03  0.43789394904E+03  0.00000000000E+00 0.  1.
<mgrwt>
<rscale>  1 0.12626909E+03</rscale>
<asrwt>0</asrwt>
<pdfrwt beam="1">  1       21 0.23472663E-02 0.12626909E+03</pdfrwt>
<pdfrwt beam="2">  1       21 0.10801766E+00 0.12626909E+03</pdfrwt>
<totfact> 0.65355144E+05</totfact>
</mgrwt>
</event>
<event>
 6    1  0.4202038E-002  0.1434877E+03  0.7546771E-02  0.1208712E+00
         21   -1    0    0  504  502  0.00000000000E+00  0.00000000000E+00  0.21056908509E+04  0.21056908509E+04  0.00000000000E+00 0.  1.
         21   -1    0    0  502  503 -0.00000000000E+00 -0.00000000000E+00 -0.93178752093E+01  0.93178752093E+01  0.00000000000E+00 0. -1.
         25    2    1    2    0    0 -0.24301196009E+02 -0.66132782317E+02  0.19159710213E+04  0.19213364303E+04  0.12499852327E+03 0.  0.
          5    1    3    3  501    0  0.26224292781E+01  0.13250094767E+02  0.12548239962E+04  0.12548966944E+04  0.10000000000E+00 0. -1.
         -5    1    3    3    0  501 -0.26923625287E+02 -0.79382877084E+02  0.66114702517E+03  0.66643973596E+03  0.10000000000E+00 0. -1.
         21    1    1    2  504  503  0.24301196009E+02  0.66132782317E+02  0.18040195436E+03  0.19367229580E+03  0.00000000000E+00 0. -1.
<mgrwt>
<rscale>  1 0.14348771E+03</rscale>
<asrwt>0</asrwt>
<pdfrwt beam="1">  1       21 0.32395206E+00 0.14348771E+03</pdfrwt>
<pdfrwt beam="2">  1       21 0.14335209E-02 0.14348771E+03</pdfrwt>
<totfact> 0.55161552E+04</totfact>
</mgrwt>
</event>
<event>
 6    1  0.4202038E-002  0.1764326E+03  0.7546771E-02  0.1171301E+00
         21   -1    0    0  504  502  0.00000000000E+00  0.00000000000E+00  0.15822787835E+04  0.15822787835E+04  0.00000000000E+00 0.  1.
         21   -1    0    0  502  503 -0.00000000000E+00 -0.00000000000E+00 -0.33022484598E+02  0.33022484598E+02  0.00000000000E+00 0.  1.
         25    2    1    2    0    0  0.10493682719E+03 -0.67022115098E+02  0.14365802605E+04  0.14473739289E+04  0.12499897468E+03 0.  0.
          5    1    3    3  501    0 -0.21915230607E+02  0.91942552410E+01  0.34353623122E+03  0.34435731998E+03  0.10000000000E+00 0. -1.
         -5    1    3    3    0  501  0.12685205780E+03 -0.76216370339E+02  0.10930440293E+04  0.11030166089E+04  0.10000000000E+00 0. -1.
         21    1    1    2  504  503 -0.10493682719E+03  0.67022115098E+02  0.11267603843E+03  0.16792733920E+03  0.00000000000E+00 0.  1.
<mgrwt>
<rscale>  1 0.17643255E+03</rscale>
<asrwt>0</asrwt>
<pdfrwt beam="1">  1       21 0.24342745E+00 0.17643255E+03</pdfrwt>
<pdfrwt beam="2">  1       21 0.50803835E-02 0.17643255E+03</pdfrwt>
<totfact> 0.19310928E+04</totfact>
</mgrwt>
</event>
<event>
 6    1  0.4202038E-002  0.1351025E+03  0.7546771E-02  0.1220075E+00
         21   -1    0    0  504  502  0.00000000000E+00  0.00000000000E+00  0.82991021593E+02  0.82991021593E+02  0.00000000000E+00 0. -1.
         21   -1    0    0  502  503 -0.00000000000E+00 -0.00000000000E+00 -0.10585860300E+03  0.10585860300E+03  0.00000000000E+00 0. -1.
         25    2    1    2    0    0  0.48675973285E+02 -0.16065917935E+02 -0.73872532502E+01  0.13530427322E+03  0.12500084298E+03 0.  0.
          5    1    3    3  501    0  0.65841625078E+02 -0.26958699204E+02  0.41494569588E+02  0.82363222138E+02  0.10000000000E+00 0.  1.
         -5    1    3    3    0  501 -0.17165651793E+02  0.10892781270E+02 -0.48881822838E+02  0.52941051078E+02  0.10000000000E+00 0.  1.
         21    1    1    2  504  503 -0.48675973285E+02  0.16065917935E+02 -0.15480328159E+02  0.53545351378E+02  0.00000000000E+00 0. -1.
<mgrwt>
<rscale>  1 0.13510246E+03</rscale>
<asrwt>0</asrwt>
<pdfrwt beam="1">  1       21 0.12767850E-01 0.13510246E+03</pdfrwt>
<pdfrwt beam="2">  1       21 0.16285939E-01 0.13510246E+03</pdfrwt>
<totfact> 0.17657400E+06</totfact>
</mgrwt>
</event>
<event>
 6    1  0.4202038E-002  0.1536325E+03  0.7546771E-02  0.1196079E+00
         21   -1    0    0  503  502  0.00000000000E+00  0.00000000000E+00  0.63448045912E+03  0.63448045912E+03  0.00000000000E+00 0. -1.
         21   -1    0    0  504  503 -0.00000000000E+00 -0.00000000000E+00 -0.24109519152E+02  0.24109519152E+02  0.00000000000E+00 0. -1.
         25    2    1    2    0    0  0.49041166035E+02 -0.74651773702E+02  0.32334027027E+03  0.35798304451E+03  0.12500002596E+03 0.  0.
          5    1    3    3  501    0  0.61443345899E+02 -0.62679634861E+02  0.96335984252E+02  0.13032518269E+03  0.10000000000E+00 0.  1.
         -5    1    3    3    0  501 -0.12402179865E+02 -0.11972138841E+02  0.22700428602E+03  0.22765786181E+03  0.10000000000E+00 0.  1.
         21    1    1    2  504  502 -0.49041166035E+02  0.74651773702E+02  0.28703066969E+03  0.30060693376E+03  0.00000000000E+00 0. -1.
<mgrwt>
<rscale>  1 0.15363245E+03</rscale>
<asrwt>0</asrwt>
<pdfrwt beam="1">  1       21 0.97612366E-01 0.15363245E+03</pdfrwt>
<pdfrwt beam="2">  1       21 0.37091573E-02 0.15363245E+03</pdfrwt>
<totfact> 0.39006665E+05</totfact>
</mgrwt>
</event>
<event>
 6    1  0.4202038E-002  0.1686944E+03  0.7546771E-02  0.1179216E+00
         21   -1    0    0  503  502  0.00000000000E+00  0.00000000000E+00  0.40888720155E+02  0.40888720155E+02  0.00000000000E+00 0.  1.
         21   -1    0    0  504  503 -0.00000000000E+00 -0.00000000000E+00 -0.10001022641E+04  0.10001022641E+04  0.00000000000E+00 0. -1.
         25    2    1    2    0    0 -0.55436849015E+02  0.98784247466E+02 -0.15580692165E+03  0.22963793377E+03  0.12500484798E+03 0.  0.
          5    1    3    3  501    0  0.12479392390E+02  0.94438833216E+02 -0.61678351880E+02  0.11348417310E+03  0.10000000000E+00 0.  1.
         -5    1    3    3    0  501 -0.67916241405E+02  0.43454142497E+01 -0.94128569766E+02  0.11615376067E+03  0.10000000000E+00 0.  1.
         21    1    1    2  504  502  0.55436849015E+02 -0.98784247466E+02 -0.80340662226E+03  0.81135305045E+03  0.00000000000E+00 0. -1.
<mgrwt>
<rscale>  1 0.16869435E+03</rscale>
<asrwt>0</asrwt>
<pdfrwt beam="1">  1       21 0.62905724E-02 0.16869435E+03</pdfrwt>
<pdfrwt beam="2">  1       21 0.15386188E+00 0.16869435E+03</pdfrwt>
<totfact> 0.51527506E+04</totfact>
</mgrwt>
</event>
<event>
 6    1  0.4202038E-002  0.1281067E+03  0.7546771E-02  0.1230292E+00
         21   -1    0    0  503  502  0.00000000000E+00  0.00000000000E+00  0.12250000785E+03  0.12250000785E+03  0.00000000000E+00 0.  1.
         21   -1    0    0  504  503 -0.00000000000E+00 -0.00000000000E+00 -0.60640212393E+02  0.60640212393E+02  0.00000000000E+00 0.  1.
         25    2    1    2    0    0 -0.27688838950E+02 -0.44467104914E+01  0.15612446862E+02  0.12905452631E+03  0.12499950890E+03 0.  0.
          5    1    3    3  501    0 -0.67258276114E+02  0.18531410307E+02  0.36521767425E+02  0.78746037168E+02  0.10000000000E+00 0. -1.
         -5    1    3    3    0  501  0.39569437164E+02 -0.22978120799E+02 -0.20909320564E+02  0.50308489138E+02  0.10000000000E+00 0. -1.
         21    1    1    2  504  502  0.27688838950E+02  0.44467104914E+01  0.46247348600E+02  0.54085693941E+02  0.00000000000E+00 0.  1.
<mgrwt>
<rscale>  1 0.12810668E+03</rscale>
<asrwt>0</asrwt>
<pdfrwt beam="1">  1       21 0.18846155E-01 0.12810668E+03</pdfrwt>
<pdfrwt beam="2">  1       21 0.93292635E-02 0.12810668E+03</pdfrwt>
<totfact> 0.23463572E+06</totfact>
</mgrwt>
</event>
<event>
 6    1  0.4202038E-002  0.1290326E+03  0.7546771E-02  0.1228898E+00
         21   -1    0    0  503  502  0.00000000000E+00  0.00000000000E+00  0.10329083626E+04  0.10329083626E+04  0.00000000000E+00 0. -1.
         21   -1    0    0  504  503 -0.00000000000E+00 -0.00000000000E+00 -0.73496707191E+01  0.73496707191E+01  0.00000000000E+00 0. -1.
         25    2    1    2    0    0 -0.27117859517E+02  0.17000062126E+02  0.94170271248E+03  0.95050166475E+03  0.12500014233E+03 0.  0.
          5    1    3    3  501    0 -0.72188353612E+02 -0.10587179721E+02  0.43806746372E+03  0.44410174459E+03  0.10000000000E+00 0. -1.
         -5    1    3    3    0  501  0.45070494094E+02  0.27587241847E+02  0.50363524876E+03  0.50639992016E+03  0.10000000000E+00 0. -1.
         21    1    1    2  504  502  0.27117859517E+02 -0.17000062126E+02  0.83855979356E+02  0.89756368526E+02  0.00000000000E+00 0. -1.
<mgrwt>
<rscale>  1 0.12903262E+03</rscale>
<asrwt>0</asrwt>
<pdfrwt beam="1">  1       21 0.15890886E+00 0.12903262E+03</pdfrwt>
<pdfrwt beam="2">  1       21 0.11307194E-02 0.12903262E+03</pdfrwt>
<totfact> 0.80243711E+05</totfact>
</mgrwt>
</event>
<event>
 6    1  0.4202038E-002  0.1260555E+03  0.7546771E-02  0.1233429E+00
         21   -1    0    0  503  502  0.00000000000E+00  0.00000000000E+00  0.22318541531E+03  0.22318541531E+03  0.00000000000E+00 0. -1.
         21   -1    0    0  504  503 -0.00000000000E+00 -0.00000000000E+00 -0.24216422390E+02  0.24216422390E+02  0.00000000000E+00 0. -1.
         25    2    1    2    0    0 -0.14110652840E+01  0.16218488144E+02  0.19202442358E+03  0.22970275563E+03  0.12499978492E+03 0.  0.
          5    1    3    3  501    0 -0.56425519319E+00  0.69388824869E+02  0.13462472440E+03  0.15145611186E+03  0.10000000000E+00 0.  1.
         -5    1    3    3    0  501 -0.84681009079E+00 -0.53170336725E+02  0.57399699180E+02  0.78246643767E+02  0.10000000000E+00 0.  1.
         21    1    1    2  504  502  0.14110652840E+01 -0.16218488144E+02  0.69445693432E+01  0.17699082075E+02  0.00000000000E+00 0. -1.
<mgrwt>
<rscale>  1 0.12605545E+03</rscale>
<asrwt>0</asrwt>
<pdfrwt beam="1">  1       21 0.34336216E-01 0.12605545E+03</pdfrwt>
<pdfrwt beam="2">  1       21 0.37256036E-02 0.12605545E+03</pdfrwt>
<totfact> 0.35658601E+06</totfact>
</mgrwt>
</event>
<event>
 6    1  0.4202038E-002  0.1379149E+03  0.7546771E-02  0.1216162E+00
         21   -1    0    0  504  502  0.00000000000E+00  0.00000000000E+00  0.36193366822E+03  0.36193366822E+03  0.00000000000E+00 0.  1.
         21   -1    0    0  502  503 -0.00000000000E+00 -0.00000000000E+00 -0.35889385745E+02  0.35889385745E+02  0.00000000000E+00 0.  1.
         25    2    1    2    0    0 -0.21907462791E+02 -0.53985116544E+02  0.11714496831E+03  0.18095154087E+03  0.12500474714E+03 0.  0.
          5    1    3    3  501    0  0.56703147652E+01 -0.84469566061E+02  0.40211544577E+02  0.93724267814E+02  0.10000000000E+00 0.  1.
         -5    1    3    3    0  501 -0.27577777556E+02  0.30484449517E+02  0.76933423738E+02  0.87227273059E+02  0.10000000000E+00 0.  1.
         21    1    1    2  504  503  0.21907462791E+02  0.53985116544E+02  0.20889931416E+03  0.21687151310E+03  0.00000000000E+00 0.  1.
<mgrwt>
<rscale>  1 0.13791489E+03</rscale>
<asrwt>0</asrwt>
<pdfrwt beam="1">  1       21 0.55682100E-01 0.13791489E+03</pdfrwt>
<pdfrwt beam="2">  1       21 0.55214442E-02 0.13791489E+03</pdfrwt>
<totfact> 0.69442766E+05</totfact>
</mgrwt>
</event>
<event>
 6    1  0.4202038E-002  0.1516711E+03  0.7546771E-02  0.1198434E+00
         21   -1    0    0  503  502  0.00000000000E+00  0.00000000000E+00  0.30139013044E+03  0.30139013044E+03  0.00000000000E+00 0. -1.
         21   -1    0    0  504  503 -0.00000000000E+00 -0.00000000000E+00 -0.60776541107E+02  0.60776541107E+02  0.00000000000E+00 0. -1.
         25    2    1    2    0    0 -0.59751054760E+02 -0.61692915851E+02  0.23017032906E+03  0.27564923922E+03  0.12501167264E+03 0.  0.
          5    1    3    3  501    0 -0.20352649276E+02 -0.95545754214E+02  0.17079265478E+03  0.19675711527E+03  0.10000000000E+00 0.  1.
         -5    1    3    3    0  501 -0.39398405485E+02  0.33852838363E+02  0.59377674275E+02  0.78892123956E+02  0.10000000000E+00 0.  1.
         21    1    1    2  504  502  0.59751054760E+02  0.61692915851E+02  0.10443260280E+02  0.86517432327E+02  0.00000000000E+00 0. -1.
<mgrwt>
<rscale>  1 0.15167110E+03</rscale>
<asrwt>0</asrwt>
<pdfrwt beam="1">  1       21 0.46367711E-01 0.15167110E+03</pdfrwt>
<pdfrwt beam="2">  1       21 0.93502373E-02 0.15167110E+03</pdfrwt>
<totfact> 0.41010514E+05</totfact>
</mgrwt>
</event>
<event>
 6    1  0.4202038E-002  0.1311234E+03  0.7546771E-02  0.1225798E+00
         21   -1    0    0  503  502  0.00000000000E+00  0.00000000000E+00  0.56054165923E+03  0.56054165923E+03  0.00000000000E+00 0.  1.
         21   -1    0    0  504  503 -0.00000000000E+00 -0.00000000000E+00 -0.49202386310E+03  0.49202386310E+03  0.00000000000E+00 0.  1.
         25    2    1    2    0    0 -0.19183269207E+02 -0.34624621832E+02  0.55205364400E+03  0.56741216675E+03  0.12500591532E+03 0.  0.
          5    1    3    3  501    0  0.21262283908E+02 -0.70354712318E+02  0.38179829994E+03  0.38880820734E+03  0.10000000000E+00 0. -1.
         -5    1    3    3    0  501 -0.40445553115E+02  0.35730090486E+02  0.17025534406E+03  0.17860395940E+03  0.10000000000E+00 0. -1.
         21    1    1    2  504  502  0.19183269207E+02  0.34624621832E+02 -0.48353584787E+03  0.48515335558E+03  0.00000000000E+00 0.  1.
<mgrwt>
<rscale>  1 0.13112338E+03</rscale>
<asrwt>0</asrwt>
<pdfrwt beam="1">  1       21 0.86237178E-01 0.13112338E+03</pdfrwt>
<pdfrwt beam="2">  1       21 0.75695979E-01 0.13112338E+03</pdfrwt>
<totfact> 0.19260586E+03</totfact>
</mgrwt>
</event>
<event>
 6    1  0.4202038E-002  0.1261748E+03  0.7546771E-02  0.1233245E+00
         21   -1    0    0  504  502  0.00000000000E+00  0.00000000000E+00  0.28084098706E+03  0.28084098706E+03  0.00000000000E+00 0.  1.
         21   -1    0    0  502  503 -0.00000000000E+00 -0.00000000000E+00 -0.18351923094E+02  0.18351923094E+02  0.00000000000E+00 0.  1.
         25    2    1    2    0    0 -0.92252026012E+00 -0.17240762543E+02  0.22636032694E+03  0.25915067526E+03  0.12498791916E+03 0.  0.
          5    1    3    3  501    0  0.55404448406E+02  0.15282173976E+02  0.75664752778E+02  0.95017696023E+02  0.10000000000E+00 0. -1.
         -5    1    3    3    0  501 -0.56326968666E+02 -0.32522936519E+02  0.15069557416E+03  0.16413297923E+03  0.10000000000E+00 0. -1.
         21    1    1    2  504  503  0.92252026012E+00  0.17240762543E+02  0.36128737023E+02  0.40042234897E+02  0.00000000000E+00 0.  1.
<mgrwt>
<rscale>  1 0.12617478E+03</rscale>
<asrwt>0</asrwt>
<pdfrwt beam="1">  1       21 0.43206303E-01 0.12617478E+03</pdfrwt>
<pdfrwt beam="2">  1       21 0.28233730E-02 0.12617478E+03</pdfrwt>
<totfact> 0.35634487E+06</totfact>
</mgrwt>
</event>
<event>
 6    1  0.4202038E-002  0.1806263E+03  0.7546771E-02  0.1167198E+00
         21   -1    0    0  504  502  0.00000000000E+00  0.00000000000E+00  0.15073957893E+04  0.15073957893E+04  0.00000000000E+00 0. -1.
         21   -1    0    0  502  503 -0.00000000000E+00 -0.00000000000E+00 -0.16817434798E+02  0.16817434798E+02  0.00000000000E+00 0. -1.
         25    2    1    2    0    0  0.38934497437E+02  0.12443959536E+03  0.10216659727E+04  0.10375101013E+04  0.12499896971E+03 0.  0.
          5    1    3    3  501    0  0.11127194752E+02  0.47695925758E+02  0.91621078396E+02  0.10389007558E+03  0.10000000000E+00 0.  1.
         -5    1    3    3    0  501  0.27807302685E+02  0.76743669607E+02  0.93004489433E+03  0.93362002570E+03  0.10000000000E+00 0.  1.
         21    1    1    2  504  503 -0.38934497437E+02 -0.12443959536E+03  0.46891238173E+03  0.48670312278E+03  0.00000000000E+00 0. -1.
<mgrwt>
<rscale>  1 0.18062627E+03</rscale>
<asrwt>0</asrwt>
<pdfrwt beam="1">  1       21 0.23190694E+00 0.18062627E+03</pdfrwt>
<pdfrwt beam="2">  1       21 0.25872988E-02 0.18062627E+03</pdfrwt>
<totfact> 0.69373421E+04</totfact>
</mgrwt>
</event>
<event>
 6    1  0.4202038E-002  0.1344244E+03  0.7546771E-02  0.1221034E+00
         21   -1    0    0  503  502  0.00000000000E+00  0.00000000000E+00  0.80544958860E+03  0.80544958860E+03  0.00000000000E+00 0.  1.
         21   -1    0    0  504  503 -0.00000000000E+00 -0.00000000000E+00 -0.46047071446E+02  0.46047071446E+02  0.00000000000E+00 0.  1.
         25    2    1    2    0    0  0.16006896336E+02  0.46550833194E+02  0.78471396634E+03  0.79614442196E+03  0.12508689315E+03 0.  0.
          5    1    3    3  501    0  0.61324221171E+02  0.38385985300E+02  0.27509308113E+03  0.28444745957E+03  0.10000000000E+00 0.  1.
         -5    1    3    3    0  501 -0.45317324836E+02  0.81648478938E+01  0.50962088522E+03  0.51169696239E+03  0.10000000000E+00 0.  1.
         21    1    1    2  504  502 -0.16006896336E+02 -0.46550833194E+02 -0.25311449189E+02  0.55352238088E+02  0.00000000000E+00 0.  1.
<mgrwt>
<rscale>  1 0.13442445E+03</rscale>
<asrwt>0</asrwt>
<pdfrwt beam="1">  1       21 0.12391531E+00 0.13442445E+03</pdfrwt>
<pdfrwt beam="2">  1       21 0.70841654E-02 0.13442445E+03</pdfrwt>
<totfact> 0.74359096E+04</totfact>
</mgrwt>
</event>
<event>
 6    1  0.4202038E-002  0.1282387E+03  0.7546771E-02  0.1230093E+00
         21   -1    0    0  503  502  0.00000000000E+00  0.00000000000E+00  0.58183167126E+02  0.58183167126E+02  0.00000000000E+00 0. -1.
         21   -1    0    0  504  503 -0.00000000000E+00 -0.00000000000E+00 -0.12451515331E+03  0.12451515331E+03  0.00000000000E+00 0. -1.
         25    2    1    2    0    0 -0.92377934390E+01  0.27113314875E+02 -0.22290591095E+02  0.13016154139E+03  0.12499875093E+03 0.  0.
          5    1    3    3  501    0  0.16889666096E+02  0.61704451518E+02 -0.47803218190E+02  0.79861491516E+02  0.10000000000E+00 0. -1.
         -5    1    3    3    0  501 -0.26127459535E+02 -0.34591136643E+02  0.25512627095E+02  0.50300049874E+02  0.10000000000E+00 0. -1.
         21    1    1    2  504  502  0.92377934390E+01 -0.27113314875E+02 -0.44041395094E+02  0.52536779050E+02  0.00000000000E+00 0. -1.
<mgrwt>
<rscale>  1 0.12823867E+03</rscale>
<asrwt>0</asrwt>
<pdfrwt beam="1">  1       21 0.89512565E-02 0.12823867E+03</pdfrwt>
<pdfrwt beam="2">  1       21 0.19156177E-01 0.12823867E+03</pdfrwt>
<totfact> 0.24468412E+06</totfact>
</mgrwt>
</event>
<event>
 6    1  0.4202038E-002  0.1516943E+03  0.7546771E-02  0.1198406E+00
         21   -1    0    0  504  502  0.00000000000E+00  0.00000000000E+00  0.31755392709E+03  0.31755392709E+03  0.00000000000E+00 0. -1.
         21   -1    0    0  502  503 -0.00000000000E+00 -0.00000000000E+00 -0.44465695278E+02  0.44465695278E+02  0.00000000000E+00 0. -1.
         25    2    1    2    0    0  0.27268113005E+02 -0.81497034127E+02  0.17685122961E+03  0.23299684473E+03  0.12500342267E+03 0.  0.
          5    1    3    3  501    0 -0.36399066430E+02  0.11988926068E+02  0.50894485258E+02  0.63709379333E+02  0.10000000000E+00 0. -1.
         -5    1    3    3    0  501  0.63667179436E+02 -0.93485960195E+02  0.12595674435E+03  0.16928746539E+03  0.10000000000E+00 0. -1.
         21    1    1    2  504  503 -0.27268113005E+02  0.81497034127E+02  0.96237002205E+02  0.12902277765E+03  0.00000000000E+00 0. -1.
<mgrwt>
<rscale>  1 0.15169434E+03</rscale>
<asrwt>0</asrwt>
<pdfrwt beam="1">  1       21 0.48854449E-01 0.15169434E+03</pdfrwt>
<pdfrwt beam="2">  1       21 0.68408764E-02 0.15169434E+03</pdfrwt>
<totfact> 0.63265997E+05</totfact>
</mgrwt>
</event>
<event>
 6    1  0.4202038E-002  0.1306394E+03  0.7546771E-02  0.1226510E+00
         21   -1    0    0  503  502  0.00000000000E+00  0.00000000000E+00  0.13698080615E+04  0.13698080615E+04  0.00000000000E+00 0.  1.
         21   -1    0    0  504  503 -0.00000000000E+00 -0.00000000000E+00 -0.11360990911E+02  0.11360990911E+02  0.00000000000E+00 0.  1.
         25    2    1    2    0    0  0.37949538881E+02 -0.13774518297E+01  0.13223114908E+04  0.13287491611E+04  0.12499835827E+03 0.  0.
          5    1    3    3  501    0  0.16755745241E+02  0.33499454694E+02  0.11921744576E+03  0.12496310590E+03  0.10000000000E+00 0.  1.
         -5    1    3    3    0  501  0.21193793640E+02 -0.34876906523E+02  0.12030940451E+04  0.12037860552E+04  0.10000000000E+00 0.  1.
         21    1    1    2  504  502 -0.37949538881E+02  0.13774518297E+01  0.36135579710E+02  0.52419891223E+02  0.00000000000E+00 0.  1.
<mgrwt>
<rscale>  1 0.13063941E+03</rscale>
<asrwt>0</asrwt>
<pdfrwt beam="1">  1       21 0.21073957E+00 0.13063941E+03</pdfrwt>
<pdfrwt beam="2">  1       21 0.17478458E-02 0.13063941E+03</pdfrwt>
<totfact> 0.18211980E+05</totfact>
</mgrwt>
</event>
<event>
 6    1  0.4202038E-002  0.1261268E+03  0.7546771E-02  0.1233319E+00
         21   -1    0    0  503  502  0.00000000000E+00  0.00000000000E+00  0.96775831252E+02  0.96775831252E+02  0.00000000000E+00 0.  1.
         21   -1    0    0  504  503 -0.00000000000E+00 -0.00000000000E+00 -0.53051667963E+02  0.53051667963E+02  0.00000000000E+00 0.  1.
         25    2    1    2    0    0 -0.58506226985E+01  0.15747567774E+02  0.42018815540E+02  0.13294188736E+03  0.12500299548E+03 0.  0.
          5    1    3    3  501    0  0.53683714861E+02 -0.92164167292E+01  0.41342183322E+02  0.68381793633E+02  0.10000000000E+00 0.  1.
         -5    1    3    3    0  501 -0.59534337559E+02  0.24963984504E+02  0.67663221801E+00  0.64560093727E+02  0.10000000000E+00 0.  1.
         21    1    1    2  504  502  0.58506226985E+01 -0.15747567774E+02  0.17053477481E+01  0.16885611855E+02  0.00000000000E+00 0.  1.
<mgrwt>
<rscale>  1 0.12612678E+03</rscale>
<asrwt>0</asrwt>
<pdfrwt beam="1">  1       21 0.14888589E-01 0.12612678E+03</pdfrwt>
<pdfrwt beam="2">  1       21 0.81617951E-02 0.12612678E+03</pdfrwt>
<totfact> 0.45384142E+06</totfact>
</mgrwt>
</event>
<event>
 6    1  0.4202038E-002  0.1270326E+03  0.7546771E-02  0.1231926E+00
         21   -1    0    0  503  502  0.00000000000E+00  0.00000000000E+00  0.21371138296E+02  0.21371138296E+02  0.00000000000E+00 0. -1.
         21   -1    0    0  504  503 -0.00000000000E+00 -0.00000000000E+00 -0.54918924480E+03  0.54918924480E+03  0.00000000000E+00 0.  1.
         25    2    1    2    0    0  0.21237335159E+02  0.80277716634E+01 -0.17100569307E+03  0.21302637366E+03  0.12498727651E+03 0.  0.
          5    1    3    3  501    0  0.50958189771E+01  0.65542873611E+02 -0.72900265512E+02  0.98164628885E+02  0.10000000000E+00 0.  1.
         -5    1    3    3    0  501  0.16141516181E+02 -0.57515101948E+02 -0.98105427560E+02  0.11486174478E+03  0.10000000000E+00 0.  1.
         21    1    1    2  504  502 -0.21237335159E+02 -0.80277716634E+01 -0.35681241343E+03  0.35753400943E+03  0.00000000000E+00 0.  1.
<mgrwt>
<rscale>  1 0.12703263E+03</rscale>
<asrwt>0</asrwt>
<pdfrwt beam="1">  1       21 0.32878680E-02 0.12703263E+03</pdfrwt>
<pdfrwt beam="2">  1       21 0.84490639E-01 0.12703263E+03</pdfrwt>
<totfact> 0.66573121E+05</totfact>
</mgrwt>
</event>
<event>
 6    1  0.4202038E-002  0.1361179E+03  0.7546771E-02  0.1218650E+00
         21   -1    0    0  503  502  0.00000000000E+00  0.00000000000E+00  0.67966672827E+01  0.67966672827E+01  0.00000000000E+00 0.  1.
         21   -1    0    0  504  503 -0.00000000000E+00 -0.00000000000E+00 -0.18401225725E+04  0.18401225725E+04  0.00000000000E+00 0.  1.
         25    2    1    2    0    0  0.17023250124E+02 -0.51125713278E+02 -0.74986298108E+03  0.76211716678E+03  0.12499782362E+03 0.  0.
          5    1    3    3  501    0 -0.45280315920E+02  0.64252616217E+01 -0.16835911015E+03  0.17446028479E+03  0.10000000000E+00 0.  1.
         -5    1    3    3    0  501  0.62303566044E+02 -0.57550974900E+02 -0.58150387093E+03  0.58765688200E+03  0.10000000000E+00 0.  1.
         21    1    1    2  504  502 -0.17023250124E+02  0.51125713278E+02 -0.10834629242E+04  0.10848020730E+04  0.00000000000E+00 0.  1.
<mgrwt>
<rscale>  1 0.13611791E+03</rscale>
<asrwt>0</asrwt>
<pdfrwt beam="1">  1       21 0.10456403E-02 0.13611791E+03</pdfrwt>
<pdfrwt beam="2">  1       21 0.28309600E+00 0.13611791E+03</pdfrwt>
<totfact> 0.15619123E+05</totfact>
</mgrwt>
</event>
<event>
 6    1  0.4202038E-002  0.1270978E+03  0.7546771E-02  0.1231827E+00
         21   -1    0    0  503  502  0.00000000000E+00  0.00000000000E+00  0.18952365852E+03  0.18952365852E+03  0.00000000000E+00 0. -1.
         21   -1    0    0  504  503 -0.00000000000E+00 -0.00000000000E+00 -0.12703062643E+03  0.12703062643E+03  0.00000000000E+00 0. -1.
         25    2    1    2    0    0 -0.18006615641E+02 -0.14374131820E+02  0.16681591157E+03  0.20971741371E+03  0.12499196531E+03 0.  0.
          5    1    3    3  501    0 -0.10369706439E+02  0.24510336521E+02 -0.10063787253E+02  0.28453070517E+02  0.10000000000E+00 0.  1.
         -5    1    3    3    0  501 -0.76369092024E+01 -0.38884468341E+02  0.17687969882E+03  0.18126434320E+03  0.10000000000E+00 0.  1.
         21    1    1    2  504  502  0.18006615641E+02  0.14374131820E+02 -0.10432287948E+03  0.10683687124E+03  0.00000000000E+00 0. -1.
<mgrwt>
<rscale>  1 0.12709778E+03</rscale>
<asrwt>0</asrwt>
<pdfrwt beam="1">  1       21 0.29157486E-01 0.12709778E+03</pdfrwt>
<pdfrwt beam="2">  1       21 0.19543173E-01 0.12709778E+03</pdfrwt>
<totfact> 0.27540146E+05</totfact>
</mgrwt>
</event>
<event>
 6    1  0.4202038E-002  0.1290724E+03  0.7546771E-02  0.1228839E+00
         21   -1    0    0  504  502  0.00000000000E+00  0.00000000000E+00  0.33865156076E+02  0.33865156076E+02  0.00000000000E+00 0.  1.
         21   -1    0    0  502  503 -0.00000000000E+00 -0.00000000000E+00 -0.29586564580E+03  0.29586564580E+03  0.00000000000E+00 0.  1.
         25    2    1    2    0    0  0.27426508548E+02 -0.16758954293E+02 -0.96552251495E+02  0.16118942579E+03  0.12500647102E+03 0.  0.
          5    1    3    3  501    0  0.25138667394E+02 -0.17798066693E+02 -0.12697774905E+03  0.13066017959E+03  0.10000000000E+00 0.  1.
         -5    1    3    3    0  501  0.22878411544E+01  0.10391123994E+01  0.30425497558E+02  0.30529246197E+02  0.10000000000E+00 0.  1.
         21    1    1    2  504  503 -0.27426508548E+02  0.16758954293E+02 -0.16544823823E+03  0.16854137608E+03  0.00000000000E+00 0.  1.
<mgrwt>
<rscale>  1 0.12907244E+03</rscale>
<asrwt>0</asrwt>
<pdfrwt beam="1">  1       21 0.52100241E-02 0.12907244E+03</pdfrwt>
<pdfrwt beam="2">  1       21 0.45517791E-01 0.12907244E+03</pdfrwt>
<totfact> 0.11616418E+06</totfact>
</mgrwt>
</event>
<event>
 6    1  0.4202038E-002  0.1531690E+03  0.7546771E-02  0.1196632E+00
         21   -1    0    0  504  502  0.00000000000E+00  0.00000000000E+00  0.17523139917E+04  0.17523139917E+04  0.00000000000E+00 0.  1.
         21   -1    0    0  502  503 -0.00000000000E+00 -0.00000000000E+00 -0.21230119615E+02  0.21230119615E+02  0.00000000000E+00 0.  1.
         25    2    1    2    0    0 -0.84128049325E+02  0.27536539707E+02  0.16377946566E+04  0.16449413609E+04  0.12499981489E+03 0.  0.
          5    1    3    3  501    0 -0.10947110087E+03  0.48802422806E+02  0.13191629904E+04  0.13245967702E+04  0.10000000000E+00 0. -1.
         -5    1    3    3    0  501  0.25343051544E+02 -0.21265883100E+02  0.31863166618E+03  0.32034459062E+03  0.10000000000E+00 0. -1.
         21    1    1    2  504  503  0.84128049325E+02 -0.27536539707E+02  0.93289215471E+02  0.12860275046E+03  0.00000000000E+00 0.  1.
<mgrwt>
<rscale>  1 0.15316900E+03</rscale>
<asrwt>0</asrwt>
<pdfrwt beam="1">  1       21 0.26958665E+00 0.15316900E+03</pdfrwt>
<pdfrwt beam="2">  1       21 0.32661736E-02 0.15316900E+03</pdfrwt>
<totfact> 0.29166857E+04</totfact>
</mgrwt>
</event>
<event>
 6    1  0.4202038E-002  0.1303191E+03  0.7546771E-02  0.1226983E+00
         21   -1    0    0  504  502  0.00000000000E+00  0.00000000000E+00  0.74842605880E+03  0.74842605880E+03  0.00000000000E+00 0. -1.
         21   -1    0    0  502  503 -0.00000000000E+00 -0.00000000000E+00 -0.98337024791E+01  0.98337024791E+01  0.00000000000E+00 0. -1.
         25    2    1    2    0    0 -0.14422015435E+02  0.34042377111E+02  0.63586584338E+03  0.64908277456E+03  0.12496479297E+03 0.  0.
          5    1    3    3  501    0 -0.27931693187E+02 -0.42998737305E+02  0.21688701387E+03  0.22286555965E+03  0.10000000000E+00 0. -1.
         -5    1    3    3    0  501  0.13509677752E+02  0.77041114415E+02  0.41897882951E+03  0.42621721490E+03  0.10000000000E+00 0. -1.
         21    1    1    2  504  503  0.14422015435E+02 -0.34042377111E+02  0.10272651294E+03  0.10917698672E+03  0.00000000000E+00 0. -1.
<mgrwt>
<rscale>  1 0.13031914E+03</rscale>
<asrwt>0</asrwt>
<pdfrwt beam="1">  1       21 0.11514243E+00 0.13031914E+03</pdfrwt>
<pdfrwt beam="2">  1       21 0.15128779E-02 0.13031914E+03</pdfrwt>
<totfact> 0.11373103E+06</totfact>
</mgrwt>
</event>
<event>
 6    1  0.4202038E-002  0.1275688E+03  0.7546771E-02  0.1231108E+00
         21   -1    0    0  504  502  0.00000000000E+00  0.00000000000E+00  0.11091829408E+03  0.11091829408E+03  0.00000000000E+00 0.  1.
         21   -1    0    0  502  503 -0.00000000000E+00 -0.00000000000E+00 -0.18159635642E+03  0.18159635642E+03  0.00000000000E+00 0. -1.
         25    2    1    2    0    0  0.17035196375E+02 -0.18969422819E+02  0.72738654339E+02  0.14684930960E+03  0.12499508382E+03 0.  0.
          5    1    3    3  501    0  0.48010011587E+02 -0.33600138629E+02 -0.80004918008E+01  0.59143456083E+02  0.10000000000E+00 0.  1.
         -5    1    3    3    0  501 -0.30974815212E+02  0.14630715810E+02  0.80739146140E+02  0.87705853521E+02  0.10000000000E+00 0.  1.
         21    1    1    2  504  503 -0.17035196375E+02  0.18969422819E+02 -0.14341671668E+03  0.14566534090E+03  0.00000000000E+00 0. -1.
<mgrwt>
<rscale>  1 0.12756884E+03</rscale>
<asrwt>0</asrwt>
<pdfrwt beam="1">  1       21 0.17064353E-01 0.12756884E+03</pdfrwt>
<pdfrwt beam="2">  1       21 0.27937901E-01 0.12756884E+03</pdfrwt>
<totfact> 0.38322936E+05</totfact>
</mgrwt>
</event>
<event>
 6    1  0.4202038E-002  0.1546815E+03  0.7546771E-02  0.1194836E+00
         21   -1    0    0  504  502  0.00000000000E+00  0.00000000000E+00  0.28865267361E+02  0.28865267361E+02  0.00000000000E+00 0. -1.
         21   -1    0    0  502  503 -0.00000000000E+00 -0.00000000000E+00 -0.59450372869E+03  0.59450372869E+03  0.00000000000E+00 0. -1.
         25    2    1    2    0    0 -0.62345756104E+02  0.66450490871E+02 -0.24252872912E+03  0.28765697647E+03  0.12499476239E+03 0.  0.
          5    1    3    3  501    0 -0.96282511848E+02  0.70904778550E+02 -0.17501427011E+03  0.21196182310E+03  0.10000000000E+00 0. -1.
         -5    1    3    3    0  501  0.33936755744E+02 -0.44542876789E+01 -0.67514459011E+02  0.75695153377E+02  0.10000000000E+00 0. -1.
         21    1    1    2  504  503  0.62345756104E+02 -0.66450490871E+02 -0.32310973221E+03  0.33571201958E+03  0.00000000000E+00 0. -1.
<mgrwt>
<rscale>  1 0.15468145E+03</rscale>
<asrwt>0</asrwt>
<pdfrwt beam="1">  1       21 0.44408105E-02 0.15468145E+03</pdfrwt>
<pdfrwt beam="2">  1       21 0.91462109E-01 0.15468145E+03</pdfrwt>
<totfact> 0.33587568E+05</totfact>
</mgrwt>
</event>
<event>
 6    1  0.4202038E-002  0.1305983E+03  0.7546771E-02  0.1226571E+00
         21   -1    0    0  503  502  0.00000000000E+00  0.00000000000E+00  0.64151116457E+02  0.64151116457E+02  0.00000000000E+00 0.  1.
         21   -1    0    0  504  503 -0.00000000000E+00 -0.00000000000E+00 -0.14108600692E+03  0.14108600692E+03  0.00000000000E+00 0.  1.
         25    2    1    2    0    0  0.34599721929E+02  0.15271105211E+02 -0.13381768486E+02  0.13128209160E+03  0.12500227372E+03 0.  0.
          5    1    3    3  501    0  0.76931008741E+02 -0.15773179646E+00 -0.30948702394E+02  0.82923079810E+02  0.10000000000E+00 0. -1.
         -5    1    3    3    0  501 -0.42331286812E+02  0.15428837008E+02  0.17566933908E+02  0.48359011792E+02  0.10000000000E+00 0. -1.
         21    1    1    2  504  502 -0.34599721929E+02 -0.15271105211E+02 -0.63553121975E+02  0.73955031774E+02  0.00000000000E+00 0.  1.
<mgrwt>
<rscale>  1 0.13059830E+03</rscale>
<asrwt>0</asrwt>
<pdfrwt beam="1">  1       21 0.98694026E-02 0.13059830E+03</pdfrwt>
<pdfrwt beam="2">  1       21 0.21705539E-01 0.13059830E+03</pdfrwt>
<totfact> 0.16383858E+06</totfact>
</mgrwt>
</event>
<event>
 6    1  0.4202038E-002  0.1262992E+03  0.7546771E-02  0.1233053E+00
         21   -1    0    0  503  502  0.00000000000E+00  0.00000000000E+00  0.18066881522E+03  0.18066881522E+03  0.00000000000E+00 0.  1.
         21   -1    0    0  504  503 -0.00000000000E+00 -0.00000000000E+00 -0.32029638325E+03  0.32029638325E+03  0.00000000000E+00 0. -1.
         25    2    1    2    0    0  0.63807502651E+01  0.16971800604E+02  0.15828662120E+03  0.20249975636E+03  0.12499096322E+03 0.  0.
          5    1    3    3  501    0  0.91577266865E+01 -0.49370399290E+02  0.10834297957E+03  0.11941319654E+03  0.10000000000E+00 0. -1.
         -5    1    3    3    0  501 -0.27769764214E+01  0.66342199894E+02  0.49943641622E+02  0.83086559824E+02  0.10000000000E+00 0. -1.
         21    1    1    2  504  502 -0.63807502651E+01 -0.16971800604E+02 -0.29791418923E+03  0.29846544211E+03  0.00000000000E+00 0. -1.
<mgrwt>
<rscale>  1 0.12629924E+03</rscale>
<asrwt>0</asrwt>
<pdfrwt beam="1">  1       21 0.27795203E-01 0.12629924E+03</pdfrwt>
<pdfrwt beam="2">  1       21 0.49276366E-01 0.12629924E+03</pdfrwt>
<totfact> 0.50185303E+04</totfact>
</mgrwt>
</event>
<event>
 6    1  0.4202038E-002  0.1389174E+03  0.7546771E-02  0.1214793E+00
         21   -1    0    0  503  502  0.00000000000E+00  0.00000000000E+00  0.21996062452E+02  0.21996062452E+02  0.00000000000E+00 0.  1.
         21   -1    0    0  504  503 -0.00000000000E+00 -0.00000000000E+00 -0.63859223825E+03  0.63859223825E+03  0.00000000000E+00 0.  1.
         25    2    1    2    0    0  0.23572595133E+02  0.55790122920E+02 -0.22568246069E+03  0.26501057418E+03  0.12501930375E+03 0.  0.
          5    1    3    3  501    0  0.69154014675E+02  0.30107541588E+02 -0.78756511763E+02  0.10904742065E+03  0.10000000000E+00 0.  1.
         -5    1    3    3    0  501 -0.45581419542E+02  0.25682581332E+02 -0.14692594892E+03  0.15596315353E+03  0.10000000000E+00 0.  1.
         21    1    1    2  504  502 -0.23572595133E+02 -0.55790122920E+02 -0.39091371512E+03  0.39557772652E+03  0.00000000000E+00 0.  1.
<mgrwt>
<rscale>  1 0.13891735E+03</rscale>
<asrwt>0</asrwt>
<pdfrwt beam="1">  1       21 0.33840098E-02 0.13891735E+03</pdfrwt>
<pdfrwt beam="2">  1       21 0.98244954E-01 0.13891735E+03</pdfrwt>
<totfact> 0.44845867E+05</totfact>
</mgrwt>
</event>
<event>
 6    1  0.4202038E-002  0.1265084E+03  0.7546771E-02  0.1232731E+00
         21   -1    0    0  503  502  0.00000000000E+00  0.00000000000E+00  0.24884284202E+03  0.24884284202E+03  0.00000000000E+00 0. -1.
         21   -1    0    0  504  503 -0.00000000000E+00 -0.00000000000E+00 -0.23187824400E+02  0.23187824400E+02  0.00000000000E+00 0. -1.
         25    2    1    2    0    0 -0.17573276715E+02 -0.83833427540E+01  0.21594546092E+03  0.25027346114E+03  0.12500105108E+03 0.  0.
          5    1    3    3  501    0  0.18606653791E+02 -0.27637815456E+02  0.20522242201E+03  0.20790937666E+03  0.10000000000E+00 0.  1.
         -5    1    3    3    0  501 -0.36179930506E+02  0.19254472702E+02  0.10723038910E+02  0.42364084481E+02  0.10000000000E+00 0.  1.
         21    1    1    2  504  502  0.17573276715E+02  0.83833427540E+01  0.97095567025E+01  0.21757205280E+02  0.00000000000E+00 0. -1.
<mgrwt>
<rscale>  1 0.12650835E+03</rscale>
<asrwt>0</asrwt>
<pdfrwt beam="1">  1       21 0.38283512E-01 0.12650835E+03</pdfrwt>
<pdfrwt beam="2">  1       21 0.35673578E-02 0.12650835E+03</pdfrwt>
<totfact> 0.30917054E+06</totfact>
</mgrwt>
</event>
<event>
 6    1  0.4202038E-002  0.1264134E+03  0.7546771E-02  0.1232877E+00
         21   -1    0    0  503  502  0.00000000000E+00  0.00000000000E+00  0.16925365051E+02  0.16925365051E+02  0.00000000000E+00 0.  1.
         21   -1    0    0  504  503 -0.00000000000E+00 -0.00000000000E+00 -0.49639774286E+03  0.49639774286E+03  0.00000000000E+00 0.  1.
         25    2    1    2    0    0  0.66652287401E+01 -0.17637701498E+02 -0.22441894955E+03  0.25757368942E+03  0.12499930712E+03 0.  0.
          5    1    3    3  501    0  0.69544717106E+01  0.54111173945E+02 -0.91700172208E+02  0.10670199345E+03  0.10000000000E+00 0.  1.
         -5    1    3    3    0  501 -0.28924297056E+00 -0.71748875443E+02 -0.13271877734E+03  0.15087169598E+03  0.10000000000E+00 0.  1.
         21    1    1    2  504  502 -0.66652287401E+01  0.17637701498E+02 -0.25505342826E+03  0.25574941849E+03  0.00000000000E+00 0.  1.
<mgrwt>
<rscale>  1 0.12641337E+03</rscale>
<asrwt>0</asrwt>
<pdfrwt beam="1">  1       21 0.26039021E-02 0.12641337E+03</pdfrwt>
<pdfrwt beam="2">  1       21 0.76368888E-01 0.12641337E+03</pdfrwt>
<totfact> 0.12225372E+06</totfact>
</mgrwt>
</event>
<event>
 6    1  0.4202038E-002  0.1337996E+03  0.7546771E-02  0.1221924E+00
         21   -1    0    0  503  502  0.00000000000E+00  0.00000000000E+00  0.18221265452E+03  0.18221265452E+03  0.00000000000E+00 0.  1.
         21   -1    0    0  504  503 -0.00000000000E+00 -0.00000000000E+00 -0.79811028359E+02  0.79811028359E+02  0.00000000000E+00 0.  1.
         25    2    1    2    0    0  0.47558859480E+02 -0.38645765822E+01  0.14554102524E+03  0.19769804397E+03  0.12500218596E+03 0.  0.
          5    1    3    3  501    0 -0.39294786653E+02 -0.11046756036E+02  0.21591528833E+02  0.46176998542E+02  0.10000000000E+00 0.  1.
         -5    1    3    3    0  501  0.86853646133E+02  0.71821794537E+01  0.12394949641E+03  0.15152104543E+03  0.10000000000E+00 0.  1.
         21    1    1    2  504  502 -0.47558859480E+02  0.38645765822E+01 -0.43139399084E+02  0.64325638905E+02  0.00000000000E+00 0.  1.
<mgrwt>
<rscale>  1 0.13379958E+03</rscale>
<asrwt>0</asrwt>
<pdfrwt beam="1">  1       21 0.28032716E-01 0.13379958E+03</pdfrwt>
<pdfrwt beam="2">  1       21 0.12278620E-01 0.13379958E+03</pdfrwt>
<totfact> 0.68791824E+05</totfact>
</mgrwt>
</event>
<event>
 6    1  0.4202038E-002  0.1426540E+03  0.7546771E-02  0.1209802E+00
         21   -1    0    0  504  502  0.00000000000E+00  0.00000000000E+00  0.15422761740E+03  0.15422761740E+03  0.00000000000E+00 0. -1.
         21   -1    0    0  502  503 -0.00000000000E+00 -0.00000000000E+00 -0.10492358366E+03  0.10492358366E+03  0.00000000000E+00 0. -1.
         25    2    1    2    0    0 -0.35180944771E+02 -0.59042720854E+02  0.99600380855E+02  0.17398392862E+03  0.12500571903E+03 0.  0.
          5    1    3    3  501    0  0.24092545940E+02 -0.53457783176E+02  0.81135161193E+00  0.58641739771E+02  0.10000000000E+00 0. -1.
         -5    1    3    3    0  501 -0.59273490711E+02 -0.55849376781E+01  0.98789029243E+02  0.11534218885E+03  0.10000000000E+00 0. -1.
         21    1    1    2  504  503  0.35180944771E+02  0.59042720854E+02 -0.50296347124E+02  0.85167272440E+02  0.00000000000E+00 0. -1.
<mgrwt>
<rscale>  1 0.14265403E+03</rscale>
<asrwt>0</asrwt>
<pdfrwt beam="1">  1       21 0.23727326E-01 0.14265403E+03</pdfrwt>
<pdfrwt beam="2">  1       21 0.16142090E-01 0.14265403E+03</pdfrwt>
<totfact> 0.57733310E+05</totfact>
</mgrwt>
</event>
<event>
 6    1  0.4202038E-002  0.1269968E+03  0.7546771E-02  0.1231981E+00
         21   -1    0    0  503  502  0.00000000000E+00  0.00000000000E+00  0.11013440498E+03  0.11013440498E+03  0.00000000000E+00 0.  1.
         21   -1    0    0  504  503 -0.00000000000E+00 -0.00000000000E+00 -0.51046281823E+02  0.51046281823E+02  0.00000000000E+00 0.  1.
         25    2    1    2    0    0  0.12591863374E+02 -0.18525574225E+02  0.45075294163E+02  0.13475889088E+03  0.12500569828E+03 0.  0.
          5    1    3    3  501    0  0.16982433758E+02 -0.66904460672E+02  0.50997099319E+02  0.85821466155E+02  0.10000000000E+00 0. -1.
         -5    1    3    3    0  501 -0.43905703844E+01  0.48378886446E+02 -0.59218051557E+01  0.48937424722E+02  0.10000000000E+00 0. -1.
         21    1    1    2  504  502 -0.12591863374E+02  0.18525574225E+02  0.14012828995E+02  0.26421795928E+02  0.00000000000E+00 0.  1.
<mgrwt>
<rscale>  1 0.12699676E+03</rscale>
<asrwt>0</asrwt>
<pdfrwt beam="1">  1       21 0.16943755E-01 0.12699676E+03</pdfrwt>
<pdfrwt beam="2">  1       21 0.78532742E-02 0.12699676E+03</pdfrwt>
<totfact> 0.38391009E+06</totfact>
</mgrwt>
</event>
<event>
 6    1  0.4202038E-002  0.1294955E+03  0.7546771E-02  0.1228206E+00
         21   -1    0    0  504  502  0.00000000000E+00  0.00000000000E+00  0.15963638319E+03  0.15963638319E+03  0.00000000000E+00 0. -1.
         21   -1    0    0  502  503 -0.00000000000E+00 -0.00000000000E+00 -0.12581453697E+03  0.12581453697E+03  0.00000000000E+00 0. -1.
         25    2    1    2    0    0  0.14885657430E+02  0.30359365980E+02  0.13000662849E+03  0.18349609565E+03  0.12500327903E+03 0.  0.
          5    1    3    3  501    0 -0.14543657616E+02 -0.45541327978E+02  0.54016036203E+02  0.72133714018E+02  0.10000000000E+00 0.  1.
         -5    1    3    3    0  501  0.29429315047E+02  0.75900693959E+02  0.75990592284E+02  0.11136238163E+03  0.10000000000E+00 0.  1.
         21    1    1    2  504  503 -0.14885657430E+02 -0.30359365980E+02 -0.96184782274E+02  0.10195482451E+03  0.00000000000E+00 0. -1.
<mgrwt>
<rscale>  1 0.12949554E+03</rscale>
<asrwt>0</asrwt>
<pdfrwt beam="1">  1       21 0.24559444E-01 0.12949554E+03</pdfrwt>
<pdfrwt beam="2">  1       21 0.19356083E-01 0.12949554E+03</pdfrwt>
<totfact> 0.38850700E+05</totfact>
</mgrwt>
</event>
<event>
 6    1  0.4202038E-002  0.1274581E+03  0.7546771E-02  0.1231277E+00
         21   -1    0    0  504  502  0.00000000000E+00  0.00000000000E+00  0.12920035237E+02  0.12920035237E+02  0.00000000000E+00 0. -1.
         21   -1    0    0  502  503 -0.00000000000E+00 -0.00000000000E+00 -0.51360683913E+03  0.51360683913E+03  0.00000000000E+00 0. -1.
         25    2    1    2    0    0 -0.19472214893E+02  0.15591058802E+02 -0.32536674790E+03  0.34944110333E+03  0.12499326300E+03 0.  0.
          5    1    3    3  501    0 -0.64593643958E+02  0.18917508849E+02 -0.26830757854E+03  0.27662100008E+03  0.10000000000E+00 0. -1.
         -5    1    3    3    0  501  0.45121429065E+02 -0.33264500469E+01 -0.57059169352E+02  0.72820103254E+02  0.10000000000E+00 0. -1.
         21    1    1    2  504  503  0.19472214893E+02 -0.15591058802E+02 -0.17532005600E+03  0.17708577103E+03  0.00000000000E+00 0. -1.
<mgrwt>
<rscale>  1 0.12745809E+03</rscale>
<asrwt>0</asrwt>
<pdfrwt beam="1">  1       21 0.19876977E-02 0.12745809E+03</pdfrwt>
<pdfrwt beam="2">  1       21 0.79016439E-01 0.12745809E+03</pdfrwt>
<totfact> 0.17560748E+06</totfact>
</mgrwt>
</event>
<event>
 6    1  0.4202038E-002  0.1328953E+03  0.7546771E-02  0.1223222E+00
         21   -1    0    0  503  502  0.00000000000E+00  0.00000000000E+00  0.12424537198E+03  0.12424537198E+03  0.00000000000E+00 0. -1.
         21   -1    0    0  504  503 -0.00000000000E+00 -0.00000000000E+00 -0.37974171808E+03  0.37974171808E+03  0.00000000000E+00 0. -1.
         25    2    1    2    0    0 -0.35422206064E+02  0.27932924103E+02  0.86800248109E+02  0.15873075147E+03  0.12500474974E+03 0.  0.
          5    1    3    3  501    0  0.28292324758E+02  0.56391374278E+02  0.39735686398E+02  0.74561233270E+02  0.10000000000E+00 0. -1.
         -5    1    3    3    0  501 -0.63714530823E+02 -0.28458450175E+02  0.47064561711E+02  0.84169518196E+02  0.10000000000E+00 0. -1.
         21    1    1    2  504  502  0.35422206064E+02 -0.27932924103E+02 -0.34229659420E+03  0.34525633859E+03  0.00000000000E+00 0. -1.
<mgrwt>
<rscale>  1 0.13289533E+03</rscale>
<asrwt>0</asrwt>
<pdfrwt beam="1">  1       21 0.19114673E-01 0.13289533E+03</pdfrwt>
<pdfrwt beam="2">  1       21 0.58421803E-01 0.13289533E+03</pdfrwt>
<totfact> 0.70763695E+04</totfact>
</mgrwt>
</event>
<event>
 6    1  0.4202038E-002  0.1325765E+03  0.7546771E-02  0.1223682E+00
         21   -1    0    0  503  502  0.00000000000E+00  0.00000000000E+00  0.37760521783E+02  0.37760521783E+02  0.00000000000E+00 0.  1.
         21   -1    0    0  504  503 -0.00000000000E+00 -0.00000000000E+00 -0.45434194695E+03  0.45434194695E+03  0.00000000000E+00 0.  1.
         25    2    1    2    0    0 -0.26862637115E+02  0.35073848904E+02 -0.84765897166E+02  0.15735880446E+03  0.12499903947E+03 0.  0.
          5    1    3    3  501    0 -0.37977557597E+02  0.21465505730E+02 -0.11466268831E+03  0.12268090686E+03  0.10000000000E+00 0. -1.
         -5    1    3    3    0  501  0.11114920483E+02  0.13608343175E+02  0.29896791143E+02  0.34677897600E+02  0.10000000000E+00 0. -1.
         21    1    1    2  504  502  0.26862637115E+02 -0.35073848904E+02 -0.33181552800E+03  0.33474366428E+03  0.00000000000E+00 0.  1.
<mgrwt>
<rscale>  1 0.13257653E+03</rscale>
<asrwt>0</asrwt>
<pdfrwt beam="1">  1       21 0.58093111E-02 0.13257653E+03</pdfrwt>
<pdfrwt beam="2">  1       21 0.69898760E-01 0.13257653E+03</pdfrwt>
<totfact> 0.39183711E+05</totfact>
</mgrwt>
</event>
<event>
 6    1  0.4202038E-002  0.1313324E+03  0.7546771E-02  0.1225492E+00
         21   -1    0    0  503  502  0.00000000000E+00  0.00000000000E+00  0.69758599238E+03  0.69758599238E+03  0.00000000000E+00 0. -1.
         21   -1    0    0  504  503 -0.00000000000E+00 -0.00000000000E+00 -0.12003631095E+02  0.12003631095E+02  0.00000000000E+00 0. -1.
         25    2    1    2    0    0  0.26460732990E+02 -0.30366991696E+02  0.60965314573E+03  0.62363864704E+03  0.12500351759E+03 0.  0.
          5    1    3    3  501    0  0.62735425199E+02 -0.69836627527E+01  0.52337813370E+03  0.52717092670E+03  0.10000000000E+00 0. -1.
         -5    1    3    3    0  501 -0.36274692209E+02 -0.23383328943E+02  0.86275012026E+02  0.96467720339E+02  0.10000000000E+00 0. -1.
         21    1    1    2  504  502 -0.26460732990E+02  0.30366991696E+02  0.75929215556E+02  0.85950976434E+02  0.00000000000E+00 0. -1.
<mgrwt>
<rscale>  1 0.13133242E+03</rscale>
<asrwt>0</asrwt>
<pdfrwt beam="1">  1       21 0.10732089E+00 0.13133242E+03</pdfrwt>
<pdfrwt beam="2">  1       21 0.18467130E-02 0.13133242E+03</pdfrwt>
<totfact> 0.97753831E+05</totfact>
</mgrwt>
</event>
<event>
 6    1  0.4202038E-002  0.1279709E+03  0.7546771E-02  0.1230498E+00
         21   -1    0    0  504  502  0.00000000000E+00  0.00000000000E+00  0.98000757303E+02  0.98000757303E+02  0.00000000000E+00 0.  1.
         21   -1    0    0  502  503 -0.00000000000E+00 -0.00000000000E+00 -0.76379985676E+02  0.76379985676E+02  0.00000000000E+00 0.  1.
         25    2    1    2    0    0  0.84473550278E+00 -0.27418676346E+02  0.47660457960E+02  0.13655796340E+03  0.12499624284E+03 0.  0.
          5    1    3    3  501    0  0.38082756111E+02 -0.24854275329E+02  0.76766300941E+02  0.89225031663E+02  0.10000000000E+00 0. -1.
         -5    1    3    3    0  501 -0.37238020608E+02 -0.25644010166E+01 -0.29105842981E+02  0.47332931739E+02  0.10000000000E+00 0. -1.
         21    1    1    2  504  503 -0.84473550278E+00  0.27418676346E+02 -0.26039686333E+02  0.37822779577E+02  0.00000000000E+00 0.  1.
<mgrwt>
<rscale>  1 0.12797093E+03</rscale>
<asrwt>0</asrwt>
<pdfrwt beam="1">  1       21 0.15077040E-01 0.12797093E+03</pdfrwt>
<pdfrwt beam="2">  1       21 0.11750767E-01 0.12797093E+03</pdfrwt>
<totfact> 0.23491195E+06</totfact>
</mgrwt>
</event>
<event>
 6    1  0.4202038E-002  0.1284044E+03  0.7546771E-02  0.1229843E+00
         21   -1    0    0  504  502  0.00000000000E+00  0.00000000000E+00  0.62721515288E+02  0.62721515288E+02  0.00000000000E+00 0. -1.
         21   -1    0    0  502  503 -0.00000000000E+00 -0.00000000000E+00 -0.17952250448E+03  0.17952250448E+03  0.00000000000E+00 0. -1.
         25    2    1    2    0    0  0.53856736111E+01 -0.28856811183E+02 -0.70091127536E+01  0.12859553908E+03  0.12500385585E+03 0.  0.
          5    1    3    3  501    0 -0.28622012777E+02  0.41170504294E+02 -0.77876356477E+01  0.50743347428E+02  0.10000000000E+00 0. -1.
         -5    1    3    3    0  501  0.34007686388E+02 -0.70027315477E+02  0.77852289406E+00  0.77852191648E+02  0.10000000000E+00 0. -1.
         21    1    1    2  504  503 -0.53856736111E+01  0.28856811183E+02 -0.10979187644E+03  0.11364848069E+03  0.00000000000E+00 0. -1.
<mgrwt>
<rscale>  1 0.12840438E+03</rscale>
<asrwt>0</asrwt>
<pdfrwt beam="1">  1       21 0.96494638E-02 0.12840438E+03</pdfrwt>
<pdfrwt beam="2">  1       21 0.27618847E-01 0.12840438E+03</pdfrwt>
<totfact> 0.10814713E+06</totfact>
</mgrwt>
</event>
<event>
 6    1  0.4202038E-002  0.1259916E+03  0.7546771E-02  0.1233528E+00
         21   -1    0    0  503  502  0.00000000000E+00  0.00000000000E+00  0.82981902244E+01  0.82981902244E+01  0.00000000000E+00 0.  1.
         21   -1    0    0  504  503 -0.00000000000E+00 -0.00000000000E+00 -0.60572404552E+03  0.60572404552E+03  0.00000000000E+00 0.  1.
         25    2    1    2    0    0 -0.66685245531E+01  0.14274579901E+02 -0.52587304281E+03  0.54075534127E+03  0.12500259641E+03 0.  0.
          5    1    3    3  501    0  0.58152729887E+02  0.28471517516E+01 -0.20004646163E+03  0.20834692961E+03  0.10000000000E+00 0.  1.
         -5    1    3    3    0  501 -0.64821254441E+02  0.11427428150E+02 -0.32582658117E+03  0.33240841166E+03  0.10000000000E+00 0.  1.
         21    1    1    2  504  502  0.66685245531E+01 -0.14274579901E+02 -0.71552812487E+02  0.73266894474E+02  0.00000000000E+00 0. -1.
<mgrwt>
<rscale>  1 0.12599159E+03</rscale>
<asrwt>0</asrwt>
<pdfrwt beam="1">  1       21 0.12766445E-02 0.12599159E+03</pdfrwt>
<pdfrwt beam="2">  1       21 0.93188322E-01 0.12599159E+03</pdfrwt>
<totfact> 0.24538865E+06</totfact>
</mgrwt>
</event>
<event>
 6    1  0.4202038E-002  0.1364371E+03  0.7546771E-02  0.1218205E+00
         21   -1    0    0  504  502  0.00000000000E+00  0.00000000000E+00  0.21853873856E+03  0.21853873856E+03  0.00000000000E+00 0. -1.
         21   -1    0    0  502  503 -0.00000000000E+00 -0.00000000000E+00 -0.41820170325E+02  0.41820170325E+02  0.00000000000E+00 0. -1.
         25    2    1    2    0    0  0.42989498596E+02  0.33812025071E+02  0.12929128475E+03  0.18796624870E+03  0.12499489714E+03 0.  0.
          5    1    3    3  501    0 -0.33873950248E+02 -0.14758200474E+02  0.70777047264E+02  0.79841401578E+02  0.10000000000E+00 0.  1.
         -5    1    3    3    0  501  0.76863448845E+02  0.48570225545E+02  0.58514237483E+02  0.10812484713E+03  0.10000000000E+00 0.  1.
         21    1    1    2  504  503 -0.42989498596E+02 -0.33812025071E+02  0.47427283489E+02  0.72392660181E+02  0.00000000000E+00 0. -1.
<mgrwt>
<rscale>  1 0.13643707E+03</rscale>
<asrwt>0</asrwt>
<pdfrwt beam="1">  1       21 0.33621344E-01 0.13643707E+03</pdfrwt>
<pdfrwt beam="2">  1       21 0.64338725E-02 0.13643707E+03</pdfrwt>
<totfact> 0.14882816E+06</totfact>
</mgrwt>
</event>
<event>
 6    1  0.4202038E-002  0.1347658E+03  0.7546771E-02  0.1220551E+00
         21   -1    0    0  503  502  0.00000000000E+00  0.00000000000E+00  0.23633763832E+03  0.23633763832E+03  0.00000000000E+00 0. -1.
         21   -1    0    0  504  503 -0.00000000000E+00 -0.00000000000E+00 -0.39337086485E+02  0.39337086485E+02  0.00000000000E+00 0. -1.
         25    2    1    2    0    0  0.50223924572E+02  0.38380765195E+01  0.17456724752E+03  0.22053466157E+03  0.12499855846E+03 0.  0.
          5    1    3    3  501    0  0.41184404655E+02 -0.12274870094E+02  0.19102041388E+03  0.19579488283E+03  0.10000000000E+00 0. -1.
         -5    1    3    3    0  501  0.90395199175E+01  0.16112946613E+02 -0.16453166360E+02  0.24739778741E+02  0.10000000000E+00 0. -1.
         21    1    1    2  504  502 -0.50223924572E+02 -0.38380765195E+01  0.22433304308E+02  0.55140063230E+02  0.00000000000E+00 0. -1.
<mgrwt>
<rscale>  1 0.13476577E+03</rscale>
<asrwt>0</asrwt>
<pdfrwt beam="1">  1       21 0.36359636E-01 0.13476577E+03</pdfrwt>
<pdfrwt beam="2">  1       21 0.60518596E-02 0.13476577E+03</pdfrwt>
<totfact> 0.14156932E+06</totfact>
</mgrwt>
</event>
<event>
 6    1  0.4202038E-002  0.1308081E+03  0.7546771E-02  0.1226262E+00
         21   -1    0    0  503  502  0.00000000000E+00  0.00000000000E+00  0.50645432708E+02  0.50645432708E+02  0.00000000000E+00 0. -1.
         21   -1    0    0  504  503 -0.00000000000E+00 -0.00000000000E+00 -0.47433675271E+03  0.47433675271E+03  0.00000000000E+00 0. -1.
         25    2    1    2    0    0 -0.29589905519E+02 -0.24722105404E+02 -0.36402769114E+02  0.13577893947E+03  0.12499605514E+03 0.  0.
          5    1    3    3  501    0 -0.83722498017E+01  0.20815370171E+01  0.45876436783E+02  0.46680668536E+02  0.10000000000E+00 0. -1.
         -5    1    3    3    0  501 -0.21217655717E+02 -0.26803642421E+02 -0.82279205897E+02  0.89098270938E+02  0.10000000000E+00 0. -1.
         21    1    1    2  504  502  0.29589905519E+02  0.24722105404E+02 -0.38728855089E+03  0.38920324594E+03  0.00000000000E+00 0. -1.
<mgrwt>
<rscale>  1 0.13080810E+03</rscale>
<asrwt>0</asrwt>
<pdfrwt beam="1">  1       21 0.77916046E-02 0.13080810E+03</pdfrwt>
<pdfrwt beam="2">  1       21 0.72974889E-01 0.13080810E+03</pdfrwt>
<totfact> 0.21605878E+05</totfact>
</mgrwt>
</event>
<event>
 6    1  0.4202038E-002  0.1297502E+03  0.7546771E-02  0.1227827E+00
         21   -1    0    0  503  502  0.00000000000E+00  0.00000000000E+00  0.11995353646E+02  0.11995353646E+02  0.00000000000E+00 0.  1.
         21   -1    0    0  504  503 -0.00000000000E+00 -0.00000000000E+00 -0.18125673404E+04  0.18125673404E+04  0.00000000000E+00 0.  1.
         25    2    1    2    0    0  0.33775036817E+02  0.84019618054E+01 -0.34527368353E+03  0.36884826551E+03  0.12499512134E+03 0.  0.
          5    1    3    3  501    0  0.62650975658E+02  0.34086750868E+02 -0.30420842000E+03  0.31245771576E+03  0.10000000000E+00 0. -1.
         -5    1    3    3    0  501 -0.28875938841E+02 -0.25684789063E+02 -0.41065263530E+02  0.56390549757E+02  0.10000000000E+00 0. -1.
         21    1    1    2  504  502 -0.33775036817E+02 -0.84019618054E+01 -0.14552983032E+04  0.14557144285E+04  0.00000000000E+00 0.  1.
<mgrwt>
<rscale>  1 0.12975025E+03</rscale>
<asrwt>0</asrwt>
<pdfrwt beam="1">  1       21 0.18454385E-02 0.12975025E+03</pdfrwt>
<pdfrwt beam="2">  1       21 0.27885659E+00 0.12975025E+03</pdfrwt>
<totfact> 0.67142743E+04</totfact>
</mgrwt>
</event>
<event>
 6    1  0.4202038E-002  0.1260188E+03  0.7546771E-02  0.1233486E+00
         21   -1    0    0  504  502  0.00000000000E+00  0.00000000000E+00  0.21232146426E+03  0.21232146426E+03  0.00000000000E+00 0.  1.
         21   -1    0    0  502  503 -0.00000000000E+00 -0.00000000000E+00 -0.36109130916E+02  0.36109130916E+02  0.00000000000E+00 0.  1.
         25    2    1    2    0    0  0.71276532231E+01 -0.14330817973E+02  0.18953527851E+03  0.22760569056E+03  0.12499821115E+03 0.  0.
          5    1    3    3  501    0  0.26849917230E+02 -0.47764394747E+01  0.20102156850E+03  0.20286304107E+03  0.10000000000E+00 0.  1.
         -5    1    3    3    0  501 -0.19722264007E+02 -0.95543784980E+01 -0.11486289988E+02  0.24742649489E+02  0.10000000000E+00 0.  1.
         21    1    1    2  504  503 -0.71276532231E+01  0.14330817973E+02 -0.13322945170E+02  0.20824904615E+02  0.00000000000E+00 0. -1.
<mgrwt>
<rscale>  1 0.12601876E+03</rscale>
<asrwt>0</asrwt>
<pdfrwt beam="1">  1       21 0.32664840E-01 0.12601876E+03</pdfrwt>
<pdfrwt beam="2">  1       21 0.55552510E-02 0.12601876E+03</pdfrwt>
<totfact> 0.20163968E+06</totfact>
</mgrwt>
</event>
<event>
 6    1  0.4202038E-002  0.1312895E+03  0.7546771E-02  0.1225555E+00
         21   -1    0    0  503  502  0.00000000000E+00  0.00000000000E+00  0.21252212161E+03  0.21252212161E+03  0.00000000000E+00 0.  1.
         21   -1    0    0  504  503 -0.00000000000E+00 -0.00000000000E+00 -0.38489214088E+02  0.38489214088E+02  0.00000000000E+00 0.  1.
         25    2    1    2    0    0 -0.38368876740E+02 -0.12115907265E+02  0.16298265613E+03  0.20928515726E+03  0.12497185659E+03 0.  0.
          5    1    3    3  501    0  0.34016248159E+02 -0.30294919760E+01  0.11966017349E+03  0.12443813756E+03  0.10000000000E+00 0.  1.
         -5    1    3    3    0  501 -0.72385124898E+02 -0.90864152889E+01  0.43322482638E+02  0.84847019696E+02  0.10000000000E+00 0.  1.
         21    1    1    2  504  502  0.38368876740E+02  0.12115907265E+02  0.11050251392E+02  0.41726178437E+02  0.00000000000E+00 0.  1.
<mgrwt>
<rscale>  1 0.13128949E+03</rscale>
<asrwt>0</asrwt>
<pdfrwt beam="1">  1       21 0.32695710E-01 0.13128949E+03</pdfrwt>
<pdfrwt beam="2">  1       21 0.59214177E-02 0.13128949E+03</pdfrwt>
<totfact> 0.18086202E+06</totfact>
</mgrwt>
</event>
<event>
 6    1  0.4202038E-002  0.1320272E+03  0.7546771E-02  0.1224478E+00
         21   -1    0    0  504  502  0.00000000000E+00  0.00000000000E+00  0.18008540096E+02  0.18008540096E+02  0.00000000000E+00 0.  1.
         21   -1    0    0  502  503 -0.00000000000E+00 -0.00000000000E+00 -0.16548649952E+04  0.16548649952E+04  0.00000000000E+00 0.  1.
         25    2    1    2    0    0  0.23981576291E+02  0.35063353730E+02 -0.22867846682E+03  0.26405495171E+03  0.12500648606E+03 0.  0.
          5    1    3    3  501    0  0.58394478478E+02 -0.20079457751E+02 -0.14857965361E+03  0.16090066255E+03  0.10000000000E+00 0. -1.
         -5    1    3    3    0  501 -0.34412902187E+02  0.55142811482E+02 -0.80098813210E+02  0.10315428916E+03  0.10000000000E+00 0. -1.
         21    1    1    2  504  503 -0.23981576291E+02 -0.35063353730E+02 -0.14081779883E+04  0.14088185836E+04  0.00000000000E+00 0.  1.
<mgrwt>
<rscale>  1 0.13202718E+03</rscale>
<asrwt>0</asrwt>
<pdfrwt beam="1">  1       21 0.27705450E-02 0.13202718E+03</pdfrwt>
<pdfrwt beam="2">  1       21 0.25459458E+00 0.13202718E+03</pdfrwt>
<totfact> 0.47565695E+04</totfact>
</mgrwt>
</event>
<event>
 6    1  0.4202038E-002  0.1372783E+03  0.7546771E-02  0.1217039E+00
         21   -1    0    0  504  502  0.00000000000E+00  0.00000000000E+00  0.54636734447E+02  0.54636734447E+02  0.00000000000E+00 0. -1.
         21   -1    0    0  502  503 -0.00000000000E+00 -0.00000000000E+00 -0.17243738499E+03  0.17243738499E+03  0.00000000000E+00 0. -1.
         25    2    1    2    0    0 -0.55245944188E+02  0.12871419529E+02 -0.79632241478E+02  0.15870296148E+03  0.12501019282E+03 0.  0.
          5    1    3    3  501    0 -0.53384260317E+02 -0.46645305762E+02 -0.67594435599E+02  0.97952445212E+02  0.10000000000E+00 0. -1.
         -5    1    3    3    0  501 -0.18616838717E+01  0.59516725290E+02 -0.12037805879E+02  0.60750516265E+02  0.10000000000E+00 0. -1.
         21    1    1    2  504  503  0.55245944188E+02 -0.12871419529E+02 -0.38168409062E+02  0.68371157956E+02  0.00000000000E+00 0. -1.
<mgrwt>
<rscale>  1 0.13727832E+03</rscale>
<asrwt>0</asrwt>
<pdfrwt beam="1">  1       21 0.84056515E-02 0.13727832E+03</pdfrwt>
<pdfrwt beam="2">  1       21 0.26528828E-01 0.13727832E+03</pdfrwt>
<totfact> 0.14857752E+06</totfact>
</mgrwt>
</event>
<event>
 6    1  0.4202038E-002  0.1278289E+03  0.7546771E-02  0.1230713E+00
         21   -1    0    0  504  502  0.00000000000E+00  0.00000000000E+00  0.79407603419E+02  0.79407603419E+02  0.00000000000E+00 0.  1.
         21   -1    0    0  502  503 -0.00000000000E+00 -0.00000000000E+00 -0.77113640876E+02  0.77113640876E+02  0.00000000000E+00 0.  1.
         25    2    1    2    0    0 -0.17962221122E+02 -0.19868164892E+02  0.11141883055E+02  0.12831360240E+03  0.12499141426E+03 0.  0.
          5    1    3    3  501    0  0.40177725978E+02 -0.19545415763E+02  0.43005233012E+02  0.62013974300E+02  0.10000000000E+00 0. -1.
         -5    1    3    3    0  501 -0.58139947100E+02 -0.32274912872E+00 -0.31863349957E+02  0.66299628100E+02  0.10000000000E+00 0. -1.
         21    1    1    2  504  503  0.17962221122E+02  0.19868164892E+02 -0.88479205123E+01  0.28207641894E+02  0.00000000000E+00 0.  1.
<mgrwt>
<rscale>  1 0.12782894E+03</rscale>
<asrwt>0</asrwt>
<pdfrwt beam="1">  1       21 0.12216554E-01 0.12782894E+03</pdfrwt>
<pdfrwt beam="2">  1       21 0.11863637E-01 0.12782894E+03</pdfrwt>
<totfact> 0.33645160E+06</totfact>
</mgrwt>
</event>
<event>
 6    1  0.4202038E-002  0.1269276E+03  0.7546771E-02  0.1232087E+00
         21   -1    0    0  503  502  0.00000000000E+00  0.00000000000E+00  0.61260648016E+03  0.61260648016E+03  0.00000000000E+00 0.  1.
         21   -1    0    0  504  503 -0.00000000000E+00 -0.00000000000E+00 -0.15247624842E+02  0.15247624842E+02  0.00000000000E+00 0.  1.
         25    2    1    2    0    0  0.15257998072E+02  0.15847637738E+02  0.59167013767E+03  0.60513152514E+03  0.12500662695E+03 0.  0.
          5    1    3    3  501    0  0.12531343438E+02  0.45301024390E+02  0.55934092052E+03  0.56131229520E+03  0.10000000000E+00 0.  1.
         -5    1    3    3    0  501  0.27266546342E+01 -0.29453386652E+02  0.32329217156E+02  0.43819229942E+02  0.10000000000E+00 0.  1.
         21    1    1    2  504  502 -0.15257998072E+02 -0.15847637738E+02  0.56887176450E+01  0.22722579860E+02  0.00000000000E+00 0.  1.
<mgrwt>
<rscale>  1 0.12692758E+03</rscale>
<asrwt>0</asrwt>
<pdfrwt beam="1">  1       21 0.94247132E-01 0.12692758E+03</pdfrwt>
<pdfrwt beam="2">  1       21 0.23457889E-02 0.12692758E+03</pdfrwt>
<totfact> 0.90078625E+05</totfact>
</mgrwt>
</event>
<event>
 6    1  0.4202038E-002  0.1258904E+03  0.7546771E-02  0.1233684E+00
         21   -1    0    0  504  502  0.00000000000E+00  0.00000000000E+00  0.22633357823E+02  0.22633357823E+02  0.00000000000E+00 0. -1.
         21   -1    0    0  502  503 -0.00000000000E+00 -0.00000000000E+00 -0.27906999854E+03  0.27906999854E+03  0.00000000000E+00 0. -1.
         25    2    1    2    0    0 -0.13607828036E+02 -0.63118097055E+01 -0.15747092176E+03  0.20160727525E+03  0.12499356107E+03 0.  0.
          5    1    3    3  501    0  0.18598015925E+02 -0.60081876813E+02 -0.86037373188E+02  0.10657465788E+03  0.10000000000E+00 0. -1.
         -5    1    3    3    0  501 -0.32205843961E+02  0.53770067107E+02 -0.71433548572E+02  0.95032617367E+02  0.10000000000E+00 0. -1.
         21    1    1    2  504  503  0.13607828036E+02  0.63118097055E+01 -0.98965718954E+02  0.10009608111E+03  0.00000000000E+00 0. -1.
<mgrwt>
<rscale>  1 0.12589044E+03</rscale>
<asrwt>0</asrwt>
<pdfrwt beam="1">  1       21 0.34820551E-02 0.12589044E+03</pdfrwt>
<pdfrwt beam="2">  1       21 0.42933845E-01 0.12589044E+03</pdfrwt>
<totfact> 0.25575288E+06</totfact>
</mgrwt>
</event>
<event>
 6    1  0.4202038E-002  0.1362588E+03  0.7546771E-02  0.1218453E+00
         21   -1    0    0  504  502  0.00000000000E+00  0.00000000000E+00  0.12191806807E+03  0.12191806807E+03  0.00000000000E+00 0. -1.
         21   -1    0    0  502  503 -0.00000000000E+00 -0.00000000000E+00 -0.12202772220E+03  0.12202772220E+03  0.00000000000E+00 0.  1.
         25    2    1    2    0    0 -0.15700125568E+02 -0.51933802637E+02  0.71678235239E+02  0.15396182025E+03  0.12499143526E+03 0.  0.
          5    1    3    3  501    0  0.88285863184E+01 -0.74487169090E+02  0.89011541166E+02  0.11640166131E+03  0.10000000000E+00 0. -1.
         -5    1    3    3    0  501 -0.24528711887E+02  0.22553366453E+02 -0.17333305927E+02  0.37560158940E+02  0.10000000000E+00 0. -1.
         21    1    1    2  504  503  0.15700125568E+02  0.51933802637E+02 -0.71787889370E+02  0.89983970014E+02  0.00000000000E+00 0.  1.
<mgrwt>
<rscale>  1 0.13625884E+03</rscale>
<asrwt>0</asrwt>
<pdfrwt beam="1">  1       21 0.18756626E-01 0.13625884E+03</pdfrwt>
<pdfrwt beam="2">  1       21 0.18773496E-01 0.13625884E+03</pdfrwt>
<totfact> 0.67879266E+05</totfact>
</mgrwt>
</event>
<event>
 6    1  0.4202038E-002  0.1276073E+03  0.7546771E-02  0.1231050E+00
         21   -1    0    0  504  502  0.00000000000E+00  0.00000000000E+00  0.15585772136E+03  0.15585772136E+03  0.00000000000E+00 0.  1.
         21   -1    0    0  502  503 -0.00000000000E+00 -0.00000000000E+00 -0.43414978939E+02  0.43414978939E+02  0.00000000000E+00 0.  1.
         25    2    1    2    0    0  0.41723037296E-01  0.25744075936E+02  0.11700274210E+03  0.17312785791E+03  0.12498341626E+03 0.  0.
          5    1    3    3  501    0  0.56709498391E+02 -0.64534499816E+01  0.79708291176E+02  0.98035890911E+02  0.10000000000E+00 0. -1.
         -5    1    3    3    0  501 -0.56667775354E+02  0.32197525918E+02  0.37294450919E+02  0.75091967002E+02  0.10000000000E+00 0. -1.
         21    1    1    2  504  503 -0.41723037296E-01 -0.25744075936E+02 -0.45599996710E+01  0.26144842391E+02  0.00000000000E+00 0.  1.
<mgrwt>
<rscale>  1 0.12760726E+03</rscale>
<asrwt>0</asrwt>
<pdfrwt beam="1">  1       21 0.23978111E-01 0.12760726E+03</pdfrwt>
<pdfrwt beam="2">  1       21 0.66792276E-02 0.12760726E+03</pdfrwt>
<totfact> 0.26659148E+06</totfact>
</mgrwt>
</event>
<event>
 6    1  0.4202038E-002  0.1323722E+03  0.7546771E-02  0.1223978E+00
         21   -1    0    0  504  502  0.00000000000E+00  0.00000000000E+00  0.14778383894E+03  0.14778383894E+03  0.00000000000E+00 0.  1.
         21   -1    0    0  502  503 -0.00000000000E+00 -0.00000000000E+00 -0.59292620516E+02  0.59292620516E+02  0.00000000000E+00 0. -1.
         25    2    1    2    0    0 -0.42453814284E+02  0.97495389671E+01  0.95136815944E+02  0.16301350649E+03  0.12500003878E+03 0.  0.
          5    1    3    3  501    0 -0.66788981756E+02 -0.39237782441E+02  0.60268684196E+02  0.98146298706E+02  0.10000000000E+00 0.  1.
         -5    1    3    3    0  501  0.24335167473E+02  0.48987321408E+02  0.34868131748E+02  0.64867207789E+02  0.10000000000E+00 0.  1.
         21    1    1    2  504  503  0.42453814284E+02 -0.97495389671E+01 -0.66455975200E+01  0.44062952962E+02  0.00000000000E+00 0. -1.
<mgrwt>
<rscale>  1 0.13237216E+03</rscale>
<asrwt>0</asrwt>
<pdfrwt beam="1">  1       21 0.22735975E-01 0.13237216E+03</pdfrwt>
<pdfrwt beam="2">  1       21 0.91219416E-02 0.13237216E+03</pdfrwt>
<totfact> 0.17241562E+06</totfact>
</mgrwt>
</event>
<event>
 6    1  0.4202038E-002  0.1279169E+03  0.7546771E-02  0.1230580E+00
         21   -1    0    0  504  502  0.00000000000E+00  0.00000000000E+00  0.24645275980E+03  0.24645275980E+03  0.00000000000E+00 0. -1.
         21   -1    0    0  502  503 -0.00000000000E+00 -0.00000000000E+00 -0.47083587467E+02  0.47083587467E+02  0.00000000000E+00 0. -1.
         25    2    1    2    0    0 -0.86469585975E+01  0.25768941955E+02  0.22328589073E+03  0.25733113105E+03  0.12499565492E+03 0.  0.
          5    1    3    3  501    0 -0.54408389981E+02  0.50575963981E+02  0.11095783779E+03  0.13352847187E+03  0.10000000000E+00 0. -1.
         -5    1    3    3    0  501  0.45761431383E+02 -0.24807022026E+02  0.11232805294E+03  0.12380265919E+03  0.10000000000E+00 0. -1.
         21    1    1    2  504  503  0.86469585975E+01 -0.25768941955E+02 -0.23916718394E+02  0.36205216215E+02  0.00000000000E+00 0. -1.
<mgrwt>
<rscale>  1 0.12791686E+03</rscale>
<asrwt>0</asrwt>
<pdfrwt beam="1">  1       21 0.37915809E-01 0.12791686E+03</pdfrwt>
<pdfrwt beam="2">  1       21 0.72436290E-02 0.12791686E+03</pdfrwt>
<totfact> 0.95828810E+05</totfact>
</mgrwt>
</event>
<event>
 6    1  0.4202038E-002  0.1891994E+03  0.7546771E-02  0.1159185E+00
         21   -1    0    0  504  502  0.00000000000E+00  0.00000000000E+00  0.12043863313E+03  0.12043863313E+03  0.00000000000E+00 0. -1.
         21   -1    0    0  502  503 -0.00000000000E+00 -0.00000000000E+00 -0.23177854590E+03  0.23177854590E+03  0.00000000000E+00 0. -1.
         25    2    1    2    0    0 -0.95734290109E+02  0.10495381315E+03 -0.86372106067E+02  0.20798213276E+03  0.12496427347E+03 0.  0.
          5    1    3    3  501    0 -0.75922027109E+02 -0.22505837241E+01 -0.14291978363E+02  0.77288355998E+02  0.10000000000E+00 0. -1.
         -5    1    3    3    0  501 -0.19812263000E+02  0.10720439688E+03 -0.72080127704E+02  0.13069377676E+03  0.10000000000E+00 0. -1.
         21    1    1    2  504  503  0.95734290109E+02 -0.10495381315E+03 -0.24967806704E+02  0.14423504626E+03  0.00000000000E+00 0. -1.
<mgrwt>
<rscale>  1 0.18919944E+03</rscale>
<asrwt>0</asrwt>
<pdfrwt beam="1">  1       21 0.18529021E-01 0.18919944E+03</pdfrwt>
<pdfrwt beam="2">  1       21 0.35658238E-01 0.18919944E+03</pdfrwt>
<totfact> 0.20199262E+05</totfact>
</mgrwt>
</event>
<event>
 6    1  0.4202038E-002  0.1263108E+03  0.7546771E-02  0.1233035E+00
         21   -1    0    0  503  502  0.00000000000E+00  0.00000000000E+00  0.76159325274E+02  0.76159325274E+02  0.00000000000E+00 0.  1.
         21   -1    0    0  504  503 -0.00000000000E+00 -0.00000000000E+00 -0.68610950264E+02  0.68610950264E+02  0.00000000000E+00 0.  1.
         25    2    1    2    0    0  0.11742707579E+02 -0.13917098859E+02  0.78998546225E+01  0.12655763268E+03  0.12499139916E+03 0.  0.
          5    1    3    3  501    0 -0.22313818005E+02  0.49464735206E+02  0.58113885445E+01  0.54575165962E+02  0.10000000000E+00 0.  1.
         -5    1    3    3    0  501  0.34056525584E+02 -0.63381834065E+02  0.20884660780E+01  0.71982466718E+02  0.10000000000E+00 0.  1.
         21    1    1    2  504  502 -0.11742707579E+02  0.13917098859E+02 -0.35147961169E+00  0.18212642857E+02  0.00000000000E+00 0.  1.
<mgrwt>
<rscale>  1 0.12631083E+03</rscale>
<asrwt>0</asrwt>
<pdfrwt beam="1">  1       21 0.11716819E-01 0.12631083E+03</pdfrwt>
<pdfrwt beam="2">  1       21 0.10555531E-01 0.12631083E+03</pdfrwt>
<totfact> 0.44483886E+06</totfact>
</mgrwt>
</event>
<event>
 6    1  0.4202038E-002  0.1541117E+03  0.7546771E-02  0.1195510E+00
         21   -1    0    0  504  502  0.00000000000E+00  0.00000000000E+00  0.43212825791E+03  0.43212825791E+03  0.00000000000E+00 0.  1.
         21   -1    0    0  502  503 -0.00000000000E+00 -0.00000000000E+00 -0.18054950474E+03  0.18054950474E+03  0.00000000000E+00 0. -1.
         25    2    1    2    0    0  0.33587680711E+02 -0.83655311511E+02  0.40578007598E+03  0.43405975854E+03  0.12499624187E+03 0.  0.
          5    1    3    3  501    0  0.23141274521E+02  0.12114375026E+02  0.12142673680E+02  0.28805054988E+02  0.10000000000E+00 0.  1.
         -5    1    3    3    0  501  0.10446406189E+02 -0.95769686537E+02  0.39363740230E+03  0.40525470355E+03  0.10000000000E+00 0.  1.
         21    1    1    2  504  503 -0.33587680711E+02  0.83655311511E+02 -0.15420132280E+03  0.17861800411E+03  0.00000000000E+00 0. -1.
<mgrwt>
<rscale>  1 0.15411166E+03</rscale>
<asrwt>0</asrwt>
<pdfrwt beam="1">  1       21 0.66481270E-01 0.15411166E+03</pdfrwt>
<pdfrwt beam="2">  1       21 0.27776847E-01 0.15411166E+03</pdfrwt>
<totfact> 0.26265518E+04</totfact>
</mgrwt>
</event>
<event>
 6    1  0.4202038E-002  0.1277655E+03  0.7546771E-02  0.1230809E+00
         21   -1    0    0  504  502  0.00000000000E+00  0.00000000000E+00  0.11037013791E+02  0.11037013791E+02  0.00000000000E+00 0. -1.
         21   -1    0    0  502  503 -0.00000000000E+00 -0.00000000000E+00 -0.58991303716E+03  0.58991303716E+03  0.00000000000E+00 0. -1.
         25    2    1    2    0    0 -0.17532297504E+02 -0.19826857294E+02 -0.39423008395E+03  0.41441692073E+03  0.12499415734E+03 0.  0.
          5    1    3    3  501    0 -0.16947277075E+02  0.37298512412E+02 -0.46279523733E+02  0.61807714287E+02  0.10000000000E+00 0.  1.
         -5    1    3    3    0  501 -0.58502042903E+00 -0.57125369706E+02 -0.34795056022E+03  0.35260920644E+03  0.10000000000E+00 0.  1.
         21    1    1    2  504  503  0.17532297504E+02  0.19826857294E+02 -0.18464593942E+03  0.18653313022E+03  0.00000000000E+00 0. -1.
<mgrwt>
<rscale>  1 0.12776551E+03</rscale>
<asrwt>0</asrwt>
<pdfrwt beam="1">  1       21 0.16980020E-02 0.12776551E+03</pdfrwt>
<pdfrwt beam="2">  1       21 0.90755857E-01 0.12776551E+03</pdfrwt>
<totfact> 0.16546401E+06</totfact>
</mgrwt>
</event>
<event>
 6    1  0.4202038E-002  0.1389694E+03  0.7546771E-02  0.1214722E+00
         21   -1    0    0  503  502  0.00000000000E+00  0.00000000000E+00  0.70942372673E+03  0.70942372673E+03  0.00000000000E+00 0. -1.
         21   -1    0    0  504  503 -0.00000000000E+00 -0.00000000000E+00 -0.19309601485E+02  0.19309601485E+02  0.00000000000E+00 0. -1.
         25    2    1    2    0    0  0.32770518689E+02  0.51152502435E+02  0.62255802039E+03  0.63788008004E+03  0.12498808887E+03 0.  0.
          5    1    3    3  501    0  0.72267035793E+02  0.64044864687E+02  0.40121913290E+03  0.41267550419E+03  0.10000000000E+00 0. -1.
         -5    1    3    3    0  501 -0.39496517104E+02 -0.12892362252E+02  0.22133888749E+03  0.22520457585E+03  0.10000000000E+00 0. -1.
         21    1    1    2  504  502 -0.32770518689E+02 -0.51152502435E+02  0.67556104853E+02  0.90853248172E+02  0.00000000000E+00 0. -1.
<mgrwt>
<rscale>  1 0.13896945E+03</rscale>
<asrwt>0</asrwt>
<pdfrwt beam="1">  1       21 0.10914209E+00 0.13896945E+03</pdfrwt>
<pdfrwt beam="2">  1       21 0.29707085E-02 0.13896945E+03</pdfrwt>
<totfact> 0.43324380E+05</totfact>
</mgrwt>
</event>
<event>
 6    1  0.4202038E-002  0.1286278E+03  0.7546771E-02  0.1229506E+00
         21   -1    0    0  503  502  0.00000000000E+00  0.00000000000E+00  0.84888957828E+01  0.84888957828E+01  0.00000000000E+00 0.  1.
         21   -1    0    0  504  503 -0.00000000000E+00 -0.00000000000E+00 -0.91053773259E+03  0.91053773259E+03  0.00000000000E+00 0.  1.
         25    2    1    2    0    0  0.16469227728E+02 -0.25499172943E+02 -0.51616028242E+03  0.53194599118E+03  0.12499462829E+03 0.  0.
          5    1    3    3  501    0 -0.42885121607E+02  0.23024657222E+02 -0.26167408216E+03  0.26616273926E+03  0.10000000000E+00 0. -1.
         -5    1    3    3    0  501  0.59354349335E+02 -0.48523830165E+02 -0.25448620026E+03  0.26578325192E+03  0.10000000000E+00 0. -1.
         21    1    1    2  504  502 -0.16469227728E+02  0.25499172943E+02 -0.38588855439E+03  0.38708063720E+03  0.00000000000E+00 0.  1.
<mgrwt>
<rscale>  1 0.12862776E+03</rscale>
<asrwt>0</asrwt>
<pdfrwt beam="1">  1       21 0.13059845E-02 0.12862776E+03</pdfrwt>
<pdfrwt beam="2">  1       21 0.14008267E+00 0.12862776E+03</pdfrwt>
<totfact> 0.88509087E+05</totfact>
</mgrwt>
</event>
<event>
 6    1  0.4202038E-002  0.1262434E+03  0.7546771E-02  0.1233139E+00
         21   -1    0    0  504  502  0.00000000000E+00  0.00000000000E+00  0.36824326339E+03  0.36824326339E+03  0.00000000000E+00 0.  1.
         21   -1    0    0  502  503 -0.00000000000E+00 -0.00000000000E+00 -0.14247157516E+02  0.14247157516E+02  0.00000000000E+00 0.  1.
         25    2    1    2    0    0  0.12162235686E+02 -0.12856374075E+02  0.29449940950E+03  0.32041737353E+03  0.12499673889E+03 0.  0.
          5    1    3    3  501    0  0.17542525676E+02  0.37484256478E+02  0.29998631745E+02  0.51114944952E+02  0.10000000000E+00 0. -1.
         -5    1    3    3    0  501 -0.53802899896E+01 -0.50340630553E+02  0.26450077776E+03  0.26930242858E+03  0.10000000000E+00 0. -1.
         21    1    1    2  504  503 -0.12162235686E+02  0.12856374075E+02  0.59496696369E+02  0.62073047372E+02  0.00000000000E+00 0.  1.
<mgrwt>
<rscale>  1 0.12624338E+03</rscale>
<asrwt>0</asrwt>
<pdfrwt beam="1">  1       21 0.56652803E-01 0.12624338E+03</pdfrwt>
<pdfrwt beam="2">  1       21 0.21918707E-02 0.12624338E+03</pdfrwt>
<totfact> 0.30789826E+06</totfact>
</mgrwt>
</event>
<event>
 6    1  0.4202038E-002  0.1261697E+03  0.7546771E-02  0.1233252E+00
         21   -1    0    0  503  502  0.00000000000E+00  0.00000000000E+00  0.72078711191E+02  0.72078711191E+02  0.00000000000E+00 0. -1.
         21   -1    0    0  504  503 -0.00000000000E+00 -0.00000000000E+00 -0.15252631795E+03  0.15252631795E+03  0.00000000000E+00 0. -1.
         25    2    1    2    0    0  0.95365635742E+01  0.14228020220E+02  0.15520170014E+02  0.12712068792E+03  0.12500164405E+03 0.  0.
          5    1    3    3  501    0  0.23631749918E+02  0.51697743275E+02 -0.31803575313E+02  0.65135195298E+02  0.10000000000E+00 0.  1.
         -5    1    3    3    0  501 -0.14095186344E+02 -0.37469723055E+02  0.47323745327E+02  0.61985492623E+02  0.10000000000E+00 0.  1.
         21    1    1    2  504  502 -0.95365635742E+01 -0.14228020220E+02 -0.95967776770E+02  0.97484341216E+02  0.00000000000E+00 0. -1.
<mgrwt>
<rscale>  1 0.12616970E+03</rscale>
<asrwt>0</asrwt>
<pdfrwt beam="1">  1       21 0.11089033E-01 0.12616970E+03</pdfrwt>
<pdfrwt beam="2">  1       21 0.23465587E-01 0.12616970E+03</pdfrwt>
<totfact> 0.11535350E+06</totfact>
</mgrwt>
</event>
<event>
 6    1  0.4202038E-002  0.1260440E+03  0.7546771E-02  0.1233447E+00
         21   -1    0    0  504  502  0.00000000000E+00  0.00000000000E+00  0.38948465189E+02  0.38948465189E+02  0.00000000000E+00 0.  1.
         21   -1    0    0  502  503 -0.00000000000E+00 -0.00000000000E+00 -0.36054363938E+03  0.36054363938E+03  0.00000000000E+00 0.  1.
         25    2    1    2    0    0 -0.66626366806E+01  0.14813991277E+02 -0.63956533828E+02  0.14134192720E+03  0.12499302821E+03 0.  0.
          5    1    3    3  501    0 -0.59927514129E+02 -0.28029004163E+01 -0.60392799902E+02  0.85126162138E+02  0.10000000000E+00 0.  1.
         -5    1    3    3    0  501  0.53264877448E+02  0.17616891694E+02 -0.35637339264E+01  0.56215765066E+02  0.10000000000E+00 0.  1.
         21    1    1    2  504  503  0.66626366806E+01 -0.14813991277E+02 -0.25763864037E+03  0.25815017737E+03  0.00000000000E+00 0.  1.
<mgrwt>
<rscale>  1 0.12604405E+03</rscale>
<asrwt>0</asrwt>
<pdfrwt beam="1">  1       21 0.59920715E-02 0.12604405E+03</pdfrwt>
<pdfrwt beam="2">  1       21 0.55468253E-01 0.12604405E+03</pdfrwt>
<totfact> 0.60987913E+05</totfact>
</mgrwt>
</event>
<event>
 6    1  0.4202038E-002  0.1305542E+03  0.7546771E-02  0.1226636E+00
         21   -1    0    0  504  502  0.00000000000E+00  0.00000000000E+00  0.16587246175E+03  0.16587246175E+03  0.00000000000E+00 0.  1.
         21   -1    0    0  502  503 -0.00000000000E+00 -0.00000000000E+00 -0.49439276755E+02  0.49439276755E+02  0.00000000000E+00 0.  1.
         25    2    1    2    0    0  0.34628095971E+02  0.14857827609E+02  0.12017659070E+03  0.17744522087E+03  0.12499813352E+03 0.  0.
          5    1    3    3  501    0 -0.41193820639E+02  0.28918261036E+02  0.29218177257E+02  0.58197152528E+02  0.10000000000E+00 0.  1.
         -5    1    3    3    0  501  0.75821916610E+02 -0.14060433427E+02  0.90958413444E+02  0.11924806834E+03  0.10000000000E+00 0.  1.
         21    1    1    2  504  503 -0.34628095971E+02 -0.14857827609E+02 -0.37434057039E+01  0.37866517638E+02  0.00000000000E+00 0.  1.
<mgrwt>
<rscale>  1 0.13055418E+03</rscale>
<asrwt>0</asrwt>
<pdfrwt beam="1">  1       21 0.25518840E-01 0.13055418E+03</pdfrwt>
<pdfrwt beam="2">  1       21 0.76060427E-02 0.13055418E+03</pdfrwt>
<totfact> 0.18987054E+06</totfact>
</mgrwt>
</event>
<event>
 6    1  0.4202038E-002  0.1280304E+03  0.7546771E-02  0.1230408E+00
         21   -1    0    0  504  502  0.00000000000E+00  0.00000000000E+00  0.25459326035E+03  0.25459326035E+03  0.00000000000E+00 0.  1.
         21   -1    0    0  502  503 -0.00000000000E+00 -0.00000000000E+00 -0.32215609416E+02  0.32215609416E+02  0.00000000000E+00 0.  1.
         25    2    1    2    0    0  0.24971103071E+02  0.11946365007E+02  0.22513182153E+03  0.25899058296E+03  0.12500205345E+03 0.  0.
          5    1    3    3  501    0 -0.23185645664E+02  0.57201996665E+02  0.11638246284E+03  0.13173659417E+03  0.10000000000E+00 0. -1.
         -5    1    3    3    0  501  0.48156748735E+02 -0.45255631658E+02  0.10874935869E+03  0.12725398879E+03  0.10000000000E+00 0. -1.
         21    1    1    2  504  503 -0.24971103071E+02 -0.11946365007E+02 -0.27541705962E+01  0.27818286812E+02  0.00000000000E+00 0. -1.
<mgrwt>
<rscale>  1 0.12803041E+03</rscale>
<asrwt>0</asrwt>
<pdfrwt beam="1">  1       21 0.39168193E-01 0.12803041E+03</pdfrwt>
<pdfrwt beam="2">  1       21 0.49562478E-02 0.12803041E+03</pdfrwt>
<totfact> 0.17095261E+06</totfact>
</mgrwt>
</event>
<event>
 6    1  0.4202038E-002  0.1363741E+03  0.7546771E-02  0.1218293E+00
         21   -1    0    0  503  502  0.00000000000E+00  0.00000000000E+00  0.15693736643E+03  0.15693736643E+03  0.00000000000E+00 0. -1.
         21   -1    0    0  504  503 -0.00000000000E+00 -0.00000000000E+00 -0.11167093425E+03  0.11167093425E+03  0.00000000000E+00 0. -1.
         25    2    1    2    0    0 -0.54481480311E+02 -0.23206675532E+01  0.11617982718E+03  0.17915257539E+03  0.12499710329E+03 0.  0.
          5    1    3    3  501    0  0.19538142960E+02  0.13962472391E+02 -0.14523757927E+02  0.28064910653E+02  0.10000000000E+00 0.  1.
         -5    1    3    3    0  501 -0.74019623271E+02 -0.16283139944E+02  0.13070358511E+03  0.15108766474E+03  0.10000000000E+00 0.  1.
         21    1    1    2  504  502  0.54481480311E+02  0.23206675532E+01 -0.70913395005E+02  0.89455725283E+02  0.00000000000E+00 0. -1.
<mgrwt>
<rscale>  1 0.13637409E+03</rscale>
<asrwt>0</asrwt>
<pdfrwt beam="1">  1       21 0.24144210E-01 0.13637409E+03</pdfrwt>
<pdfrwt beam="2">  1       21 0.17180144E-01 0.13637409E+03</pdfrwt>
<totfact> 0.49894968E+05</totfact>
</mgrwt>
</event>
<event>
 6    1  0.4202038E-002  0.1482176E+03  0.7546771E-02  0.1202680E+00
         21   -1    0    0  503  502  0.00000000000E+00  0.00000000000E+00  0.10555002367E+04  0.10555002367E+04  0.00000000000E+00 0. -1.
         21   -1    0    0  504  503 -0.00000000000E+00 -0.00000000000E+00 -0.12305054909E+02  0.12305054909E+02  0.00000000000E+00 0. -1.
         25    2    1    2    0    0 -0.79038718841E+02  0.97932159448E+01  0.69100024432E+03  0.70671762894E+03  0.12500177296E+03 0.  0.
          5    1    3    3  501    0 -0.82528795739E+02  0.51271396000E+02  0.58172884376E+03  0.58978658499E+03  0.10000000000E+00 0. -1.
         -5    1    3    3    0  501  0.34900768978E+01 -0.41478180055E+02  0.10927140056E+03  0.11693104395E+03  0.10000000000E+00 0. -1.
         21    1    1    2  504  502  0.79038718841E+02 -0.97932159448E+01  0.35219493748E+03  0.36108766268E+03  0.00000000000E+00 0. -1.
<mgrwt>
<rscale>  1 0.14821764E+03</rscale>
<asrwt>0</asrwt>
<pdfrwt beam="1">  1       21 0.16238458E+00 0.14821764E+03</pdfrwt>
<pdfrwt beam="2">  1       21 0.18930862E-02 0.14821764E+03</pdfrwt>
<totfact> 0.33071053E+05</totfact>
</mgrwt>
</event>
<event>
 6    1  0.4202038E-002  0.1265205E+03  0.7546771E-02  0.1232712E+00
         21   -1    0    0  504  502  0.00000000000E+00  0.00000000000E+00  0.18098123901E+02  0.18098123901E+02  0.00000000000E+00 0. -1.
         21   -1    0    0  502  503 -0.00000000000E+00 -0.00000000000E+00 -0.51506421875E+03  0.51506421875E+03  0.00000000000E+00 0. -1.
         25    2    1    2    0    0 -0.19008904926E+02 -0.45203879247E+01 -0.20744889257E+03  0.24298656353E+03  0.12500261859E+03 0.  0.
          5    1    3    3  501    0  0.18735871574E+01  0.53278538674E+02 -0.46636784823E+02  0.70831579897E+02  0.10000000000E+00 0. -1.
         -5    1    3    3    0  501 -0.20882492083E+02 -0.57798926599E+02 -0.16081210775E+03  0.17215498363E+03  0.10000000000E+00 0. -1.
         21    1    1    2  504  503  0.19008904926E+02  0.45203879247E+01 -0.28951720228E+03  0.29017577912E+03  0.00000000000E+00 0. -1.
<mgrwt>
<rscale>  1 0.12652046E+03</rscale>
<asrwt>0</asrwt>
<pdfrwt beam="1">  1       21 0.27843267E-02 0.12652046E+03</pdfrwt>
<pdfrwt beam="2">  1       21 0.79240651E-01 0.12652046E+03</pdfrwt>
<totfact> 0.10096791E+06</totfact>
</mgrwt>
</event>
<event>
 6    1  0.4202038E-002  0.1288282E+03  0.7546771E-02  0.1229205E+00
         21   -1    0    0  504  502  0.00000000000E+00  0.00000000000E+00  0.43380980985E+03  0.43380980985E+03  0.00000000000E+00 0.  1.
         21   -1    0    0  502  503 -0.00000000000E+00 -0.00000000000E+00 -0.78755077743E+02  0.78755077743E+02  0.00000000000E+00 0. -1.
         25    2    1    2    0    0  0.70226081018E+01 -0.30369126866E+02  0.42065262060E+03  0.43993786875E+03  0.12500040101E+03 0.  0.
          5    1    3    3  501    0 -0.14128259978E+02  0.44992875461E+02  0.11218397015E+03  0.12169313757E+03  0.10000000000E+00 0.  1.
         -5    1    3    3    0  501  0.21150868080E+02 -0.75362002327E+02  0.30846865045E+03  0.31824473119E+03  0.10000000000E+00 0.  1.
         21    1    1    2  504  503 -0.70226081018E+01  0.30369126866E+02 -0.65597888493E+02  0.72627018842E+02  0.00000000000E+00 0. -1.
<mgrwt>
<rscale>  1 0.12882818E+03</rscale>
<asrwt>0</asrwt>
<pdfrwt beam="1">  1       21 0.66739970E-01 0.12882818E+03</pdfrwt>
<pdfrwt beam="2">  1       21 0.12116166E-01 0.12882818E+03</pdfrwt>
<totfact> 0.12148179E+05</totfact>
</mgrwt>
</event>
<event>
 6    1  0.4202038E-002  0.1275337E+03  0.7546771E-02  0.1231162E+00
         21   -1    0    0  504  502  0.00000000000E+00  0.00000000000E+00  0.11552035606E+03  0.11552035606E+03  0.00000000000E+00 0.  1.
         21   -1    0    0  502  503 -0.00000000000E+00 -0.00000000000E+00 -0.14583710547E+03  0.14583710547E+03  0.00000000000E+00 0.  1.
         25    2    1    2    0    0 -0.63563155909E+01  0.24493533458E+02  0.78420183895E+02  0.14971492217E+03  0.12499798698E+03 0.  0.
          5    1    3    3  501    0 -0.62411887918E+02  0.27624624166E+02  0.26411646195E+02  0.73184347155E+02  0.10000000000E+00 0. -1.
         -5    1    3    3    0  501  0.56055572327E+02 -0.31310907075E+01  0.52008537700E+02  0.76530575012E+02  0.10000000000E+00 0. -1.
         21    1    1    2  504  503  0.63563155909E+01 -0.24493533458E+02 -0.10873693331E+03  0.11164253936E+03  0.00000000000E+00 0.  1.
<mgrwt>
<rscale>  1 0.12753365E+03</rscale>
<asrwt>0</asrwt>
<pdfrwt beam="1">  1       21 0.17772363E-01 0.12753365E+03</pdfrwt>
<pdfrwt beam="2">  1       21 0.22436478E-01 0.12753365E+03</pdfrwt>
<totfact> 0.53855864E+05</totfact>
</mgrwt>
</event>
<event>
 6    1  0.4202038E-002  0.1567044E+03  0.7546771E-02  0.1192468E+00
         21   -1    0    0  504  502  0.00000000000E+00  0.00000000000E+00  0.60706458765E+02  0.60706458765E+02  0.00000000000E+00 0. -1.
         21   -1    0    0  502  503 -0.00000000000E+00 -0.00000000000E+00 -0.30687927783E+03  0.30687927783E+03  0.00000000000E+00 0. -1.
         25    2    1    2    0    0  0.41652551875E+02 -0.84849495931E+02 -0.78882043704E+02  0.17543846090E+03  0.12498761821E+03 0.  0.
          5    1    3    3  501    0  0.57504159563E+02 -0.10923600208E+03 -0.78609659358E+02  0.14635136167E+03  0.10000000000E+00 0. -1.
         -5    1    3    3    0  501 -0.15851607688E+02  0.24386506148E+02 -0.27238434640E+00  0.29087099230E+02  0.10000000000E+00 0. -1.
         21    1    1    2  504  503 -0.41652551875E+02  0.84849495931E+02 -0.16729077536E+03  0.19214727570E+03  0.00000000000E+00 0. -1.
<mgrwt>
<rscale>  1 0.15670442E+03</rscale>
<asrwt>0</asrwt>
<pdfrwt beam="1">  1       21 0.93394553E-02 0.15670442E+03</pdfrwt>
<pdfrwt beam="2">  1       21 0.47212196E-01 0.15670442E+03</pdfrwt>
<totfact> 0.39573402E+05</totfact>
</mgrwt>
</event>
<event>
 6    1  0.4202038E-002  0.1646109E+03  0.7546771E-02  0.1183587E+00
         21   -1    0    0  504  502  0.00000000000E+00  0.00000000000E+00  0.13873725177E+04  0.13873725177E+04  0.00000000000E+00 0.  1.
         21   -1    0    0  502  503 -0.00000000000E+00 -0.00000000000E+00 -0.20015837399E+02  0.20015837399E+02  0.00000000000E+00 0. -1.
         25    2    1    2    0    0 -0.10708914800E+03  0.16377290137E+01  0.37846281479E+03  0.41271160106E+03  0.12500398271E+03 0.  0.
          5    1    3    3  501    0 -0.58943819649E+02  0.57119809909E+02  0.13112740534E+03  0.15469794113E+03  0.10000000000E+00 0.  1.
         -5    1    3    3    0  501 -0.48145328356E+02 -0.55482080895E+02  0.24733540944E+03  0.25801365992E+03  0.10000000000E+00 0.  1.
         21    1    1    2  504  503  0.10708914800E+03 -0.16377290137E+01  0.98889386547E+03  0.99467675400E+03  0.00000000000E+00 0.  1.
<mgrwt>
<rscale>  1 0.16461095E+03</rscale>
<asrwt>0</asrwt>
<pdfrwt beam="1">  1       21 0.21344185E+00 0.16461095E+03</pdfrwt>
<pdfrwt beam="2">  1       21 0.30793607E-02 0.16461095E+03</pdfrwt>
<totfact> 0.68199021E+04</totfact>
</mgrwt>
</event>
<event>
 6    1  0.4202038E-002  0.1547171E+03  0.7546771E-02  0.1194794E+00
         21   -1    0    0  504  502  0.00000000000E+00  0.00000000000E+00  0.75343667642E+01  0.75343667642E+01  0.00000000000E+00 0. -1.
         21   -1    0    0  502  503 -0.00000000000E+00 -0.00000000000E+00 -0.21963486876E+04  0.21963486876E+04  0.00000000000E+00 0. -1.
         25    2    1    2    0    0 -0.86277264153E+02 -0.29391820222E+02 -0.10382911574E+04  0.10497551606E+04  0.12501889620E+03 0.  0.
          5    1    3    3  501    0 -0.29206767684E+02 -0.62747895465E+02 -0.78269986216E+03  0.78575404414E+03  0.10000000000E+00 0. -1.
         -5    1    3    3    0  501 -0.57070496469E+02  0.33356075243E+02 -0.25559129521E+03  0.26400111649E+03  0.10000000000E+00 0. -1.
         21    1    1    2  504  503  0.86277264153E+02  0.29391820222E+02 -0.11505231635E+04  0.11541278937E+04  0.00000000000E+00 0. -1.
<mgrwt>
<rscale>  1 0.15471706E+03</rscale>
<asrwt>0</asrwt>
<pdfrwt beam="1">  1       21 0.11591338E-02 0.15471706E+03</pdfrwt>
<pdfrwt beam="2">  1       21 0.33789967E+00 0.15471706E+03</pdfrwt>
<totfact> 0.63549893E+04</totfact>
</mgrwt>
</event>
<event>
 6    1  0.4202038E-002  0.1277542E+03  0.7546771E-02  0.1230827E+00
         21   -1    0    0  503  502  0.00000000000E+00  0.00000000000E+00  0.39616802012E+03  0.39616802012E+03  0.00000000000E+00 0. -1.
         21   -1    0    0  504  503 -0.00000000000E+00 -0.00000000000E+00 -0.30145119408E+02  0.30145119408E+02  0.00000000000E+00 0. -1.
         25    2    1    2    0    0  0.22258278459E+02 -0.14164469528E+02  0.37675872009E+03  0.39782944288E+03  0.12500027720E+03 0.  0.
          5    1    3    3  501    0 -0.37512015897E+02  0.31823678469E+02  0.19360807923E+03  0.19975984629E+03  0.10000000000E+00 0. -1.
         -5    1    3    3    0  501  0.59770294356E+02 -0.45988147996E+02  0.18315064086E+03  0.19806959658E+03  0.10000000000E+00 0. -1.
         21    1    1    2  504  502 -0.22258278459E+02  0.14164469528E+02 -0.10735819381E+02  0.28483696648E+02  0.00000000000E+00 0. -1.
<mgrwt>
<rscale>  1 0.12775419E+03</rscale>
<asrwt>0</asrwt>
<pdfrwt beam="1">  1       21 0.60948922E-01 0.12775419E+03</pdfrwt>
<pdfrwt beam="2">  1       21 0.46377110E-02 0.12775419E+03</pdfrwt>
<totfact> 0.76936597E+05</totfact>
</mgrwt>
</event>
<event>
 6    1  0.4202038E-002  0.1264514E+03  0.7546771E-02  0.1232818E+00
         21   -1    0    0  504  502  0.00000000000E+00  0.00000000000E+00  0.23855534754E+02  0.23855534754E+02  0.00000000000E+00 0.  1.
         21   -1    0    0  502  503 -0.00000000000E+00 -0.00000000000E+00 -0.22852808616E+03  0.22852808616E+03  0.00000000000E+00 0.  1.
         25    2    1    2    0    0 -0.17813760764E+02 -0.69843598281E+01 -0.16114128891E+03  0.20483278318E+03  0.12499537079E+03 0.  0.
          5    1    3    3  501    0  0.98767599868E+01 -0.58876531927E+02 -0.45391319440E+02  0.74995855087E+02  0.10000000000E+00 0. -1.
         -5    1    3    3    0  501 -0.27690520751E+02  0.51892172099E+02 -0.11574996947E+03  0.12983692809E+03  0.10000000000E+00 0. -1.
         21    1    1    2  504  503  0.17813760764E+02  0.69843598281E+01 -0.43531262498E+02  0.47550837737E+02  0.00000000000E+00 0.  1.
<mgrwt>
<rscale>  1 0.12645139E+03</rscale>
<asrwt>0</asrwt>
<pdfrwt beam="1">  1       21 0.36700823E-02 0.12645139E+03</pdfrwt>
<pdfrwt beam="2">  1       21 0.35158167E-01 0.12645139E+03</pdfrwt>
<totfact> 0.34902377E+06</totfact>
</mgrwt>
</event>
<event>
 6    1  0.4202038E-002  0.1326865E+03  0.7546771E-02  0.1223523E+00
         21   -1    0    0  503  502  0.00000000000E+00  0.00000000000E+00  0.18722179188E+02  0.18722179188E+02  0.00000000000E+00 0. -1.
         21   -1    0    0  504  503 -0.00000000000E+00 -0.00000000000E+00 -0.42525305272E+03  0.42525305272E+03  0.00000000000E+00 0. -1.
         25    2    1    2    0    0 -0.21756520419E+02 -0.38820514724E+02 -0.28002764349E+03  0.30987286148E+03  0.12500132246E+03 0.  0.
          5    1    3    3  501    0  0.47657181822E+02 -0.10439752907E+02 -0.59506901424E+02  0.76949832599E+02  0.10000000000E+00 0. -1.
         -5    1    3    3    0  501 -0.69413702240E+02 -0.28380761817E+02 -0.22052074207E+03  0.23292302888E+03  0.10000000000E+00 0. -1.
         21    1    1    2  504  502  0.21756520419E+02  0.38820514724E+02 -0.12650323004E+03  0.13410237043E+03  0.00000000000E+00 0. -1.
<mgrwt>
<rscale>  1 0.13268651E+03</rscale>
<asrwt>0</asrwt>
<pdfrwt beam="1">  1       21 0.28803353E-02 0.13268651E+03</pdfrwt>
<pdfrwt beam="2">  1       21 0.65423545E-01 0.13268651E+03</pdfrwt>
<totfact> 0.14543194E+06</totfact>
</mgrwt>
</event>
<event>
 6    1  0.4202038E-002  0.1320488E+03  0.7546771E-02  0.1224447E+00
         21   -1    0    0  504  502  0.00000000000E+00  0.00000000000E+00  0.10988184739E+04  0.10988184739E+04  0.00000000000E+00 0. -1.
         21   -1    0    0  502  503 -0.00000000000E+00 -0.00000000000E+00 -0.22217163305E+03  0.22217163305E+03  0.00000000000E+00 0.  1.
         25    2    1    2    0    0 -0.40418076699E+02  0.13399429040E+02  0.10927663279E+04  0.11007157366E+04  0.12499487888E+03 0.  0.
          5    1    3    3  501    0  0.18062693749E+02  0.49738351060E+02  0.69692914456E+03  0.69893519515E+03  0.10000000000E+00 0. -1.
         -5    1    3    3    0  501 -0.58480770448E+02 -0.36338922020E+02  0.39583718331E+03  0.40178054141E+03  0.10000000000E+00 0. -1.
         21    1    1    2  504  503  0.40418076699E+02 -0.13399429040E+02 -0.21611948698E+03  0.22027437044E+03  0.00000000000E+00 0.  1.
<mgrwt>
<rscale>  1 0.13204880E+03</rscale>
<asrwt>0</asrwt>
<pdfrwt beam="1">  1       21 0.16904899E+00 0.13204880E+03</pdfrwt>
<pdfrwt beam="2">  1       21 0.34180252E-01 0.13204880E+03</pdfrwt>
<totfact> 0.19156165E+03</totfact>
</mgrwt>
</event>
<event>
 6    1  0.4202038E-002  0.1291184E+03  0.7546771E-02  0.1228770E+00
         21   -1    0    0  504  502  0.00000000000E+00  0.00000000000E+00  0.16697915190E+02  0.16697915190E+02  0.00000000000E+00 0. -1.
         21   -1    0    0  502  503 -0.00000000000E+00 -0.00000000000E+00 -0.56979202182E+03  0.56979202182E+03  0.00000000000E+00 0. -1.
         25    2    1    2    0    0 -0.24925490449E+02  0.20568518499E+02 -0.24716370953E+03  0.27885744214E+03  0.12500891849E+03 0.  0.
          5    1    3    3  501    0  0.49612308956E+02  0.22235510178E+02 -0.96729741471E+02  0.11096148881E+03  0.10000000000E+00 0. -1.
         -5    1    3    3    0  501 -0.74537799405E+02 -0.16669916786E+01 -0.15043396806E+03  0.16789595333E+03  0.10000000000E+00 0. -1.
         21    1    1    2  504  503  0.24925490449E+02 -0.20568518499E+02 -0.30593039711E+03  0.30763249487E+03  0.00000000000E+00 0. -1.
<mgrwt>
<rscale>  1 0.12911845E+03</rscale>
<asrwt>0</asrwt>
<pdfrwt beam="1">  1       21 0.25689104E-02 0.12911845E+03</pdfrwt>
<pdfrwt beam="2">  1       21 0.87660298E-01 0.12911845E+03</pdfrwt>
<totfact> 0.91730270E+05</totfact>
</mgrwt>
</event>
<event>
 6    1  0.4202038E-002  0.1259512E+03  0.7546771E-02  0.1233590E+00
         21   -1    0    0  503  502  0.00000000000E+00  0.00000000000E+00  0.58976041980E+03  0.58976041980E+03  0.00000000000E+00 0.  1.
         21   -1    0    0  504  503 -0.00000000000E+00 -0.00000000000E+00 -0.11742161309E+03  0.11742161309E+03  0.00000000000E+00 0.  1.
         25    2    1    2    0    0  0.51372197365E+01 -0.14515992170E+02  0.58249415534E+03  0.59595566062E+03  0.12500641328E+03 0.  0.
          5    1    3    3  501    0 -0.49204929887E+02 -0.41223675683E+02  0.34075951486E+03  0.34675289981E+03  0.10000000000E+00 0.  1.
         -5    1    3    3    0  501  0.54342149623E+02  0.26707683513E+02  0.24173464048E+03  0.24920276081E+03  0.10000000000E+00 0.  1.
         21    1    1    2  504  502 -0.51372197365E+01  0.14515992170E+02 -0.11015534864E+03  0.11122637227E+03  0.00000000000E+00 0.  1.
<mgrwt>
<rscale>  1 0.12595121E+03</rscale>
<asrwt>0</asrwt>
<pdfrwt beam="1">  1       21 0.90732371E-01 0.12595121E+03</pdfrwt>
<pdfrwt beam="2">  1       21 0.18064864E-01 0.12595121E+03</pdfrwt>
<totfact> 0.29947333E+04</totfact>
</mgrwt>
</event>
<event>
 6    1  0.4202038E-002  0.1291269E+03  0.7546771E-02  0.1228757E+00
         21   -1    0    0  504  502  0.00000000000E+00  0.00000000000E+00  0.93534931208E+03  0.93534931208E+03  0.00000000000E+00 0.  1.
         21   -1    0    0  502  503 -0.00000000000E+00 -0.00000000000E+00 -0.16689950731E+02  0.16689950731E+02  0.00000000000E+00 0. -1.
         25    2    1    2    0    0 -0.20531391056E+02 -0.25139544790E+02  0.90906885614E+03  0.91819384183E+03  0.12498084350E+03 0.  0.
          5    1    3    3  501    0  0.52007221353E+02  0.43513476478E+00  0.39223116831E+03  0.39566430191E+03  0.10000000000E+00 0.  1.
         -5    1    3    3    0  501 -0.72538612409E+02 -0.25574679555E+02  0.51683768783E+03  0.52252953992E+03  0.10000000000E+00 0.  1.
         21    1    1    2  504  503  0.20531391056E+02  0.25139544790E+02  0.95905052045E+01  0.33845420975E+02  0.00000000000E+00 0. -1.
<mgrwt>
<rscale>  1 0.12912686E+03</rscale>
<asrwt>0</asrwt>
<pdfrwt beam="1">  1       21 0.14389985E+00 0.12912686E+03</pdfrwt>
<pdfrwt beam="2">  1       21 0.25676855E-02 0.12912686E+03</pdfrwt>
<totfact> 0.27849856E+05</totfact>
</mgrwt>
</event>
<event>
 6    1  0.4202038E-002  0.1272277E+03  0.7546771E-02  0.1231628E+00
         21   -1    0    0  503  502  0.00000000000E+00  0.00000000000E+00  0.22741303271E+03  0.22741303271E+03  0.00000000000E+00 0. -1.
         21   -1    0    0  504  503 -0.00000000000E+00 -0.00000000000E+00 -0.25830335575E+02  0.25830335575E+02  0.00000000000E+00 0. -1.
         25    2    1    2    0    0 -0.15153783344E+01 -0.23418250689E+02  0.18492887748E+03  0.22446732711E+03  0.12504471350E+03 0.  0.
          5    1    3    3  501    0  0.40562578173E+02 -0.47822456647E+02  0.47451720735E+02  0.78638323409E+02  0.10000000000E+00 0. -1.
         -5    1    3    3    0  501 -0.42077956508E+02  0.24404205958E+02  0.13747715675E+03  0.14582900370E+03  0.10000000000E+00 0. -1.
         21    1    1    2  504  502  0.15153783344E+01  0.23418250689E+02  0.16653819653E+02  0.28776041178E+02  0.00000000000E+00 0. -1.
<mgrwt>
<rscale>  1 0.12722771E+03</rscale>
<asrwt>0</asrwt>
<pdfrwt beam="1">  1       21 0.34986619E-01 0.12722771E+03</pdfrwt>
<pdfrwt beam="2">  1       21 0.39738979E-02 0.12722771E+03</pdfrwt>
<totfact> 0.30895899E+06</totfact>
</mgrwt>
</event>
<event>
 6    1  0.4202038E-002  0.1327459E+03  0.7546771E-02  0.1223437E+00
         21   -1    0    0  503  502  0.00000000000E+00  0.00000000000E+00  0.42134002548E+03  0.42134002548E+03  0.00000000000E+00 0.  1.
         21   -1    0    0  504  503 -0.00000000000E+00 -0.00000000000E+00 -0.11812738283E+03  0.11812738283E+03  0.00000000000E+00 0.  1.
         25    2    1    2    0    0  0.48627752848E+01  0.44317514794E+02  0.40614836501E+03  0.42729142319E+03  0.12503510399E+03 0.  0.
          5    1    3    3  501    0  0.29790138389E+02 -0.33011104069E+02  0.21571893931E+03  0.22025407173E+03  0.10000000000E+00 0. -1.
         -5    1    3    3    0  501 -0.24927363104E+02  0.77328618863E+02  0.19042942570E+03  0.20703735146E+03  0.10000000000E+00 0. -1.
         21    1    1    2  504  502 -0.48627752848E+01 -0.44317514794E+02 -0.10293572236E+03  0.11217598512E+03  0.00000000000E+00 0.  1.
<mgrwt>
<rscale>  1 0.13274587E+03</rscale>
<asrwt>0</asrwt>
<pdfrwt beam="1">  1       21 0.64821541E-01 0.13274587E+03</pdfrwt>
<pdfrwt beam="2">  1       21 0.18173444E-01 0.13274587E+03</pdfrwt>
<totfact> 0.62198064E+04</totfact>
</mgrwt>
</event>
<event>
 6    1  0.4202038E-002  0.1346691E+03  0.7546771E-02  0.1220688E+00
         21   -1    0    0  503  502  0.00000000000E+00  0.00000000000E+00  0.88772255536E+01  0.88772255536E+01  0.00000000000E+00 0.  1.
         21   -1    0    0  504  503 -0.00000000000E+00 -0.00000000000E+00 -0.25642031222E+04  0.25642031222E+04  0.00000000000E+00 0.  1.
         25    2    1    2    0    0  0.87419660342E+01 -0.49325193892E+02 -0.52054325190E+03  0.53768117116E+03  0.12500547187E+03 0.  0.
          5    1    3    3  501    0 -0.57527212489E+01 -0.50780405557E+02 -0.52061077716E+03  0.52311311844E+03  0.10000000000E+00 0.  1.
         -5    1    3    3    0  501  0.14494687283E+02  0.14552116651E+01  0.67525256093E-01  0.14568052721E+02  0.10000000000E+00 0.  1.
         21    1    1    2  504  502 -0.87419660342E+01  0.49325193892E+02 -0.20347826448E+04  0.20353991766E+04  0.00000000000E+00 0.  1.
<mgrwt>
<rscale>  1 0.13466909E+03</rscale>
<asrwt>0</asrwt>
<pdfrwt beam="1">  1       21 0.13657275E-02 0.13466909E+03</pdfrwt>
<pdfrwt beam="2">  1       21 0.39449264E+00 0.13466909E+03</pdfrwt>
<totfact> 0.23276946E+04</totfact>
</mgrwt>
</event>
<event>
 6    1  0.4202038E-002  0.1287416E+03  0.7546771E-02  0.1229335E+00
         21   -1    0    0  503  502  0.00000000000E+00  0.00000000000E+00  0.47348120373E+02  0.47348120373E+02  0.00000000000E+00 0.  1.
         21   -1    0    0  504  503 -0.00000000000E+00 -0.00000000000E+00 -0.18350189120E+03  0.18350189120E+03  0.00000000000E+00 0. -1.
         25    2    1    2    0    0  0.25272349238E+02 -0.17620986816E+02 -0.47884199759E+02  0.13735825798E+03  0.12500081455E+03 0.  0.
          5    1    3    3  501    0 -0.27506653350E+02 -0.56091998691E+02 -0.31770785204E+02  0.70087952518E+02  0.10000000000E+00 0. -1.
         -5    1    3    3    0  501  0.52779002588E+02  0.38471011875E+02 -0.16113414555E+02  0.67270305466E+02  0.10000000000E+00 0. -1.
         21    1    1    2  504  502 -0.25272349238E+02  0.17620986816E+02 -0.88269571067E+02  0.93491753587E+02  0.00000000000E+00 0. -1.
<mgrwt>
<rscale>  1 0.12874158E+03</rscale>
<asrwt>0</asrwt>
<pdfrwt beam="1">  1       21 0.72843263E-02 0.12874158E+03</pdfrwt>
<pdfrwt beam="2">  1       21 0.28231060E-01 0.12874158E+03</pdfrwt>
<totfact> 0.16864773E+06</totfact>
</mgrwt>
</event>
<event>
 6    1  0.4202038E-002  0.1271200E+03  0.7546771E-02  0.1231793E+00
         21   -1    0    0  504  502  0.00000000000E+00  0.00000000000E+00  0.11037234570E+03  0.11037234570E+03  0.00000000000E+00 0.  1.
         21   -1    0    0  502  503 -0.00000000000E+00 -0.00000000000E+00 -0.17753401760E+03  0.17753401760E+03  0.00000000000E+00 0. -1.
         25    2    1    2    0    0  0.20579527642E+02  0.10528060043E+02  0.72502281372E+02  0.14634232532E+03  0.12500055348E+03 0.  0.
          5    1    3    3  501    0  0.28230527656E+02  0.31901748048E+02  0.10117089183E+03  0.10977360145E+03  0.10000000000E+00 0.  1.
         -5    1    3    3    0  501 -0.76510000142E+01 -0.21373688005E+02 -0.28668610462E+02  0.36568723877E+02  0.10000000000E+00 0.  1.
         21    1    1    2  504  503 -0.20579527642E+02 -0.10528060043E+02 -0.13966395327E+03  0.14156403798E+03  0.00000000000E+00 0. -1.
<mgrwt>
<rscale>  1 0.12712000E+03</rscale>
<asrwt>0</asrwt>
<pdfrwt beam="1">  1       21 0.16980361E-01 0.12712000E+03</pdfrwt>
<pdfrwt beam="2">  1       21 0.27312925E-01 0.12712000E+03</pdfrwt>
<totfact> 0.40378943E+05</totfact>
</mgrwt>
</event>
<event>
 6    1  0.4202038E-002  0.1293729E+03  0.7546771E-02  0.1228389E+00
         21   -1    0    0  504  502  0.00000000000E+00  0.00000000000E+00  0.24638042042E+03  0.24638042042E+03  0.00000000000E+00 0.  1.
         21   -1    0    0  502  503 -0.00000000000E+00 -0.00000000000E+00 -0.27392989888E+02  0.27392989888E+02  0.00000000000E+00 0.  1.
         25    2    1    2    0    0  0.11221967300E+02 -0.31407057551E+02  0.18823967142E+03  0.22841086514E+03  0.12500005441E+03 0.  0.
          5    1    3    3  501    0 -0.16637894932E+02 -0.22432405731E+02 -0.87427842061E+01  0.29265656499E+02  0.10000000000E+00 0.  1.
         -5    1    3    3    0  501  0.27859862232E+02 -0.89746518199E+01  0.19698245563E+03  0.19914520864E+03  0.10000000000E+00 0.  1.
         21    1    1    2  504  503 -0.11221967300E+02  0.31407057551E+02  0.30747759112E+02  0.45362545172E+02  0.00000000000E+00 0.  1.
<mgrwt>
<rscale>  1 0.12937291E+03</rscale>
<asrwt>0</asrwt>
<pdfrwt beam="1">  1       21 0.37904679E-01 0.12937291E+03</pdfrwt>
<pdfrwt beam="2">  1       21 0.42143063E-02 0.12937291E+03</pdfrwt>
<totfact> 0.23936752E+06</totfact>
</mgrwt>
</event>
<event>
 6    1  0.4202038E-002  0.1259024E+03  0.7546771E-02  0.1233666E+00
         21   -1    0    0  503  502  0.00000000000E+00  0.00000000000E+00  0.10015092954E+03  0.10015092954E+03  0.00000000000E+00 0. -1.
         21   -1    0    0  504  503 -0.00000000000E+00 -0.00000000000E+00 -0.63476906235E+02  0.63476906235E+02  0.00000000000E+00 0. -1.
         25    2    1    2    0    0  0.12195906822E+02 -0.88006843990E+01  0.57113700699E+02  0.13825122054E+03  0.12500093193E+03 0.  0.
          5    1    3    3  501    0 -0.54596230272E+02  0.20875578009E+00  0.87418243079E+01  0.55292146198E+02  0.10000000000E+00 0. -1.
         -5    1    3    3    0  501  0.66792137094E+02 -0.90094401791E+01  0.48371876391E+02  0.82959074341E+02  0.10000000000E+00 0. -1.
         21    1    1    2  504  502 -0.12195906822E+02  0.88006843990E+01 -0.20439677391E+02  0.25376615238E+02  0.00000000000E+00 0. -1.
<mgrwt>
<rscale>  1 0.12590244E+03</rscale>
<asrwt>0</asrwt>
<pdfrwt beam="1">  1       21 0.15407835E-01 0.12590244E+03</pdfrwt>
<pdfrwt beam="2">  1       21 0.97656779E-02 0.12590244E+03</pdfrwt>
<totfact> 0.31248179E+06</totfact>
</mgrwt>
</event>
<event>
 6    1  0.4202038E-002  0.1323005E+03  0.7546771E-02  0.1224082E+00
         21   -1    0    0  504  502  0.00000000000E+00  0.00000000000E+00  0.12242306493E+03  0.12242306493E+03  0.00000000000E+00 0.  1.
         21   -1    0    0  502  503 -0.00000000000E+00 -0.00000000000E+00 -0.10498325319E+03  0.10498325319E+03  0.00000000000E+00 0.  1.
         25    2    1    2    0    0  0.42919828374E+02  0.59827737607E+01  0.77512171372E+02  0.15333477405E+03  0.12500204388E+03 0.  0.
          5    1    3    3  501    0  0.48365708347E+02  0.60237497335E+02  0.38687557013E+02  0.86397539876E+02  0.10000000000E+00 0. -1.
         -5    1    3    3    0  501 -0.54458799728E+01 -0.54254723575E+02  0.38824614359E+02  0.66937234175E+02  0.10000000000E+00 0. -1.
         21    1    1    2  504  503 -0.42919828374E+02 -0.59827737607E+01 -0.60072359628E+02  0.74071544069E+02  0.00000000000E+00 0.  1.
<mgrwt>
<rscale>  1 0.13230048E+03</rscale>
<asrwt>0</asrwt>
<pdfrwt beam="1">  1       21 0.18834318E-01 0.13230048E+03</pdfrwt>
<pdfrwt beam="2">  1       21 0.16151270E-01 0.13230048E+03</pdfrwt>
<totfact> 0.88679611E+05</totfact>
</mgrwt>
</event>
<event>
 6    1  0.4202038E-002  0.1263367E+03  0.7546771E-02  0.1232995E+00
         21   -1    0    0  503  502  0.00000000000E+00  0.00000000000E+00  0.99773769087E+02  0.99773769087E+02  0.00000000000E+00 0.  1.
         21   -1    0    0  504  503 -0.00000000000E+00 -0.00000000000E+00 -0.79672443430E+02  0.79672443430E+02  0.00000000000E+00 0.  1.
         25    2    1    2    0    0 -0.17813235916E+02 -0.43602861435E+01  0.56725298929E+02  0.13848722221E+03  0.12499851082E+03 0.  0.
          5    1    3    3  501    0 -0.13106223877E+02  0.13860622753E+02  0.94434950145E+02  0.96342409023E+02  0.10000000000E+00 0.  1.
         -5    1    3    3    0  501 -0.47070120389E+01 -0.18220908897E+02 -0.37709651216E+02  0.42144813183E+02  0.10000000000E+00 0.  1.
         21    1    1    2  504  502  0.17813235916E+02  0.43602861435E+01 -0.36623973272E+02  0.40958990311E+02  0.00000000000E+00 0.  1.
<mgrwt>
<rscale>  1 0.12633666E+03</rscale>
<asrwt>0</asrwt>
<pdfrwt beam="1">  1       21 0.15349810E-01 0.12633666E+03</pdfrwt>
<pdfrwt beam="2">  1       21 0.12257299E-01 0.12633666E+03</pdfrwt>
<totfact> 0.21097123E+06</totfact>
</mgrwt>
</event>
<event>
 6    1  0.4202038E-002  0.1369077E+03  0.7546771E-02  0.1217551E+00
         21   -1    0    0  504  502  0.00000000000E+00  0.00000000000E+00  0.27982811887E+03  0.27982811887E+03  0.00000000000E+00 0. -1.
         21   -1    0    0  502  503 -0.00000000000E+00 -0.00000000000E+00 -0.21357692476E+03  0.21357692476E+03  0.00000000000E+00 0. -1.
         25    2    1    2    0    0 -0.39185159994E+02 -0.39760106990E+02  0.25887881522E+03  0.29285145157E+03  0.12500955501E+03 0.  0.
          5    1    3    3  501    0 -0.60079497799E+02 -0.47822713039E+02  0.74070985199E+02  0.10669151225E+03  0.10000000000E+00 0.  1.
         -5    1    3    3    0  501  0.20894337805E+02  0.80626060497E+01  0.18480783002E+03  0.18615993932E+03  0.10000000000E+00 0.  1.
         21    1    1    2  504  503  0.39185159994E+02  0.39760106990E+02 -0.19262762111E+03  0.20055359206E+03  0.00000000000E+00 0. -1.
<mgrwt>
<rscale>  1 0.13690775E+03</rscale>
<asrwt>0</asrwt>
<pdfrwt beam="1">  1       21 0.43050480E-01 0.13690775E+03</pdfrwt>
<pdfrwt beam="2">  1       21 0.32857989E-01 0.13690775E+03</pdfrwt>
<totfact> 0.47570284E+04</totfact>
</mgrwt>
</event>
<event>
 6    1  0.4202038E-002  0.1748565E+03  0.7546771E-02  0.1172876E+00
         21   -1    0    0  504  502  0.00000000000E+00  0.00000000000E+00  0.30630062711E+03  0.30630062711E+03  0.00000000000E+00 0. -1.
         21   -1    0    0  502  503 -0.00000000000E+00 -0.00000000000E+00 -0.74205304830E+02  0.74205304830E+02  0.00000000000E+00 0. -1.
         25    2    1    2    0    0  0.10726194372E+03 -0.58685716286E+02  0.16788153569E+03  0.24240253497E+03  0.12500256425E+03 0.  0.
          5    1    3    3  501    0  0.26541562743E+02  0.39128576765E+02  0.55940647813E+02  0.73245246605E+02  0.10000000000E+00 0. -1.
         -5    1    3    3    0  501  0.80720380974E+02 -0.97814293051E+02  0.11194088787E+03  0.16915728837E+03  0.10000000000E+00 0. -1.
         21    1    1    2  504  503 -0.10726194372E+03  0.58685716286E+02  0.64213786597E+02  0.13810339697E+03  0.00000000000E+00 0. -1.
<mgrwt>
<rscale>  1 0.17485645E+03</rscale>
<asrwt>0</asrwt>
<pdfrwt beam="1">  1       21 0.47123173E-01 0.17485645E+03</pdfrwt>
<pdfrwt beam="2">  1       21 0.11416201E-01 0.17485645E+03</pdfrwt>
<totfact> 0.27764740E+05</totfact>
</mgrwt>
</event>
<event>
 6    1  0.4202038E-002  0.1259814E+03  0.7546771E-02  0.1233543E+00
         21   -1    0    0  503  502  0.00000000000E+00  0.00000000000E+00  0.57372505455E+03  0.57372505455E+03  0.00000000000E+00 0.  1.
         21   -1    0    0  504  503 -0.00000000000E+00 -0.00000000000E+00 -0.48175533910E+02  0.48175533910E+02  0.00000000000E+00 0.  1.
         25    2    1    2    0    0 -0.11544319915E+02  0.10692693865E+02  0.56529006350E+03  0.57915815320E+03  0.12499482187E+03 0.  0.
          5    1    3    3  501    0 -0.60264790253E+02 -0.19027007725E+02  0.38189213169E+03  0.38708588481E+03  0.10000000000E+00 0.  1.
         -5    1    3    3    0  501  0.48720470338E+02  0.29719701590E+02  0.18339793181E+03  0.19207226839E+03  0.10000000000E+00 0.  1.
         21    1    1    2  504  502  0.11544319915E+02 -0.10692693865E+02 -0.39740542867E+02  0.42742435258E+02  0.00000000000E+00 0.  1.
<mgrwt>
<rscale>  1 0.12598139E+03</rscale>
<asrwt>0</asrwt>
<pdfrwt beam="1">  1       21 0.88265388E-01 0.12598139E+03</pdfrwt>
<pdfrwt beam="2">  1       21 0.74116210E-02 0.12598139E+03</pdfrwt>
<totfact> 0.15411097E+05</totfact>
</mgrwt>
</event>
<event>
 6    1  0.4202038E-002  0.1296068E+03  0.7546771E-02  0.1228040E+00
         21   -1    0    0  504  502  0.00000000000E+00  0.00000000000E+00  0.18083220102E+03  0.18083220102E+03  0.00000000000E+00 0.  1.
         21   -1    0    0  502  503 -0.00000000000E+00 -0.00000000000E+00 -0.13920928657E+03  0.13920928657E+03  0.00000000000E+00 0.  1.
         25    2    1    2    0    0 -0.24712278747E+02 -0.23705302216E+02  0.15474421438E+03  0.20185068181E+03  0.12500115115E+03 0.  0.
          5    1    3    3  501    0 -0.54914402035E+02 -0.53572718742E+02  0.13439779966E+03  0.15475272630E+03  0.10000000000E+00 0. -1.
         -5    1    3    3    0  501  0.30202123288E+02  0.29867416526E+02  0.20346414724E+02  0.47097955510E+02  0.10000000000E+00 0. -1.
         21    1    1    2  504  503  0.24712278747E+02  0.23705302216E+02 -0.11312129992E+03  0.11819080578E+03  0.00000000000E+00 0.  1.
<mgrwt>
<rscale>  1 0.12960681E+03</rscale>
<asrwt>0</asrwt>
<pdfrwt beam="1">  1       21 0.27820339E-01 0.12960681E+03</pdfrwt>
<pdfrwt beam="2">  1       21 0.21416813E-01 0.12960681E+03</pdfrwt>
<totfact> 0.25420305E+05</totfact>
</mgrwt>
</event>
<event>
 6    1  0.4202038E-002  0.2100212E+03  0.7546771E-02  0.1141549E+00
         21   -1    0    0  503  502  0.00000000000E+00  0.00000000000E+00  0.13378029159E+04  0.13378029159E+04  0.00000000000E+00 0. -1.
         21   -1    0    0  504  503 -0.00000000000E+00 -0.00000000000E+00 -0.69949196915E+02  0.69949196915E+02  0.00000000000E+00 0.  1.
         25    2    1    2    0    0  0.12127591756E+03  0.11737883698E+03  0.12118676709E+04  0.12299317621E+04  0.12499299203E+03 0.  0.
          5    1    3    3  501    0  0.21082779449E+02  0.10426102495E+03  0.52463718937E+03  0.53531209158E+03  0.10000000000E+00 0. -1.
         -5    1    3    3    0  501  0.10019313811E+03  0.13117812028E+02  0.68723048154E+03  0.69461967052E+03  0.10000000000E+00 0. -1.
         21    1    1    2  504  502 -0.12127591756E+03 -0.11737883698E+03  0.55986048065E+02  0.17782035071E+03  0.00000000000E+00 0.  1.
<mgrwt>
<rscale>  1 0.21002116E+03</rscale>
<asrwt>0</asrwt>
<pdfrwt beam="1">  1       21 0.20581581E+00 0.21002116E+03</pdfrwt>
<pdfrwt beam="2">  1       21 0.10761416E-01 0.21002116E+03</pdfrwt>
<totfact> 0.86560330E+03</totfact>
</mgrwt>
</event>
<event>
 6    1  0.4202038E-002  0.1311550E+03  0.7546771E-02  0.1225752E+00
         21   -1    0    0  503  502  0.00000000000E+00  0.00000000000E+00  0.59318406815E+02  0.59318406815E+02  0.00000000000E+00 0.  1.
         21   -1    0    0  504  503 -0.00000000000E+00 -0.00000000000E+00 -0.16616020503E+03  0.16616020503E+03  0.00000000000E+00 0.  1.
         25    2    1    2    0    0 -0.30546446217E+02 -0.25357670787E+02 -0.23609512709E+02  0.13326304811E+03  0.12500213621E+03 0.  0.
          5    1    3    3  501    0  0.29655857614E+02 -0.22961915692E+02 -0.54027401307E+02  0.65769974571E+02  0.10000000000E+00 0.  1.
         -5    1    3    3    0  501 -0.60202303831E+02 -0.23957550951E+01  0.30417888597E+02  0.67493073539E+02  0.10000000000E+00 0.  1.
         21    1    1    2  504  502  0.30546446217E+02  0.25357670787E+02 -0.83232285504E+02  0.92215563732E+02  0.00000000000E+00 0.  1.
<mgrwt>
<rscale>  1 0.13115499E+03</rscale>
<asrwt>0</asrwt>
<pdfrwt beam="1">  1       21 0.91259090E-02 0.13115499E+03</pdfrwt>
<pdfrwt beam="2">  1       21 0.25563108E-01 0.13115499E+03</pdfrwt>
<totfact> 0.13812542E+06</totfact>
</mgrwt>
</event>
<event>
 6    1  0.4202038E-002  0.1261119E+03  0.7546771E-02  0.1233342E+00
         21   -1    0    0  504  502  0.00000000000E+00  0.00000000000E+00  0.21176162063E+02  0.21176162063E+02  0.00000000000E+00 0.  1.
         21   -1    0    0  502  503 -0.00000000000E+00 -0.00000000000E+00 -0.36524616927E+03  0.36524616927E+03  0.00000000000E+00 0.  1.
         25    2    1    2    0    0 -0.88090735734E+01 -0.14203376817E+02 -0.17061675940E+03  0.21216572496E+03  0.12499952227E+03 0.  0.
          5    1    3    3  501    0  0.51868052468E+02 -0.32652556842E+02 -0.68113636371E+02  0.91629481036E+02  0.10000000000E+00 0.  1.
         -5    1    3    3    0  501 -0.60677126042E+02  0.18449180025E+02 -0.10250312303E+03  0.12053624392E+03  0.10000000000E+00 0.  1.
         21    1    1    2  504  503  0.88090735734E+01  0.14203376817E+02 -0.17345324781E+03  0.17425660638E+03  0.00000000000E+00 0.  1.
<mgrwt>
<rscale>  1 0.12611192E+03</rscale>
<asrwt>0</asrwt>
<pdfrwt beam="1">  1       21 0.32578713E-02 0.12611192E+03</pdfrwt>
<pdfrwt beam="2">  1       21 0.56191715E-01 0.12611192E+03</pdfrwt>
<totfact> 0.16408274E+06</totfact>
</mgrwt>
</event>
<event>
 6    1  0.4202038E-002  0.1507150E+03  0.7546771E-02  0.1199597E+00
         21   -1    0    0  504  502  0.00000000000E+00  0.00000000000E+00  0.45785256882E+03  0.45785256882E+03  0.00000000000E+00 0.  1.
         21   -1    0    0  502  503 -0.00000000000E+00 -0.00000000000E+00 -0.30321069692E+02  0.30321069692E+02  0.00000000000E+00 0.  1.
         25    2    1    2    0    0  0.64051189449E+02  0.54657602797E+02  0.29235167418E+03  0.32891412236E+03  0.12499996030E+03 0.  0.
          5    1    3    3  501    0  0.73262686413E+02  0.57945489664E+02  0.10198743774E+03  0.13829876518E+03  0.10000000000E+00 0.  1.
         -5    1    3    3    0  501 -0.92114969637E+01 -0.32878868669E+01  0.19036423644E+03  0.19061535718E+03  0.10000000000E+00 0.  1.
         21    1    1    2  504  503 -0.64051189449E+02 -0.54657602797E+02  0.13517982494E+03  0.15925951615E+03  0.00000000000E+00 0.  1.
<mgrwt>
<rscale>  1 0.15071496E+03</rscale>
<asrwt>0</asrwt>
<pdfrwt beam="1">  1       21 0.70438851E-01 0.15071496E+03</pdfrwt>
<pdfrwt beam="2">  1       21 0.46647803E-02 0.15071496E+03</pdfrwt>
<totfact> 0.55656873E+05</totfact>
</mgrwt>
</event>
<event>
 6    1  0.4202038E-002  0.1282606E+03  0.7546771E-02  0.1230060E+00
         21   -1    0    0  503  502  0.00000000000E+00  0.00000000000E+00  0.11937859488E+03  0.11937859488E+03  0.00000000000E+00 0. -1.
         21   -1    0    0  504  503 -0.00000000000E+00 -0.00000000000E+00 -0.11444231016E+03  0.11444231016E+03  0.00000000000E+00 0.  1.
         25    2    1    2    0    0 -0.22947281789E+02  0.17284146177E+02  0.81554956495E+02  0.15199340162E+03  0.12500185501E+03 0.  0.
          5    1    3    3  501    0  0.30072194808E+02 -0.39432174158E+02  0.41314889676E+02  0.64545823787E+02  0.10000000000E+00 0.  1.
         -5    1    3    3    0  501 -0.53019476596E+02  0.56716320335E+02  0.40240066819E+02  0.87447577830E+02  0.10000000000E+00 0.  1.
         21    1    1    2  504  502  0.22947281789E+02 -0.17284146177E+02 -0.76618671781E+02  0.81827503421E+02  0.00000000000E+00 0.  1.
<mgrwt>
<rscale>  1 0.12826061E+03</rscale>
<asrwt>0</asrwt>
<pdfrwt beam="1">  1       21 0.18365938E-01 0.12826061E+03</pdfrwt>
<pdfrwt beam="2">  1       21 0.17606509E-01 0.12826061E+03</pdfrwt>
<totfact> 0.79362558E+05</totfact>
</mgrwt>
</event>
<event>
 6    1  0.4202038E-002  0.1343477E+03  0.7546771E-02  0.1221143E+00
         21   -1    0    0  503  502  0.00000000000E+00  0.00000000000E+00  0.19145479606E+03  0.19145479606E+03  0.00000000000E+00 0. -1.
         21   -1    0    0  504  503 -0.00000000000E+00 -0.00000000000E+00 -0.45261631546E+02  0.45261631546E+02  0.00000000000E+00 0. -1.
         25    2    1    2    0    0  0.48998726817E+02  0.46761554879E+01  0.12361018485E+03  0.18256171746E+03  0.12500624474E+03 0.  0.
          5    1    3    3  501    0  0.25009975189E+02 -0.59616684796E+02  0.71511476085E+02  0.96403055848E+02  0.10000000000E+00 0. -1.
         -5    1    3    3    0  501  0.23988751628E+02  0.64292840284E+02  0.52098708767E+02  0.86158661617E+02  0.10000000000E+00 0. -1.
         21    1    1    2  504  502 -0.48998726817E+02 -0.46761554879E+01  0.22582979657E+02  0.54154710137E+02  0.00000000000E+00 0. -1.
<mgrwt>
<rscale>  1 0.13434769E+03</rscale>
<asrwt>0</asrwt>
<pdfrwt beam="1">  1       21 0.29454584E-01 0.13434769E+03</pdfrwt>
<pdfrwt beam="2">  1       21 0.69633280E-02 0.13434769E+03</pdfrwt>
<totfact> 0.16807611E+06</totfact>
</mgrwt>
</event>
<event>
 6    1  0.4202038E-002  0.1263630E+03  0.7546771E-02  0.1232954E+00
         21   -1    0    0  503  502  0.00000000000E+00  0.00000000000E+00  0.24479715843E+02  0.24479715843E+02  0.00000000000E+00 0. -1.
         21   -1    0    0  504  503 -0.00000000000E+00 -0.00000000000E+00 -0.33432687313E+03  0.33432687313E+03  0.00000000000E+00 0.  1.
         25    2    1    2    0    0 -0.18464107476E+02  0.16212506595E+00 -0.14255357643E+03  0.19049707723E+03  0.12500665874E+03 0.  0.
          5    1    3    3  501    0  0.32461040195E+02 -0.41390806939E+02 -0.31103159324E+02  0.61109201840E+02  0.10000000000E+00 0.  1.
         -5    1    3    3    0  501 -0.50925147670E+02  0.41552932005E+02 -0.11145041711E+03  0.12938787539E+03  0.10000000000E+00 0.  1.
         21    1    1    2  504  502  0.18464107476E+02 -0.16212506595E+00 -0.16729358085E+03  0.16830951175E+03  0.00000000000E+00 0.  1.
<mgrwt>
<rscale>  1 0.12636303E+03</rscale>
<asrwt>0</asrwt>
<pdfrwt beam="1">  1       21 0.37661105E-02 0.12636303E+03</pdfrwt>
<pdfrwt beam="2">  1       21 0.51434898E-01 0.12636303E+03</pdfrwt>
<totfact> 0.15532780E+06</totfact>
</mgrwt>
</event>
<event>
 6    1  0.4202038E-002  0.1506509E+03  0.7546771E-02  0.1199675E+00
         21   -1    0    0  504  502  0.00000000000E+00  0.00000000000E+00  0.95489187557E+02  0.95489187557E+02  0.00000000000E+00 0. -1.
         21   -1    0    0  502  503 -0.00000000000E+00 -0.00000000000E+00 -0.28783180006E+03  0.28783180006E+03  0.00000000000E+00 0. -1.
         25    2    1    2    0    0  0.40388297115E+01  0.84003203517E+02  0.22761525833E+02  0.15236072983E+03  0.12499141807E+03 0.  0.
          5    1    3    3  501    0 -0.25568779454E+02  0.50138809050E+01  0.55943059273E+02  0.61713348356E+02  0.10000000000E+00 0. -1.
         -5    1    3    3    0  501  0.29607609165E+02  0.78989322612E+02 -0.33181533440E+02  0.90647381477E+02  0.10000000000E+00 0. -1.
         21    1    1    2  504  503 -0.40388297115E+01 -0.84003203517E+02 -0.21510413833E+03  0.23096025778E+03  0.00000000000E+00 0. -1.
<mgrwt>
<rscale>  1 0.15065094E+03</rscale>
<asrwt>0</asrwt>
<pdfrwt beam="1">  1       21 0.14690644E-01 0.15065094E+03</pdfrwt>
<pdfrwt beam="2">  1       21 0.44281815E-01 0.15065094E+03</pdfrwt>
<totfact> 0.20194711E+05</totfact>
</mgrwt>
</event>
<event>
 6    1  0.4202038E-002  0.1266938E+03  0.7546771E-02  0.1232446E+00
         21   -1    0    0  504  502  0.00000000000E+00  0.00000000000E+00  0.16126940308E+03  0.16126940308E+03  0.00000000000E+00 0.  1.
         21   -1    0    0  502  503 -0.00000000000E+00 -0.00000000000E+00 -0.56165865056E+02  0.56165865056E+02  0.00000000000E+00 0.  1.
         25    2    1    2    0    0  0.16479593323E+02 -0.12484528856E+02  0.13236151850E+03  0.18322360409E+03  0.12499550816E+03 0.  0.
          5    1    3    3  501    0  0.15040268641E+02 -0.53645623180E+02  0.13356235316E+02  0.57292770827E+02  0.10000000000E+00 0. -1.
         -5    1    3    3    0  501  0.14393246812E+01  0.41161094325E+02  0.11900528318E+03  0.12593083327E+03  0.10000000000E+00 0. -1.
         21    1    1    2  504  503 -0.16479593323E+02  0.12484528856E+02 -0.27257980477E+02  0.34211664042E+02  0.00000000000E+00 0.  1.
<mgrwt>
<rscale>  1 0.12669379E+03</rscale>
<asrwt>0</asrwt>
<pdfrwt beam="1">  1       21 0.24810677E-01 0.12669379E+03</pdfrwt>
<pdfrwt beam="2">  1       21 0.86409024E-02 0.12669379E+03</pdfrwt>
<totfact> 0.16057036E+06</totfact>
</mgrwt>
</event>
<event>
 6    1  0.4202038E-002  0.1266926E+03  0.7546771E-02  0.1232448E+00
         21   -1    0    0  503  502  0.00000000000E+00  0.00000000000E+00  0.19707220089E+03  0.19707220089E+03  0.00000000000E+00 0. -1.
         21   -1    0    0  504  503 -0.00000000000E+00 -0.00000000000E+00 -0.56670487718E+02  0.56670487718E+02  0.00000000000E+00 0. -1.
         25    2    1    2    0    0  0.19738950387E+02 -0.60863976758E+01  0.17343636214E+03  0.21478170258E+03  0.12499735057E+03 0.  0.
          5    1    3    3  501    0  0.14478836603E+02  0.46648927827E+02  0.20587632363E+02  0.53005846688E+02  0.10000000000E+00 0.  1.
         -5    1    3    3    0  501  0.52601137837E+01 -0.52735325503E+02  0.15284872978E+03  0.16177585589E+03  0.10000000000E+00 0.  1.
         21    1    1    2  504  502 -0.19738950387E+02  0.60863976758E+01 -0.33034648977E+02  0.38960986025E+02  0.00000000000E+00 0. -1.
<mgrwt>
<rscale>  1 0.12669257E+03</rscale>
<asrwt>0</asrwt>
<pdfrwt beam="1">  1       21 0.30318800E-01 0.12669257E+03</pdfrwt>
<pdfrwt beam="2">  1       21 0.87185366E-02 0.12669257E+03</pdfrwt>
<totfact> 0.10783700E+06</totfact>
</mgrwt>
</event>
<event>
 6    1  0.4202038E-002  0.1259559E+03  0.7546771E-02  0.1233583E+00
         21   -1    0    0  503  502  0.00000000000E+00  0.00000000000E+00  0.28144640119E+02  0.28144640119E+02  0.00000000000E+00 0.  1.
         21   -1    0    0  504  503 -0.00000000000E+00 -0.00000000000E+00 -0.18117835429E+03  0.18117835429E+03  0.00000000000E+00 0.  1.
         25    2    1    2    0    0 -0.14624114033E+02  0.51377420604E+01 -0.14426926316E+03  0.19151634660E+03  0.12499851846E+03 0.  0.
          5    1    3    3  501    0 -0.25280944536E+02 -0.57287564401E+02 -0.72905328071E+02  0.96105088589E+02  0.10000000000E+00 0.  1.
         -5    1    3    3    0  501  0.10656830503E+02  0.62425306461E+02 -0.71363935093E+02  0.95411258011E+02  0.10000000000E+00 0.  1.
         21    1    1    2  504  502  0.14624114033E+02 -0.51377420604E+01 -0.87644510070E+01  0.17806647809E+02  0.00000000000E+00 0. -1.
<mgrwt>
<rscale>  1 0.12595591E+03</rscale>
<asrwt>0</asrwt>
<pdfrwt beam="1">  1       21 0.43299445E-02 0.12595591E+03</pdfrwt>
<pdfrwt beam="2">  1       21 0.27873594E-01 0.12595591E+03</pdfrwt>
<totfact> 0.41586251E+06</totfact>
</mgrwt>
</event>
<event>
 6    1  0.4202038E-002  0.1555045E+03  0.7546771E-02  0.1193868E+00
         21   -1    0    0  504  502  0.00000000000E+00  0.00000000000E+00  0.63884521727E+03  0.63884521727E+03  0.00000000000E+00 0. -1.
         21   -1    0    0  502  503 -0.00000000000E+00 -0.00000000000E+00 -0.15283491904E+04  0.15283491904E+04  0.00000000000E+00 0. -1.
         25    2    1    2    0    0 -0.51378349908E+02  0.76940725877E+02  0.62795239243E+03  0.64692027729E+03  0.12498811095E+03 0.  0.
          5    1    3    3  501    0 -0.79160845377E+02  0.83977563440E+02  0.57729557255E+03  0.58871797891E+03  0.10000000000E+00 0.  1.
         -5    1    3    3    0  501  0.27782495469E+02 -0.70368375628E+01  0.50656819876E+02  0.58202298385E+02  0.10000000000E+00 0.  1.
         21    1    1    2  504  503  0.51378349908E+02 -0.76940725877E+02 -0.15174563655E+04  0.15202741303E+04  0.00000000000E+00 0. -1.
<mgrwt>
<rscale>  1 0.15550446E+03</rscale>
<asrwt>0</asrwt>
<pdfrwt beam="1">  1       21 0.98283881E-01 0.15550446E+03</pdfrwt>
<pdfrwt beam="2">  1       21 0.23513064E+00 0.15550446E+03</pdfrwt>
<totfact> 0.74275835E+01</totfact>
</mgrwt>
</event>
<event>
 6    1  0.4202038E-002  0.1868584E+03  0.7546771E-02  0.1161326E+00
         21   -1    0    0  504  502  0.00000000000E+00  0.00000000000E+00  0.11104357026E+03  0.11104357026E+03  0.00000000000E+00 0.  1.
         21   -1    0    0  502  503 -0.00000000000E+00 -0.00000000000E+00 -0.14751225140E+04  0.14751225140E+04  0.00000000000E+00 0. -1.
         25    2    1    2    0    0 -0.70806626670E+02  0.11948660067E+03  0.26447178039E+02  0.18872072880E+03  0.12500173652E+03 0.  0.
          5    1    3    3  501    0 -0.92213159134E+02  0.34909490606E+02  0.23823250333E+02  0.10143715546E+03  0.10000000000E+00 0. -1.
         -5    1    3    3    0  501  0.21406532464E+02  0.84577110060E+02  0.26239277061E+01  0.87283573339E+02  0.10000000000E+00 0. -1.
         21    1    1    2  504  503  0.70806626670E+02 -0.11948660067E+03 -0.13905261217E+04  0.13974453554E+04  0.00000000000E+00 0. -1.
<mgrwt>
<rscale>  1 0.18685840E+03</rscale>
<asrwt>0</asrwt>
<pdfrwt beam="1">  1       21 0.17083626E-01 0.18685840E+03</pdfrwt>
<pdfrwt beam="2">  1       21 0.22694193E+00 0.18685840E+03</pdfrwt>
<totfact> 0.28389210E+03</totfact>
</mgrwt>
</event>
<event>
 6    1  0.4202038E-002  0.1273958E+03  0.7546771E-02  0.1231372E+00
         21   -1    0    0  503  502  0.00000000000E+00  0.00000000000E+00  0.10096652799E+03  0.10096652799E+03  0.00000000000E+00 0. -1.
         21   -1    0    0  504  503 -0.00000000000E+00 -0.00000000000E+00 -0.84190293174E+02  0.84190293174E+02  0.00000000000E+00 0. -1.
         25    2    1    2    0    0 -0.23316214179E+02  0.78447690273E+01  0.55756573319E+02  0.13906286239E+03  0.12499799192E+03 0.  0.
          5    1    3    3  501    0 -0.53345046037E+02  0.12371322176E+02 -0.19326240451E+02  0.58071138434E+02  0.10000000000E+00 0.  1.
         -5    1    3    3    0  501  0.30028831858E+02 -0.45265531492E+01  0.75082813770E+02  0.80991723958E+02  0.10000000000E+00 0.  1.
         21    1    1    2  504  502  0.23316214179E+02 -0.78447690273E+01 -0.38980338507E+02  0.46093958767E+02  0.00000000000E+00 0. -1.
<mgrwt>
<rscale>  1 0.12739578E+03</rscale>
<asrwt>0</asrwt>
<pdfrwt beam="1">  1       21 0.15533312E-01 0.12739578E+03</pdfrwt>
<pdfrwt beam="2">  1       21 0.12952353E-01 0.12739578E+03</pdfrwt>
<totfact> 0.18725695E+06</totfact>
</mgrwt>
</event>
<event>
 6    1  0.4202038E-002  0.1260873E+03  0.7546771E-02  0.1233380E+00
         21   -1    0    0  504  502  0.00000000000E+00  0.00000000000E+00  0.44668766508E+03  0.44668766508E+03  0.00000000000E+00 0.  1.
         21   -1    0    0  502  503 -0.00000000000E+00 -0.00000000000E+00 -0.13531724934E+02  0.13531724934E+02  0.00000000000E+00 0.  1.
         25    2    1    2    0    0  0.88013675962E+01  0.13968810562E+02  0.42164160480E+03  0.44009051378E+03  0.12500170271E+03 0.  0.
          5    1    3    3  501    0  0.37713280011E+02 -0.44503793195E+02  0.24325576814E+03  0.25015246916E+03  0.10000000000E+00 0. -1.
         -5    1    3    3    0  501 -0.28911912415E+02  0.58472603757E+02  0.17838583667E+03  0.18993804462E+03  0.10000000000E+00 0. -1.
         21    1    1    2  504  503 -0.88013675962E+01 -0.13968810562E+02  0.11514335347E+02  0.20128876237E+02  0.00000000000E+00 0.  1.
<mgrwt>
<rscale>  1 0.12608734E+03</rscale>
<asrwt>0</asrwt>
<pdfrwt beam="1">  1       21 0.68721168E-01 0.12608734E+03</pdfrwt>
<pdfrwt beam="2">  1       21 0.20818042E-02 0.12608734E+03</pdfrwt>
<totfact> 0.22150101E+06</totfact>
</mgrwt>
</event>
<event>
 6    1  0.4202038E-002  0.1263568E+03  0.7546771E-02  0.1232964E+00
         21   -1    0    0  504  502  0.00000000000E+00  0.00000000000E+00  0.48281970549E+03  0.48281970549E+03  0.00000000000E+00 0. -1.
         21   -1    0    0  502  503 -0.00000000000E+00 -0.00000000000E+00 -0.12892938941E+02  0.12892938941E+02  0.00000000000E+00 0. -1.
         25    2    1    2    0    0 -0.11390737658E+02  0.14574136040E+02  0.45415189447E+03  0.47140213364E+03  0.12499549594E+03 0.  0.
          5    1    3    3  501    0  0.26355586333E+02  0.32252726815E+02  0.40421734700E+03  0.40635763674E+03  0.10000000000E+00 0.  1.
         -5    1    3    3    0  501 -0.37746323991E+02 -0.17678590775E+02  0.49934547472E+02  0.65044496907E+02  0.10000000000E+00 0.  1.
         21    1    1    2  504  503  0.11390737658E+02 -0.14574136040E+02  0.15774872072E+02  0.24310510784E+02  0.00000000000E+00 0. -1.
<mgrwt>
<rscale>  1 0.12635675E+03</rscale>
<asrwt>0</asrwt>
<pdfrwt beam="1">  1       21 0.74279941E-01 0.12635675E+03</pdfrwt>
<pdfrwt beam="2">  1       21 0.19835294E-02 0.12635675E+03</pdfrwt>
<totfact> 0.20202837E+06</totfact>
</mgrwt>
</event>
<event>
 6    1  0.4202038E-002  0.1412394E+03  0.7546771E-02  0.1211671E+00
         21   -1    0    0  504  502  0.00000000000E+00  0.00000000000E+00  0.98503772606E+01  0.98503772606E+01  0.00000000000E+00 0.  1.
         21   -1    0    0  502  503 -0.00000000000E+00 -0.00000000000E+00 -0.12695235885E+04  0.12695235885E+04  0.00000000000E+00 0.  1.
         25    2    1    2    0    0  0.56243099746E+02 -0.34044163993E+02 -0.59847909293E+03  0.61491933717E+03  0.12500510061E+03 0.  0.
          5    1    3    3  501    0 -0.28035440813E+01  0.22911525560E+02 -0.39286736202E+03  0.39354487928E+03  0.10000000000E+00 0. -1.
         -5    1    3    3    0  501  0.59046643828E+02 -0.56955689553E+02 -0.20561173091E+03  0.22137445789E+03  0.10000000000E+00 0. -1.
         21    1    1    2  504  503 -0.56243099746E+02  0.34044163993E+02 -0.66119411835E+03  0.66445462863E+03  0.00000000000E+00 0.  1.
<mgrwt>
<rscale>  1 0.14123939E+03</rscale>
<asrwt>0</asrwt>
<pdfrwt beam="1">  1       21 0.15154429E-02 0.14123939E+03</pdfrwt>
<pdfrwt beam="2">  1       21 0.19531129E+00 0.14123939E+03</pdfrwt>
<totfact> 0.28429974E+05</totfact>
</mgrwt>
</event>
<event>
 6    1  0.4202038E-002  0.1284859E+03  0.7546771E-02  0.1229720E+00
         21   -1    0    0  504  502  0.00000000000E+00  0.00000000000E+00  0.12017365563E+04  0.12017365563E+04  0.00000000000E+00 0. -1.
         21   -1    0    0  502  503 -0.00000000000E+00 -0.00000000000E+00 -0.20828867865E+02  0.20828867865E+02  0.00000000000E+00 0.  1.
         25    2    1    2    0    0  0.25902217482E+02  0.14644902662E+02  0.11855131660E+04  0.11924554845E+04  0.12499287139E+03 0.  0.
          5    1    3    3  501    0 -0.31930115830E+02  0.50941487632E+02  0.53345118342E+03  0.53682841072E+03  0.10000000000E+00 0.  1.
         -5    1    3    3    0  501  0.57832333313E+02 -0.36296584970E+02  0.65206198254E+03  0.65562707382E+03  0.10000000000E+00 0.  1.
         21    1    1    2  504  503 -0.25902217482E+02 -0.14644902662E+02 -0.46054774757E+01  0.30109939676E+02  0.00000000000E+00 0.  1.
<mgrwt>
<rscale>  1 0.12848586E+03</rscale>
<asrwt>0</asrwt>
<pdfrwt beam="1">  1       21 0.18488249E+00 0.12848586E+03</pdfrwt>
<pdfrwt beam="2">  1       21 0.32044422E-02 0.12848586E+03</pdfrwt>
<totfact> 0.99306941E+04</totfact>
</mgrwt>
</event>
<event>
 6    1  0.4202038E-002  0.1269022E+03  0.7546771E-02  0.1232126E+00
         21   -1    0    0  504  502  0.00000000000E+00  0.00000000000E+00  0.92881639361E+01  0.92881639361E+01  0.00000000000E+00 0.  1.
         21   -1    0    0  502  503 -0.00000000000E+00 -0.00000000000E+00 -0.64296800266E+03  0.64296800266E+03  0.00000000000E+00 0.  1.
         25    2    1    2    0    0  0.21668556934E+02  0.29409736918E+01 -0.45923768747E+03  0.47644877250E+03  0.12500401408E+03 0.  0.
          5    1    3    3  501    0 -0.27620681047E+02 -0.27773863344E+01 -0.39149139437E+03  0.39247437848E+03  0.10000000000E+00 0. -1.
         -5    1    3    3    0  501  0.49289237981E+02  0.57183600262E+01 -0.67746293105E+02  0.83974394023E+02  0.10000000000E+00 0. -1.
         21    1    1    2  504  503 -0.21668556934E+02 -0.29409736918E+01 -0.17444215125E+03  0.17580739410E+03  0.00000000000E+00 0. -1.
<mgrwt>
<rscale>  1 0.12690224E+03</rscale>
<asrwt>0</asrwt>
<pdfrwt beam="1">  1       21 0.14289479E-02 0.12690224E+03</pdfrwt>
<pdfrwt beam="2">  1       21 0.98918184E-01 0.12690224E+03</pdfrwt>
<totfact> 0.17866482E+06</totfact>
</mgrwt>
</event>
<event>
 6    1  0.4202038E-002  0.1274840E+03  0.7546771E-02  0.1231237E+00
         21   -1    0    0  503  502  0.00000000000E+00  0.00000000000E+00  0.43745886399E+02  0.43745886399E+02  0.00000000000E+00 0. -1.
         21   -1    0    0  504  503 -0.00000000000E+00 -0.00000000000E+00 -0.14325404863E+03  0.14325404863E+03  0.00000000000E+00 0. -1.
         25    2    1    2    0    0  0.87120609281E+01  0.23445990652E+02 -0.61607234294E+02  0.14158964080E+03  0.12500624217E+03 0.  0.
          5    1    3    3  501    0 -0.30307626631E+02  0.62475466211E+02 -0.48977515993E+02  0.84973779386E+02  0.10000000000E+00 0. -1.
         -5    1    3    3    0  501  0.39019687559E+02 -0.39029475559E+02 -0.12629718300E+02  0.56615861417E+02  0.10000000000E+00 0. -1.
         21    1    1    2  504  502 -0.87120609281E+01 -0.23445990652E+02 -0.37900927940E+02  0.45410294229E+02  0.00000000000E+00 0. -1.
<mgrwt>
<rscale>  1 0.12748402E+03</rscale>
<asrwt>0</asrwt>
<pdfrwt beam="1">  1       21 0.67301363E-02 0.12748402E+03</pdfrwt>
<pdfrwt beam="2">  1       21 0.22039085E-01 0.12748402E+03</pdfrwt>
<totfact> 0.30818113E+06</totfact>
</mgrwt>
</event>
<event>
 6    1  0.4202038E-002  0.1272978E+03  0.7546771E-02  0.1231521E+00
         21   -1    0    0  504  502  0.00000000000E+00  0.00000000000E+00  0.11450818115E+03  0.11450818115E+03  0.00000000000E+00 0.  1.
         21   -1    0    0  502  503 -0.00000000000E+00 -0.00000000000E+00 -0.50474658356E+02  0.50474658356E+02  0.00000000000E+00 0.  1.
         25    2    1    2    0    0 -0.13062639119E+01 -0.24068329950E+02  0.48066378770E+02  0.13607020351E+03  0.12499493063E+03 0.  0.
          5    1    3    3  501    0  0.37080982824E+02 -0.60856336585E+02  0.41579980259E+02  0.82506955756E+02  0.10000000000E+00 0. -1.
         -5    1    3    3    0  501 -0.38387246736E+02  0.36788006635E+02  0.64863985109E+01  0.53563247752E+02  0.10000000000E+00 0. -1.
         21    1    1    2  504  503  0.13062639119E+01  0.24068329950E+02  0.15967144019E+02  0.28912635994E+02  0.00000000000E+00 0.  1.
<mgrwt>
<rscale>  1 0.12729777E+03</rscale>
<asrwt>0</asrwt>
<pdfrwt beam="1">  1       21 0.17616643E-01 0.12729777E+03</pdfrwt>
<pdfrwt beam="2">  1       21 0.77653321E-02 0.12729777E+03</pdfrwt>
<totfact> 0.36463262E+06</totfact>
</mgrwt>
</event>
<event>
 6    1  0.4202038E-002  0.1262868E+03  0.7546771E-02  0.1233072E+00
         21   -1    0    0  504  502  0.00000000000E+00  0.00000000000E+00  0.70818534665E+02  0.70818534665E+02  0.00000000000E+00 0. -1.
         21   -1    0    0  502  503 -0.00000000000E+00 -0.00000000000E+00 -0.14840327558E+03  0.14840327558E+03  0.00000000000E+00 0. -1.
         25    2    1    2    0    0  0.12676900782E+02  0.12777106025E+02  0.12918832887E+02  0.12694583763E+03  0.12499756476E+03 0.  0.
          5    1    3    3  501    0 -0.46250390432E+02 -0.22297674021E+02  0.25334409525E+02  0.57254931560E+02  0.10000000000E+00 0.  1.
         -5    1    3    3    0  501  0.58927291215E+02  0.35074780046E+02 -0.12415576638E+02  0.69690906067E+02  0.10000000000E+00 0.  1.
         21    1    1    2  504  503 -0.12676900782E+02 -0.12777106025E+02 -0.90503573798E+02  0.92275972615E+02  0.00000000000E+00 0. -1.
<mgrwt>
<rscale>  1 0.12628677E+03</rscale>
<asrwt>0</asrwt>
<pdfrwt beam="1">  1       21 0.10895159E-01 0.12628677E+03</pdfrwt>
<pdfrwt beam="2">  1       21 0.22831273E-01 0.12628677E+03</pdfrwt>
<totfact> 0.12526166E+06</totfact>
</mgrwt>
</event>
<event>
 6    1  0.4202038E-002  0.1320302E+03  0.7546771E-02  0.1224474E+00
         21   -1    0    0  504  502  0.00000000000E+00  0.00000000000E+00  0.63498614604E+03  0.63498614604E+03  0.00000000000E+00 0. -1.
         21   -1    0    0  502  503 -0.00000000000E+00 -0.00000000000E+00 -0.11217198458E+03  0.11217198458E+03  0.00000000000E+00 0. -1.
         25    2    1    2    0    0  0.17654063112E+01  0.42477540055E+02  0.62378354970E+03  0.63760323374E+03  0.12499803493E+03 0.  0.
          5    1    3    3  501    0  0.26246366084E+02  0.77287596897E+02  0.50213392142E+03  0.50872461058E+03  0.10000000000E+00 0.  1.
         -5    1    3    3    0  501 -0.24480959773E+02 -0.34810056843E+02  0.12164962827E+03  0.12887862316E+03  0.10000000000E+00 0.  1.
         21    1    1    2  504  503 -0.17654063112E+01 -0.42477540055E+02 -0.10096938824E+03  0.10955489688E+03  0.00000000000E+00 0. -1.
<mgrwt>
<rscale>  1 0.13203017E+03</rscale>
<asrwt>0</asrwt>
<pdfrwt beam="1">  1       21 0.97690174E-01 0.13203017E+03</pdfrwt>
<pdfrwt beam="2">  1       21 0.17257229E-01 0.13203017E+03</pdfrwt>
<totfact> 0.27336903E+04</totfact>
</mgrwt>
</event>
<event>
 6    1  0.4202038E-002  0.1283998E+03  0.7546771E-02  0.1229850E+00
         21   -1    0    0  504  502  0.00000000000E+00  0.00000000000E+00  0.40827383563E+02  0.40827383563E+02  0.00000000000E+00 0. -1.
         21   -1    0    0  502  503 -0.00000000000E+00 -0.00000000000E+00 -0.15292457274E+03  0.15292457274E+03  0.00000000000E+00 0. -1.
         25    2    1    2    0    0  0.24901004501E+02 -0.15583493030E+02 -0.86810223905E+02  0.15499197833E+03  0.12499437224E+03 0.  0.
          5    1    3    3  501    0  0.43339875982E+02  0.21720999616E+02  0.10105299699E+02  0.49520437765E+02  0.10000000000E+00 0. -1.
         -5    1    3    3    0  501 -0.18438871480E+02 -0.37304492646E+02 -0.96915523604E+02  0.10547154056E+03  0.10000000000E+00 0. -1.
         21    1    1    2  504  503 -0.24901004501E+02  0.15583493030E+02 -0.25286965276E+02  0.38759977981E+02  0.00000000000E+00 0.  1.
<mgrwt>
<rscale>  1 0.12839976E+03</rscale>
<asrwt>0</asrwt>
<pdfrwt beam="1">  1       21 0.62811360E-02 0.12839976E+03</pdfrwt>
<pdfrwt beam="2">  1       21 0.23526857E-01 0.12839976E+03</pdfrwt>
<totfact> 0.30683207E+06</totfact>
</mgrwt>
</event>
<event>
 6    1  0.4202038E-002  0.1287015E+03  0.7546771E-02  0.1229395E+00
         21   -1    0    0  503  502  0.00000000000E+00  0.00000000000E+00  0.18981720929E+02  0.18981720929E+02  0.00000000000E+00 0. -1.
         21   -1    0    0  504  503 -0.00000000000E+00 -0.00000000000E+00 -0.33998430293E+03  0.33998430293E+03  0.00000000000E+00 0. -1.
         25    2    1    2    0    0 -0.26112736494E+02  0.16086699848E+02 -0.27566423609E+03  0.30422826240E+03  0.12499363050E+03 0.  0.
          5    1    3    3  501    0 -0.71050498584E+01  0.50399471290E+02 -0.25473112835E+03  0.25976632998E+03  0.10000000000E+00 0.  1.
         -5    1    3    3    0  501 -0.19007686636E+02 -0.34312771443E+02 -0.20933107741E+02  0.44461932425E+02  0.10000000000E+00 0.  1.
         21    1    1    2  504  502  0.26112736494E+02 -0.16086699848E+02 -0.45338345910E+02  0.54737761455E+02  0.00000000000E+00 0.  1.
<mgrwt>
<rscale>  1 0.12870146E+03</rscale>
<asrwt>0</asrwt>
<pdfrwt beam="1">  1       21 0.29202650E-02 0.12870146E+03</pdfrwt>
<pdfrwt beam="2">  1       21 0.52305274E-01 0.12870146E+03</pdfrwt>
<totfact> 0.22816007E+06</totfact>
</mgrwt>
</event>
<event>
 6    1  0.4202038E-002  0.1259333E+03  0.7546771E-02  0.1233618E+00
         21   -1    0    0  503  502  0.00000000000E+00  0.00000000000E+00  0.20373269459E+03  0.20373269459E+03  0.00000000000E+00 0.  1.
         21   -1    0    0  504  503 -0.00000000000E+00 -0.00000000000E+00 -0.98107092663E+02  0.98107092663E+02  0.00000000000E+00 0.  1.
         25    2    1    2    0    0 -0.10017019206E+02  0.11611979168E+02  0.18345189607E+03  0.22251696081E+03  0.12499608371E+03 0.  0.
          5    1    3    3  501    0 -0.11050032790E+02  0.64929828775E+02  0.64630886617E+02  0.92277556287E+02  0.10000000000E+00 0. -1.
         -5    1    3    3    0  501  0.10330135837E+01 -0.53317849607E+02  0.11882100945E+03  0.13023940453E+03  0.10000000000E+00 0. -1.
         21    1    1    2  504  502  0.10017019206E+02 -0.11611979168E+02 -0.77826294145E+02  0.79322826439E+02  0.00000000000E+00 0.  1.
<mgrwt>
<rscale>  1 0.12593331E+03</rscale>
<asrwt>0</asrwt>
<pdfrwt beam="1">  1       21 0.31343491E-01 0.12593331E+03</pdfrwt>
<pdfrwt beam="2">  1       21 0.15093399E-01 0.12593331E+03</pdfrwt>
<totfact> 0.38367030E+05</totfact>
</mgrwt>
</event>
<event>
 6    1  0.4202038E-002  0.1264078E+03  0.7546771E-02  0.1232885E+00
         21   -1    0    0  504  502  0.00000000000E+00  0.00000000000E+00  0.72985059670E+02  0.72985059670E+02  0.00000000000E+00 0.  1.
         21   -1    0    0  502  503 -0.00000000000E+00 -0.00000000000E+00 -0.92458167600E+02  0.92458167600E+02  0.00000000000E+00 0.  1.
         25    2    1    2    0    0  0.16560762194E+02  0.88677064086E+01  0.13876076292E+02  0.12716708392E+03  0.12500410665E+03 0.  0.
          5    1    3    3  501    0  0.51751567057E+02 -0.49773252364E+01 -0.36973554043E+02  0.63796960413E+02  0.10000000000E+00 0.  1.
         -5    1    3    3    0  501 -0.35190804863E+02  0.13845031645E+02  0.50849630335E+02  0.63370123508E+02  0.10000000000E+00 0.  1.
         21    1    1    2  504  503 -0.16560762194E+02 -0.88677064086E+01 -0.33349184222E+02  0.38276143349E+02  0.00000000000E+00 0.  1.
<mgrwt>
<rscale>  1 0.12640776E+03</rscale>
<asrwt>0</asrwt>
<pdfrwt beam="1">  1       21 0.11228471E-01 0.12640776E+03</pdfrwt>
<pdfrwt beam="2">  1       21 0.14224333E-01 0.12640776E+03</pdfrwt>
<totfact> 0.28252125E+06</totfact>
</mgrwt>
</event>
<event>
 6    1  0.4202038E-002  0.1264395E+03  0.7546771E-02  0.1232837E+00
         21   -1    0    0  503  502  0.00000000000E+00  0.00000000000E+00  0.53588301040E+03  0.53588301040E+03  0.00000000000E+00 0. -1.
         21   -1    0    0  504  503 -0.00000000000E+00 -0.00000000000E+00 -0.35675177926E+02  0.35675177926E+02  0.00000000000E+00 0. -1.
         25    2    1    2    0    0 -0.13526862229E+01  0.18644418320E+02  0.52528056130E+03  0.54028382461E+03  0.12504998588E+03 0.  0.
          5    1    3    3  501    0  0.36529177010E+01 -0.10648180881E+02 -0.26108922942E+01  0.11556570528E+02  0.10000000000E+00 0. -1.
         -5    1    3    3    0  501 -0.50056039238E+01  0.29292599201E+02  0.52789145359E+03  0.52872725409E+03  0.10000000000E+00 0. -1.
         21    1    1    2  504  502  0.13526862229E+01 -0.18644418320E+02 -0.25072728827E+02  0.31274363708E+02  0.00000000000E+00 0. -1.
<mgrwt>
<rscale>  1 0.12643948E+03</rscale>
<asrwt>0</asrwt>
<pdfrwt beam="1">  1       21 0.82443534E-01 0.12643948E+03</pdfrwt>
<pdfrwt beam="2">  1       21 0.54884893E-02 0.12643948E+03</pdfrwt>
<totfact> 0.29967261E+05</totfact>
</mgrwt>
</event>
<event>
 6    1  0.4202038E-002  0.1321983E+03  0.7546771E-02  0.1224230E+00
         21   -1    0    0  504  502  0.00000000000E+00  0.00000000000E+00  0.74090135554E+03  0.74090135554E+03  0.00000000000E+00 0.  1.
         21   -1    0    0  502  503 -0.00000000000E+00 -0.00000000000E+00 -0.29614342354E+02  0.29614342354E+02  0.00000000000E+00 0.  1.
         25    2    1    2    0    0 -0.44082308261E+00 -0.43052848428E+02  0.71517012470E+03  0.72728583972E+03  0.12499057290E+03 0.  0.
          5    1    3    3  501    0  0.55970979202E+02 -0.50252943204E+02  0.42175529814E+03  0.42841060949E+03  0.10000000000E+00 0. -1.
         -5    1    3    3    0  501 -0.56411802284E+02  0.72000947765E+01  0.29341482657E+03  0.29887523024E+03  0.10000000000E+00 0. -1.
         21    1    1    2  504  503  0.44082308261E+00  0.43052848428E+02 -0.38831115114E+01  0.43229858174E+02  0.00000000000E+00 0.  1.
<mgrwt>
<rscale>  1 0.13219828E+03</rscale>
<asrwt>0</asrwt>
<pdfrwt beam="1">  1       21 0.11398481E+00 0.13219828E+03</pdfrwt>
<pdfrwt beam="2">  1       21 0.45560532E-02 0.13219828E+03</pdfrwt>
<totfact> 0.19255365E+05</totfact>
</mgrwt>
</event>
<event>
 6    1  0.4202038E-002  0.1315585E+03  0.7546771E-02  0.1225161E+00
         21   -1    0    0  504  502  0.00000000000E+00  0.00000000000E+00  0.92225798771E+01  0.92225798771E+01  0.00000000000E+00 0.  1.
         21   -1    0    0  502  503 -0.00000000000E+00 -0.00000000000E+00 -0.89663755960E+03  0.89663755960E+03  0.00000000000E+00 0.  1.
         25    2    1    2    0    0 -0.29685296222E+02 -0.28311725682E+02 -0.77725479956E+03  0.78830999734E+03  0.12499943138E+03 0.  0.
          5    1    3    3  501    0  0.32317788119E+02  0.54502207422E+01 -0.53433185165E+03  0.53533604589E+03  0.10000000000E+00 0. -1.
         -5    1    3    3    0  501 -0.62003084341E+02 -0.33761946424E+02 -0.24292294790E+03  0.25297395145E+03  0.10000000000E+00 0. -1.
         21    1    1    2  504  503  0.29685296222E+02  0.28311725682E+02 -0.11016018017E+03  0.11755014215E+03  0.00000000000E+00 0.  1.
<mgrwt>
<rscale>  1 0.13155846E+03</rscale>
<asrwt>0</asrwt>
<pdfrwt beam="1">  1       21 0.14188586E-02 0.13155846E+03</pdfrwt>
<pdfrwt beam="2">  1       21 0.13794422E+00 0.13155846E+03</pdfrwt>
<totfact> 0.80626831E+05</totfact>
</mgrwt>
</event>
<event>
 6    1  0.4202038E-002  0.1270154E+03  0.7546771E-02  0.1231953E+00
         21   -1    0    0  504  502  0.00000000000E+00  0.00000000000E+00  0.26965482182E+02  0.26965482182E+02  0.00000000000E+00 0. -1.
         21   -1    0    0  502  503 -0.00000000000E+00 -0.00000000000E+00 -0.42032802035E+03  0.42032802035E+03  0.00000000000E+00 0. -1.
         25    2    1    2    0    0 -0.22255122839E+02  0.33349580889E+01 -0.12574277385E+03  0.17872926312E+03  0.12500596739E+03 0.  0.
          5    1    3    3  501    0 -0.39980495540E+02 -0.34130876745E+02 -0.12680383579E+03  0.13726827580E+03  0.10000000000E+00 0.  1.
         -5    1    3    3    0  501  0.17725372702E+02  0.37465834834E+02  0.10610619339E+01  0.41460987321E+02  0.10000000000E+00 0.  1.
         21    1    1    2  504  503  0.22255122839E+02 -0.33349580889E+01 -0.26761976431E+03  0.26856423941E+03  0.00000000000E+00 0. -1.
<mgrwt>
<rscale>  1 0.12701537E+03</rscale>
<asrwt>0</asrwt>
<pdfrwt beam="1">  1       21 0.41485359E-02 0.12701537E+03</pdfrwt>
<pdfrwt beam="2">  1       21 0.64665847E-01 0.12701537E+03</pdfrwt>
<totfact> 0.81638669E+05</totfact>
</mgrwt>
</event>
<event>
 6    1  0.4202038E-002  0.1427438E+03  0.7546771E-02  0.1209684E+00
         21   -1    0    0  504  502  0.00000000000E+00  0.00000000000E+00  0.78729880859E+03  0.78729880859E+03  0.00000000000E+00 0. -1.
         21   -1    0    0  502  503 -0.00000000000E+00 -0.00000000000E+00 -0.11742093784E+03  0.11742093784E+03  0.00000000000E+00 0. -1.
         25    2    1    2    0    0  0.62261988816E+02  0.29479861582E+02  0.77003782224E+03  0.78315645686E+03  0.12502068127E+03 0.  0.
          5    1    3    3  501    0  0.91679837052E+02  0.51026347584E+02  0.52066954825E+03  0.53113620584E+03  0.10000000000E+00 0. -1.
         -5    1    3    3    0  501 -0.29417848236E+02 -0.21546486002E+02  0.24936827399E+03  0.25202025102E+03  0.10000000000E+00 0. -1.
         21    1    1    2  504  503 -0.62261988816E+02 -0.29479861582E+02 -0.10015995149E+03  0.12156328958E+03  0.00000000000E+00 0. -1.
<mgrwt>
<rscale>  1 0.14274379E+03</rscale>
<asrwt>0</asrwt>
<pdfrwt beam="1">  1       21 0.12112289E+00 0.14274379E+03</pdfrwt>
<pdfrwt beam="2">  1       21 0.18064760E-01 0.14274379E+03</pdfrwt>
<totfact> 0.14921543E+04</totfact>
</mgrwt>
</event>
<event>
 6    1  0.4202038E-002  0.1278477E+03  0.7546771E-02  0.1230685E+00
         21   -1    0    0  503  502  0.00000000000E+00  0.00000000000E+00  0.11627078633E+04  0.11627078633E+04  0.00000000000E+00 0.  1.
         21   -1    0    0  504  503 -0.00000000000E+00 -0.00000000000E+00 -0.57596681032E+02  0.57596681032E+02  0.00000000000E+00 0.  1.
         25    2    1    2    0    0  0.87824117133E+00  0.26811642715E+02  0.11558561439E+04  0.11629051835E+04  0.12500162051E+03 0.  0.
          5    1    3    3  501    0 -0.21775872209E+02 -0.42711687171E+01  0.35343024577E+02  0.41732132451E+02  0.10000000000E+00 0.  1.
         -5    1    3    3    0  501  0.22654113380E+02  0.31082811432E+02  0.11205131193E+04  0.11211730511E+04  0.10000000000E+00 0.  1.
         21    1    1    2  504  502 -0.87824117133E+00 -0.26811642715E+02 -0.50744961587E+02  0.57399360790E+02  0.00000000000E+00 0.  1.
<mgrwt>
<rscale>  1 0.12784772E+03</rscale>
<asrwt>0</asrwt>
<pdfrwt beam="1">  1       21 0.17887811E+00 0.12784772E+03</pdfrwt>
<pdfrwt beam="2">  1       21 0.88610287E-02 0.12784772E+03</pdfrwt>
<totfact> 0.19592803E+04</totfact>
</mgrwt>
</event>
<event>
 6    1  0.4202038E-002  0.1444681E+03  0.7546771E-02  0.1207440E+00
         21   -1    0    0  504  502  0.00000000000E+00  0.00000000000E+00  0.49771301028E+02  0.49771301028E+02  0.00000000000E+00 0.  1.
         21   -1    0    0  502  503 -0.00000000000E+00 -0.00000000000E+00 -0.11842102717E+04  0.11842102717E+04  0.00000000000E+00 0.  1.
         25    2    1    2    0    0 -0.39489575185E+02  0.60716361627E+02 -0.58911236161E+02  0.15601783919E+03  0.12500051713E+03 0.  0.
          5    1    3    3  501    0  0.45578839261E+02  0.25653816298E+02 -0.24836154706E+02  0.57899857163E+02  0.10000000000E+00 0.  1.
         -5    1    3    3    0  501 -0.85068414445E+02  0.35062545329E+02 -0.34075081455E+02  0.98117982028E+02  0.10000000000E+00 0.  1.
         21    1    1    2  504  503  0.39489575185E+02 -0.60716361627E+02 -0.10755277345E+04  0.10779637335E+04  0.00000000000E+00 0.  1.
<mgrwt>
<rscale>  1 0.14446810E+03</rscale>
<asrwt>0</asrwt>
<pdfrwt beam="1">  1       21 0.76571236E-02 0.14446810E+03</pdfrwt>
<pdfrwt beam="2">  1       21 0.18218619E+00 0.14446810E+03</pdfrwt>
<totfact> 0.23622905E+04</totfact>
</mgrwt>
</event>
<event>
 6    1  0.4202038E-002  0.1388197E+03  0.7546771E-02  0.1214926E+00
         21   -1    0    0  504  502  0.00000000000E+00  0.00000000000E+00  0.41726239562E+03  0.41726239562E+03  0.00000000000E+00 0.  1.
         21   -1    0    0  502  503 -0.00000000000E+00 -0.00000000000E+00 -0.39668384943E+02  0.39668384943E+02  0.00000000000E+00 0.  1.
         25    2    1    2    0    0 -0.50040462685E+02 -0.33817885202E+02  0.37106592611E+03  0.39618283284E+03  0.12499287279E+03 0.  0.
          5    1    3    3  501    0  0.15574849139E+02 -0.33613266467E+02  0.28777983029E+03  0.29015455939E+03  0.10000000000E+00 0.  1.
         -5    1    3    3    0  501 -0.65615311824E+02 -0.20461873467E+00  0.83286095817E+02  0.10602827345E+03  0.10000000000E+00 0.  1.
         21    1    1    2  504  503  0.50040462685E+02  0.33817885202E+02  0.65280845685E+01  0.60747947729E+02  0.00000000000E+00 0.  1.
<mgrwt>
<rscale>  1 0.13881972E+03</rscale>
<asrwt>0</asrwt>
<pdfrwt beam="1">  1       21 0.64194212E-01 0.13881972E+03</pdfrwt>
<pdfrwt beam="2">  1       21 0.61028287E-02 0.13881972E+03</pdfrwt>
<totfact> 0.43300021E+05</totfact>
</mgrwt>
</event>
<event>
 6    1  0.4202038E-002  0.1442072E+03  0.7546771E-02  0.1207777E+00
         21   -1    0    0  503  502  0.00000000000E+00  0.00000000000E+00  0.19841177226E+02  0.19841177226E+02  0.00000000000E+00 0.  1.
         21   -1    0    0  504  503 -0.00000000000E+00 -0.00000000000E+00 -0.68775675042E+03  0.68775675042E+03  0.00000000000E+00 0.  1.
         25    2    1    2    0    0 -0.46990500573E+02  0.54432208209E+02 -0.30174765607E+03  0.33443587710E+03  0.12499894206E+03 0.  0.
          5    1    3    3  501    0 -0.44802298417E+02 -0.31714757618E+02 -0.15274009861E+03  0.16230409581E+03  0.10000000000E+00 0. -1.
         -5    1    3    3    0  501 -0.21882021562E+01  0.86146965826E+02 -0.14900755746E+03  0.17213178129E+03  0.10000000000E+00 0. -1.
         21    1    1    2  504  502  0.46990500573E+02 -0.54432208209E+02 -0.36616791713E+03  0.37316205054E+03  0.00000000000E+00 0.  1.
<mgrwt>
<rscale>  1 0.14420717E+03</rscale>
<asrwt>0</asrwt>
<pdfrwt beam="1">  1       21 0.30524896E-02 0.14420717E+03</pdfrwt>
<pdfrwt beam="2">  1       21 0.10580870E+00 0.14420717E+03</pdfrwt>
<totfact> 0.44573242E+05</totfact>
</mgrwt>
</event>
<event>
 6    1  0.4202038E-002  0.1266616E+03  0.7546771E-02  0.1232495E+00
         21   -1    0    0  503  502  0.00000000000E+00  0.00000000000E+00  0.37098606061E+01  0.37098606061E+01  0.00000000000E+00 0. -1.
         21   -1    0    0  504  503 -0.00000000000E+00 -0.00000000000E+00 -0.16280716952E+04  0.16280716952E+04  0.00000000000E+00 0. -1.
         25    2    1    2    0    0  0.12965422338E+02  0.15800691448E+02 -0.11450526045E+04  0.11520367256E+04  0.12500154440E+03 0.  0.
          5    1    3    3  501    0 -0.47743660582E+02 -0.16563077087E+02 -0.30367166870E+03  0.30784782770E+03  0.10000000000E+00 0. -1.
         -5    1    3    3    0  501  0.60709082920E+02  0.32363768535E+02 -0.84138093577E+03  0.84418889790E+03  0.10000000000E+00 0. -1.
         21    1    1    2  504  502 -0.12965422338E+02 -0.15800691448E+02 -0.47930923014E+03  0.47974483022E+03  0.00000000000E+00 0. -1.
<mgrwt>
<rscale>  1 0.12666156E+03</rscale>
<asrwt>0</asrwt>
<pdfrwt beam="1">  1       21 0.57074821E-03 0.12666156E+03</pdfrwt>
<pdfrwt beam="2">  1       21 0.25047238E+00 0.12666156E+03</pdfrwt>
<totfact> 0.62111407E+05</totfact>
</mgrwt>
</event>
<event>
 6    1  0.4202038E-002  0.1901791E+03  0.7546771E-02  0.1158300E+00
         21   -1    0    0  503  502  0.00000000000E+00  0.00000000000E+00  0.40940723463E+03  0.40940723463E+03  0.00000000000E+00 0. -1.
         21   -1    0    0  504  503 -0.00000000000E+00 -0.00000000000E+00 -0.68481987587E+02  0.68481987587E+02  0.00000000000E+00 0. -1.
         25    2    1    2    0    0 -0.13999488424E+03 -0.30723624326E+02  0.21566610904E+03  0.28754122418E+03  0.12500230522E+03 0.  0.
          5    1    3    3  501    0 -0.40684798737E+02  0.35388197856E+02  0.18344672174E+02  0.56957127674E+02  0.10000000000E+00 0.  1.
         -5    1    3    3    0  501 -0.99310085499E+02 -0.66111822182E+02  0.19732143686E+03  0.23058409650E+03  0.10000000000E+00 0.  1.
         21    1    1    2  504  502  0.13999488424E+03  0.30723624326E+02  0.12525913800E+03  0.19034799804E+03  0.00000000000E+00 0. -1.
<mgrwt>
<rscale>  1 0.19017909E+03</rscale>
<asrwt>0</asrwt>
<pdfrwt beam="1">  1       21 0.62985727E-01 0.19017909E+03</pdfrwt>
<pdfrwt beam="2">  1       21 0.10535691E-01 0.19017909E+03</pdfrwt>
<totfact> 0.17279613E+05</totfact>
</mgrwt>
</event>
<event>
 6    1  0.4202038E-002  0.1408153E+03  0.7546771E-02  0.1212236E+00
         21   -1    0    0  504  502  0.00000000000E+00  0.00000000000E+00  0.16640859066E+03  0.16640859066E+03  0.00000000000E+00 0.  1.
         21   -1    0    0  502  503 -0.00000000000E+00 -0.00000000000E+00 -0.64304992204E+02  0.64304992204E+02  0.00000000000E+00 0.  1.
         25    2    1    2    0    0 -0.60107022197E+02  0.24286782270E+02  0.57927491514E+02  0.15226468016E+03  0.12500494647E+03 0.  0.
          5    1    3    3  501    0  0.20468127705E+02  0.36161837146E+02  0.57344726194E+02  0.70817020128E+02  0.10000000000E+00 0.  1.
         -5    1    3    3    0  501 -0.80575149902E+02 -0.11875054876E+02  0.58276532056E+00  0.81447660036E+02  0.10000000000E+00 0.  1.
         21    1    1    2  504  503  0.60107022197E+02 -0.24286782270E+02  0.44176106943E+02  0.78448902701E+02  0.00000000000E+00 0.  1.
<mgrwt>
<rscale>  1 0.14081526E+03</rscale>
<asrwt>0</asrwt>
<pdfrwt beam="1">  1       21 0.25601321E-01 0.14081526E+03</pdfrwt>
<pdfrwt beam="2">  1       21 0.98930758E-02 0.14081526E+03</pdfrwt>
<totfact> 0.11973502E+06</totfact>
</mgrwt>
</event>
<event>
 6    1  0.4202038E-002  0.1280883E+03  0.7546771E-02  0.1230320E+00
         21   -1    0    0  504  502  0.00000000000E+00  0.00000000000E+00  0.37518838613E+03  0.37518838613E+03  0.00000000000E+00 0. -1.
         21   -1    0    0  502  503 -0.00000000000E+00 -0.00000000000E+00 -0.43431456521E+02  0.43431456521E+02  0.00000000000E+00 0. -1.
         25    2    1    2    0    0  0.24995216463E+02 -0.12520756548E+02  0.35803188751E+03  0.38025444675E+03  0.12500032642E+03 0.  0.
          5    1    3    3  501    0  0.60778653556E+02 -0.42950103054E+02  0.15613038614E+03  0.17296087290E+03  0.10000000000E+00 0. -1.
         -5    1    3    3    0  501 -0.35783437093E+02  0.30429346506E+02  0.20190150138E+03  0.20729357384E+03  0.10000000000E+00 0. -1.
         21    1    1    2  504  503 -0.24995216463E+02  0.12520756548E+02 -0.26274957899E+02  0.38365395908E+02  0.00000000000E+00 0. -1.
<mgrwt>
<rscale>  1 0.12808830E+03</rscale>
<asrwt>0</asrwt>
<pdfrwt beam="1">  1       21 0.57721288E-01 0.12808830E+03</pdfrwt>
<pdfrwt beam="2">  1       21 0.66817628E-02 0.12808830E+03</pdfrwt>
<totfact> 0.46600306E+05</totfact>
</mgrwt>
</event>
<event>
 6    1  0.4202038E-002  0.1284726E+03  0.7546771E-02  0.1229740E+00
         21   -1    0    0  503  502  0.00000000000E+00  0.00000000000E+00  0.41551259611E+03  0.41551259611E+03  0.00000000000E+00 0. -1.
         21   -1    0    0  504  503 -0.00000000000E+00 -0.00000000000E+00 -0.22270972169E+02  0.22270972169E+02  0.00000000000E+00 0. -1.
         25    2    1    2    0    0  0.12829921709E+02  0.26749088016E+02  0.38659269367E+03  0.40738079086E+03  0.12500030945E+03 0.  0.
          5    1    3    3  501    0 -0.20373571809E+02 -0.74515683491E+01  0.42849633724E+01  0.22112874309E+02  0.10000000000E+00 0.  1.
         -5    1    3    3    0  501  0.33203493518E+02  0.34200656365E+02  0.38230773030E+03  0.38526791655E+03  0.10000000000E+00 0.  1.
         21    1    1    2  504  502 -0.12829921709E+02 -0.26749088016E+02  0.66489302630E+01  0.30402777412E+02  0.00000000000E+00 0. -1.
<mgrwt>
<rscale>  1 0.12847256E+03</rscale>
<asrwt>0</asrwt>
<pdfrwt beam="1">  1       21 0.63925009E-01 0.12847256E+03</pdfrwt>
<pdfrwt beam="2">  1       21 0.34263037E-02 0.12847256E+03</pdfrwt>
<totfact> 0.11487968E+06</totfact>
</mgrwt>
</event>
<event>
 6    1  0.4202038E-002  0.1382104E+03  0.7546771E-02  0.1215757E+00
         21   -1    0    0  503  502  0.00000000000E+00  0.00000000000E+00  0.40491179811E+03  0.40491179811E+03  0.00000000000E+00 0.  1.
         21   -1    0    0  504  503 -0.00000000000E+00 -0.00000000000E+00 -0.28766183971E+02  0.28766183971E+02  0.00000000000E+00 0.  1.
         25    2    1    2    0    0 -0.49560122697E+02 -0.31894817869E+02  0.33328090167E+03  0.36080227458E+03  0.12501454618E+03 0.  0.
          5    1    3    3  501    0 -0.54737423582E+02 -0.14884686431E+02  0.46165652066E+02  0.73136973284E+02  0.10000000000E+00 0.  1.
         -5    1    3    3    0  501  0.51773008842E+01 -0.17010131439E+02  0.28711524960E+03  0.28766530130E+03  0.10000000000E+00 0.  1.
         21    1    1    2  504  502  0.49560122697E+02  0.31894817869E+02  0.42864712475E+02  0.72875707504E+02  0.00000000000E+00 0.  1.
<mgrwt>
<rscale>  1 0.13821043E+03</rscale>
<asrwt>0</asrwt>
<pdfrwt beam="1">  1       21 0.62294118E-01 0.13821043E+03</pdfrwt>
<pdfrwt beam="2">  1       21 0.44255671E-02 0.13821043E+03</pdfrwt>
<totfact> 0.79397839E+05</totfact>
</mgrwt>
</event>
<event>
 6    1  0.4202038E-002  0.2172946E+03  0.7546771E-02  0.1135916E+00
         21   -1    0    0  503  502  0.00000000000E+00  0.00000000000E+00  0.47719046645E+03  0.47719046645E+03  0.00000000000E+00 0.  1.
         21   -1    0    0  504  503 -0.00000000000E+00 -0.00000000000E+00 -0.13858637399E+03  0.13858637399E+03  0.00000000000E+00 0.  1.
         25    2    1    2    0    0  0.17679773618E+03  0.18311915192E+02 -0.17274272130E+02  0.21798018870E+03  0.12499678569E+03 0.  0.
          5    1    3    3  501    0  0.99451787836E+02 -0.18959814286E+01  0.51961425162E+02  0.11222411752E+03  0.10000000000E+00 0. -1.
         -5    1    3    3    0  501  0.77345948344E+02  0.20207896621E+02 -0.69235697293E+02  0.10575607118E+03  0.10000000000E+00 0. -1.
         21    1    1    2  504  502 -0.17679773618E+03 -0.18311915192E+02  0.35587836459E+03  0.39779665174E+03  0.00000000000E+00 0.  1.
<mgrwt>
<rscale>  1 0.21729464E+03</rscale>
<asrwt>0</asrwt>
<pdfrwt beam="1">  1       21 0.73413917E-01 0.21729464E+03</pdfrwt>
<pdfrwt beam="2">  1       21 0.21320981E-01 0.21729464E+03</pdfrwt>
<totfact> 0.33700707E+04</totfact>
</mgrwt>
</event>
<event>
 6    1  0.4202038E-002  0.1259406E+03  0.7546771E-02  0.1233607E+00
         21   -1    0    0  503  502  0.00000000000E+00  0.00000000000E+00  0.72805739105E+02  0.72805739105E+02  0.00000000000E+00 0. -1.
         21   -1    0    0  504  503 -0.00000000000E+00 -0.00000000000E+00 -0.80400921901E+02  0.80400921901E+02  0.00000000000E+00 0. -1.
         25    2    1    2    0    0  0.17811737473E+01 -0.15246988756E+02  0.13994693767E+02  0.12671579435E+03  0.12500159134E+03 0.  0.
          5    1    3    3  501    0 -0.54702443451E+01  0.49049820468E+00  0.68911484286E+02  0.69130071808E+02  0.10000000000E+00 0.  1.
         -5    1    3    3    0  501  0.72514180924E+01 -0.15737486961E+02 -0.54916790518E+02  0.57585722545E+02  0.10000000000E+00 0.  1.
         21    1    1    2  504  502 -0.17811737473E+01  0.15246988756E+02 -0.21589876563E+02  0.26490866653E+02  0.00000000000E+00 0. -1.
<mgrwt>
<rscale>  1 0.12594063E+03</rscale>
<asrwt>0</asrwt>
<pdfrwt beam="1">  1       21 0.11200883E-01 0.12594063E+03</pdfrwt>
<pdfrwt beam="2">  1       21 0.12369373E-01 0.12594063E+03</pdfrwt>
<totfact> 0.36403734E+06</totfact>
</mgrwt>
</event>
<event>
 6    1  0.4202038E-002  0.1324098E+03  0.7546771E-02  0.1223923E+00
         21   -1    0    0  503  502  0.00000000000E+00  0.00000000000E+00  0.11600595552E+02  0.11600595552E+02  0.00000000000E+00 0. -1.
         21   -1    0    0  504  503 -0.00000000000E+00 -0.00000000000E+00 -0.78106240592E+03  0.78106240592E+03  0.00000000000E+00 0. -1.
         25    2    1    2    0    0  0.29284949186E+02  0.32391894283E+02 -0.41727548280E+03  0.43777984833E+03  0.12500209593E+03 0.  0.
          5    1    3    3  501    0  0.13572014346E+02  0.20976223291E+02 -0.55458097185E+01  0.25592333274E+02  0.10000000000E+00 0.  1.
         -5    1    3    3    0  501  0.15712934840E+02  0.11415670992E+02 -0.41172967309E+03  0.41218751505E+03  0.10000000000E+00 0.  1.
         21    1    1    2  504  502 -0.29284949186E+02 -0.32391894283E+02 -0.35218632757E+03  0.35488315315E+03  0.00000000000E+00 0. -1.
<mgrwt>
<rscale>  1 0.13240984E+03</rscale>
<asrwt>0</asrwt>
<pdfrwt beam="1">  1       21 0.17847066E-02 0.13240984E+03</pdfrwt>
<pdfrwt beam="2">  1       21 0.12016348E+00 0.13240984E+03</pdfrwt>
<totfact> 0.78678812E+05</totfact>
</mgrwt>
</event>
<event>
 6    1  0.4202038E-002  0.1287303E+03  0.7546771E-02  0.1229352E+00
         21   -1    0    0  504  502  0.00000000000E+00  0.00000000000E+00  0.64978953906E+02  0.64978953906E+02  0.00000000000E+00 0. -1.
         21   -1    0    0  502  503 -0.00000000000E+00 -0.00000000000E+00 -0.11402781338E+03  0.11402781338E+03  0.00000000000E+00 0. -1.
         25    2    1    2    0    0  0.21443953641E+02 -0.22127706053E+02 -0.97935201994E+01  0.12910225662E+03  0.12498800384E+03 0.  0.
          5    1    3    3  501    0 -0.19335426900E+02 -0.64911632502E+02  0.57895763042E+01  0.67977260619E+02  0.10000000000E+00 0.  1.
         -5    1    3    3    0  501  0.40779380541E+02  0.42783926449E+02 -0.15583096504E+02  0.61124996003E+02  0.10000000000E+00 0.  1.
         21    1    1    2  504  503 -0.21443953641E+02  0.22127706053E+02 -0.39255339277E+02  0.49904510665E+02  0.00000000000E+00 0. -1.
<mgrwt>
<rscale>  1 0.12873026E+03</rscale>
<asrwt>0</asrwt>
<pdfrwt beam="1">  1       21 0.99967624E-02 0.12873026E+03</pdfrwt>
<pdfrwt beam="2">  1       21 0.17542740E-01 0.12873026E+03</pdfrwt>
<totfact> 0.23719509E+06</totfact>
</mgrwt>
</event>
<event>
 6    1  0.4202038E-002  0.1304620E+03  0.7546771E-02  0.1226772E+00
         21   -1    0    0  503  502  0.00000000000E+00  0.00000000000E+00  0.15950245835E+03  0.15950245835E+03  0.00000000000E+00 0. -1.
         21   -1    0    0  504  503 -0.00000000000E+00 -0.00000000000E+00 -0.45566802322E+02  0.45566802322E+02  0.00000000000E+00 0. -1.
         25    2    1    2    0    0  0.24262129238E+02 -0.28384087889E+02  0.10282065192E+03  0.16610965753E+03  0.12500409795E+03 0.  0.
          5    1    3    3  501    0 -0.65521649833E+01  0.47094732807E+02  0.26501447448E+02  0.54435112207E+02  0.10000000000E+00 0.  1.
         -5    1    3    3    0  501  0.30814294221E+02 -0.75478820696E+02  0.76319204476E+02  0.11167454533E+03  0.10000000000E+00 0.  1.
         21    1    1    2  504  502 -0.24262129238E+02  0.28384087889E+02  0.11115004104E+02  0.38959603138E+02  0.00000000000E+00 0. -1.
<mgrwt>
<rscale>  1 0.13046199E+03</rscale>
<asrwt>0</asrwt>
<pdfrwt beam="1">  1       21 0.24538839E-01 0.13046199E+03</pdfrwt>
<pdfrwt beam="2">  1       21 0.70102774E-02 0.13046199E+03</pdfrwt>
<totfact> 0.23516005E+06</totfact>
</mgrwt>
</event>
<event>
 6    1  0.4202038E-002  0.1277517E+03  0.7546771E-02  0.1230830E+00
         21   -1    0    0  503  502  0.00000000000E+00  0.00000000000E+00  0.24353584815E+03  0.24353584815E+03  0.00000000000E+00 0. -1.
         21   -1    0    0  504  503 -0.00000000000E+00 -0.00000000000E+00 -0.24660986331E+02  0.24660986331E+02  0.00000000000E+00 0. -1.
         25    2    1    2    0    0  0.60149422371E+01 -0.25712780551E+02  0.19113205865E+03  0.22989553240E+03  0.12499266121E+03 0.  0.
          5    1    3    3  501    0 -0.70716733296E+01  0.43273606429E+02  0.12860381717E+03  0.13587334311E+03  0.10000000000E+00 0. -1.
         -5    1    3    3    0  501  0.13086615567E+02 -0.68986386980E+02  0.62528241485E+02  0.94022189289E+02  0.10000000000E+00 0. -1.
         21    1    1    2  504  502 -0.60149422371E+01  0.25712780551E+02  0.27742803163E+02  0.38301302081E+02  0.00000000000E+00 0. -1.
<mgrwt>
<rscale>  1 0.12775168E+03</rscale>
<asrwt>0</asrwt>
<pdfrwt beam="1">  1       21 0.37467052E-01 0.12775168E+03</pdfrwt>
<pdfrwt beam="2">  1       21 0.37939981E-02 0.12775168E+03</pdfrwt>
<totfact> 0.29151931E+06</totfact>
</mgrwt>
</event>
<event>
 6    1  0.4202038E-002  0.1365005E+03  0.7546771E-02  0.1218117E+00
         21   -1    0    0  503  502  0.00000000000E+00  0.00000000000E+00  0.22016019089E+02  0.22016019089E+02  0.00000000000E+00 0. -1.
         21   -1    0    0  504  503 -0.00000000000E+00 -0.00000000000E+00 -0.80700727190E+03  0.80700727190E+03  0.00000000000E+00 0. -1.
         25    2    1    2    0    0  0.29696049024E+02 -0.46296843437E+02 -0.20412873398E+03  0.24556247926E+03  0.12492853215E+03 0.  0.
          5    1    3    3  501    0 -0.34264284405E+02 -0.57421254269E+02 -0.13544984306E+03  0.15105598834E+03  0.10000000000E+00 0.  1.
         -5    1    3    3    0  501  0.63960333429E+02  0.11124410832E+02 -0.68678890923E+02  0.94506490926E+02  0.10000000000E+00 0.  1.
         21    1    1    2  504  502 -0.29696049024E+02  0.46296843437E+02 -0.58086251883E+03  0.58346081172E+03  0.00000000000E+00 0. -1.
<mgrwt>
<rscale>  1 0.13650052E+03</rscale>
<asrwt>0</asrwt>
<pdfrwt beam="1">  1       21 0.33870800E-02 0.13650052E+03</pdfrwt>
<pdfrwt beam="2">  1       21 0.12415496E+00 0.13650052E+03</pdfrwt>
<totfact> 0.25553211E+05</totfact>
</mgrwt>
</event>
<event>
 6    1  0.4202038E-002  0.1282442E+03  0.7546771E-02  0.1230085E+00
         21   -1    0    0  504  502  0.00000000000E+00  0.00000000000E+00  0.32157827602E+02  0.32157827602E+02  0.00000000000E+00 0.  1.
         21   -1    0    0  502  503 -0.00000000000E+00 -0.00000000000E+00 -0.26167458956E+03  0.26167458956E+03  0.00000000000E+00 0.  1.
         25    2    1    2    0    0 -0.14686417140E+02  0.24612152827E+02 -0.10408363572E+03  0.16516650065E+03  0.12500048318E+03 0.  0.
          5    1    3    3  501    0  0.33690576980E+02 -0.19702635638E+02 -0.89954288991E+02  0.98056274334E+02  0.10000000000E+00 0.  1.
         -5    1    3    3    0  501 -0.48376994120E+02  0.44314788465E+02 -0.14129346729E+02  0.67110226313E+02  0.10000000000E+00 0.  1.
         21    1    1    2  504  503  0.14686417140E+02 -0.24612152827E+02 -0.12543312624E+03  0.12866591652E+03  0.00000000000E+00 0.  1.
<mgrwt>
<rscale>  1 0.12824418E+03</rscale>
<asrwt>0</asrwt>
<pdfrwt beam="1">  1       21 0.49473580E-02 0.12824418E+03</pdfrwt>
<pdfrwt beam="2">  1       21 0.40257630E-01 0.12824418E+03</pdfrwt>
<totfact> 0.16233346E+06</totfact>
</mgrwt>
</event>
<event>
 6    1  0.4202038E-002  0.1376986E+03  0.7546771E-02  0.1216460E+00
         21   -1    0    0  503  502  0.00000000000E+00  0.00000000000E+00  0.11362295375E+03  0.11362295375E+03  0.00000000000E+00 0.  1.
         21   -1    0    0  504  503 -0.00000000000E+00 -0.00000000000E+00 -0.85022256032E+02  0.85022256032E+02  0.00000000000E+00 0.  1.
         25    2    1    2    0    0  0.57630684742E+02 -0.43842277077E+01  0.29579196653E+02  0.14083971925E+03  0.12498152010E+03 0.  0.
          5    1    3    3  501    0  0.95703218334E+02 -0.54570580916E+01  0.35645874209E+02  0.10227181347E+03  0.10000000000E+00 0. -1.
         -5    1    3    3    0  501 -0.38072533593E+02  0.10728303839E+01 -0.60666775560E+01  0.38567905774E+02  0.10000000000E+00 0. -1.
         21    1    1    2  504  502 -0.57630684742E+02  0.43842277077E+01 -0.97849893229E+00  0.57805490540E+02  0.00000000000E+00 0.  1.
<mgrwt>
<rscale>  1 0.13769858E+03</rscale>
<asrwt>0</asrwt>
<pdfrwt beam="1">  1       21 0.17480455E-01 0.13769858E+03</pdfrwt>
<pdfrwt beam="2">  1       21 0.13080347E-01 0.13769858E+03</pdfrwt>
<totfact> 0.14869702E+06</totfact>
</mgrwt>
</event>
<event>
 6    1  0.4202038E-002  0.1498546E+03  0.7546771E-02  0.1200652E+00
         21   -1    0    0  503  502  0.00000000000E+00  0.00000000000E+00  0.51048457021E+02  0.51048457021E+02  0.00000000000E+00 0.  1.
         21   -1    0    0  504  503 -0.00000000000E+00 -0.00000000000E+00 -0.58999815291E+03  0.58999815291E+03  0.00000000000E+00 0.  1.
         25    2    1    2    0    0 -0.13827467021E+01  0.82635025334E+02 -0.70943755823E+02  0.16579928554E+03  0.12500370873E+03 0.  0.
          5    1    3    3  501    0 -0.50349789185E+02  0.14213652325E+02  0.48688574034E+01  0.52543743260E+02  0.10000000000E+00 0. -1.
         -5    1    3    3    0  501  0.48967042483E+02  0.68421373009E+02 -0.75812613227E+02  0.11325554228E+03  0.10000000000E+00 0. -1.
         21    1    1    2  504  502  0.13827467021E+01 -0.82635025334E+02 -0.46800594007E+03  0.47524732439E+03  0.00000000000E+00 0.  1.
<mgrwt>
<rscale>  1 0.14985455E+03</rscale>
<asrwt>0</asrwt>
<pdfrwt beam="1">  1       21 0.78536086E-02 0.14985455E+03</pdfrwt>
<pdfrwt beam="2">  1       21 0.90768948E-01 0.14985455E+03</pdfrwt>
<totfact> 0.12972135E+05</totfact>
</mgrwt>
</event>
<event>
 6    1  0.4202038E-002  0.1520606E+03  0.7546771E-02  0.1197964E+00
         21   -1    0    0  503  502  0.00000000000E+00  0.00000000000E+00  0.19028629491E+02  0.19028629491E+02  0.00000000000E+00 0. -1.
         21   -1    0    0  504  503 -0.00000000000E+00 -0.00000000000E+00 -0.13537953185E+04  0.13537953185E+04  0.00000000000E+00 0. -1.
         25    2    1    2    0    0 -0.86407753932E+02  0.54703310772E+01 -0.31915486618E+03  0.35352830926E+03  0.12500484943E+03 0.  0.
          5    1    3    3  501    0 -0.23423924505E+02 -0.54531310779E+02 -0.17889537204E+03  0.18848317758E+03  0.10000000000E+00 0.  1.
         -5    1    3    3    0  501 -0.62983829427E+02  0.60001641856E+02 -0.14025949414E+03  0.16504513168E+03  0.10000000000E+00 0.  1.
         21    1    1    2  504  502  0.86407753932E+02 -0.54703310772E+01 -0.10156118229E+04  0.10192956388E+04  0.00000000000E+00 0. -1.
<mgrwt>
<rscale>  1 0.15206064E+03</rscale>
<asrwt>0</asrwt>
<pdfrwt beam="1">  1       21 0.29274824E-02 0.15206064E+03</pdfrwt>
<pdfrwt beam="2">  1       21 0.20827614E+00 0.15206064E+03</pdfrwt>
<totfact> 0.80478669E+04</totfact>
</mgrwt>
</event>
<event>
 6    1  0.4202038E-002  0.1289774E+03  0.7546771E-02  0.1228981E+00
         21   -1    0    0  503  502  0.00000000000E+00  0.00000000000E+00  0.79693297168E+02  0.79693297168E+02  0.00000000000E+00 0. -1.
         21   -1    0    0  504  503 -0.00000000000E+00 -0.00000000000E+00 -0.33009289559E+03  0.33009289559E+03  0.00000000000E+00 0. -1.
         25    2    1    2    0    0  0.66187720446E+01  0.31053618912E+02  0.25997454634E+02  0.13157140823E+03  0.12500812944E+03 0.  0.
          5    1    3    3  501    0 -0.48287107429E+02 -0.13398060195E+02 -0.11755779153E+02  0.51471944828E+02  0.10000000000E+00 0. -1.
         -5    1    3    3    0  501  0.54905879474E+02  0.44451679106E+02  0.37753233788E+02  0.80099463404E+02  0.10000000000E+00 0. -1.
         21    1    1    2  504  502 -0.66187720446E+01 -0.31053618912E+02 -0.27639705306E+03  0.27821478453E+03  0.00000000000E+00 0. -1.
<mgrwt>
<rscale>  1 0.12897739E+03</rscale>
<asrwt>0</asrwt>
<pdfrwt beam="1">  1       21 0.12260507E-01 0.12897739E+03</pdfrwt>
<pdfrwt beam="2">  1       21 0.50783522E-01 0.12897739E+03</pdfrwt>
<totfact> 0.21191975E+05</totfact>
</mgrwt>
</event>
<event>
 6    1  0.4202038E-002  0.1281726E+03  0.7546771E-02  0.1230193E+00
         21   -1    0    0  504  502  0.00000000000E+00  0.00000000000E+00  0.32540664216E+03  0.32540664216E+03  0.00000000000E+00 0. -1.
         21   -1    0    0  502  503 -0.00000000000E+00 -0.00000000000E+00 -0.22946085270E+02  0.22946085270E+02  0.00000000000E+00 0. -1.
         25    2    1    2    0    0  0.56137391668E+01 -0.27806000012E+02  0.29059108808E+03  0.31760257306E+03  0.12499410482E+03 0.  0.
          5    1    3    3  501    0  0.68389249792E+01  0.11835779740E+02  0.27443836200E+03  0.27477860381E+03  0.10000000000E+00 0.  1.
         -5    1    3    3    0  501 -0.12251858124E+01 -0.39641779752E+02  0.16152726081E+02  0.42823969247E+02  0.10000000000E+00 0.  1.
         21    1    1    2  504  503 -0.56137391668E+01  0.27806000012E+02  0.11869468813E+02  0.30750154373E+02  0.00000000000E+00 0. -1.
<mgrwt>
<rscale>  1 0.12817259E+03</rscale>
<asrwt>0</asrwt>
<pdfrwt beam="1">  1       21 0.50062557E-01 0.12817259E+03</pdfrwt>
<pdfrwt beam="2">  1       21 0.35301672E-02 0.12817259E+03</pdfrwt>
<totfact> 0.18285430E+06</totfact>
</mgrwt>
</event>
<event>
 6    1  0.4202038E-002  0.1288707E+03  0.7546771E-02  0.1229141E+00
         21   -1    0    0  503  502  0.00000000000E+00  0.00000000000E+00  0.30802830265E+03  0.30802830265E+03  0.00000000000E+00 0.  1.
         21   -1    0    0  504  503 -0.00000000000E+00 -0.00000000000E+00 -0.81370348032E+02  0.81370348032E+02  0.00000000000E+00 0. -1.
         25    2    1    2    0    0 -0.28595163496E+02 -0.12840796412E+02  0.29076195747E+03  0.31804115206E+03  0.12500035627E+03 0.  0.
          5    1    3    3  501    0  0.34245398629E+02  0.29366958923E+02  0.59265662656E+02  0.74482174872E+02  0.10000000000E+00 0.  1.
         -5    1    3    3    0  501 -0.62840562125E+02 -0.42207755335E+02  0.23149629481E+03  0.24355897719E+03  0.10000000000E+00 0.  1.
         21    1    1    2  504  502  0.28595163496E+02  0.12840796412E+02 -0.64104002849E+02  0.71357498619E+02  0.00000000000E+00 0. -1.
<mgrwt>
<rscale>  1 0.12887070E+03</rscale>
<asrwt>0</asrwt>
<pdfrwt beam="1">  1       21 0.47388969E-01 0.12887070E+03</pdfrwt>
<pdfrwt beam="2">  1       21 0.12518515E-01 0.12887070E+03</pdfrwt>
<totfact> 0.23546981E+05</totfact>
</mgrwt>
</event>
<event>
 6    1  0.4202038E-002  0.1299636E+03  0.7546771E-02  0.1227510E+00
         21   -1    0    0  503  502  0.00000000000E+00  0.00000000000E+00  0.28705083120E+02  0.28705083120E+02  0.00000000000E+00 0. -1.
         21   -1    0    0  504  503 -0.00000000000E+00 -0.00000000000E+00 -0.28796929044E+03  0.28796929044E+03  0.00000000000E+00 0. -1.
         25    2    1    2    0    0  0.34405438898E+02 -0.90489318932E+01 -0.13488967261E+03  0.18731192816E+03  0.12499966905E+03 0.  0.
          5    1    3    3  501    0 -0.34259998877E+02  0.34323277367E+02 -0.44862497711E+02  0.66064276225E+02  0.10000000000E+00 0.  1.
         -5    1    3    3    0  501  0.68665437775E+02 -0.43372209260E+02 -0.90027174897E+02  0.12124765194E+03  0.10000000000E+00 0.  1.
         21    1    1    2  504  502 -0.34405438898E+02  0.90489318932E+01 -0.12437453471E+03  0.12936244539E+03  0.00000000000E+00 0. -1.
<mgrwt>
<rscale>  1 0.12996359E+03</rscale>
<asrwt>0</asrwt>
<pdfrwt beam="1">  1       21 0.44161665E-02 0.12996359E+03</pdfrwt>
<pdfrwt beam="2">  1       21 0.44302969E-01 0.12996359E+03</pdfrwt>
<totfact> 0.16193310E+06</totfact>
</mgrwt>
</event>
<event>
 6    1  0.4202038E-002  0.1266085E+03  0.7546771E-02  0.1232577E+00
         21   -1    0    0  503  502  0.00000000000E+00  0.00000000000E+00  0.21425414662E+02  0.21425414662E+02  0.00000000000E+00 0.  1.
         21   -1    0    0  504  503 -0.00000000000E+00 -0.00000000000E+00 -0.29698711201E+03  0.29698711201E+03  0.00000000000E+00 0.  1.
         25    2    1    2    0    0  0.17321004836E+02  0.10336642435E+02 -0.17588059518E+03  0.21671107380E+03  0.12499136916E+03 0.  0.
          5    1    3    3  501    0 -0.83938119711E+01  0.32870087554E+02 -0.17917816511E+03  0.18236151893E+03  0.10000000000E+00 0. -1.
         -5    1    3    3    0  501  0.25714816807E+02 -0.22533445119E+02  0.32975699342E+01  0.34349554871E+02  0.10000000000E+00 0. -1.
         21    1    1    2  504  502 -0.17321004836E+02 -0.10336642435E+02 -0.99681102173E+02  0.10170145287E+03  0.00000000000E+00 0.  1.
<mgrwt>
<rscale>  1 0.12660847E+03</rscale>
<asrwt>0</asrwt>
<pdfrwt beam="1">  1       21 0.32962181E-02 0.12660847E+03</pdfrwt>
<pdfrwt beam="2">  1       21 0.45690319E-01 0.12660847E+03</pdfrwt>
<totfact> 0.24682509E+06</totfact>
</mgrwt>
</event>
<event>
 6    1  0.4202038E-002  0.1270918E+03  0.7546771E-02  0.1231836E+00
         21   -1    0    0  503  502  0.00000000000E+00  0.00000000000E+00  0.30679715137E+03  0.30679715137E+03  0.00000000000E+00 0.  1.
         21   -1    0    0  504  503 -0.00000000000E+00 -0.00000000000E+00 -0.54735487423E+02  0.54735487423E+02  0.00000000000E+00 0.  1.
         25    2    1    2    0    0  0.13650774039E+02  0.18455420038E+02  0.29031797263E+03  0.31691771623E+03  0.12500146987E+03 0.  0.
          5    1    3    3  501    0  0.42236770447E+02  0.61579269929E+02  0.18732897791E+03  0.20166335122E+03  0.10000000000E+00 0.  1.
         -5    1    3    3    0  501 -0.28585996408E+02 -0.43123849891E+02  0.10298899472E+03  0.11525436501E+03  0.10000000000E+00 0.  1.
         21    1    1    2  504  502 -0.13650774039E+02 -0.18455420038E+02 -0.38256308685E+02  0.44614922558E+02  0.00000000000E+00 0.  1.
<mgrwt>
<rscale>  1 0.12709175E+03</rscale>
<asrwt>0</asrwt>
<pdfrwt beam="1">  1       21 0.47199561E-01 0.12709175E+03</pdfrwt>
<pdfrwt beam="2">  1       21 0.84208444E-02 0.12709175E+03</pdfrwt>
<totfact> 0.47573540E+05</totfact>
</mgrwt>
</event>
<event>
 6    1  0.4202038E-002  0.1419783E+03  0.7546771E-02  0.1210692E+00
         21   -1    0    0  504  502  0.00000000000E+00  0.00000000000E+00  0.88530728848E+02  0.88530728848E+02  0.00000000000E+00 0.  1.
         21   -1    0    0  502  503 -0.00000000000E+00 -0.00000000000E+00 -0.28417001210E+03  0.28417001210E+03  0.00000000000E+00 0. -1.
         25    2    1    2    0    0  0.66672156064E+02 -0.95036048499E+01  0.23085322602E+02  0.14384281973E+03  0.12498931862E+03 0.  0.
          5    1    3    3  501    0  0.57142128325E+02  0.17992308997E+02  0.67810763593E+02  0.90483455237E+02  0.10000000000E+00 0.  1.
         -5    1    3    3    0  501  0.95300277391E+01 -0.27495913847E+02 -0.44725440991E+02  0.53359364490E+02  0.10000000000E+00 0.  1.
         21    1    1    2  504  503 -0.66672156064E+02  0.95036048499E+01 -0.21872460585E+03  0.22885792122E+03  0.00000000000E+00 0. -1.
<mgrwt>
<rscale>  1 0.14197825E+03</rscale>
<asrwt>0</asrwt>
<pdfrwt beam="1">  1       21 0.13620112E-01 0.14197825E+03</pdfrwt>
<pdfrwt beam="2">  1       21 0.43718464E-01 0.14197825E+03</pdfrwt>
<totfact> 0.23799941E+05</totfact>
</mgrwt>
</event>
<event>
 6    1  0.4202038E-002  0.1267428E+03  0.7546771E-02  0.1232370E+00
         21   -1    0    0  503  502  0.00000000000E+00  0.00000000000E+00  0.75417921357E+02  0.75417921357E+02  0.00000000000E+00 0.  1.
         21   -1    0    0  504  503 -0.00000000000E+00 -0.00000000000E+00 -0.72990749240E+02  0.72990749240E+02  0.00000000000E+00 0.  1.
         25    2    1    2    0    0 -0.10509768365E+02  0.18108516625E+02 -0.30037976376E+01  0.12677839002E+03  0.12500145507E+03 0.  0.
          5    1    3    3  501    0 -0.15282156650E+00  0.70204893573E+02  0.12797215446E+02  0.71361958768E+02  0.10000000000E+00 0. -1.
         -5    1    3    3    0  501 -0.10356946799E+02 -0.52096376948E+02 -0.15801013083E+02  0.55416431251E+02  0.10000000000E+00 0. -1.
         21    1    1    2  504  502  0.10509768365E+02 -0.18108516625E+02  0.54309697539E+01  0.21630280578E+02  0.00000000000E+00 0. -1.
<mgrwt>
<rscale>  1 0.12674280E+03</rscale>
<asrwt>0</asrwt>
<pdfrwt beam="1">  1       21 0.11602757E-01 0.12674280E+03</pdfrwt>
<pdfrwt beam="2">  1       21 0.11229346E-01 0.12674280E+03</pdfrwt>
<totfact> 0.40599574E+06</totfact>
</mgrwt>
</event>
<event>
 6    1  0.4202038E-002  0.1491254E+03  0.7546771E-02  0.1201552E+00
         21   -1    0    0  503  502  0.00000000000E+00  0.00000000000E+00  0.16447527345E+04  0.16447527345E+04  0.00000000000E+00 0.  1.
         21   -1    0    0  504  503 -0.00000000000E+00 -0.00000000000E+00 -0.41943500447E+02  0.41943500447E+02  0.00000000000E+00 0.  1.
         25    2    1    2    0    0  0.26041593271E+02 -0.77035144763E+02  0.15983124749E+04  0.16052542375E+04  0.12500328555E+03 0.  0.
          5    1    3    3  501    0  0.31120630824E+02  0.22702017201E+02  0.22150377608E+03  0.22482839693E+03  0.10000000000E+00 0.  1.
         -5    1    3    3    0  501 -0.50790375530E+01 -0.99737161964E+02  0.13768086988E+04  0.13804258406E+04  0.10000000000E+00 0.  1.
         21    1    1    2  504  502 -0.26041593271E+02  0.77035144763E+02  0.44967591486E+01  0.81441997469E+02  0.00000000000E+00 0.  1.
<mgrwt>
<rscale>  1 0.14912545E+03</rscale>
<asrwt>0</asrwt>
<pdfrwt beam="1">  1       21 0.25303883E+00 0.14912545E+03</pdfrwt>
<pdfrwt beam="2">  1       21 0.64528475E-02 0.14912545E+03</pdfrwt>
<totfact> 0.11618961E+04</totfact>
</mgrwt>
</event>
<event>
 6    1  0.4202038E-002  0.1453704E+03  0.7546771E-02  0.1206280E+00
         21   -1    0    0  503  502  0.00000000000E+00  0.00000000000E+00  0.18984606462E+04  0.18984606462E+04  0.00000000000E+00 0. -1.
         21   -1    0    0  504  503 -0.00000000000E+00 -0.00000000000E+00 -0.91999617303E+01  0.91999617303E+01  0.00000000000E+00 0. -1.
         25    2    1    2    0    0  0.64342284131E+02 -0.36914478093E+02  0.16674493444E+04  0.16737741423E+04  0.12501981875E+03 0.  0.
          5    1    3    3  501    0  0.69095138570E+02 -0.74306523928E+02  0.14013204175E+04  0.14049891531E+04  0.10000000000E+00 0. -1.
         -5    1    3    3    0  501 -0.47528544387E+01  0.37392045835E+02  0.26612892685E+03  0.26878498921E+03  0.10000000000E+00 0. -1.
         21    1    1    2  504  502 -0.64342284131E+02  0.36914478093E+02  0.22181134006E+03  0.23388646562E+03  0.00000000000E+00 0. -1.
<mgrwt>
<rscale>  1 0.14537043E+03</rscale>
<asrwt>0</asrwt>
<pdfrwt beam="1">  1       21 0.29207056E+00 0.14537043E+03</pdfrwt>
<pdfrwt beam="2">  1       21 0.14153802E-02 0.14537043E+03</pdfrwt>
<totfact> 0.85180026E+04</totfact>
</mgrwt>
</event>
<event>
 6    1  0.4202038E-002  0.1271828E+03  0.7546771E-02  0.1231697E+00
         21   -1    0    0  504  502  0.00000000000E+00  0.00000000000E+00  0.13430927680E+03  0.13430927680E+03  0.00000000000E+00 0.  1.
         21   -1    0    0  502  503 -0.00000000000E+00 -0.00000000000E+00 -0.48927691553E+02  0.48927691553E+02  0.00000000000E+00 0.  1.
         25    2    1    2    0    0 -0.23465979334E+02  0.41686405159E+00  0.94090068545E+02  0.15820371760E+03  0.12499859720E+03 0.  0.
          5    1    3    3  501    0  0.17771163522E+02 -0.47337810161E+02  0.75797438450E+01  0.51128710530E+02  0.10000000000E+00 0.  1.
         -5    1    3    3    0  501 -0.41237142857E+02  0.47754674212E+02  0.86510324700E+02  0.10707500707E+03  0.10000000000E+00 0.  1.
         21    1    1    2  504  503  0.23465979334E+02 -0.41686405159E+00 -0.87084832983E+01  0.25033250750E+02  0.00000000000E+00 0.  1.
<mgrwt>
<rscale>  1 0.12718284E+03</rscale>
<asrwt>0</asrwt>
<pdfrwt beam="1">  1       21 0.20662965E-01 0.12718284E+03</pdfrwt>
<pdfrwt beam="2">  1       21 0.75273372E-02 0.12718284E+03</pdfrwt>
<totfact> 0.28682574E+06</totfact>
</mgrwt>
</event>
<event>
 6    1  0.4202038E-002  0.1262521E+03  0.7546771E-02  0.1233125E+00
         21   -1    0    0  503  502  0.00000000000E+00  0.00000000000E+00  0.25409480012E+03  0.25409480012E+03  0.00000000000E+00 0.  1.
         21   -1    0    0  504  503 -0.00000000000E+00 -0.00000000000E+00 -0.31633050848E+02  0.31633050848E+02  0.00000000000E+00 0.  1.
         25    2    1    2    0    0 -0.17725302857E+02 -0.50739971370E-01  0.23307161153E+03  0.26506972634E+03  0.12500157911E+03 0.  0.
          5    1    3    3  501    0  0.98488139683E+00  0.59445044517E+02  0.14873157793E+03  0.16017420386E+03  0.10000000000E+00 0.  1.
         -5    1    3    3    0  501 -0.18710184253E+02 -0.59495784489E+02  0.84340033603E+02  0.10489552247E+03  0.10000000000E+00 0.  1.
         21    1    1    2  504  502  0.17725302857E+02  0.50739971370E-01 -0.10609862266E+02  0.20658124630E+02  0.00000000000E+00 0.  1.
<mgrwt>
<rscale>  1 0.12625206E+03</rscale>
<asrwt>0</asrwt>
<pdfrwt beam="1">  1       21 0.39091506E-01 0.12625206E+03</pdfrwt>
<pdfrwt beam="2">  1       21 0.48666234E-02 0.12625206E+03</pdfrwt>
<totfact> 0.17690058E+06</totfact>
</mgrwt>
</event>
<event>
 6    1  0.4202038E-002  0.1264651E+03  0.7546771E-02  0.1232797E+00
         21   -1    0    0  504  502  0.00000000000E+00  0.00000000000E+00  0.21203461712E+03  0.21203461712E+03  0.00000000000E+00 0. -1.
         21   -1    0    0  502  503 -0.00000000000E+00 -0.00000000000E+00 -0.31254183319E+02  0.31254183319E+02  0.00000000000E+00 0. -1.
         25    2    1    2    0    0  0.54823302744E+01 -0.18372810475E+02  0.18457467386E+03  0.22374366376E+03  0.12500320289E+03 0.  0.
          5    1    3    3  501    0  0.81451510970E+01  0.53575671309E+02  0.72009598159E+02  0.90122629065E+02  0.10000000000E+00 0. -1.
         -5    1    3    3    0  501 -0.26628208225E+01 -0.71948481785E+02  0.11256507570E+03  0.13362103469E+03  0.10000000000E+00 0. -1.
         21    1    1    2  504  503 -0.54823302744E+01  0.18372810475E+02 -0.37942400608E+01  0.19545136675E+02  0.00000000000E+00 0.  1.
<mgrwt>
<rscale>  1 0.12646508E+03</rscale>
<asrwt>0</asrwt>
<pdfrwt beam="1">  1       21 0.32620709E-01 0.12646508E+03</pdfrwt>
<pdfrwt beam="2">  1       21 0.48083360E-02 0.12646508E+03</pdfrwt>
<totfact> 0.25775586E+06</totfact>
</mgrwt>
</event>
<event>
 6    1  0.4202038E-002  0.1496095E+03  0.7546771E-02  0.1200954E+00
         21   -1    0    0  504  502  0.00000000000E+00  0.00000000000E+00  0.23435965729E+03  0.23435965729E+03  0.00000000000E+00 0. -1.
         21   -1    0    0  502  503 -0.00000000000E+00 -0.00000000000E+00 -0.15775119718E+04  0.15775119718E+04  0.00000000000E+00 0. -1.
         25    2    1    2    0    0  0.32482639652E+02 -0.75518765277E+02  0.20928400538E+03  0.25726018790E+03  0.12499921433E+03 0.  0.
          5    1    3    3  501    0  0.60273986105E+02 -0.75891906066E+02  0.20796088112E+03  0.22943468108E+03  0.10000000000E+00 0. -1.
         -5    1    3    3    0  501 -0.27791346453E+02  0.37314078879E+00  0.13231242590E+01  0.27825506815E+02  0.10000000000E+00 0. -1.
         21    1    1    2  504  503 -0.32482639652E+02  0.75518765277E+02 -0.15524363199E+04  0.15546114412E+04  0.00000000000E+00 0. -1.
<mgrwt>
<rscale>  1 0.14960952E+03</rscale>
<asrwt>0</asrwt>
<pdfrwt beam="1">  1       21 0.36055332E-01 0.14960952E+03</pdfrwt>
<pdfrwt beam="2">  1       21 0.24269415E+00 0.14960952E+03</pdfrwt>
<totfact> 0.57959073E+02</totfact>
</mgrwt>
</event>
<event>
 6    1  0.4202038E-002  0.1518467E+03  0.7546771E-02  0.1198222E+00
         21   -1    0    0  504  502  0.00000000000E+00  0.00000000000E+00  0.62192302194E+03  0.62192302194E+03  0.00000000000E+00 0. -1.
         21   -1    0    0  502  503 -0.00000000000E+00 -0.00000000000E+00 -0.65437045536E+02  0.65437045536E+02  0.00000000000E+00 0. -1.
         25    2    1    2    0    0 -0.63016778348E+02 -0.58827449526E+02  0.57873785761E+03  0.59832676254E+03  0.12500249502E+03 0.  0.
          5    1    3    3  501    0 -0.73259625681E+01  0.12102878537E+02  0.16597354078E+01  0.14244792665E+02  0.10000000000E+00 0. -1.
         -5    1    3    3    0  501 -0.55690815779E+02 -0.70930328063E+02  0.57707812220E+03  0.58408196987E+03  0.10000000000E+00 0. -1.
         21    1    1    2  504  503  0.63016778348E+02  0.58827449526E+02 -0.22251881210E+02  0.89033304939E+02  0.00000000000E+00 0. -1.
<mgrwt>
<rscale>  1 0.15184666E+03</rscale>
<asrwt>0</asrwt>
<pdfrwt beam="1">  1       21 0.95680461E-01 0.15184666E+03</pdfrwt>
<pdfrwt beam="2">  1       21 0.10067238E-01 0.15184666E+03</pdfrwt>
<totfact> 0.74434984E+04</totfact>
</mgrwt>
</event>
<event>
 6    1  0.4202038E-002  0.1386801E+03  0.7546771E-02  0.1215116E+00
         21   -1    0    0  504  502  0.00000000000E+00  0.00000000000E+00  0.43604790257E+02  0.43604790257E+02  0.00000000000E+00 0.  1.
         21   -1    0    0  502  503 -0.00000000000E+00 -0.00000000000E+00 -0.80686255249E+03  0.80686255249E+03  0.00000000000E+00 0.  1.
         25    2    1    2    0    0 -0.52333815570E+02  0.29472839461E+02 -0.71351367141E+02  0.15595892949E+03  0.12499877430E+03 0.  0.
          5    1    3    3  501    0  0.11245312730E+01 -0.37477905066E+02  0.89348526513E+01  0.38544773065E+02  0.10000000000E+00 0.  1.
         -5    1    3    3    0  501 -0.53458346843E+02  0.66950744527E+02 -0.80286219792E+02  0.11741415642E+03  0.10000000000E+00 0.  1.
         21    1    1    2  504  503  0.52333815570E+02 -0.29472839461E+02 -0.69190639509E+03  0.69450841326E+03  0.00000000000E+00 0.  1.
<mgrwt>
<rscale>  1 0.13868010E+03</rscale>
<asrwt>0</asrwt>
<pdfrwt beam="1">  1       21 0.67084298E-02 0.13868010E+03</pdfrwt>
<pdfrwt beam="2">  1       21 0.12413269E+00 0.13868010E+03</pdfrwt>
<totfact> 0.81098294E+04</totfact>
</mgrwt>
</event>
<event>
 6    1  0.4202038E-002  0.1447911E+03  0.7546771E-02  0.1207024E+00
         21   -1    0    0  503  502  0.00000000000E+00  0.00000000000E+00  0.21388053504E+03  0.21388053504E+03  0.00000000000E+00 0. -1.
         21   -1    0    0  504  503 -0.00000000000E+00 -0.00000000000E+00 -0.65228594164E+02  0.65228594164E+02  0.00000000000E+00 0. -1.
         25    2    1    2    0    0 -0.44506744034E+02  0.57953419266E+02  0.14654166866E+03  0.20600712979E+03  0.12500011120E+03 0.  0.
          5    1    3    3  501    0 -0.79882710612E+02  0.11502639420E+02  0.55854570571E+02  0.98149382178E+02  0.10000000000E+00 0. -1.
         -5    1    3    3    0  501  0.35375966578E+02  0.46450779846E+02  0.90687098090E+02  0.10785774761E+03  0.10000000000E+00 0. -1.
         21    1    1    2  504  502  0.44506744034E+02 -0.57953419266E+02  0.21102722103E+01  0.73101999411E+02  0.00000000000E+00 0. -1.
<mgrwt>
<rscale>  1 0.14479115E+03</rscale>
<asrwt>0</asrwt>
<pdfrwt beam="1">  1       21 0.32904697E-01 0.14479115E+03</pdfrwt>
<pdfrwt beam="2">  1       21 0.10035168E-01 0.14479115E+03</pdfrwt>
<totfact> 0.72007105E+05</totfact>
</mgrwt>
</event>
<event>
 6    1  0.4202038E-002  0.1360977E+03  0.7546771E-02  0.1218678E+00
         21   -1    0    0  504  502  0.00000000000E+00  0.00000000000E+00  0.25503717719E+03  0.25503717719E+03  0.00000000000E+00 0.  1.
         21   -1    0    0  502  503 -0.00000000000E+00 -0.00000000000E+00 -0.38234330482E+02  0.38234330482E+02  0.00000000000E+00 0.  1.
         25    2    1    2    0    0  0.49263763271E+02 -0.21746526220E+02  0.11531505476E+03  0.17838198818E+03  0.12499096799E+03 0.  0.
          5    1    3    3  501    0  0.85375717599E+02 -0.17893259674E+02  0.11193109874E+03  0.14190758528E+03  0.10000000000E+00 0. -1.
         -5    1    3    3    0  501 -0.36111954328E+02 -0.38532665461E+01  0.33839560276E+01  0.36474402899E+02  0.10000000000E+00 0. -1.
         21    1    1    2  504  503 -0.49263763271E+02  0.21746526220E+02  0.10148779194E+03  0.11488951949E+03  0.00000000000E+00 0.  1.
<mgrwt>
<rscale>  1 0.13609766E+03</rscale>
<asrwt>0</asrwt>
<pdfrwt beam="1">  1       21 0.39236488E-01 0.13609766E+03</pdfrwt>
<pdfrwt beam="2">  1       21 0.58822048E-02 0.13609766E+03</pdfrwt>
<totfact> 0.12773219E+06</totfact>
</mgrwt>
</event>
<event>
 6    1  0.4202038E-002  0.1319224E+03  0.7546771E-02  0.1224631E+00
         21   -1    0    0  503  502  0.00000000000E+00  0.00000000000E+00  0.82466970788E+03  0.82466970788E+03  0.00000000000E+00 0.  1.
         21   -1    0    0  504  503 -0.00000000000E+00 -0.00000000000E+00 -0.97778082321E+01  0.97778082321E+01  0.00000000000E+00 0.  1.
         25    2    1    2    0    0  0.32362840740E+02 -0.27041786909E+02  0.51609460530E+03  0.53268861433E+03  0.12499962603E+03 0.  0.
          5    1    3    3  501    0  0.70217996772E+02 -0.47796748582E+02  0.27712232302E+03  0.28984804322E+03  0.10000000000E+00 0. -1.
         -5    1    3    3    0  501 -0.37855156032E+02  0.20754961673E+02  0.23897228229E+03  0.24284057110E+03  0.10000000000E+00 0. -1.
         21    1    1    2  504  502 -0.32362840740E+02  0.27041786909E+02  0.29879729435E+03  0.30175890179E+03  0.00000000000E+00 0.  1.
<mgrwt>
<rscale>  1 0.13192239E+03</rscale>
<asrwt>0</asrwt>
<pdfrwt beam="1">  1       21 0.12687221E+00 0.13192239E+03</pdfrwt>
<pdfrwt beam="2">  1       21 0.15042788E-02 0.13192239E+03</pdfrwt>
<totfact> 0.90522426E+05</totfact>
</mgrwt>
</event>
<event>
 6    1  0.4202038E-002  0.1262982E+03  0.7546771E-02  0.1233054E+00
         21   -1    0    0  504  502  0.00000000000E+00  0.00000000000E+00  0.16627367662E+03  0.16627367662E+03  0.00000000000E+00 0.  1.
         21   -1    0    0  502  503 -0.00000000000E+00 -0.00000000000E+00 -0.31605396599E+02  0.31605396599E+02  0.00000000000E+00 0.  1.
         25    2    1    2    0    0 -0.32296131431E+01  0.17952440558E+02  0.12253397138E+03  0.17597103887E+03  0.12497404472E+03 0.  0.
          5    1    3    3  501    0  0.24728038025E+02  0.26771628342E+02  0.13806583189E+03  0.14279488745E+03  0.10000000000E+00 0. -1.
         -5    1    3    3    0  501 -0.27957651168E+02 -0.88191877841E+01 -0.15531860501E+02  0.33176151414E+02  0.10000000000E+00 0. -1.
         21    1    1    2  504  503  0.32296131431E+01 -0.17952440558E+02  0.12134308636E+02  0.21908034350E+02  0.00000000000E+00 0.  1.
<mgrwt>
<rscale>  1 0.12629819E+03</rscale>
<asrwt>0</asrwt>
<pdfrwt beam="1">  1       21 0.25580565E-01 0.12629819E+03</pdfrwt>
<pdfrwt beam="2">  1       21 0.48623688E-02 0.12629819E+03</pdfrwt>
<totfact> 0.40339473E+06</totfact>
</mgrwt>
</event>
<event>
 6    1  0.4202038E-002  0.1261159E+03  0.7546771E-02  0.1233336E+00
         21   -1    0    0  503  502  0.00000000000E+00  0.00000000000E+00  0.54590217781E+03  0.54590217781E+03  0.00000000000E+00 0.  1.
         21   -1    0    0  504  503 -0.00000000000E+00 -0.00000000000E+00 -0.23701452115E+02  0.23701452115E+02  0.00000000000E+00 0.  1.
         25    2    1    2    0    0 -0.86667254433E+01  0.14315145312E+02  0.53428143597E+03  0.54896436938E+03  0.12500076203E+03 0.  0.
          5    1    3    3  501    0 -0.37521083742E+02 -0.45812404812E+02  0.23565418311E+03  0.24298047695E+03  0.10000000000E+00 0. -1.
         -5    1    3    3    0  501  0.28854358299E+02  0.60127550124E+02  0.29862725285E+03  0.30598389242E+03  0.10000000000E+00 0. -1.
         21    1    1    2  504  502  0.86667254433E+01 -0.14315145312E+02 -0.12080710275E+02  0.20639260547E+02  0.00000000000E+00 0.  1.
<mgrwt>
<rscale>  1 0.12611592E+03</rscale>
<asrwt>0</asrwt>
<pdfrwt beam="1">  1       21 0.83984941E-01 0.12611592E+03</pdfrwt>
<pdfrwt beam="2">  1       21 0.36463776E-02 0.12611592E+03</pdfrwt>
<totfact> 0.56894147E+05</totfact>
</mgrwt>
</event>
<event>
 6    1  0.4202038E-002  0.1267281E+03  0.7546771E-02  0.1232393E+00
         21   -1    0    0  504  502  0.00000000000E+00  0.00000000000E+00  0.11090076465E+03  0.11090076465E+03  0.00000000000E+00 0. -1.
         21   -1    0    0  502  503 -0.00000000000E+00 -0.00000000000E+00 -0.18626609989E+03  0.18626609989E+03  0.00000000000E+00 0.  1.
         25    2    1    2    0    0  0.17640642831E+02 -0.11139027594E+02  0.73732223501E+02  0.14661669936E+03  0.12499898212E+03 0.  0.
          5    1    3    3  501    0 -0.10832867106E+02 -0.31998359828E+02 -0.24829313178E+02  0.41925539166E+02  0.10000000000E+00 0.  1.
         -5    1    3    3    0  501  0.28473509937E+02  0.20859332235E+02  0.98561536679E+02  0.10469116019E+03  0.10000000000E+00 0.  1.
         21    1    1    2  504  503 -0.17640642831E+02  0.11139027594E+02 -0.14909755874E+03  0.15055016518E+03  0.00000000000E+00 0.  1.
<mgrwt>
<rscale>  1 0.12672812E+03</rscale>
<asrwt>0</asrwt>
<pdfrwt beam="1">  1       21 0.17061656E-01 0.12672812E+03</pdfrwt>
<pdfrwt beam="2">  1       21 0.28656323E-01 0.12672812E+03</pdfrwt>
<totfact> 0.36518073E+05</totfact>
</mgrwt>
</event>
<event>
 6    1  0.4202038E-002  0.1338861E+03  0.7546771E-02  0.1221801E+00
         21   -1    0    0  503  502  0.00000000000E+00  0.00000000000E+00  0.20162536573E+02  0.20162536573E+02  0.00000000000E+00 0.  1.
         21   -1    0    0  504  503 -0.00000000000E+00 -0.00000000000E+00 -0.44312349212E+03  0.44312349212E+03  0.00000000000E+00 0.  1.
         25    2    1    2    0    0 -0.95957351667E-01 -0.47982156078E+02 -0.24761589731E+03  0.28149442834E+03  0.12499273610E+03 0.  0.
          5    1    3    3  501    0  0.11703345328E+02 -0.88924589243E+02 -0.18704913730E+03  0.20744141493E+03  0.10000000000E+00 0.  1.
         -5    1    3    3    0  501 -0.11799302679E+02  0.40942433165E+02 -0.60566760003E+02  0.74053013406E+02  0.10000000000E+00 0.  1.
         21    1    1    2  504  502  0.95957351667E-01  0.47982156078E+02 -0.17534505824E+03  0.18179160036E+03  0.00000000000E+00 0.  1.
<mgrwt>
<rscale>  1 0.13388607E+03</rscale>
<asrwt>0</asrwt>
<pdfrwt beam="1">  1       21 0.31019287E-02 0.13388607E+03</pdfrwt>
<pdfrwt beam="2">  1       21 0.68172844E-01 0.13388607E+03</pdfrwt>
<totfact> 0.11780541E+06</totfact>
</mgrwt>
</event>
<event>
 6    1  0.4202038E-002  0.1499014E+03  0.7546771E-02  0.1200594E+00
         21   -1    0    0  504  502  0.00000000000E+00  0.00000000000E+00  0.23629551696E+03  0.23629551696E+03  0.00000000000E+00 0. -1.
         21   -1    0    0  502  503 -0.00000000000E+00 -0.00000000000E+00 -0.14233719577E+03  0.14233719577E+03  0.00000000000E+00 0. -1.
         25    2    1    2    0    0 -0.61312330000E+02  0.55483204176E+02  0.19634435524E+03  0.24702538875E+03  0.12503139245E+03 0.  0.
          5    1    3    3  501    0 -0.11602114419E+02 -0.36512299910E+02  0.90327990457E+02  0.98116833234E+02  0.10000000000E+00 0.  1.
         -5    1    3    3    0  501 -0.49710215581E+02  0.91995504086E+02  0.10601636478E+03  0.14890855552E+03  0.10000000000E+00 0.  1.
         21    1    1    2  504  503  0.61312330000E+02 -0.55483204176E+02 -0.10238603406E+03  0.13160732398E+03  0.00000000000E+00 0. -1.
<mgrwt>
<rscale>  1 0.14990142E+03</rscale>
<asrwt>0</asrwt>
<pdfrwt beam="1">  1       21 0.36353157E-01 0.14990142E+03</pdfrwt>
<pdfrwt beam="2">  1       21 0.21898030E-01 0.14990142E+03</pdfrwt>
<totfact> 0.14412126E+05</totfact>
</mgrwt>
</event>
<event>
 6    1  0.4202038E-002  0.1277809E+03  0.7546771E-02  0.1230786E+00
         21   -1    0    0  504  502  0.00000000000E+00  0.00000000000E+00  0.11122094464E+03  0.11122094464E+03  0.00000000000E+00 0.  1.
         21   -1    0    0  502  503 -0.00000000000E+00 -0.00000000000E+00 -0.30536252455E+03  0.30536252455E+03  0.00000000000E+00 0.  1.
         25    2    1    2    0    0  0.30473018215E+01  0.26361675783E+02  0.73645795309E+02  0.14748441248E+03  0.12499489893E+03 0.  0.
          5    1    3    3  501    0 -0.36755597852E+02  0.31391777423E+02  0.91568623764E+02  0.10354342336E+03  0.10000000000E+00 0.  1.
         -5    1    3    3    0  501  0.39802899673E+02 -0.50301016403E+01 -0.17922828455E+02  0.43940989119E+02  0.10000000000E+00 0.  1.
         21    1    1    2  504  503 -0.30473018215E+01 -0.26361675783E+02 -0.26778737522E+03  0.26909905671E+03  0.00000000000E+00 0.  1.
<mgrwt>
<rscale>  1 0.12778086E+03</rscale>
<asrwt>0</asrwt>
<pdfrwt beam="1">  1       21 0.17110915E-01 0.12778086E+03</pdfrwt>
<pdfrwt beam="2">  1       21 0.46978850E-01 0.12778086E+03</pdfrwt>
<totfact> 0.13664895E+05</totfact>
</mgrwt>
</event>
<event>
 6    1  0.4202038E-002  0.1276339E+03  0.7546771E-02  0.1231009E+00
         21   -1    0    0  504  502  0.00000000000E+00  0.00000000000E+00  0.21353211970E+03  0.21353211970E+03  0.00000000000E+00 0.  1.
         21   -1    0    0  502  503 -0.00000000000E+00 -0.00000000000E+00 -0.73646138916E+02  0.73646138916E+02  0.00000000000E+00 0.  1.
         25    2    1    2    0    0  0.51378494592E+01 -0.25286770712E+02  0.19111603874E+03  0.22981679848E+03  0.12499840931E+03 0.  0.
          5    1    3    3  501    0 -0.17478552489E+02 -0.70827583185E+02  0.13914051912E+03  0.15710550721E+03  0.10000000000E+00 0. -1.
         -5    1    3    3    0  501  0.22616401948E+02  0.45540812473E+02  0.51975519628E+02  0.72711291271E+02  0.10000000000E+00 0. -1.
         21    1    1    2  504  503 -0.51378494592E+01  0.25286770712E+02 -0.51230057958E+02  0.57361460132E+02  0.00000000000E+00 0.  1.
<mgrwt>
<rscale>  1 0.12763393E+03</rscale>
<asrwt>0</asrwt>
<pdfrwt beam="1">  1       21 0.32851095E-01 0.12763393E+03</pdfrwt>
<pdfrwt beam="2">  1       21 0.11330175E-01 0.12763393E+03</pdfrwt>
<totfact> 0.58383364E+05</totfact>
</mgrwt>
</event>
<event>
 6    1  0.4202038E-002  0.2017846E+03  0.7546771E-02  0.1148242E+00
         21   -1    0    0  504  502  0.00000000000E+00  0.00000000000E+00  0.47844150512E+03  0.47844150512E+03  0.00000000000E+00 0. -1.
         21   -1    0    0  502  503 -0.00000000000E+00 -0.00000000000E+00 -0.76708997291E+02  0.76708997291E+02  0.00000000000E+00 0.  1.
         25    2    1    2    0    0 -0.85244008779E+02  0.13351259379E+03  0.31627914114E+03  0.37516597082E+03  0.12499942723E+03 0.  0.
          5    1    3    3  501    0  0.24645532429E+01 -0.19724383056E+01 -0.10358565336E+02  0.10829331068E+02  0.10000000000E+00 0. -1.
         -5    1    3    3    0  501 -0.87708562022E+02  0.13548503210E+03  0.32663770647E+03  0.36433663975E+03  0.10000000000E+00 0. -1.
         21    1    1    2  504  503  0.85244008779E+02 -0.13351259379E+03  0.85453366693E+02  0.17998453159E+03  0.00000000000E+00 0.  1.
<mgrwt>
<rscale>  1 0.20178456E+03</rscale>
<asrwt>0</asrwt>
<pdfrwt beam="1">  1       21 0.73606384E-01 0.20178456E+03</pdfrwt>
<pdfrwt beam="2">  1       21 0.11801384E-01 0.20178456E+03</pdfrwt>
<totfact> 0.99850189E+04</totfact>
</mgrwt>
</event>
<event>
 6    1  0.4202038E-002  0.1265725E+03  0.7546771E-02  0.1232632E+00
         21   -1    0    0  504  502  0.00000000000E+00  0.00000000000E+00  0.66053071186E+02  0.66053071186E+02  0.00000000000E+00 0.  1.
         21   -1    0    0  502  503 -0.00000000000E+00 -0.00000000000E+00 -0.12460899409E+03  0.12460899409E+03  0.00000000000E+00 0.  1.
         25    2    1    2    0    0  0.19584736123E+02 -0.35275568864E+01  0.23431142713E+01  0.12659414604E+03  0.12499832831E+03 0.  0.
          5    1    3    3  501    0  0.68653821890E+02 -0.92435636613E+00  0.24219070192E+02  0.72806421803E+02  0.10000000000E+00 0.  1.
         -5    1    3    3    0  501 -0.49069085766E+02 -0.26032005202E+01 -0.21875955921E+02  0.53787724235E+02  0.10000000000E+00 0.  1.
         21    1    1    2  504  503 -0.19584736123E+02  0.35275568864E+01 -0.60899037175E+02  0.64067919238E+02  0.00000000000E+00 0.  1.
<mgrwt>
<rscale>  1 0.12657246E+03</rscale>
<asrwt>0</asrwt>
<pdfrwt beam="1">  1       21 0.10162011E-01 0.12657246E+03</pdfrwt>
<pdfrwt beam="2">  1       21 0.19170614E-01 0.12657246E+03</pdfrwt>
<totfact> 0.19578235E+06</totfact>
</mgrwt>
</event>
<event>
 6    1  0.4202038E-002  0.1261820E+03  0.7546771E-02  0.1233233E+00
         21   -1    0    0  503  502  0.00000000000E+00  0.00000000000E+00  0.12184365277E+03  0.12184365277E+03  0.00000000000E+00 0.  1.
         21   -1    0    0  504  503 -0.00000000000E+00 -0.00000000000E+00 -0.43018487293E+02  0.43018487293E+02  0.00000000000E+00 0.  1.
         25    2    1    2    0    0 -0.87373762051E+01 -0.14903882826E+02  0.76151357808E+02  0.14738024332E+03  0.12499375729E+03 0.  0.
          5    1    3    3  501    0  0.10356516648E+02  0.39928412902E+02  0.79136307832E+02  0.89241810892E+02  0.10000000000E+00 0.  1.
         -5    1    3    3    0  501 -0.19093892853E+02 -0.54832295728E+02 -0.29849500243E+01  0.58138432433E+02  0.10000000000E+00 0.  1.
         21    1    1    2  504  502  0.87373762051E+01  0.14903882826E+02  0.26738076731E+01  0.17481896742E+02  0.00000000000E+00 0.  1.
<mgrwt>
<rscale>  1 0.12618204E+03</rscale>
<asrwt>0</asrwt>
<pdfrwt beam="1">  1       21 0.18745177E-01 0.12618204E+03</pdfrwt>
<pdfrwt beam="2">  1       21 0.66182289E-02 0.12618204E+03</pdfrwt>
<totfact> 0.42772609E+06</totfact>
</mgrwt>
</event>
<event>
 6    1  0.4202038E-002  0.1263475E+03  0.7546771E-02  0.1232978E+00
         21   -1    0    0  504  502  0.00000000000E+00  0.00000000000E+00  0.54789588555E+02  0.54789588555E+02  0.00000000000E+00 0.  1.
         21   -1    0    0  502  503 -0.00000000000E+00 -0.00000000000E+00 -0.11781169250E+03  0.11781169250E+03  0.00000000000E+00 0.  1.
         25    2    1    2    0    0 -0.76561777421E+01 -0.16704681775E+02 -0.22810580745E+02  0.12839008282E+03  0.12500410922E+03 0.  0.
          5    1    3    3  501    0 -0.59817541854E+02  0.18884033496E+02 -0.16924301546E+02  0.64970662743E+02  0.10000000000E+00 0. -1.
         -5    1    3    3    0  501  0.52161364112E+02 -0.35588715272E+02 -0.58862791995E+01  0.63419420082E+02  0.10000000000E+00 0. -1.
         21    1    1    2  504  503  0.76561777421E+01  0.16704681775E+02 -0.40211523197E+02  0.44211198227E+02  0.00000000000E+00 0. -1.
<mgrwt>
<rscale>  1 0.12634750E+03</rscale>
<asrwt>0</asrwt>
<pdfrwt beam="1">  1       21 0.84291675E-02 0.12634750E+03</pdfrwt>
<pdfrwt beam="2">  1       21 0.18124876E-01 0.12634750E+03</pdfrwt>
<totfact> 0.30040127E+06</totfact>
</mgrwt>
</event>
<event>
 6    1  0.4202038E-002  0.1272841E+03  0.7546771E-02  0.1231542E+00
         21   -1    0    0  503  502  0.00000000000E+00  0.00000000000E+00  0.20626214583E+03  0.20626214583E+03  0.00000000000E+00 0. -1.
         21   -1    0    0  504  503 -0.00000000000E+00 -0.00000000000E+00 -0.96211102218E+02  0.96211102218E+02  0.00000000000E+00 0. -1.
         25    2    1    2    0    0  0.11751023507E+02 -0.20914370575E+02  0.18456114507E+03  0.22419647838E+03  0.12500298875E+03 0.  0.
          5    1    3    3  501    0 -0.14154451710E+02  0.22019488623E+02  0.16996834945E+03  0.17197225415E+03  0.10000000000E+00 0. -1.
         -5    1    3    3    0  501  0.25905475216E+02 -0.42933859198E+02  0.14592795621E+02  0.52224224225E+02  0.10000000000E+00 0. -1.
         21    1    1    2  504  502 -0.11751023507E+02  0.20914370575E+02 -0.74510101463E+02  0.78276769671E+02  0.00000000000E+00 0. -1.
<mgrwt>
<rscale>  1 0.12728411E+03</rscale>
<asrwt>0</asrwt>
<pdfrwt beam="1">  1       21 0.31732638E-01 0.12728411E+03</pdfrwt>
<pdfrwt beam="2">  1       21 0.14801708E-01 0.12728411E+03</pdfrwt>
<totfact> 0.38793862E+05</totfact>
</mgrwt>
</event>
<event>
 6    1  0.4202038E-002  0.1279615E+03  0.7546771E-02  0.1230512E+00
         21   -1    0    0  503  502  0.00000000000E+00  0.00000000000E+00  0.11247543756E+03  0.11247543756E+03  0.00000000000E+00 0.  1.
         21   -1    0    0  504  503 -0.00000000000E+00 -0.00000000000E+00 -0.53674783453E+02  0.53674783453E+02  0.00000000000E+00 0.  1.
         25    2    1    2    0    0  0.27338756972E+02  0.50025940532E+00  0.46238964337E+02  0.13605945927E+03  0.12500590683E+03 0.  0.
          5    1    3    3  501    0 -0.17624923254E+02  0.28171211140E+02 -0.29026772915E+02  0.44122767396E+02  0.10000000000E+00 0. -1.
         -5    1    3    3    0  501  0.44963680226E+02 -0.27670951735E+02  0.75265737252E+02  0.91936691878E+02  0.10000000000E+00 0. -1.
         21    1    1    2  504  502 -0.27338756972E+02 -0.50025940532E+00  0.12561689774E+02  0.30090761742E+02  0.00000000000E+00 0.  1.
<mgrwt>
<rscale>  1 0.12796146E+03</rscale>
<asrwt>0</asrwt>
<pdfrwt beam="1">  1       21 0.17303913E-01 0.12796146E+03</pdfrwt>
<pdfrwt beam="2">  1       21 0.82576590E-02 0.12796146E+03</pdfrwt>
<totfact> 0.33894744E+06</totfact>
</mgrwt>
</event>
<event>
 6    1  0.4202038E-002  0.1328873E+03  0.7546771E-02  0.1223233E+00
         21   -1    0    0  504  502  0.00000000000E+00  0.00000000000E+00  0.32477909205E+03  0.32477909205E+03  0.00000000000E+00 0.  1.
         21   -1    0    0  502  503 -0.00000000000E+00 -0.00000000000E+00 -0.30452259750E+02  0.30452259750E+02  0.00000000000E+00 0.  1.
         25    2    1    2    0    0  0.33649328952E+02 -0.30037923047E+02  0.27641502712E+03  0.30669902315E+03  0.12499787767E+03 0.  0.
          5    1    3    3  501    0 -0.33068446953E+02 -0.24160244328E+02  0.20395614679E+03  0.20802730447E+03  0.10000000000E+00 0.  1.
         -5    1    3    3    0  501  0.66717775905E+02 -0.58776787190E+01  0.72458880328E+02  0.98671718680E+02  0.10000000000E+00 0.  1.
         21    1    1    2  504  503 -0.33649328952E+02  0.30037923047E+02  0.17911805185E+02  0.48532328657E+02  0.00000000000E+00 0.  1.
<mgrwt>
<rscale>  1 0.13288726E+03</rscale>
<asrwt>0</asrwt>
<pdfrwt beam="1">  1       21 0.49966012E-01 0.13288726E+03</pdfrwt>
<pdfrwt beam="2">  1       21 0.46849633E-02 0.13288726E+03</pdfrwt>
<totfact> 0.11472783E+06</totfact>
</mgrwt>
</event>
<event>
 6    1  0.4202038E-002  0.1284072E+03  0.7546771E-02  0.1229838E+00
         21   -1    0    0  504  502  0.00000000000E+00  0.00000000000E+00  0.35020827755E+03  0.35020827755E+03  0.00000000000E+00 0. -1.
         21   -1    0    0  502  503 -0.00000000000E+00 -0.00000000000E+00 -0.21874022882E+03  0.21874022882E+03  0.00000000000E+00 0. -1.
         25    2    1    2    0    0 -0.28564403568E+02  0.69408238072E+01  0.33735872293E+03  0.36096997405E+03  0.12499725616E+03 0.  0.
          5    1    3    3  501    0 -0.46373795741E+02  0.48076444936E+02  0.10587032550E+03  0.12518150546E+03  0.10000000000E+00 0. -1.
         -5    1    3    3    0  501  0.17809392173E+02 -0.41135621128E+02  0.23148839743E+03  0.23578846859E+03  0.10000000000E+00 0. -1.
         21    1    1    2  504  503  0.28564403568E+02 -0.69408238072E+01 -0.20589067419E+03  0.20797853232E+03  0.00000000000E+00 0. -1.
<mgrwt>
<rscale>  1 0.12840722E+03</rscale>
<asrwt>0</asrwt>
<pdfrwt beam="1">  1       21 0.53878196E-01 0.12840722E+03</pdfrwt>
<pdfrwt beam="2">  1       21 0.33652343E-01 0.12840722E+03</pdfrwt>
<totfact> 0.28786347E+04</totfact>
</mgrwt>
</event>
<event>
 6    1  0.4202038E-002  0.1264552E+03  0.7546771E-02  0.1232812E+00
         21   -1    0    0  503  502  0.00000000000E+00  0.00000000000E+00  0.42559157907E+03  0.42559157907E+03  0.00000000000E+00 0. -1.
         21   -1    0    0  504  503 -0.00000000000E+00 -0.00000000000E+00 -0.16843864007E+02  0.16843864007E+02  0.00000000000E+00 0. -1.
         25    2    1    2    0    0 -0.17845806071E+02  0.68951951078E+01  0.40312697991E+03  0.42249530332E+03  0.12499961154E+03 0.  0.
          5    1    3    3  501    0 -0.54211571966E+02 -0.35388347812E+02  0.15134036919E+03  0.16460603587E+03  0.10000000000E+00 0.  1.
         -5    1    3    3    0  501  0.36365765895E+02  0.42283542920E+02  0.25178661072E+03  0.25788926745E+03  0.10000000000E+00 0.  1.
         21    1    1    2  504  502  0.17845806071E+02 -0.68951951078E+01  0.56207351512E+01  0.19940139757E+02  0.00000000000E+00 0.  1.
<mgrwt>
<rscale>  1 0.12645521E+03</rscale>
<asrwt>0</asrwt>
<pdfrwt beam="1">  1       21 0.65475620E-01 0.12645521E+03</pdfrwt>
<pdfrwt beam="2">  1       21 0.25913640E-02 0.12645521E+03</pdfrwt>
<totfact> 0.17242321E+06</totfact>
</mgrwt>
</event>
<event>
 6    1  0.4202038E-002  0.1396394E+03  0.7546771E-02  0.1213815E+00
         21   -1    0    0  503  502  0.00000000000E+00  0.00000000000E+00  0.67899929430E+02  0.67899929430E+02  0.00000000000E+00 0. -1.
         21   -1    0    0  504  503 -0.00000000000E+00 -0.00000000000E+00 -0.12132579198E+04  0.12132579198E+04  0.00000000000E+00 0. -1.
         25    2    1    2    0    0  0.28194590080E+02  0.55493860593E+02 -0.56524121263E+01  0.13975375402E+03  0.12499863410E+03 0.  0.
          5    1    3    3  501    0 -0.13629317477E+02  0.35738394748E+02 -0.58265883363E+02  0.69698739717E+02  0.10000000000E+00 0.  1.
         -5    1    3    3    0  501  0.41823907556E+02  0.19755465845E+02  0.52613471237E+02  0.70055014307E+02  0.10000000000E+00 0.  1.
         21    1    1    2  504  502 -0.28194590080E+02 -0.55493860593E+02 -0.11397055783E+04  0.11414040952E+04  0.00000000000E+00 0. -1.
<mgrwt>
<rscale>  1 0.13963940E+03</rscale>
<asrwt>0</asrwt>
<pdfrwt beam="1">  1       21 0.10446144E-01 0.13963940E+03</pdfrwt>
<pdfrwt beam="2">  1       21 0.18665505E+00 0.13963940E+03</pdfrwt>
<totfact> 0.12907665E+04</totfact>
</mgrwt>
</event>
<event>
 6    1  0.4202038E-002  0.1262578E+03  0.7546771E-02  0.1233117E+00
         21   -1    0    0  503  502  0.00000000000E+00  0.00000000000E+00  0.34321234293E+01  0.34321234293E+01  0.00000000000E+00 0. -1.
         21   -1    0    0  504  503 -0.00000000000E+00 -0.00000000000E+00 -0.15345529967E+04  0.15345529967E+04  0.00000000000E+00 0. -1.
         25    2    1    2    0    0  0.16094386971E+02 -0.75438769990E+01 -0.12702249104E+04  0.12764843691E+04  0.12500032824E+03 0.  0.
          5    1    3    3  501    0  0.38247688280E+02 -0.40676131918E+02 -0.11090519676E+04  0.11104565323E+04  0.10000000000E+00 0. -1.
         -5    1    3    3    0  501 -0.22153301309E+02  0.33132254919E+02 -0.16117294289E+03  0.16602783680E+03  0.10000000000E+00 0. -1.
         21    1    1    2  504  502 -0.16094386971E+02  0.75438769990E+01 -0.26089596284E+03  0.26150075105E+03  0.00000000000E+00 0.  1.
<mgrwt>
<rscale>  1 0.12625776E+03</rscale>
<asrwt>0</asrwt>
<pdfrwt beam="1">  1       21 0.52802012E-03 0.12625776E+03</pdfrwt>
<pdfrwt beam="2">  1       21 0.23608457E+00 0.12625776E+03</pdfrwt>
<totfact> 0.84856049E+05</totfact>
</mgrwt>
</event>
<event>
 6    1  0.4202038E-002  0.1269661E+03  0.7546771E-02  0.1232028E+00
         21   -1    0    0  503  502  0.00000000000E+00  0.00000000000E+00  0.14760123030E+02  0.14760123030E+02  0.00000000000E+00 0.  1.
         21   -1    0    0  504  503 -0.00000000000E+00 -0.00000000000E+00 -0.10916198188E+04  0.10916198188E+04  0.00000000000E+00 0. -1.
         25    2    1    2    0    0  0.21769414312E+02 -0.46075994470E+01 -0.26126733700E+03  0.29048409489E+03  0.12500100251E+03 0.  0.
          5    1    3    3  501    0 -0.32717367788E+02  0.10947616127E+02 -0.21379977774E+03  0.21656553608E+03  0.10000000000E+00 0.  1.
         -5    1    3    3    0  501  0.54486782100E+02 -0.15555215574E+02 -0.47467559263E+02  0.73918558817E+02  0.10000000000E+00 0.  1.
         21    1    1    2  504  502 -0.21769414312E+02  0.46075994470E+01 -0.81559235877E+03  0.81589584694E+03  0.00000000000E+00 0. -1.
<mgrwt>
<rscale>  1 0.12696609E+03</rscale>
<asrwt>0</asrwt>
<pdfrwt beam="1">  1       21 0.22707890E-02 0.12696609E+03</pdfrwt>
<pdfrwt beam="2">  1       21 0.16794145E+00 0.12696609E+03</pdfrwt>
<totfact> 0.22696246E+05</totfact>
</mgrwt>
</event>
<event>
 6    1  0.4202038E-002  0.1542203E+03  0.7546771E-02  0.1195381E+00
         21   -1    0    0  503  502  0.00000000000E+00  0.00000000000E+00  0.40072419426E+03  0.40072419426E+03  0.00000000000E+00 0.  1.
         21   -1    0    0  504  503 -0.00000000000E+00 -0.00000000000E+00 -0.82384932550E+02  0.82384932550E+02  0.00000000000E+00 0. -1.
         25    2    1    2    0    0 -0.16549749135E+01 -0.90311776465E+02  0.35389331760E+03  0.38603674762E+03  0.12499973744E+03 0.  0.
          5    1    3    3  501    0  0.36391108542E+02 -0.90019541132E+02  0.15041710656E+03  0.17903392559E+03  0.10000000000E+00 0. -1.
         -5    1    3    3    0  501 -0.38046083455E+02 -0.29223533344E+00  0.20347621104E+03  0.20700282203E+03  0.10000000000E+00 0. -1.
         21    1    1    2  504  502  0.16549749135E+01  0.90311776465E+02 -0.35554055896E+02  0.97072379187E+02  0.00000000000E+00 0. -1.
<mgrwt>
<rscale>  1 0.15422027E+03</rscale>
<asrwt>0</asrwt>
<pdfrwt beam="1">  1       21 0.61649875E-01 0.15422027E+03</pdfrwt>
<pdfrwt beam="2">  1       21 0.12674605E-01 0.15422027E+03</pdfrwt>
<totfact> 0.13183193E+05</totfact>
</mgrwt>
</event>
<event>
 6    1  0.4202038E-002  0.1465071E+03  0.7546771E-02  0.1204832E+00
         21   -1    0    0  503  502  0.00000000000E+00  0.00000000000E+00  0.74735912463E+02  0.74735912463E+02  0.00000000000E+00 0. -1.
         21   -1    0    0  504  503 -0.00000000000E+00 -0.00000000000E+00 -0.16656930720E+03  0.16656930720E+03  0.00000000000E+00 0. -1.
         25    2    1    2    0    0 -0.39884457415E+02 -0.65192553619E+02 -0.65351590033E+02  0.16042181611E+03  0.12499395894E+03 0.  0.
          5    1    3    3  501    0 -0.58349465005E+02  0.58385488664E+01 -0.64297073025E+02  0.87022251860E+02  0.10000000000E+00 0. -1.
         -5    1    3    3    0  501  0.18465007590E+02 -0.71031102485E+02 -0.10545170076E+01  0.73399564247E+02  0.10000000000E+00 0. -1.
         21    1    1    2  504  502  0.39884457415E+02  0.65192553619E+02 -0.26481804707E+02  0.80883403558E+02  0.00000000000E+00 0. -1.
<mgrwt>
<rscale>  1 0.14650709E+03</rscale>
<asrwt>0</asrwt>
<pdfrwt beam="1">  1       21 0.11497833E-01 0.14650709E+03</pdfrwt>
<pdfrwt beam="2">  1       21 0.25626047E-01 0.14650709E+03</pdfrwt>
<totfact> 0.91731057E+05</totfact>
</mgrwt>
</event>
<event>
 6    1  0.4202038E-002  0.1651214E+03  0.7546771E-02  0.1183033E+00
         21   -1    0    0  503  502  0.00000000000E+00  0.00000000000E+00  0.84808257870E+03  0.84808257870E+03  0.00000000000E+00 0. -1.
         21   -1    0    0  504  503 -0.00000000000E+00 -0.00000000000E+00 -0.49767403880E+02  0.49767403880E+02  0.00000000000E+00 0. -1.
         25    2    1    2    0    0  0.89387493943E+02 -0.60418926407E+02  0.76832502225E+03  0.78586793048E+03  0.12499797440E+03 0.  0.
          5    1    3    3  501    0  0.11190157682E+03 -0.44059666748E+02  0.43302843581E+03  0.44941835004E+03  0.10000000000E+00 0. -1.
         -5    1    3    3    0  501 -0.22514082881E+02 -0.16359259659E+02  0.33529658643E+03  0.33644958044E+03  0.10000000000E+00 0. -1.
         21    1    1    2  504  502 -0.89387493943E+02  0.60418926407E+02  0.29990152578E+02  0.11198205210E+03  0.00000000000E+00 0. -1.
<mgrwt>
<rscale>  1 0.16512136E+03</rscale>
<asrwt>0</asrwt>
<pdfrwt beam="1">  1       21 0.13047423E+00 0.16512136E+03</pdfrwt>
<pdfrwt beam="2">  1       21 0.76565243E-02 0.16512136E+03</pdfrwt>
<totfact> 0.56295347E+04</totfact>
</mgrwt>
</event>
<event>
 6    1  0.4202038E-002  0.1516639E+03  0.7546771E-02  0.1198443E+00
         21   -1    0    0  503  502  0.00000000000E+00  0.00000000000E+00  0.30056024370E+03  0.30056024370E+03  0.00000000000E+00 0.  1.
         21   -1    0    0  504  503 -0.00000000000E+00 -0.00000000000E+00 -0.10578512691E+03  0.10578512691E+03  0.00000000000E+00 0. -1.
         25    2    1    2    0    0  0.85804764801E+02  0.36208985346E+01  0.25829232986E+03  0.29952774602E+03  0.12500549749E+03 0.  0.
          5    1    3    3  501    0 -0.12432616481E+02  0.63551114792E+01 -0.77110787224E+01  0.15950803414E+02  0.10000000000E+00 0.  1.
         -5    1    3    3    0  501  0.98237381283E+02 -0.27342129446E+01  0.26600340858E+03  0.28357694260E+03  0.10000000000E+00 0.  1.
         21    1    1    2  504  502 -0.85804764801E+02 -0.36208985346E+01 -0.63517213063E+02  0.10681762459E+03  0.00000000000E+00 0. -1.
<mgrwt>
<rscale>  1 0.15166391E+03</rscale>
<asrwt>0</asrwt>
<pdfrwt beam="1">  1       21 0.46240037E-01 0.15166391E+03</pdfrwt>
<pdfrwt beam="2">  1       21 0.16274635E-01 0.15166391E+03</pdfrwt>
<totfact> 0.15347865E+05</totfact>
</mgrwt>
</event>
<event>
 6    1  0.4202038E-002  0.1438812E+03  0.7546771E-02  0.1208200E+00
         21   -1    0    0  504  502  0.00000000000E+00  0.00000000000E+00  0.52542475552E+03  0.52542475552E+03  0.00000000000E+00 0.  1.
         21   -1    0    0  502  503 -0.00000000000E+00 -0.00000000000E+00 -0.71828590506E+03  0.71828590506E+03  0.00000000000E+00 0. -1.
         25    2    1    2    0    0  0.88412601455E+01  0.70689791556E+02  0.51374994850E+03  0.53351740632E+03  0.12500639482E+03 0.  0.
          5    1    3    3  501    0  0.90647079336E+00  0.10260067807E+03  0.45262487227E+03  0.46410882972E+03  0.10000000000E+00 0. -1.
         -5    1    3    3    0  501  0.79347893521E+01 -0.31910886517E+02  0.61125076234E+02  0.69408576596E+02  0.10000000000E+00 0. -1.
         21    1    1    2  504  503 -0.88412601455E+01 -0.70689791556E+02 -0.70661109805E+03  0.71019325426E+03  0.00000000000E+00 0. -1.
<mgrwt>
<rscale>  1 0.14388125E+03</rscale>
<asrwt>0</asrwt>
<pdfrwt beam="1">  1       21 0.80834578E-01 0.14388125E+03</pdfrwt>
<pdfrwt beam="2">  1       21 0.11050552E+00 0.14388125E+03</pdfrwt>
<totfact> 0.91783176E+02</totfact>
</mgrwt>
</event>
<event>
 6    1  0.4202038E-002  0.1331130E+03  0.7546771E-02  0.1222908E+00
         21   -1    0    0  504  502  0.00000000000E+00  0.00000000000E+00  0.10025962396E+03  0.10025962396E+03  0.00000000000E+00 0.  1.
         21   -1    0    0  502  503 -0.00000000000E+00 -0.00000000000E+00 -0.69370808028E+03  0.69370808028E+03  0.00000000000E+00 0. -1.
         25    2    1    2    0    0 -0.40424576751E+02 -0.21587649722E+02  0.54908523404E+02  0.14399313075E+03  0.12497560855E+03 0.  0.
          5    1    3    3  501    0 -0.14370681329E+02 -0.61683959013E+02 -0.92156834873E+01  0.64002860120E+02  0.10000000000E+00 0. -1.
         -5    1    3    3    0  501 -0.26053895422E+02  0.40096309291E+02  0.64124206891E+02  0.79990270626E+02  0.10000000000E+00 0. -1.
         21    1    1    2  504  503  0.40424576751E+02  0.21587649722E+02 -0.64835697972E+03  0.64997457349E+03  0.00000000000E+00 0. -1.
<mgrwt>
<rscale>  1 0.13311302E+03</rscale>
<asrwt>0</asrwt>
<pdfrwt beam="1">  1       21 0.15424558E-01 0.13311302E+03</pdfrwt>
<pdfrwt beam="2">  1       21 0.10672431E+00 0.13311302E+03</pdfrwt>
<totfact> 0.27192816E+04</totfact>
</mgrwt>
</event>
<event>
 6    1  0.4202038E-002  0.1540289E+03  0.7546771E-02  0.1195608E+00
         21   -1    0    0  503  502  0.00000000000E+00  0.00000000000E+00  0.31492575844E+03  0.31492575844E+03  0.00000000000E+00 0.  1.
         21   -1    0    0  504  503 -0.00000000000E+00 -0.00000000000E+00 -0.57434931912E+02  0.57434931912E+02  0.00000000000E+00 0.  1.
         25    2    1    2    0    0  0.39203993795E+02 -0.81010183477E+02  0.23261441575E+03  0.27898810995E+03  0.12500118450E+03 0.  0.
          5    1    3    3  501    0  0.72665011800E+02 -0.33165393436E+02  0.69992663130E+02  0.10620324926E+03  0.10000000000E+00 0.  1.
         -5    1    3    3    0  501 -0.33461018005E+02 -0.47844790041E+02  0.16262175262E+03  0.17278486069E+03  0.10000000000E+00 0.  1.
         21    1    1    2  504  502 -0.39203993795E+02  0.81010183477E+02  0.24876410777E+02  0.93372580395E+02  0.00000000000E+00 0.  1.
<mgrwt>
<rscale>  1 0.15402889E+03</rscale>
<asrwt>0</asrwt>
<pdfrwt beam="1">  1       21 0.48450115E-01 0.15402889E+03</pdfrwt>
<pdfrwt beam="2">  1       21 0.88361436E-02 0.15402889E+03</pdfrwt>
<totfact> 0.41343689E+05</totfact>
</mgrwt>
</event>
<event>
 6    1  0.4202038E-002  0.1302403E+03  0.7546771E-02  0.1227100E+00
         21   -1    0    0  504  502  0.00000000000E+00  0.00000000000E+00  0.91233707838E+03  0.91233707838E+03  0.00000000000E+00 0.  1.
         21   -1    0    0  502  503 -0.00000000000E+00 -0.00000000000E+00 -0.76298446842E+01  0.76298446842E+01  0.00000000000E+00 0.  1.
         25    2    1    2    0    0 -0.34176049072E+02 -0.13031119663E+02  0.71538784012E+03  0.72714668244E+03  0.12499889433E+03 0.  0.
          5    1    3    3  501    0 -0.77536422748E+02  0.12842180814E+02  0.38702197890E+03  0.39492130939E+03  0.10000000000E+00 0. -1.
         -5    1    3    3    0  501  0.43360373676E+02 -0.25873300476E+02  0.32836586122E+03  0.33222537304E+03  0.10000000000E+00 0. -1.
         21    1    1    2  504  503  0.34176049072E+02  0.13031119663E+02  0.18931939358E+03  0.19282024063E+03  0.00000000000E+00 0.  1.
<mgrwt>
<rscale>  1 0.13024030E+03</rscale>
<asrwt>0</asrwt>
<pdfrwt beam="1">  1       21 0.14035946E+00 0.13024030E+03</pdfrwt>
<pdfrwt beam="2">  1       21 0.11738230E-02 0.13024030E+03</pdfrwt>
<totfact> 0.10428953E+06</totfact>
</mgrwt>
</event>
<event>
 6    1  0.4202038E-002  0.1472852E+03  0.7546771E-02  0.1203849E+00
         21   -1    0    0  503  502  0.00000000000E+00  0.00000000000E+00  0.94856027398E+01  0.94856027398E+01  0.00000000000E+00 0. -1.
         21   -1    0    0  504  503 -0.00000000000E+00 -0.00000000000E+00 -0.13373335307E+04  0.13373335307E+04  0.00000000000E+00 0. -1.
         25    2    1    2    0    0 -0.32298046419E+02 -0.70896394473E+02 -0.88398412039E+03  0.89617011012E+03  0.12499391430E+03 0.  0.
          5    1    3    3  501    0 -0.14000505487E+02 -0.30729221357E+02 -0.80485517202E+03  0.80556325458E+03  0.10000000000E+00 0. -1.
         -5    1    3    3    0  501 -0.18297540932E+02 -0.40167173116E+02 -0.79128948365E+02  0.90606855534E+02  0.10000000000E+00 0. -1.
         21    1    1    2  504  502  0.32298046419E+02  0.70896394473E+02 -0.44386380757E+03  0.45064902333E+03  0.00000000000E+00 0. -1.
<mgrwt>
<rscale>  1 0.14728524E+03</rscale>
<asrwt>0</asrwt>
<pdfrwt beam="1">  1       21 0.14593234E-02 0.14728524E+03</pdfrwt>
<pdfrwt beam="2">  1       21 0.20574363E+00 0.14728524E+03</pdfrwt>
<totfact> 0.25874300E+05</totfact>
</mgrwt>
</event>
<event>
 6    1  0.4202038E-002  0.1266386E+03  0.7546771E-02  0.1232530E+00
         21   -1    0    0  503  502  0.00000000000E+00  0.00000000000E+00  0.48649140790E+02  0.48649140790E+02  0.00000000000E+00 0.  1.
         21   -1    0    0  504  503 -0.00000000000E+00 -0.00000000000E+00 -0.10960387158E+04  0.10960387158E+04  0.00000000000E+00 0. -1.
         25    2    1    2    0    0  0.11549811448E+02 -0.16711073448E+02 -0.34038707379E+02  0.13113339873E+03  0.12499870616E+03 0.  0.
          5    1    3    3  501    0 -0.43585544743E+02 -0.41913242959E+02  0.21945358686E+01  0.60508227817E+02  0.10000000000E+00 0. -1.
         -5    1    3    3    0  501  0.55135356191E+02  0.25202169511E+02 -0.36233243248E+02  0.70625170914E+02  0.10000000000E+00 0. -1.
         21    1    1    2  504  502 -0.11549811448E+02  0.16711073448E+02 -0.10133508677E+04  0.10135544579E+04  0.00000000000E+00 0. -1.
<mgrwt>
<rscale>  1 0.12663860E+03</rscale>
<asrwt>0</asrwt>
<pdfrwt beam="1">  1       21 0.74844836E-02 0.12663860E+03</pdfrwt>
<pdfrwt beam="2">  1       21 0.16862133E+00 0.12663860E+03</pdfrwt>
<totfact> 0.30829712E+04</totfact>
</mgrwt>
</event>
<event>
 6    1  0.4202038E-002  0.1277533E+03  0.7546771E-02  0.1230828E+00
         21   -1    0    0  504  502  0.00000000000E+00  0.00000000000E+00  0.24887632561E+02  0.24887632561E+02  0.00000000000E+00 0. -1.
         21   -1    0    0  502  503 -0.00000000000E+00 -0.00000000000E+00 -0.99847524223E+03  0.99847524223E+03  0.00000000000E+00 0.  1.
         25    2    1    2    0    0 -0.19842903784E+02 -0.17349433998E+02 -0.14065167474E+03  0.19000999912E+03  0.12500464979E+03 0.  0.
          5    1    3    3  501    0  0.20530057725E+02  0.47246298314E+02 -0.53797864036E+02  0.74484334926E+02  0.10000000000E+00 0.  1.
         -5    1    3    3    0  501 -0.40372961509E+02 -0.64595732312E+02 -0.86853810707E+02  0.11552566420E+03  0.10000000000E+00 0.  1.
         21    1    1    2  504  503  0.19842903784E+02  0.17349433998E+02 -0.83293593492E+03  0.83335287566E+03  0.00000000000E+00 0.  1.
<mgrwt>
<rscale>  1 0.12775330E+03</rscale>
<asrwt>0</asrwt>
<pdfrwt beam="1">  1       21 0.38288672E-02 0.12775330E+03</pdfrwt>
<pdfrwt beam="2">  1       21 0.15361155E+00 0.12775330E+03</pdfrwt>
<totfact> 0.12209587E+05</totfact>
</mgrwt>
</event>
<event>
 6    1  0.4202038E-002  0.1300134E+03  0.7546771E-02  0.1227436E+00
         21   -1    0    0  504  502  0.00000000000E+00  0.00000000000E+00  0.22087284128E+02  0.22087284128E+02  0.00000000000E+00 0.  1.
         21   -1    0    0  502  503 -0.00000000000E+00 -0.00000000000E+00 -0.32057623745E+03  0.32057623745E+03  0.00000000000E+00 0.  1.
         25    2    1    2    0    0 -0.16327801897E+02  0.31802421209E+02 -0.20705983893E+03  0.24449390271E+03  0.12500200181E+03 0.  0.
          5    1    3    3  501    0 -0.36577756993E+02  0.37230621326E+02 -0.19422985633E+02  0.55689441026E+02  0.10000000000E+00 0. -1.
         -5    1    3    3    0  501  0.20249955095E+02 -0.54282001168E+01 -0.18763685329E+03  0.18880446168E+03  0.10000000000E+00 0. -1.
         21    1    1    2  504  503  0.16327801897E+02 -0.31802421209E+02 -0.91429114399E+02  0.98169618871E+02  0.00000000000E+00 0.  1.
<mgrwt>
<rscale>  1 0.13001343E+03</rscale>
<asrwt>0</asrwt>
<pdfrwt beam="1">  1       21 0.33980437E-02 0.13001343E+03</pdfrwt>
<pdfrwt beam="2">  1       21 0.49319422E-01 0.13001343E+03</pdfrwt>
<totfact> 0.20089743E+06</totfact>
</mgrwt>
</event>
<event>
 6    1  0.4202038E-002  0.1320786E+03  0.7546771E-02  0.1224404E+00
         21   -1    0    0  503  502  0.00000000000E+00  0.00000000000E+00  0.40249626808E+03  0.40249626808E+03  0.00000000000E+00 0.  1.
         21   -1    0    0  504  503 -0.00000000000E+00 -0.00000000000E+00 -0.21924090441E+02  0.21924090441E+02  0.00000000000E+00 0.  1.
         25    2    1    2    0    0  0.31940867910E+02  0.28271902753E+02  0.34309458491E+03  0.36763929227E+03  0.12500094198E+03 0.  0.
          5    1    3    3  501    0 -0.18502680087E+01  0.29244915875E+02  0.73688460127E+01  0.30215864836E+02  0.10000000000E+00 0. -1.
         -5    1    3    3    0  501  0.33791135919E+02 -0.97301312131E+00  0.33572573890E+03  0.33742342743E+03  0.10000000000E+00 0. -1.
         21    1    1    2  504  502 -0.31940867910E+02 -0.28271902753E+02  0.37477592729E+02  0.56781066254E+02  0.00000000000E+00 0.  1.
<mgrwt>
<rscale>  1 0.13207859E+03</rscale>
<asrwt>0</asrwt>
<pdfrwt beam="1">  1       21 0.61922497E-01 0.13207859E+03</pdfrwt>
<pdfrwt beam="2">  1       21 0.33729373E-02 0.13207859E+03</pdfrwt>
<totfact> 0.12624022E+06</totfact>
</mgrwt>
</event>
<event>
 6    1  0.4202038E-002  0.1560691E+03  0.7546771E-02  0.1193208E+00
         21   -1    0    0  504  502  0.00000000000E+00  0.00000000000E+00  0.28585944863E+02  0.28585944863E+02  0.00000000000E+00 0.  1.
         21   -1    0    0  502  503 -0.00000000000E+00 -0.00000000000E+00 -0.86796251260E+03  0.86796251260E+03  0.00000000000E+00 0. -1.
         25    2    1    2    0    0  0.50363054549E+02 -0.78715237231E+02 -0.21756230245E+03  0.26775158537E+03  0.12500012074E+03 0.  0.
          5    1    3    3  501    0 -0.39581653010E+02 -0.20951633434E+02 -0.37786875544E+02  0.58596383523E+02  0.10000000000E+00 0. -1.
         -5    1    3    3    0  501  0.89944707559E+02 -0.57763603797E+02 -0.17977542690E+03  0.20915520185E+03  0.10000000000E+00 0. -1.
         21    1    1    2  504  503 -0.50363054549E+02  0.78715237231E+02 -0.62181426529E+03  0.62879687210E+03  0.00000000000E+00 0. -1.
<mgrwt>
<rscale>  1 0.15606907E+03</rscale>
<asrwt>0</asrwt>
<pdfrwt beam="1">  1       21 0.43978382E-02 0.15606907E+03</pdfrwt>
<pdfrwt beam="2">  1       21 0.13353268E+00 0.15606907E+03</pdfrwt>
<totfact> 0.13707489E+05</totfact>
</mgrwt>
</event>
<event>
 6    1  0.4202038E-002  0.1312095E+03  0.7546771E-02  0.1225672E+00
         21   -1    0    0  504  502  0.00000000000E+00  0.00000000000E+00  0.18184710544E+03  0.18184710544E+03  0.00000000000E+00 0.  1.
         21   -1    0    0  502  503 -0.00000000000E+00 -0.00000000000E+00 -0.44623570016E+02  0.44623570016E+02  0.00000000000E+00 0.  1.
         25    2    1    2    0    0 -0.39870396050E+02 -0.17205234466E+01  0.13217991813E+03  0.18624572353E+03  0.12499332020E+03 0.  0.
          5    1    3    3  501    0 -0.31834131245E+02  0.36133436514E+02  0.13886213582E+03  0.14697530375E+03  0.10000000000E+00 0.  1.
         -5    1    3    3    0  501 -0.80362648056E+01 -0.37853959961E+02 -0.66822176941E+01  0.39270419785E+02  0.10000000000E+00 0.  1.
         21    1    1    2  504  503  0.39870396050E+02  0.17205234466E+01  0.50436172989E+01  0.40224951928E+02  0.00000000000E+00 0.  1.
<mgrwt>
<rscale>  1 0.13120952E+03</rscale>
<asrwt>0</asrwt>
<pdfrwt beam="1">  1       21 0.27976477E-01 0.13120952E+03</pdfrwt>
<pdfrwt beam="2">  1       21 0.68651647E-02 0.13120952E+03</pdfrwt>
<totfact> 0.19001261E+06</totfact>
</mgrwt>
</event>
<event>
 6    1  0.4202038E-002  0.1259710E+03  0.7546771E-02  0.1233559E+00
         21   -1    0    0  503  502  0.00000000000E+00  0.00000000000E+00  0.14501072803E+03  0.14501072803E+03  0.00000000000E+00 0.  1.
         21   -1    0    0  504  503 -0.00000000000E+00 -0.00000000000E+00 -0.89727454565E+02  0.89727454565E+02  0.00000000000E+00 0. -1.
         25    2    1    2    0    0  0.16983469528E+01 -0.15553500107E+02  0.11648179772E+03  0.17157129951E+03  0.12499562340E+03 0.  0.
          5    1    3    3  501    0 -0.82607393020E+01  0.50042394388E+02  0.20092436965E+02  0.54554533021E+02  0.10000000000E+00 0. -1.
         -5    1    3    3    0  501  0.99590862548E+01 -0.65595894495E+02  0.96389360751E+02  0.11701676649E+03  0.10000000000E+00 0. -1.
         21    1    1    2  504  502 -0.16983469528E+01  0.15553500107E+02 -0.61198524252E+02  0.63166883084E+02  0.00000000000E+00 0. -1.
<mgrwt>
<rscale>  1 0.12597103E+03</rscale>
<asrwt>0</asrwt>
<pdfrwt beam="1">  1       21 0.22309343E-01 0.12597103E+03</pdfrwt>
<pdfrwt beam="2">  1       21 0.13804224E-01 0.12597103E+03</pdfrwt>
<totfact> 0.85957808E+05</totfact>
</mgrwt>
</event>
<event>
 6    1  0.4202038E-002  0.1333976E+03  0.7546771E-02  0.1222500E+00
         21   -1    0    0  503  502  0.00000000000E+00  0.00000000000E+00  0.16412753018E+03  0.16412753018E+03  0.00000000000E+00 0.  1.
         21   -1    0    0  504  503 -0.00000000000E+00 -0.00000000000E+00 -0.71981158315E+02  0.71981158315E+02  0.00000000000E+00 0.  1.
         25    2    1    2    0    0 -0.11958459616E+02 -0.45056616037E+02  0.12198278127E+03  0.18076146876E+03  0.12498722437E+03 0.  0.
          5    1    3    3  501    0 -0.68306823101E+02 -0.27662959924E+02  0.58302845865E+02  0.93969640149E+02  0.10000000000E+00 0. -1.
         -5    1    3    3    0  501  0.56348363484E+02 -0.17393656113E+02  0.63679935408E+02  0.86791828612E+02  0.10000000000E+00 0. -1.
         21    1    1    2  504  502  0.11958459616E+02  0.45056616037E+02 -0.29836409412E+02  0.55347219729E+02  0.00000000000E+00 0.  1.
<mgrwt>
<rscale>  1 0.13339756E+03</rscale>
<asrwt>0</asrwt>
<pdfrwt beam="1">  1       21 0.25250389E-01 0.13339756E+03</pdfrwt>
<pdfrwt beam="2">  1       21 0.11074024E-01 0.13339756E+03</pdfrwt>
<totfact> 0.10077179E+06</totfact>
</mgrwt>
</event>
<event>
 6    1  0.4202038E-002  0.1261060E+03  0.7546771E-02  0.1233351E+00
         21   -1    0    0  504  502  0.00000000000E+00  0.00000000000E+00  0.33408332263E+03  0.33408332263E+03  0.00000000000E+00 0.  1.
         21   -1    0    0  502  503 -0.00000000000E+00 -0.00000000000E+00 -0.16273490219E+02  0.16273490219E+02  0.00000000000E+00 0.  1.
         25    2    1    2    0    0 -0.10273906306E+01 -0.16668400366E+02  0.30236972446E+03  0.32761284583E+03  0.12499534143E+03 0.  0.
          5    1    3    3  501    0  0.28080087317E+02 -0.30812992567E+02  0.25523254732E+02  0.48881267851E+02  0.10000000000E+00 0.  1.
         -5    1    3    3    0  501 -0.29107477947E+02  0.14144592201E+02  0.27684646973E+03  0.27873157798E+03  0.10000000000E+00 0.  1.
         21    1    1    2  504  503  0.10273906306E+01  0.16668400366E+02  0.15440107951E+02  0.22743967020E+02  0.00000000000E+00 0.  1.
<mgrwt>
<rscale>  1 0.12610601E+03</rscale>
<asrwt>0</asrwt>
<pdfrwt beam="1">  1       21 0.51397429E-01 0.12610601E+03</pdfrwt>
<pdfrwt beam="2">  1       21 0.25036141E-02 0.12610601E+03</pdfrwt>
<totfact> 0.30399078E+06</totfact>
</mgrwt>
</event>
<event>
 6    1  0.4202038E-002  0.1394438E+03  0.7546771E-02  0.1214079E+00
         21   -1    0    0  503  502  0.00000000000E+00  0.00000000000E+00  0.40308407668E+03  0.40308407668E+03  0.00000000000E+00 0.  1.
         21   -1    0    0  504  503 -0.00000000000E+00 -0.00000000000E+00 -0.18990285487E+03  0.18990285487E+03  0.00000000000E+00 0.  1.
         25    2    1    2    0    0 -0.49671967131E+02 -0.36899672201E+02  0.38547347419E+03  0.40991997561E+03  0.12496278235E+03 0.  0.
          5    1    3    3  501    0  0.41273412332E+02 -0.20265632918E+02  0.15217470994E+03  0.15896962851E+03  0.10000000000E+00 0. -1.
         -5    1    3    3    0  501 -0.90945379463E+02 -0.16634039283E+02  0.23329876425E+03  0.25095034710E+03  0.10000000000E+00 0. -1.
         21    1    1    2  504  502  0.49671967131E+02  0.36899672201E+02 -0.17229225238E+03  0.18306695594E+03  0.00000000000E+00 0.  1.
<mgrwt>
<rscale>  1 0.13944385E+03</rscale>
<asrwt>0</asrwt>
<pdfrwt beam="1">  1       21 0.62012935E-01 0.13944385E+03</pdfrwt>
<pdfrwt beam="2">  1       21 0.29215824E-01 0.13944385E+03</pdfrwt>
<totfact> 0.27937885E+04</totfact>
</mgrwt>
</event>
<event>
 6    1  0.4202038E-002  0.1265616E+03  0.7546771E-02  0.1232649E+00
         21   -1    0    0  503  502  0.00000000000E+00  0.00000000000E+00  0.33450444733E+03  0.33450444733E+03  0.00000000000E+00 0. -1.
         21   -1    0    0  504  503 -0.00000000000E+00 -0.00000000000E+00 -0.17226468675E+02  0.17226468675E+02  0.00000000000E+00 0. -1.
         25    2    1    2    0    0 -0.15688705299E+02 -0.11976494964E+02  0.23280889567E+03  0.26498647592E+03  0.12501311376E+03 0.  0.
          5    1    3    3  501    0 -0.29980556274E+02 -0.11135094670E+02  0.24540801123E+00  0.31982718973E+02  0.10000000000E+00 0.  1.
         -5    1    3    3    0  501  0.14291850976E+02 -0.84140029368E+00  0.23256348766E+03  0.23300375694E+03  0.10000000000E+00 0.  1.
         21    1    1    2  504  502  0.15688705299E+02  0.11976494964E+02  0.84469082981E+02  0.86744440083E+02  0.00000000000E+00 0. -1.
<mgrwt>
<rscale>  1 0.12656165E+03</rscale>
<asrwt>0</asrwt>
<pdfrwt beam="1">  1       21 0.51462218E-01 0.12656165E+03</pdfrwt>
<pdfrwt beam="2">  1       21 0.26502262E-02 0.12656165E+03</pdfrwt>
<totfact> 0.27639152E+06</totfact>
</mgrwt>
</event>
<event>
 6    1  0.4202038E-002  0.1286500E+03  0.7546771E-02  0.1229473E+00
         21   -1    0    0  504  502  0.00000000000E+00  0.00000000000E+00  0.67296441903E+03  0.67296441903E+03  0.00000000000E+00 0. -1.
         21   -1    0    0  502  503 -0.00000000000E+00 -0.00000000000E+00 -0.29813064134E+03  0.29813064134E+03  0.00000000000E+00 0. -1.
         25    2    1    2    0    0 -0.62947002538E+01 -0.29769700966E+02  0.66601593216E+03  0.67832739578E+03  0.12499990253E+03 0.  0.
          5    1    3    3  501    0  0.47685398632E+02  0.15127293161E+02  0.40331046108E+03  0.40640136596E+03  0.10000000000E+00 0.  1.
         -5    1    3    3    0  501 -0.53980098886E+02 -0.44896994127E+02  0.26270547108E+03  0.27192602981E+03  0.10000000000E+00 0.  1.
         21    1    1    2  504  503  0.62947002538E+01  0.29769700966E+02 -0.29118215447E+03  0.29276766459E+03  0.00000000000E+00 0. -1.
<mgrwt>
<rscale>  1 0.12865004E+03</rscale>
<asrwt>0</asrwt>
<pdfrwt beam="1">  1       21 0.10353299E+00 0.12865004E+03</pdfrwt>
<pdfrwt beam="2">  1       21 0.45866253E-01 0.12865004E+03</pdfrwt>
<totfact> 0.36611772E+03</totfact>
</mgrwt>
</event>
<event>
 6    1  0.4202038E-002  0.1273328E+03  0.7546771E-02  0.1231468E+00
         21   -1    0    0  503  502  0.00000000000E+00  0.00000000000E+00  0.91113307818E+01  0.91113307818E+01  0.00000000000E+00 0. -1.
         21   -1    0    0  504  503 -0.00000000000E+00 -0.00000000000E+00 -0.82776497073E+03  0.82776497073E+03  0.00000000000E+00 0. -1.
         25    2    1    2    0    0 -0.15255007243E+02  0.18877053715E+02 -0.45695618979E+03  0.47436546877E+03  0.12499832068E+03 0.  0.
          5    1    3    3  501    0 -0.86266323040E+01  0.69128876748E+02 -0.18407679142E+03  0.19681843289E+03  0.10000000000E+00 0.  1.
         -5    1    3    3    0  501 -0.66283749386E+01 -0.50251823033E+02 -0.27287939837E+03  0.27754703589E+03  0.10000000000E+00 0.  1.
         21    1    1    2  504  502  0.15255007243E+02 -0.18877053715E+02 -0.36169745016E+03  0.36251083274E+03  0.00000000000E+00 0. -1.
<mgrwt>
<rscale>  1 0.12733279E+03</rscale>
<asrwt>0</asrwt>
<pdfrwt beam="1">  1       21 0.14017428E-02 0.12733279E+03</pdfrwt>
<pdfrwt beam="2">  1       21 0.12734850E+00 0.12733279E+03</pdfrwt>
<totfact> 0.10041873E+06</totfact>
</mgrwt>
</event>
<event>
 6    1  0.4202038E-002  0.1285424E+03  0.7546771E-02  0.1229635E+00
         21   -1    0    0  504  502  0.00000000000E+00  0.00000000000E+00  0.11544661288E+03  0.11544661288E+03  0.00000000000E+00 0.  1.
         21   -1    0    0  502  503 -0.00000000000E+00 -0.00000000000E+00 -0.55256438245E+02  0.55256438245E+02  0.00000000000E+00 0.  1.
         25    2    1    2    0    0 -0.43269082843E-01  0.30005712180E+02  0.40332002736E+02  0.13472122757E+03  0.12499117599E+03 0.  0.
          5    1    3    3  501    0 -0.12563669598E+02  0.35739188462E+02 -0.38901533748E+02  0.54299859242E+02  0.10000000000E+00 0.  1.
         -5    1    3    3    0  501  0.12520400515E+02 -0.57334762825E+01  0.79233536484E+02  0.80421368324E+02  0.10000000000E+00 0.  1.
         21    1    1    2  504  503  0.43269082843E-01 -0.30005712180E+02  0.19858171903E+02  0.35981823563E+02  0.00000000000E+00 0.  1.
<mgrwt>
<rscale>  1 0.12854236E+03</rscale>
<asrwt>0</asrwt>
<pdfrwt beam="1">  1       21 0.17761017E-01 0.12854236E+03</pdfrwt>
<pdfrwt beam="2">  1       21 0.85009905E-02 0.12854236E+03</pdfrwt>
<totfact> 0.30742193E+06</totfact>
</mgrwt>
</event>
<event>
 6    1  0.4202038E-002  0.1352779E+03  0.7546771E-02  0.1219828E+00
         21   -1    0    0  503  502  0.00000000000E+00  0.00000000000E+00  0.16237001469E+03  0.16237001469E+03  0.00000000000E+00 0.  1.
         21   -1    0    0  504  503 -0.00000000000E+00 -0.00000000000E+00 -0.18487504212E+03  0.18487504212E+03  0.00000000000E+00 0.  1.
         25    2    1    2    0    0 -0.30068631631E+02  0.42077448011E+02  0.12914106879E+03  0.18702279638E+03  0.12500190590E+03 0.  0.
          5    1    3    3  501    0  0.42635445836E+02  0.21928728676E+02  0.15064439316E+02  0.50255325239E+02  0.10000000000E+00 0.  1.
         -5    1    3    3    0  501 -0.72704077467E+02  0.20148719335E+02  0.11407662947E+03  0.13676747114E+03  0.10000000000E+00 0.  1.
         21    1    1    2  504  502  0.30068631631E+02 -0.42077448011E+02 -0.15164609622E+03  0.16022226043E+03  0.00000000000E+00 0.  1.
<mgrwt>
<rscale>  1 0.13527790E+03</rscale>
<asrwt>0</asrwt>
<pdfrwt beam="1">  1       21 0.24980002E-01 0.13527790E+03</pdfrwt>
<pdfrwt beam="2">  1       21 0.28442314E-01 0.13527790E+03</pdfrwt>
<totfact> 0.18229230E+05</totfact>
</mgrwt>
</event>
<event>
 6    1  0.4202038E-002  0.1283637E+03  0.7546771E-02  0.1229904E+00
         21   -1    0    0  504  502  0.00000000000E+00  0.00000000000E+00  0.33726218863E+03  0.33726218863E+03  0.00000000000E+00 0.  1.
         21   -1    0    0  502  503 -0.00000000000E+00 -0.00000000000E+00 -0.27659836542E+02  0.27659836542E+02  0.00000000000E+00 0.  1.
         25    2    1    2    0    0 -0.12468765107E+02  0.26397270588E+02  0.31021254295E+03  0.33572171129E+03  0.12499983853E+03 0.  0.
          5    1    3    3  501    0 -0.50749076272E+01  0.28747870898E+02  0.32106022753E+03  0.32238466848E+03  0.10000000000E+00 0.  1.
         -5    1    3    3    0  501 -0.73938574795E+01 -0.23506003101E+01 -0.10847684581E+02  0.13337042814E+02  0.10000000000E+00 0.  1.
         21    1    1    2  504  503  0.12468765107E+02 -0.26397270588E+02 -0.61019086086E+00  0.29200313880E+02  0.00000000000E+00 0.  1.
<mgrwt>
<rscale>  1 0.12836372E+03</rscale>
<asrwt>0</asrwt>
<pdfrwt beam="1">  1       21 0.51886487E-01 0.12836372E+03</pdfrwt>
<pdfrwt beam="2">  1       21 0.42553597E-02 0.12836372E+03</pdfrwt>
<totfact> 0.12456591E+06</totfact>
</mgrwt>
</event>
<event>
 6    1  0.4202038E-002  0.1270422E+03  0.7546771E-02  0.1231912E+00
         21   -1    0    0  504  502  0.00000000000E+00  0.00000000000E+00  0.28078795248E+03  0.28078795248E+03  0.00000000000E+00 0.  1.
         21   -1    0    0  502  503 -0.00000000000E+00 -0.00000000000E+00 -0.45800404808E+02  0.45800404808E+02  0.00000000000E+00 0.  1.
         25    2    1    2    0    0  0.46640753224E+01 -0.22236458865E+02  0.26206893033E+03  0.29123846354E+03  0.12499401866E+03 0.  0.
          5    1    3    3  501    0  0.10366807981E+02 -0.36698070245E+02  0.27075727327E+03  0.27342957064E+03  0.10000000000E+00 0. -1.
         -5    1    3    3    0  501 -0.57027326584E+01  0.14461611380E+02 -0.86883429417E+01  0.17808892907E+02  0.10000000000E+00 0. -1.
         21    1    1    2  504  503 -0.46640753224E+01  0.22236458865E+02 -0.27081382657E+02  0.35349893749E+02  0.00000000000E+00 0.  1.
<mgrwt>
<rscale>  1 0.12704219E+03</rscale>
<asrwt>0</asrwt>
<pdfrwt beam="1">  1       21 0.43198145E-01 0.12704219E+03</pdfrwt>
<pdfrwt beam="2">  1       21 0.70462163E-02 0.12704219E+03</pdfrwt>
<totfact> 0.77382780E+05</totfact>
</mgrwt>
</event>
<event>
 6    1  0.4202038E-002  0.1368168E+03  0.7546771E-02  0.1217677E+00
         21   -1    0    0  503  502  0.00000000000E+00  0.00000000000E+00  0.13189980867E+03  0.13189980867E+03  0.00000000000E+00 0.  1.
         21   -1    0    0  504  503 -0.00000000000E+00 -0.00000000000E+00 -0.15683913208E+03  0.15683913208E+03  0.00000000000E+00 0.  1.
         25    2    1    2    0    0 -0.55538856581E+02  0.10161953918E+01  0.88141994325E+02  0.16275091884E+03  0.12503300835E+03 0.  0.
          5    1    3    3  501    0 -0.27840081061E+01  0.47670957091E+02 -0.26749736863E+01  0.47827150608E+02  0.10000000000E+00 0.  1.
         -5    1    3    3    0  501 -0.52754848475E+02 -0.46654761699E+02  0.90816968011E+02  0.11492376824E+03  0.10000000000E+00 0.  1.
         21    1    1    2  504  502  0.55538856581E+02 -0.10161953918E+01 -0.11308131773E+03  0.12598802191E+03  0.00000000000E+00 0.  1.
<mgrwt>
<rscale>  1 0.13681685E+03</rscale>
<asrwt>0</asrwt>
<pdfrwt beam="1">  1       21 0.20292278E-01 0.13681685E+03</pdfrwt>
<pdfrwt beam="2">  1       21 0.24129097E-01 0.13681685E+03</pdfrwt>
<totfact> 0.36772781E+05</totfact>
</mgrwt>
</event>
<event>
 6    1  0.4202038E-002  0.1623512E+03  0.7546771E-02  0.1186068E+00
         21   -1    0    0  503  502  0.00000000000E+00  0.00000000000E+00  0.21207417203E+03  0.21207417203E+03  0.00000000000E+00 0. -1.
         21   -1    0    0  504  503 -0.00000000000E+00 -0.00000000000E+00 -0.14269800143E+03  0.14269800143E+03  0.00000000000E+00 0. -1.
         25    2    1    2    0    0 -0.91384291571E+02  0.48809138912E+02  0.15189073001E+03  0.22232568124E+03  0.12499797553E+03 0.  0.
          5    1    3    3  501    0 -0.11021758757E+03  0.91351620587E+01  0.13674324198E+03  0.17586953125E+03  0.10000000000E+00 0. -1.
         -5    1    3    3    0  501  0.18833296002E+02  0.39673976853E+02  0.15147488036E+02  0.46456149985E+02  0.10000000000E+00 0. -1.
         21    1    1    2  504  502  0.91384291571E+02 -0.48809138912E+02 -0.82514559410E+02  0.13244649222E+03  0.00000000000E+00 0. -1.
<mgrwt>
<rscale>  1 0.16235121E+03</rscale>
<asrwt>0</asrwt>
<pdfrwt beam="1">  1       21 0.32626796E-01 0.16235121E+03</pdfrwt>
<pdfrwt beam="2">  1       21 0.21953539E-01 0.16235121E+03</pdfrwt>
<totfact> 0.17687472E+05</totfact>
</mgrwt>
</event>
<event>
 6    1  0.4202038E-002  0.1266792E+03  0.7546771E-02  0.1232468E+00
         21   -1    0    0  504  502  0.00000000000E+00  0.00000000000E+00  0.95819586937E+02  0.95819586937E+02  0.00000000000E+00 0.  1.
         21   -1    0    0  502  503 -0.00000000000E+00 -0.00000000000E+00 -0.60746949011E+02  0.60746949011E+02  0.00000000000E+00 0.  1.
         25    2    1    2    0    0 -0.18719355318E+02 -0.84543731523E+01  0.44092467895E+02  0.13413334577E+03  0.12500287210E+03 0.  0.
          5    1    3    3  501    0  0.40205683393E+02 -0.29136924285E+02 -0.10998480147E+02  0.50856994597E+02  0.10000000000E+00 0.  1.
         -5    1    3    3    0  501 -0.58925038711E+02  0.20682551133E+02  0.55090948042E+02  0.83276351173E+02  0.10000000000E+00 0.  1.
         21    1    1    2  504  503  0.18719355318E+02  0.84543731523E+01 -0.90198299691E+01  0.22433190179E+02  0.00000000000E+00 0.  1.
<mgrwt>
<rscale>  1 0.12667916E+03</rscale>
<asrwt>0</asrwt>
<pdfrwt beam="1">  1       21 0.14741475E-01 0.12667916E+03</pdfrwt>
<pdfrwt beam="2">  1       21 0.93456845E-02 0.12667916E+03</pdfrwt>
<totfact> 0.36544791E+06</totfact>
</mgrwt>
</event>
<event>
 6    1  0.4202038E-002  0.1287359E+03  0.7546771E-02  0.1229344E+00
         21   -1    0    0  503  502  0.00000000000E+00  0.00000000000E+00  0.12436683109E+03  0.12436683109E+03  0.00000000000E+00 0. -1.
         21   -1    0    0  504  503 -0.00000000000E+00 -0.00000000000E+00 -0.26366649852E+03  0.26366649852E+03  0.00000000000E+00 0. -1.
         25    2    1    2    0    0 -0.10825722836E+02  0.28829614090E+02  0.89743384975E+02  0.15692932104E+03  0.12499837491E+03 0.  0.
          5    1    3    3  501    0  0.49148200399E+02 -0.16119774519E+01  0.60278351223E+01  0.49542798367E+02  0.10000000000E+00 0.  1.
         -5    1    3    3    0  501 -0.59973923235E+02  0.30441591541E+02  0.83715549853E+02  0.10738652267E+03  0.10000000000E+00 0.  1.
         21    1    1    2  504  502  0.10825722836E+02 -0.28829614090E+02 -0.22904305241E+03  0.23110400858E+03  0.00000000000E+00 0. -1.
<mgrwt>
<rscale>  1 0.12873592E+03</rscale>
<asrwt>0</asrwt>
<pdfrwt beam="1">  1       21 0.19133359E-01 0.12873592E+03</pdfrwt>
<pdfrwt beam="2">  1       21 0.40564077E-01 0.12873592E+03</pdfrwt>
<totfact> 0.14983924E+05</totfact>
</mgrwt>
</event>
<event>
 6    1  0.4202038E-002  0.1271754E+03  0.7546771E-02  0.1231708E+00
         21   -1    0    0  504  502  0.00000000000E+00  0.00000000000E+00  0.10188634023E+03  0.10188634023E+03  0.00000000000E+00 0.  1.
         21   -1    0    0  502  503 -0.00000000000E+00 -0.00000000000E+00 -0.64365971342E+02  0.64365971342E+02  0.00000000000E+00 0.  1.
         25    2    1    2    0    0 -0.23367965417E+02  0.14666881983E+01  0.53431370288E+02  0.13794378022E+03  0.12500144875E+03 0.  0.
          5    1    3    3  501    0 -0.30431171867E+02  0.26266419829E+02 -0.30294923382E+02  0.50336601142E+02  0.10000000000E+00 0. -1.
         -5    1    3    3    0  501  0.70632064501E+01 -0.24799731631E+02  0.83726293670E+02  0.87607179078E+02  0.10000000000E+00 0. -1.
         21    1    1    2  504  503  0.23367965417E+02 -0.14666881983E+01 -0.15911001397E+02  0.28308531354E+02  0.00000000000E+00 0.  1.
<mgrwt>
<rscale>  1 0.12717537E+03</rscale>
<asrwt>0</asrwt>
<pdfrwt beam="1">  1       21 0.15674822E-01 0.12717537E+03</pdfrwt>
<pdfrwt beam="2">  1       21 0.99024571E-02 0.12717537E+03</pdfrwt>
<totfact> 0.29577813E+06</totfact>
</mgrwt>
</event>
<event>
 6    1  0.4202038E-002  0.1462821E+03  0.7546771E-02  0.1205117E+00
         21   -1    0    0  504  502  0.00000000000E+00  0.00000000000E+00  0.67924609132E+02  0.67924609132E+02  0.00000000000E+00 0.  1.
         21   -1    0    0  502  503 -0.00000000000E+00 -0.00000000000E+00 -0.33306633948E+03  0.33306633948E+03  0.00000000000E+00 0. -1.
         25    2    1    2    0    0 -0.74365623568E+02  0.15592694547E+02 -0.24096433499E+02  0.14825350931E+03  0.12500034729E+03 0.  0.
          5    1    3    3  501    0 -0.51974283265E+02  0.69095285194E+02 -0.25803303302E+02  0.90229180525E+02  0.10000000000E+00 0.  1.
         -5    1    3    3    0  501 -0.22391340303E+02 -0.53502590647E+02  0.17068698034E+01  0.58024328785E+02  0.10000000000E+00 0.  1.
         21    1    1    2  504  503  0.74365623568E+02 -0.15592694547E+02 -0.24104529685E+03  0.25273743930E+03  0.00000000000E+00 0. -1.
<mgrwt>
<rscale>  1 0.14628214E+03</rscale>
<asrwt>0</asrwt>
<pdfrwt beam="1">  1       21 0.10449940E-01 0.14628214E+03</pdfrwt>
<pdfrwt beam="2">  1       21 0.51240975E-01 0.14628214E+03</pdfrwt>
<totfact> 0.27478617E+05</totfact>
</mgrwt>
</event>
<event>
 6    1  0.4202038E-002  0.2110134E+03  0.7546771E-02  0.1140766E+00
         21   -1    0    0  503  502  0.00000000000E+00  0.00000000000E+00  0.40660641013E+03  0.40660641013E+03  0.00000000000E+00 0.  1.
         21   -1    0    0  504  503 -0.00000000000E+00 -0.00000000000E+00 -0.89452670227E+02  0.89452670227E+02  0.00000000000E+00 0.  1.
         25    2    1    2    0    0  0.12392165421E+03 -0.11638222692E+03  0.16415593434E+03  0.26734588084E+03  0.12500100040E+03 0.  0.
          5    1    3    3  501    0  0.63777935346E+02 -0.11430057699E+03  0.53535475869E+02  0.14141536025E+03  0.10000000000E+00 0.  1.
         -5    1    3    3    0  501  0.60143718860E+02 -0.20816499301E+01  0.11062045847E+03  0.12593052059E+03  0.10000000000E+00 0.  1.
         21    1    1    2  504  502 -0.12392165421E+03  0.11638222692E+03  0.15299780557E+03  0.22871319952E+03  0.00000000000E+00 0.  1.
<mgrwt>
<rscale>  1 0.21101339E+03</rscale>
<asrwt>0</asrwt>
<pdfrwt beam="1">  1       21 0.62554831E-01 0.21101339E+03</pdfrwt>
<pdfrwt beam="2">  1       21 0.13761950E-01 0.21101339E+03</pdfrwt>
<totfact> 0.10784598E+05</totfact>
</mgrwt>
</event>
<event>
 6    1  0.4202038E-002  0.1278711E+03  0.7546771E-02  0.1230649E+00
         21   -1    0    0  504  502  0.00000000000E+00  0.00000000000E+00  0.78233832155E+03  0.78233832155E+03  0.00000000000E+00 0. -1.
         21   -1    0    0  502  503 -0.00000000000E+00 -0.00000000000E+00 -0.12473893832E+02  0.12473893832E+02  0.00000000000E+00 0. -1.
         25    2    1    2    0    0  0.20767959104E+02  0.16922137368E+02  0.75157454175E+03  0.76237478658E+03  0.12503342172E+03 0.  0.
          5    1    3    3  501    0  0.34918549427E+02  0.67099781996E+02  0.43042736874E+03  0.43702335819E+03  0.10000000000E+00 0. -1.
         -5    1    3    3    0  501 -0.14150590323E+02 -0.50177644628E+02  0.32114717301E+03  0.32535142839E+03  0.10000000000E+00 0. -1.
         21    1    1    2  504  503 -0.20767959104E+02 -0.16922137368E+02  0.18289885965E+02  0.32437428799E+02  0.00000000000E+00 0. -1.
<mgrwt>
<rscale>  1 0.12787112E+03</rscale>
<asrwt>0</asrwt>
<pdfrwt beam="1">  1       21 0.12035970E+00 0.12787112E+03</pdfrwt>
<pdfrwt beam="2">  1       21 0.19190612E-02 0.12787112E+03</pdfrwt>
<totfact> 0.69763284E+05</totfact>
</mgrwt>
</event>
<event>
 6    1  0.4202038E-002  0.1274991E+03  0.7546771E-02  0.1231214E+00
         21   -1    0    0  504  502  0.00000000000E+00  0.00000000000E+00  0.68646438862E+03  0.68646438862E+03  0.00000000000E+00 0.  1.
         21   -1    0    0  502  503 -0.00000000000E+00 -0.00000000000E+00 -0.39431999261E+02  0.39431999261E+02  0.00000000000E+00 0. -1.
         25    2    1    2    0    0  0.64526416113E+01 -0.24278801810E+02  0.67578947501E+03  0.68771174730E+03  0.12499974419E+03 0.  0.
          5    1    3    3  501    0 -0.57415850149E+02 -0.20766767253E+02  0.39778089921E+03  0.40243942681E+03  0.10000000000E+00 0. -1.
         -5    1    3    3    0  501  0.63868491760E+02 -0.35120345574E+01  0.27800857579E+03  0.28527232049E+03  0.10000000000E+00 0. -1.
         21    1    1    2  504  503 -0.64526416113E+01  0.24278801810E+02 -0.28757085648E+02  0.38184640578E+02  0.00000000000E+00 0. -1.
<mgrwt>
<rscale>  1 0.12749915E+03</rscale>
<asrwt>0</asrwt>
<pdfrwt beam="1">  1       21 0.10560990E+00 0.12749915E+03</pdfrwt>
<pdfrwt beam="2">  1       21 0.60664619E-02 0.12749915E+03</pdfrwt>
<totfact> 0.14289763E+05</totfact>
</mgrwt>
</event>
<event>
 6    1  0.4202038E-002  0.1899162E+03  0.7546771E-02  0.1158537E+00
         21   -1    0    0  504  502  0.00000000000E+00  0.00000000000E+00  0.72357846006E+03  0.72357846006E+03  0.00000000000E+00 0.  1.
         21   -1    0    0  502  503 -0.00000000000E+00 -0.00000000000E+00 -0.38458808178E+02  0.38458808178E+02  0.00000000000E+00 0.  1.
         25    2    1    2    0    0  0.14039942915E+03  0.27080069903E+02  0.41559566202E+03  0.45693316960E+03  0.12499134890E+03 0.  0.
          5    1    3    3  501    0  0.80036218789E+02 -0.44920214909E+02  0.25313410146E+03  0.26925917876E+03  0.10000000000E+00 0.  1.
         -5    1    3    3    0  501  0.60363210364E+02  0.72000284812E+02  0.16246156056E+03  0.18767399084E+03  0.10000000000E+00 0.  1.
         21    1    1    2  504  503 -0.14039942915E+03 -0.27080069903E+02  0.26952398986E+03  0.30510409863E+03  0.00000000000E+00 0.  1.
<mgrwt>
<rscale>  1 0.18991621E+03</rscale>
<asrwt>0</asrwt>
<pdfrwt beam="1">  1       21 0.11131975E+00 0.18991621E+03</pdfrwt>
<pdfrwt beam="2">  1       21 0.59167403E-02 0.18991621E+03</pdfrwt>
<totfact> 0.12827788E+05</totfact>
</mgrwt>
</event>
<event>
 6    1  0.4202038E-002  0.1267800E+03  0.7546771E-02  0.1232313E+00
         21   -1    0    0  504  502  0.00000000000E+00  0.00000000000E+00  0.19085501841E+03  0.19085501841E+03  0.00000000000E+00 0.  1.
         21   -1    0    0  502  503 -0.00000000000E+00 -0.00000000000E+00 -0.33866891368E+03  0.33866891368E+03  0.00000000000E+00 0. -1.
         25    2    1    2    0    0 -0.42443526923E+01 -0.20720715627E+02  0.16940976413E+03  0.21159593291E+03  0.12500323217E+03 0.  0.
          5    1    3    3  501    0 -0.11100103261E+02 -0.70237503713E+02  0.12906254554E+03  0.14735558993E+03  0.10000000000E+00 0.  1.
         -5    1    3    3    0  501  0.68557505690E+01  0.49516788086E+02  0.40347218586E+02  0.64240342978E+02  0.10000000000E+00 0.  1.
         21    1    1    2  504  503  0.42443526923E+01  0.20720715627E+02 -0.31722365940E+03  0.31792799919E+03  0.00000000000E+00 0. -1.
<mgrwt>
<rscale>  1 0.12678001E+03</rscale>
<asrwt>0</asrwt>
<pdfrwt beam="1">  1       21 0.29362311E-01 0.12678001E+03</pdfrwt>
<pdfrwt beam="2">  1       21 0.52102909E-01 0.12678001E+03</pdfrwt>
<totfact> 0.40247444E+04</totfact>
</mgrwt>
</event>
<event>
 6    1  0.4202038E-002  0.1276688E+03  0.7546771E-02  0.1230956E+00
         21   -1    0    0  504  502  0.00000000000E+00  0.00000000000E+00  0.84713832020E+02  0.84713832020E+02  0.00000000000E+00 0. -1.
         21   -1    0    0  502  503 -0.00000000000E+00 -0.00000000000E+00 -0.10820951055E+03  0.10820951055E+03  0.00000000000E+00 0.  1.
         25    2    1    2    0    0  0.24778488179E+02  0.77219585286E+01 -0.65543537497E+02  0.14351054501E+03  0.12500287637E+03 0.  0.
          5    1    3    3  501    0  0.84323678908E+01 -0.58381429005E+02 -0.23589641980E+02  0.63529341959E+02  0.10000000000E+00 0.  1.
         -5    1    3    3    0  501  0.16346120288E+02  0.66103387534E+02 -0.41953895517E+02  0.79981203048E+02  0.10000000000E+00 0.  1.
         21    1    1    2  504  503 -0.24778488179E+02 -0.77219585286E+01  0.42047858963E+02  0.49412797567E+02  0.00000000000E+00 0. -1.
<mgrwt>
<rscale>  1 0.12766880E+03</rscale>
<asrwt>0</asrwt>
<pdfrwt beam="1">  1       21 0.13032897E-01 0.12766880E+03</pdfrwt>
<pdfrwt beam="2">  1       21 0.16647617E-01 0.12766880E+03</pdfrwt>
<totfact> 0.16335452E+06</totfact>
</mgrwt>
</event>
<event>
 6    1  0.4202038E-002  0.1414978E+03  0.7546771E-02  0.1211328E+00
         21   -1    0    0  503  502  0.00000000000E+00  0.00000000000E+00  0.64290222941E+02  0.64290222941E+02  0.00000000000E+00 0.  1.
         21   -1    0    0  504  503 -0.00000000000E+00 -0.00000000000E+00 -0.38148249233E+03  0.38148249233E+03  0.00000000000E+00 0.  1.
         25    2    1    2    0    0 -0.59226182903E+02  0.29822060913E+02 -0.21967851209E+02  0.14319288589E+03  0.12499808008E+03 0.  0.
          5    1    3    3  501    0 -0.51132132066E+02 -0.38534473547E+02 -0.35250292400E+02  0.73088943729E+02  0.10000000000E+00 0. -1.
         -5    1    3    3    0  501 -0.80940508368E+01  0.68356534460E+02  0.13282441191E+02  0.70103942160E+02  0.10000000000E+00 0. -1.
         21    1    1    2  504  502  0.59226182903E+02 -0.29822060913E+02 -0.29522441818E+03  0.30257982938E+03  0.00000000000E+00 0.  1.
<mgrwt>
<rscale>  1 0.14149776E+03</rscale>
<asrwt>0</asrwt>
<pdfrwt beam="1">  1       21 0.98908038E-02 0.14149776E+03</pdfrwt>
<pdfrwt beam="2">  1       21 0.58689613E-01 0.14149776E+03</pdfrwt>
<totfact> 0.22786725E+05</totfact>
</mgrwt>
</event>
<event>
 6    1  0.4202038E-002  0.1285522E+03  0.7546771E-02  0.1229620E+00
         21   -1    0    0  503  502  0.00000000000E+00  0.00000000000E+00  0.81434149637E+01  0.81434149637E+01  0.00000000000E+00 0. -1.
         21   -1    0    0  504  503 -0.00000000000E+00 -0.00000000000E+00 -0.11742967080E+04  0.11742967080E+04  0.00000000000E+00 0. -1.
         25    2    1    2    0    0  0.20949472072E+02  0.21483010633E+02 -0.52228265583E+03  0.53787065613E+03  0.12500108004E+03 0.  0.
          5    1    3    3  501    0 -0.45882017448E+02 -0.19747592717E+02 -0.21204078325E+03  0.21784496943E+03  0.10000000000E+00 0.  1.
         -5    1    3    3    0  501  0.66831489520E+02  0.41230603350E+02 -0.31024187258E+03  0.32002568670E+03  0.10000000000E+00 0.  1.
         21    1    1    2  504  502 -0.20949472072E+02 -0.21483010633E+02 -0.64387063724E+03  0.64456946687E+03  0.00000000000E+00 0. -1.
<mgrwt>
<rscale>  1 0.12855221E+03</rscale>
<asrwt>0</asrwt>
<pdfrwt beam="1">  1       21 0.12528323E-02 0.12855221E+03</pdfrwt>
<pdfrwt beam="2">  1       21 0.18066115E+00 0.12855221E+03</pdfrwt>
<totfact> 0.48225294E+05</totfact>
</mgrwt>
</event>
<event>
 6    1  0.4202038E-002  0.1450651E+03  0.7546771E-02  0.1206671E+00
         21   -1    0    0  503  502  0.00000000000E+00  0.00000000000E+00  0.34560698721E+03  0.34560698721E+03  0.00000000000E+00 0. -1.
         21   -1    0    0  504  503 -0.00000000000E+00 -0.00000000000E+00 -0.36563425091E+03  0.36563425091E+03  0.00000000000E+00 0. -1.
         25    2    1    2    0    0  0.22349555681E+02  0.70136777162E+02  0.32634445151E+03  0.35713385998E+03  0.12500089107E+03 0.  0.
          5    1    3    3  501    0 -0.33829452791E+02 -0.11748495393E+02  0.15508896869E+03  0.15916990052E+03  0.10000000000E+00 0.  1.
         -5    1    3    3    0  501  0.56179008471E+02  0.81885272555E+02  0.17125548281E+03  0.19796395947E+03  0.10000000000E+00 0.  1.
         21    1    1    2  504  502 -0.22349555681E+02 -0.70136777162E+02 -0.34637171521E+03  0.35410737813E+03  0.00000000000E+00 0. -1.
<mgrwt>
<rscale>  1 0.14506513E+03</rscale>
<asrwt>0</asrwt>
<pdfrwt beam="1">  1       21 0.53170306E-01 0.14506513E+03</pdfrwt>
<pdfrwt beam="2">  1       21 0.56251423E-01 0.14506513E+03</pdfrwt>
<totfact> 0.10317616E+04</totfact>
</mgrwt>
</event>
<event>
 6    1  0.4202038E-002  0.1270175E+03  0.7546771E-02  0.1231950E+00
         21   -1    0    0  504  502  0.00000000000E+00  0.00000000000E+00  0.16203134186E+02  0.16203134186E+02  0.00000000000E+00 0. -1.
         21   -1    0    0  502  503 -0.00000000000E+00 -0.00000000000E+00 -0.61297095176E+03  0.61297095176E+03  0.00000000000E+00 0. -1.
         25    2    1    2    0    0  0.17759322560E+01  0.22438110211E+02 -0.23862351627E+03  0.27032319312E+03  0.12500729377E+03 0.  0.
          5    1    3    3  501    0 -0.52450540735E+02 -0.14411375808E+02 -0.15366940517E+03  0.16301240156E+03  0.10000000000E+00 0.  1.
         -5    1    3    3    0  501  0.54226472992E+02  0.36849486019E+02 -0.84954111096E+02  0.10731079156E+03  0.10000000000E+00 0.  1.
         21    1    1    2  504  503 -0.17759322560E+01 -0.22438110211E+02 -0.35814430130E+03  0.35885089282E+03  0.00000000000E+00 0. -1.
<mgrwt>
<rscale>  1 0.12701750E+03</rscale>
<asrwt>0</asrwt>
<pdfrwt beam="1">  1       21 0.24927897E-02 0.12701750E+03</pdfrwt>
<pdfrwt beam="2">  1       21 0.94303231E-01 0.12701750E+03</pdfrwt>
<totfact> 0.81495400E+05</totfact>
</mgrwt>
</event>
<event>
 6    1  0.4202038E-002  0.1260297E+03  0.7546771E-02  0.1233469E+00
         21   -1    0    0  503  502  0.00000000000E+00  0.00000000000E+00  0.37158239821E+02  0.37158239821E+02  0.00000000000E+00 0. -1.
         21   -1    0    0  504  503 -0.00000000000E+00 -0.00000000000E+00 -0.16581986821E+03  0.16581986821E+03  0.00000000000E+00 0. -1.
         25    2    1    2    0    0 -0.79583567486E+01  0.13925756500E+02 -0.74302952945E+02  0.14630247189E+03  0.12500488922E+03 0.  0.
          5    1    3    3  501    0 -0.11598065557E+02 -0.48750124606E+02 -0.66159377240E+02  0.82994957501E+02  0.10000000000E+00 0.  1.
         -5    1    3    3    0  501  0.36397088087E+01  0.62675881106E+02 -0.81435757058E+01  0.63307514388E+02  0.10000000000E+00 0.  1.
         21    1    1    2  504  502  0.79583567486E+01 -0.13925756500E+02 -0.54358675446E+02  0.56675636145E+02  0.00000000000E+00 0. -1.
<mgrwt>
<rscale>  1 0.12602970E+03</rscale>
<asrwt>0</asrwt>
<pdfrwt beam="1">  1       21 0.57166523E-02 0.12602970E+03</pdfrwt>
<pdfrwt beam="2">  1       21 0.25510749E-01 0.12602970E+03</pdfrwt>
<totfact> 0.30876124E+06</totfact>
</mgrwt>
</event>
<event>
 6    1  0.4202038E-002  0.1386743E+03  0.7546771E-02  0.1215124E+00
         21   -1    0    0  503  502  0.00000000000E+00  0.00000000000E+00  0.20266670894E+04  0.20266670894E+04  0.00000000000E+00 0.  1.
         21   -1    0    0  504  503 -0.00000000000E+00 -0.00000000000E+00 -0.86045175366E+01  0.86045175366E+01  0.00000000000E+00 0.  1.
         25    2    1    2    0    0 -0.53462325200E+02  0.27211993659E+02  0.18752593534E+04  0.18803797995E+04  0.12502733685E+03 0.  0.
          5    1    3    3  501    0 -0.37102685365E+02  0.42275163840E+02  0.18192179964E+04  0.18200873406E+04  0.10000000000E+00 0. -1.
         -5    1    3    3    0  501 -0.16359639835E+02 -0.15063170181E+02  0.56041356998E+02  0.60292458945E+02  0.10000000000E+00 0. -1.
         21    1    1    2  504  502  0.53462325200E+02 -0.27211993659E+02  0.14280321849E+03  0.15489180748E+03  0.00000000000E+00 0.  1.
<mgrwt>
<rscale>  1 0.13867425E+03</rscale>
<asrwt>0</asrwt>
<pdfrwt beam="1">  1       21 0.31179456E+00 0.13867425E+03</pdfrwt>
<pdfrwt beam="2">  1       21 0.13237735E-02 0.13867425E+03</pdfrwt>
<totfact> 0.73819238E+04</totfact>
</mgrwt>
</event>
<event>
 6    1  0.4202038E-002  0.1379194E+03  0.7546771E-02  0.1216156E+00
         21   -1    0    0  504  502  0.00000000000E+00  0.00000000000E+00  0.12234216227E+03  0.12234216227E+03  0.00000000000E+00 0.  1.
         21   -1    0    0  502  503 -0.00000000000E+00 -0.00000000000E+00 -0.98297068361E+02  0.98297068361E+02  0.00000000000E+00 0.  1.
         25    2    1    2    0    0 -0.79130056435E+01 -0.57735846573E+02  0.61873443475E+02  0.15116241674E+03  0.12500283833E+03 0.  0.
          5    1    3    3  501    0  0.55578511554E+02 -0.47024586092E+02  0.25075859191E+02  0.77000593230E+02  0.10000000000E+00 0.  1.
         -5    1    3    3    0  501 -0.63491517197E+02 -0.10711260481E+02  0.36797584283E+02  0.74161823509E+02  0.10000000000E+00 0.  1.
         21    1    1    2  504  503  0.79130056435E+01  0.57735846573E+02 -0.37828349565E+02  0.69476813892E+02  0.00000000000E+00 0.  1.
<mgrwt>
<rscale>  1 0.13791937E+03</rscale>
<asrwt>0</asrwt>
<pdfrwt beam="1">  1       21 0.18821871E-01 0.13791937E+03</pdfrwt>
<pdfrwt beam="2">  1       21 0.15122626E-01 0.13791937E+03</pdfrwt>
<totfact> 0.10004240E+06</totfact>
</mgrwt>
</event>
<event>
 6    1  0.4202038E-002  0.1280547E+03  0.7546771E-02  0.1230371E+00
         21   -1    0    0  504  502  0.00000000000E+00  0.00000000000E+00  0.11627434838E+03  0.11627434838E+03  0.00000000000E+00 0.  1.
         21   -1    0    0  502  503 -0.00000000000E+00 -0.00000000000E+00 -0.52252142410E+02  0.52252142410E+02  0.00000000000E+00 0.  1.
         25    2    1    2    0    0  0.15622018341E+01 -0.27790756766E+02  0.52208869962E+02  0.13828874048E+03  0.12499297182E+03 0.  0.
          5    1    3    3  501    0  0.34038073564E+02  0.31619542287E+02 -0.86416830624E+01  0.47255418658E+02  0.10000000000E+00 0. -1.
         -5    1    3    3    0  501 -0.32475871729E+02 -0.59410299054E+02  0.60850553025E+02  0.91033321820E+02  0.10000000000E+00 0. -1.
         21    1    1    2  504  503 -0.15622018341E+01  0.27790756766E+02  0.11813336006E+02  0.30237750310E+02  0.00000000000E+00 0. -1.
<mgrwt>
<rscale>  1 0.12805471E+03</rscale>
<asrwt>0</asrwt>
<pdfrwt beam="1">  1       21 0.17888361E-01 0.12805471E+03</pdfrwt>
<pdfrwt beam="2">  1       21 0.80387912E-02 0.12805471E+03</pdfrwt>
<totfact> 0.33414065E+06</totfact>
</mgrwt>
</event>
<event>
 6    1  0.4202038E-002  0.1267959E+03  0.7546771E-02  0.1232289E+00
         21   -1    0    0  503  502  0.00000000000E+00  0.00000000000E+00  0.14985398959E+02  0.14985398959E+02  0.00000000000E+00 0. -1.
         21   -1    0    0  504  503 -0.00000000000E+00 -0.00000000000E+00 -0.37701766892E+03  0.37701766892E+03  0.00000000000E+00 0. -1.
         25    2    1    2    0    0  0.15600448556E+02 -0.14457364797E+02 -0.28203134504E+03  0.30922301364E+03  0.12499921274E+03 0.  0.
          5    1    3    3  501    0  0.15362254270E+02  0.33606223799E+02 -0.18461142043E+02  0.41306184765E+02  0.10000000000E+00 0. -1.
         -5    1    3    3    0  501  0.23819428666E+00 -0.48063588596E+02 -0.26357020300E+03  0.26791682887E+03  0.10000000000E+00 0. -1.
         21    1    1    2  504  502 -0.15600448556E+02  0.14457364797E+02 -0.80000924921E+02  0.82780054242E+02  0.00000000000E+00 0. -1.
<mgrwt>
<rscale>  1 0.12679587E+03</rscale>
<asrwt>0</asrwt>
<pdfrwt beam="1">  1       21 0.23054459E-02 0.12679587E+03</pdfrwt>
<pdfrwt beam="2">  1       21 0.58002721E-01 0.12679587E+03</pdfrwt>
<totfact> 0.27000879E+06</totfact>
</mgrwt>
</event>
<event>
 6    1  0.4202038E-002  0.1268208E+03  0.7546771E-02  0.1232251E+00
         21   -1    0    0  503  502  0.00000000000E+00  0.00000000000E+00  0.19267179273E+03  0.19267179273E+03  0.00000000000E+00 0.  1.
         21   -1    0    0  504  503 -0.00000000000E+00 -0.00000000000E+00 -0.82752262960E+02  0.82752262960E+02  0.00000000000E+00 0.  1.
         25    2    1    2    0    0  0.51909774870E+01 -0.20730121426E+02  0.16974928467E+03  0.21189230180E+03  0.12500737473E+03 0.  0.
          5    1    3    3  501    0  0.18035457195E+02  0.36742598948E+02  0.14010502693E+03  0.14596138142E+03  0.10000000000E+00 0.  1.
         -5    1    3    3    0  501 -0.12844479708E+02 -0.57472720375E+02  0.29644257739E+02  0.65930920387E+02  0.10000000000E+00 0.  1.
         21    1    1    2  504  502 -0.51909774870E+01  0.20730121426E+02 -0.59829754896E+02  0.63531753891E+02  0.00000000000E+00 0.  1.
<mgrwt>
<rscale>  1 0.12682085E+03</rscale>
<asrwt>0</asrwt>
<pdfrwt beam="1">  1       21 0.29641814E-01 0.12682085E+03</pdfrwt>
<pdfrwt beam="2">  1       21 0.12731117E-01 0.12682085E+03</pdfrwt>
<totfact> 0.57958061E+05</totfact>
</mgrwt>
</event>
<event>
 6    1  0.4202038E-002  0.1264102E+03  0.7546771E-02  0.1232882E+00
         21   -1    0    0  503  502  0.00000000000E+00  0.00000000000E+00  0.18876483338E+04  0.18876483338E+04  0.00000000000E+00 0. -1.
         21   -1    0    0  504  503 -0.00000000000E+00 -0.00000000000E+00 -0.39422502220E+01  0.39422502220E+01  0.00000000000E+00 0. -1.
         25    2    1    2    0    0  0.18092981442E+02 -0.53127746075E+01  0.18351940746E+04  0.18395425622E+04  0.12499586188E+03 0.  0.
          5    1    3    3  501    0  0.62530863160E+02  0.16021228430E+02  0.62047349695E+03  0.62382221749E+03  0.10000000000E+00 0. -1.
         -5    1    3    3    0  501 -0.44437881717E+02 -0.21334003038E+02  0.12147205776E+04  0.12157203448E+04  0.10000000000E+00 0. -1.
         21    1    1    2  504  502 -0.18092981442E+02  0.53127746075E+01  0.48512009064E+02  0.52048021816E+02  0.00000000000E+00 0. -1.
<mgrwt>
<rscale>  1 0.12641023E+03</rscale>
<asrwt>0</asrwt>
<pdfrwt beam="1">  1       21 0.29040671E+00 0.12641023E+03</pdfrwt>
<pdfrwt beam="2">  1       21 0.60650154E-03 0.12641023E+03</pdfrwt>
<totfact> 0.33625313E+05</totfact>
</mgrwt>
</event>
<event>
 6    1  0.4202038E-002  0.1290943E+03  0.7546771E-02  0.1228806E+00
         21   -1    0    0  503  502  0.00000000000E+00  0.00000000000E+00  0.23390778508E+02  0.23390778508E+02  0.00000000000E+00 0. -1.
         21   -1    0    0  504  503 -0.00000000000E+00 -0.00000000000E+00 -0.38057609158E+03  0.38057609158E+03  0.00000000000E+00 0. -1.
         25    2    1    2    0    0  0.17145177488E+02 -0.27299919387E+02 -0.16705256272E+03  0.21112054405E+03  0.12500433072E+03 0.  0.
          5    1    3    3  501    0 -0.34639389792E+02 -0.57264810228E+02 -0.10800578363E+03  0.12706063558E+03  0.10000000000E+00 0. -1.
         -5    1    3    3    0  501  0.51784567280E+02  0.29964890842E+02 -0.59046779082E+02  0.84059908467E+02  0.10000000000E+00 0. -1.
         21    1    1    2  504  502 -0.17145177488E+02  0.27299919387E+02 -0.19013275035E+03  0.19284632604E+03  0.00000000000E+00 0. -1.
<mgrwt>
<rscale>  1 0.12909425E+03</rscale>
<asrwt>0</asrwt>
<pdfrwt beam="1">  1       21 0.35985814E-02 0.12909425E+03</pdfrwt>
<pdfrwt beam="2">  1       21 0.58550166E-01 0.12909425E+03</pdfrwt>
<totfact> 0.12774783E+06</totfact>
</mgrwt>
</event>
<event>
 6    1  0.4202038E-002  0.1272222E+03  0.7546771E-02  0.1231637E+00
         21   -1    0    0  503  502  0.00000000000E+00  0.00000000000E+00  0.54748864723E+02  0.54748864723E+02  0.00000000000E+00 0. -1.
         21   -1    0    0  504  503 -0.00000000000E+00 -0.00000000000E+00 -0.20995054192E+03  0.20995054192E+03  0.00000000000E+00 0. -1.
         25    2    1    2    0    0 -0.21855513806E+02  0.90001853390E+01 -0.21624232313E+02  0.12904690721E+03  0.12500731986E+03 0.  0.
          5    1    3    3  501    0  0.14628959438E+02  0.61303649238E+02 -0.54737378911E+01  0.63262276837E+02  0.10000000000E+00 0. -1.
         -5    1    3    3    0  501 -0.36484473243E+02 -0.52303463899E+02 -0.16150494422E+02  0.65784630376E+02  0.10000000000E+00 0. -1.
         21    1    1    2  504  502  0.21855513806E+02 -0.90001853390E+01 -0.13357744489E+03  0.13565249943E+03  0.00000000000E+00 0. -1.
<mgrwt>
<rscale>  1 0.12722223E+03</rscale>
<asrwt>0</asrwt>
<pdfrwt beam="1">  1       21 0.84229023E-02 0.12722223E+03</pdfrwt>
<pdfrwt beam="2">  1       21 0.32300083E-01 0.12722223E+03</pdfrwt>
<totfact> 0.10126276E+06</totfact>
</mgrwt>
</event>
<event>
 6    1  0.4202038E-002  0.1275283E+03  0.7546771E-02  0.1231170E+00
         21   -1    0    0  503  502  0.00000000000E+00  0.00000000000E+00  0.19662222874E+02  0.19662222874E+02  0.00000000000E+00 0.  1.
         21   -1    0    0  504  503 -0.00000000000E+00 -0.00000000000E+00 -0.31229928166E+03  0.31229928166E+03  0.00000000000E+00 0.  1.
         25    2    1    2    0    0  0.23500186868E+02 -0.92905286652E+01 -0.21142647836E+03  0.24691016076E+03  0.12499959611E+03 0.  0.
          5    1    3    3  501    0  0.40962249942E+02  0.86422607980E+01 -0.88451244565E+01  0.42788325729E+02  0.10000000000E+00 0. -1.
         -5    1    3    3    0  501 -0.17462063074E+02 -0.17932789463E+02 -0.20258135391E+03  0.20412183503E+03  0.10000000000E+00 0. -1.
         21    1    1    2  504  502 -0.23500186868E+02  0.92905286652E+01 -0.81210580424E+02  0.85051343778E+02  0.00000000000E+00 0. -1.
<mgrwt>
<rscale>  1 0.12752832E+03</rscale>
<asrwt>0</asrwt>
<pdfrwt beam="1">  1       21 0.30249579E-02 0.12752832E+03</pdfrwt>
<pdfrwt beam="2">  1       21 0.48046036E-01 0.12752832E+03</pdfrwt>
<totfact> 0.25654740E+06</totfact>
</mgrwt>
</event>
<event>
 6    1  0.4202038E-002  0.1259856E+03  0.7546771E-02  0.1233537E+00
         21   -1    0    0  504  502  0.00000000000E+00  0.00000000000E+00  0.17704257694E+03  0.17704257694E+03  0.00000000000E+00 0. -1.
         21   -1    0    0  502  503 -0.00000000000E+00 -0.00000000000E+00 -0.35475130088E+02  0.35475130088E+02  0.00000000000E+00 0. -1.
         25    2    1    2    0    0 -0.95517198232E+01 -0.12525765079E+02  0.14897993799E+03  0.19510865286E+03  0.12499693737E+03 0.  0.
          5    1    3    3  501    0  0.29889251334E+02 -0.33016839085E+02  0.14358808520E+03  0.15033638023E+03  0.10000000000E+00 0.  1.
         -5    1    3    3    0  501 -0.39440971157E+02  0.20491074006E+02  0.53918527909E+01  0.44772272628E+02  0.10000000000E+00 0.  1.
         21    1    1    2  504  503  0.95517198232E+01  0.12525765079E+02 -0.74124911365E+01  0.17409054175E+02  0.00000000000E+00 0. -1.
<mgrwt>
<rscale>  1 0.12598557E+03</rscale>
<asrwt>0</asrwt>
<pdfrwt beam="1">  1       21 0.27237319E-01 0.12598557E+03</pdfrwt>
<pdfrwt beam="2">  1       21 0.54577124E-02 0.12598557E+03</pdfrwt>
<totfact> 0.29484087E+06</totfact>
</mgrwt>
</event>
<event>
 6    1  0.4202038E-002  0.1275232E+03  0.7546771E-02  0.1231178E+00
         21   -1    0    0  504  502  0.00000000000E+00  0.00000000000E+00  0.95933736263E+02  0.95933736263E+02  0.00000000000E+00 0.  1.
         21   -1    0    0  502  503 -0.00000000000E+00 -0.00000000000E+00 -0.85578318639E+02  0.85578318639E+02  0.00000000000E+00 0.  1.
         25    2    1    2    0    0  0.80626065980E+01  0.23886098812E+02  0.47956045009E+02  0.13624221371E+03  0.12500642865E+03 0.  0.
          5    1    3    3  501    0  0.59675427764E+02  0.18773952037E+02  0.55748615388E+02  0.83794606459E+02  0.10000000000E+00 0.  1.
         -5    1    3    3    0  501 -0.51612821166E+02  0.51121467754E+01 -0.77925703797E+01  0.52447607253E+02  0.10000000000E+00 0.  1.
         21    1    1    2  504  503 -0.80626065980E+01 -0.23886098812E+02 -0.37600627384E+02  0.45269841189E+02  0.00000000000E+00 0.  1.
<mgrwt>
<rscale>  1 0.12752317E+03</rscale>
<asrwt>0</asrwt>
<pdfrwt beam="1">  1       21 0.14759036E-01 0.12752317E+03</pdfrwt>
<pdfrwt beam="2">  1       21 0.13165895E-01 0.12752317E+03</pdfrwt>
<totfact> 0.19945187E+06</totfact>
</mgrwt>
</event>
<event>
 6    1  0.4202038E-002  0.1282746E+03  0.7546771E-02  0.1230039E+00
         21   -1    0    0  504  502  0.00000000000E+00  0.00000000000E+00  0.39222056463E+02  0.39222056463E+02  0.00000000000E+00 0. -1.
         21   -1    0    0  502  503 -0.00000000000E+00 -0.00000000000E+00 -0.27939068630E+03  0.27939068630E+03  0.00000000000E+00 0. -1.
         25    2    1    2    0    0 -0.18171991623E+02  0.22351996830E+02 -0.70213925529E+02  0.14623398955E+03  0.12499820527E+03 0.  0.
          5    1    3    3  501    0 -0.92484419807E+01 -0.36244534246E+01 -0.10299163130E+03  0.10346959196E+03  0.10000000000E+00 0. -1.
         -5    1    3    3    0  501 -0.89235496420E+01  0.25976450255E+02  0.32777705772E+02  0.42764397596E+02  0.10000000000E+00 0. -1.
         21    1    1    2  504  503  0.18171991623E+02 -0.22351996830E+02 -0.16995470430E+03  0.17237875321E+03  0.00000000000E+00 0. -1.
<mgrwt>
<rscale>  1 0.12827464E+03</rscale>
<asrwt>0</asrwt>
<pdfrwt beam="1">  1       21 0.60341625E-02 0.12827464E+03</pdfrwt>
<pdfrwt beam="2">  1       21 0.42983183E-01 0.12827464E+03</pdfrwt>
<totfact> 0.10179889E+06</totfact>
</mgrwt>
</event>
<event>
 6    1  0.4202038E-002  0.1259080E+03  0.7546771E-02  0.1233657E+00
         21   -1    0    0  504  502  0.00000000000E+00  0.00000000000E+00  0.22942882097E+02  0.22942882097E+02  0.00000000000E+00 0. -1.
         21   -1    0    0  502  503 -0.00000000000E+00 -0.00000000000E+00 -0.23207158150E+03  0.23207158150E+03  0.00000000000E+00 0. -1.
         25    2    1    2    0    0  0.13259232285E+02  0.73120415074E+01 -0.15996679939E+03  0.20357356931E+03  0.12499419196E+03 0.  0.
          5    1    3    3  501    0 -0.45793933785E+02 -0.19132464986E+02 -0.28965676266E+02  0.57464388882E+02  0.10000000000E+00 0. -1.
         -5    1    3    3    0  501  0.59053166070E+02  0.26444506494E+02 -0.13100112312E+03  0.14610918043E+03  0.10000000000E+00 0. -1.
         21    1    1    2  504  503 -0.13259232285E+02 -0.73120415074E+01 -0.49161900015E+02  0.51440894286E+02  0.00000000000E+00 0. -1.
<mgrwt>
<rscale>  1 0.12590799E+03</rscale>
<asrwt>0</asrwt>
<pdfrwt beam="1">  1       21 0.35296740E-02 0.12590799E+03</pdfrwt>
<pdfrwt beam="2">  1       21 0.35703322E-01 0.12590799E+03</pdfrwt>
<totfact> 0.36110372E+06</totfact>
</mgrwt>
</event>
<event>
 6    1  0.4202038E-002  0.1298324E+03  0.7546771E-02  0.1227705E+00
         21   -1    0    0  503  502  0.00000000000E+00  0.00000000000E+00  0.87178449519E+02  0.87178449519E+02  0.00000000000E+00 0. -1.
         21   -1    0    0  504  503 -0.00000000000E+00 -0.00000000000E+00 -0.91584791603E+02  0.91584791603E+02  0.00000000000E+00 0. -1.
         25    2    1    2    0    0 -0.19574002293E+02  0.29127797547E+02  0.25904786783E+02  0.13239153974E+03  0.12499956664E+03 0.  0.
          5    1    3    3  501    0 -0.10787263163E+01  0.56627401585E+02  0.61602243399E+02  0.83681973283E+02  0.10000000000E+00 0.  1.
         -5    1    3    3    0  501 -0.18495275976E+02 -0.27499604037E+02 -0.35697456616E+02  0.48709566458E+02  0.10000000000E+00 0.  1.
         21    1    1    2  504  502  0.19574002293E+02 -0.29127797547E+02 -0.30311128867E+02  0.46371701381E+02  0.00000000000E+00 0. -1.
<mgrwt>
<rscale>  1 0.12983244E+03</rscale>
<asrwt>0</asrwt>
<pdfrwt beam="1">  1       21 0.13412069E-01 0.12983244E+03</pdfrwt>
<pdfrwt beam="2">  1       21 0.14089968E-01 0.12983244E+03</pdfrwt>
<totfact> 0.20984926E+06</totfact>
</mgrwt>
</event>
<event>
 6    1  0.4202038E-002  0.1286103E+03  0.7546771E-02  0.1229532E+00
         21   -1    0    0  503  502  0.00000000000E+00  0.00000000000E+00  0.40672836198E+03  0.40672836198E+03  0.00000000000E+00 0.  1.
         21   -1    0    0  504  503 -0.00000000000E+00 -0.00000000000E+00 -0.17657220854E+02  0.17657220854E+02  0.00000000000E+00 0.  1.
         25    2    1    2    0    0  0.30199475082E+02  0.15435799991E+01  0.36061561660E+03  0.38286320561E+03  0.12500488126E+03 0.  0.
          5    1    3    3  501    0 -0.26966643128E+02  0.14460553842E+02  0.28765824242E+03  0.28928114679E+03  0.10000000000E+00 0. -1.
         -5    1    3    3    0  501  0.57166118210E+02 -0.12916973843E+02  0.72957374185E+02  0.93582058817E+02  0.10000000000E+00 0. -1.
         21    1    1    2  504  502 -0.30199475082E+02 -0.15435799991E+01  0.28455524526E+02  0.41522377226E+02  0.00000000000E+00 0.  1.
<mgrwt>
<rscale>  1 0.12861031E+03</rscale>
<asrwt>0</asrwt>
<pdfrwt beam="1">  1       21 0.62573587E-01 0.12861031E+03</pdfrwt>
<pdfrwt beam="2">  1       21 0.27164958E-02 0.12861031E+03</pdfrwt>
<totfact> 0.17602775E+06</totfact>
</mgrwt>
</event>
<event>
 6    1  0.4202038E-002  0.1260157E+03  0.7546771E-02  0.1233490E+00
         21   -1    0    0  504  502  0.00000000000E+00  0.00000000000E+00  0.91436811093E+01  0.91436811093E+01  0.00000000000E+00 0.  1.
         21   -1    0    0  502  503 -0.00000000000E+00 -0.00000000000E+00 -0.55204396107E+03  0.55204396107E+03  0.00000000000E+00 0.  1.
         25    2    1    2    0    0 -0.54441141247E+01  0.14986373406E+02 -0.48923827345E+03  0.50520692488E+03  0.12500287586E+03 0.  0.
          5    1    3    3  501    0 -0.31953879853E+02 -0.14897302992E+01 -0.26842349610E+02  0.41758729226E+02  0.10000000000E+00 0.  1.
         -5    1    3    3    0  501  0.26509765728E+02  0.16476103705E+02 -0.46239592384E+03  0.46344819565E+03  0.10000000000E+00 0.  1.
         21    1    1    2  504  503  0.54441141247E+01 -0.14986373406E+02 -0.53662006516E+02  0.55980717303E+02  0.00000000000E+00 0.  1.
<mgrwt>
<rscale>  1 0.12601567E+03</rscale>
<asrwt>0</asrwt>
<pdfrwt beam="1">  1       21 0.14067197E-02 0.12601567E+03</pdfrwt>
<pdfrwt beam="2">  1       21 0.84929869E-01 0.12601567E+03</pdfrwt>
<totfact> 0.25985770E+06</totfact>
</mgrwt>
</event>
<event>
 6    1  0.4202038E-002  0.1259001E+03  0.7546771E-02  0.1233669E+00
         21   -1    0    0  504  502  0.00000000000E+00  0.00000000000E+00  0.34556359652E+02  0.34556359652E+02  0.00000000000E+00 0.  1.
         21   -1    0    0  502  503 -0.00000000000E+00 -0.00000000000E+00 -0.15112710351E+03  0.15112710351E+03  0.00000000000E+00 0.  1.
         25    2    1    2    0    0 -0.15015604121E+02  0.24196030351E+00 -0.88647257989E+02  0.15397781737E+03  0.12500121992E+03 0.  0.
          5    1    3    3  501    0  0.27454264051E+02 -0.51858857764E+02 -0.41983636601E+02  0.72150630527E+02  0.10000000000E+00 0.  1.
         -5    1    3    3    0  501 -0.42469868171E+02  0.52100818068E+02 -0.46663621388E+02  0.81827186844E+02  0.10000000000E+00 0.  1.
         21    1    1    2  504  503  0.15015604121E+02 -0.24196030351E+00 -0.27923485868E+02  0.31705645790E+02  0.00000000000E+00 0.  1.
<mgrwt>
<rscale>  1 0.12590009E+03</rscale>
<asrwt>0</asrwt>
<pdfrwt beam="1">  1       21 0.53163630E-02 0.12590009E+03</pdfrwt>
<pdfrwt beam="2">  1       21 0.23250324E-01 0.12590009E+03</pdfrwt>
<totfact> 0.41560480E+06</totfact>
</mgrwt>
</event>
<event>
 6    1  0.4202038E-002  0.1267008E+03  0.7546771E-02  0.1232435E+00
         21   -1    0    0  503  502  0.00000000000E+00  0.00000000000E+00  0.20727561645E+04  0.20727561645E+04  0.00000000000E+00 0. -1.
         21   -1    0    0  504  503 -0.00000000000E+00 -0.00000000000E+00 -0.26698208983E+01  0.26698208983E+01  0.00000000000E+00 0. -1.
         25    2    1    2    0    0 -0.17164384904E+02  0.11530166767E+02  0.18653851905E+04  0.18696831290E+04  0.12500213312E+03 0.  0.
          5    1    3    3  501    0 -0.27284723220E+02 -0.17562782792E+02  0.12879220551E+03  0.13281697806E+03  0.10000000000E+00 0.  1.
         -5    1    3    3    0  501  0.10120338316E+02  0.29092949559E+02  0.17365929850E+04  0.17368661510E+04  0.10000000000E+00 0.  1.
         21    1    1    2  504  502  0.17164384904E+02 -0.11530166767E+02  0.20470115310E+03  0.20574285634E+03  0.00000000000E+00 0.  1.
<mgrwt>
<rscale>  1 0.12670081E+03</rscale>
<asrwt>0</asrwt>
<pdfrwt beam="1">  1       21 0.31888428E+00 0.12670081E+03</pdfrwt>
<pdfrwt beam="2">  1       21 0.41074333E-03 0.12670081E+03</pdfrwt>
<totfact> 0.42454555E+05</totfact>
</mgrwt>
</event>
<event>
 6    1  0.4202038E-002  0.1281874E+03  0.7546771E-02  0.1230170E+00
         21   -1    0    0  504  502  0.00000000000E+00  0.00000000000E+00  0.21207160635E+02  0.21207160635E+02  0.00000000000E+00 0.  1.
         21   -1    0    0  502  503 -0.00000000000E+00 -0.00000000000E+00 -0.36302995568E+03  0.36302995568E+03  0.00000000000E+00 0.  1.
         25    2    1    2    0    0 -0.22391415716E+02 -0.17596627643E+02 -0.18637802253E+03  0.22620517618E+03  0.12498398955E+03 0.  0.
          5    1    3    3  501    0 -0.30578438428E+02 -0.62419664106E+02 -0.59853731102E+02  0.91726411085E+02  0.10000000000E+00 0. -1.
         -5    1    3    3    0  501  0.81870227120E+01  0.44823036462E+02 -0.12652429143E+03  0.13447876509E+03  0.10000000000E+00 0. -1.
         21    1    1    2  504  503  0.22391415716E+02  0.17596627643E+02 -0.15544477251E+03  0.15803194013E+03  0.00000000000E+00 0.  1.
<mgrwt>
<rscale>  1 0.12818742E+03</rscale>
<asrwt>0</asrwt>
<pdfrwt beam="1">  1       21 0.32626404E-02 0.12818742E+03</pdfrwt>
<pdfrwt beam="2">  1       21 0.55850757E-01 0.12818742E+03</pdfrwt>
<totfact> 0.16584149E+06</totfact>
</mgrwt>
</event>
<event>
 6    1  0.4202038E-002  0.1261027E+03  0.7546771E-02  0.1233356E+00
         21   -1    0    0  503  502  0.00000000000E+00  0.00000000000E+00  0.30735488716E+02  0.30735488716E+02  0.00000000000E+00 0.  1.
         21   -1    0    0  504  503 -0.00000000000E+00 -0.00000000000E+00 -0.25526856762E+03  0.25526856762E+03  0.00000000000E+00 0.  1.
         25    2    1    2    0    0  0.14183804520E+02 -0.87782952567E+01 -0.10158666208E+03  0.16193125437E+03  0.12499456969E+03 0.  0.
          5    1    3    3  501    0 -0.18029748111E+02 -0.40815180398E+02 -0.10723644139E+03  0.11614910732E+03  0.10000000000E+00 0. -1.
         -5    1    3    3    0  501  0.32213552631E+02  0.32036885141E+02  0.56497793108E+01  0.45782147054E+02  0.10000000000E+00 0. -1.
         21    1    1    2  504  502 -0.14183804520E+02  0.87782952567E+01 -0.12294641682E+03  0.12407280196E+03  0.00000000000E+00 0.  1.
<mgrwt>
<rscale>  1 0.12610266E+03</rscale>
<asrwt>0</asrwt>
<pdfrwt beam="1">  1       21 0.47285367E-02 0.12610266E+03</pdfrwt>
<pdfrwt beam="2">  1       21 0.39272088E-01 0.12610266E+03</pdfrwt>
<totfact> 0.18393864E+06</totfact>
</mgrwt>
</event>
<event>
 6    1  0.4202038E-002  0.1261538E+03  0.7546771E-02  0.1233277E+00
         21   -1    0    0  503  502  0.00000000000E+00  0.00000000000E+00  0.77553740833E+02  0.77553740833E+02  0.00000000000E+00 0. -1.
         21   -1    0    0  504  503 -0.00000000000E+00 -0.00000000000E+00 -0.70871606058E+02  0.70871606058E+02  0.00000000000E+00 0. -1.
         25    2    1    2    0    0  0.11144630139E+02  0.12169620488E+02  0.19340632182E+02  0.12762775087E+03  0.12506990163E+03 0.  0.
          5    1    3    3  501    0  0.59306418360E+02 -0.22917807442E+02 -0.38248088812E+01  0.63695496855E+02  0.10000000000E+00 0. -1.
         -5    1    3    3    0  501 -0.48161788221E+02  0.35087427930E+02  0.23165441063E+02  0.63932254012E+02  0.10000000000E+00 0. -1.
         21    1    1    2  504  502 -0.11144630139E+02 -0.12169620488E+02 -0.12658497407E+02  0.20797596023E+02  0.00000000000E+00 0. -1.
<mgrwt>
<rscale>  1 0.12615381E+03</rscale>
<asrwt>0</asrwt>
<pdfrwt beam="1">  1       21 0.11931345E-01 0.12615381E+03</pdfrwt>
<pdfrwt beam="2">  1       21 0.10903324E-01 0.12615381E+03</pdfrwt>
<totfact> 0.40691943E+06</totfact>
</mgrwt>
</event>
<event>
 6    1  0.4202038E-002  0.1490657E+03  0.7546771E-02  0.1201626E+00
         21   -1    0    0  504  502  0.00000000000E+00  0.00000000000E+00  0.23803144317E+03  0.23803144317E+03  0.00000000000E+00 0. -1.
         21   -1    0    0  502  503 -0.00000000000E+00 -0.00000000000E+00 -0.12740261213E+03  0.12740261213E+03  0.00000000000E+00 0. -1.
         25    2    1    2    0    0 -0.22375314353E+02  0.78066105138E+02  0.19689435202E+03  0.24695742649E+03  0.12500245268E+03 0.  0.
          5    1    3    3  501    0 -0.56742899778E+02  0.20186121902E+02  0.15828642674E+03  0.16935713472E+03  0.10000000000E+00 0.  1.
         -5    1    3    3    0  501  0.34367585425E+02  0.57879983235E+02  0.38607925281E+02  0.77600291763E+02  0.10000000000E+00 0.  1.
         21    1    1    2  504  503  0.22375314353E+02 -0.78066105138E+02 -0.86265520982E+02  0.11847662881E+03  0.00000000000E+00 0. -1.
<mgrwt>
<rscale>  1 0.14906571E+03</rscale>
<asrwt>0</asrwt>
<pdfrwt beam="1">  1       21 0.36620222E-01 0.14906571E+03</pdfrwt>
<pdfrwt beam="2">  1       21 0.19600402E-01 0.14906571E+03</pdfrwt>
<totfact> 0.17465425E+05</totfact>
</mgrwt>
</event>
<event>
 6    1  0.4202038E-002  0.1268169E+03  0.7546771E-02  0.1232257E+00
         21   -1    0    0  504  502  0.00000000000E+00  0.00000000000E+00  0.10652497780E+03  0.10652497780E+03  0.00000000000E+00 0.  1.
         21   -1    0    0  502  503 -0.00000000000E+00 -0.00000000000E+00 -0.61029680993E+02  0.61029680993E+02  0.00000000000E+00 0.  1.
         25    2    1    2    0    0  0.16785757203E+02 -0.13245756905E+02  0.61406551430E+02  0.14090170877E+03  0.12500126102E+03 0.  0.
          5    1    3    3  501    0  0.11471984133E+02  0.13906110798E+00  0.99509121783E+02  0.10016836365E+03  0.10000000000E+00 0.  1.
         -5    1    3    3    0  501  0.53137730701E+01 -0.13384818013E+02 -0.38102570353E+02  0.40733345124E+02  0.10000000000E+00 0.  1.
         21    1    1    2  504  503 -0.16785757203E+02  0.13245756905E+02 -0.15911254625E+02  0.26652950017E+02  0.00000000000E+00 0.  1.
<mgrwt>
<rscale>  1 0.12681690E+03</rscale>
<asrwt>0</asrwt>
<pdfrwt beam="1">  1       21 0.16388458E-01 0.12681690E+03</pdfrwt>
<pdfrwt beam="2">  1       21 0.93891817E-02 0.12681690E+03</pdfrwt>
<totfact> 0.29937260E+06</totfact>
</mgrwt>
</event>
<event>
 6    1  0.4202038E-002  0.1315831E+03  0.7546771E-02  0.1225125E+00
         21   -1    0    0  504  502  0.00000000000E+00  0.00000000000E+00  0.36289673125E+02  0.36289673125E+02  0.00000000000E+00 0.  1.
         21   -1    0    0  502  503 -0.00000000000E+00 -0.00000000000E+00 -0.22218663985E+03  0.22218663985E+03  0.00000000000E+00 0.  1.
         25    2    1    2    0    0 -0.92286382693E+01  0.40087133262E+02 -0.10738252404E+03  0.16983848963E+03  0.12498783970E+03 0.  0.
          5    1    3    3  501    0  0.37947635972E+02  0.17036528810E+02  0.86431410507E+01  0.42485059456E+02  0.10000000000E+00 0. -1.
         -5    1    3    3    0  501 -0.47176274242E+02  0.23050604452E+02 -0.11602566509E+03  0.12735343017E+03  0.10000000000E+00 0. -1.
         21    1    1    2  504  503  0.92286382693E+01 -0.40087133262E+02 -0.78514442689E+02  0.88637823350E+02  0.00000000000E+00 0. -1.
<mgrwt>
<rscale>  1 0.13158308E+03</rscale>
<asrwt>0</asrwt>
<pdfrwt beam="1">  1       21 0.55830267E-02 0.13158308E+03</pdfrwt>
<pdfrwt beam="2">  1       21 0.34182560E-01 0.13158308E+03</pdfrwt>
<totfact> 0.18317780E+06</totfact>
</mgrwt>
</event>
<event>
 6    1  0.4202038E-002  0.1313032E+03  0.7546771E-02  0.1225535E+00
         21   -1    0    0  504  502  0.00000000000E+00  0.00000000000E+00  0.11290958038E+04  0.11290958038E+04  0.00000000000E+00 0. -1.
         21   -1    0    0  502  503 -0.00000000000E+00 -0.00000000000E+00 -0.70318292686E+01  0.70318292686E+01  0.00000000000E+00 0. -1.
         25    2    1    2    0    0  0.60354751630E+01 -0.39753065957E+02  0.96962525334E+03  0.97847517691E+03  0.12499522674E+03 0.  0.
          5    1    3    3  501    0 -0.17379405323E+01 -0.60417424900E+02  0.20989985281E+03  0.21842903625E+03  0.10000000000E+00 0.  1.
         -5    1    3    3    0  501  0.77734156953E+01  0.20664358944E+02  0.75972540053E+03  0.76004614066E+03  0.10000000000E+00 0.  1.
         21    1    1    2  504  503 -0.60354751630E+01  0.39753065957E+02  0.15243872121E+03  0.15765245617E+03  0.00000000000E+00 0. -1.
<mgrwt>
<rscale>  1 0.13130324E+03</rscale>
<asrwt>0</asrwt>
<pdfrwt beam="1">  1       21 0.17370690E+00 0.13130324E+03</pdfrwt>
<pdfrwt beam="2">  1       21 0.10818208E-02 0.13130324E+03</pdfrwt>
<totfact> 0.67724979E+05</totfact>
</mgrwt>
</event>
<event>
 6    1  0.4202038E-002  0.1275409E+03  0.7546771E-02  0.1231151E+00
         21   -1    0    0  504  502  0.00000000000E+00  0.00000000000E+00  0.90336651969E+02  0.90336651969E+02  0.00000000000E+00 0. -1.
         21   -1    0    0  502  503 -0.00000000000E+00 -0.00000000000E+00 -0.37209425536E+03  0.37209425536E+03  0.00000000000E+00 0. -1.
         25    2    1    2    0    0 -0.21194718999E+02 -0.13874129200E+02  0.44583026168E+02  0.13510856761E+03  0.12499988498E+03 0.  0.
          5    1    3    3  501    0 -0.57533308259E+02 -0.20997162371E+02 -0.16722646955E+02  0.63487158608E+02  0.10000000000E+00 0. -1.
         -5    1    3    3    0  501  0.36338589261E+02  0.71230331708E+01  0.61305673123E+02  0.71621409007E+02  0.10000000000E+00 0. -1.
         21    1    1    2  504  503  0.21194718999E+02  0.13874129200E+02 -0.32634062956E+03  0.32732233971E+03  0.00000000000E+00 0. -1.
<mgrwt>
<rscale>  1 0.12754089E+03</rscale>
<asrwt>0</asrwt>
<pdfrwt beam="1">  1       21 0.13897947E-01 0.12754089E+03</pdfrwt>
<pdfrwt beam="2">  1       21 0.57245269E-01 0.12754089E+03</pdfrwt>
<totfact> 0.13206104E+05</totfact>
</mgrwt>
</event>
<event>
 6    1  0.4202038E-002  0.1272175E+03  0.7546771E-02  0.1231644E+00
         21   -1    0    0  503  502  0.00000000000E+00  0.00000000000E+00  0.16087219097E+03  0.16087219097E+03  0.00000000000E+00 0. -1.
         21   -1    0    0  504  503 -0.00000000000E+00 -0.00000000000E+00 -0.55841422862E+02  0.55841422862E+02  0.00000000000E+00 0. -1.
         25    2    1    2    0    0 -0.14198945009E+02 -0.18954821795E+02  0.13028300320E+03  0.18209323420E+03  0.12499355868E+03 0.  0.
          5    1    3    3  501    0 -0.47349343498E+02  0.37264685939E+02  0.47798870977E+02  0.76911372465E+02  0.10000000000E+00 0. -1.
         -5    1    3    3    0  501  0.33150398490E+02 -0.56219507734E+02  0.82484132222E+02  0.10518186174E+03  0.10000000000E+00 0. -1.
         21    1    1    2  504  502  0.14198945009E+02  0.18954821795E+02 -0.25252235092E+02  0.34620379630E+02  0.00000000000E+00 0. -1.
<mgrwt>
<rscale>  1 0.12721747E+03</rscale>
<asrwt>0</asrwt>
<pdfrwt beam="1">  1       21 0.24749568E-01 0.12721747E+03</pdfrwt>
<pdfrwt beam="2">  1       21 0.85909882E-02 0.12721747E+03</pdfrwt>
<totfact> 0.16296057E+06</totfact>
</mgrwt>
</event>
<event>
 6    1  0.4202038E-002  0.1264613E+03  0.7546771E-02  0.1232803E+00
         21   -1    0    0  503  502  0.00000000000E+00  0.00000000000E+00  0.17924001259E+03  0.17924001259E+03  0.00000000000E+00 0.  1.
         21   -1    0    0  504  503 -0.00000000000E+00 -0.00000000000E+00 -0.31377330418E+02  0.31377330418E+02  0.00000000000E+00 0.  1.
         25    2    1    2    0    0 -0.11564431178E+02  0.15672917530E+02  0.14227532464E+03  0.19035419970E+03  0.12495229863E+03 0.  0.
          5    1    3    3  501    0  0.53573173654E+02 -0.10007964416E+02  0.46044748643E+02  0.71346851120E+02  0.10000000000E+00 0. -1.
         -5    1    3    3    0  501 -0.65137604832E+02  0.25680881947E+02  0.96230575994E+02  0.11900734858E+03  0.10000000000E+00 0. -1.
         21    1    1    2  504  502  0.11564431178E+02 -0.15672917530E+02  0.55873575350E+01  0.20263143305E+02  0.00000000000E+00 0.  1.
<mgrwt>
<rscale>  1 0.12646127E+03</rscale>
<asrwt>0</asrwt>
<pdfrwt beam="1">  1       21 0.27575386E-01 0.12646127E+03</pdfrwt>
<pdfrwt beam="2">  1       21 0.48272817E-02 0.12646127E+03</pdfrwt>
<totfact> 0.35402427E+06</totfact>
</mgrwt>
</event>
<event>
 6    1  0.4202038E-002  0.1260886E+03  0.7546771E-02  0.1233378E+00
         21   -1    0    0  504  502  0.00000000000E+00  0.00000000000E+00  0.10619781409E+03  0.10619781409E+03  0.00000000000E+00 0.  1.
         21   -1    0    0  502  503 -0.00000000000E+00 -0.00000000000E+00 -0.50743737774E+02  0.50743737774E+02  0.00000000000E+00 0.  1.
         25    2    1    2    0    0  0.15112367559E+02  0.66786441050E+01  0.60240431921E+02  0.13973989089E+03  0.12500135810E+03 0.  0.
          5    1    3    3  501    0  0.26659942581E+02 -0.33990876991E+02  0.81632918076E+02  0.92358408229E+02  0.10000000000E+00 0.  1.
         -5    1    3    3    0  501 -0.11547575022E+02  0.40669521096E+02 -0.21392486155E+02  0.47381482659E+02  0.10000000000E+00 0.  1.
         21    1    1    2  504  503 -0.15112367559E+02 -0.66786441050E+01 -0.47863556058E+01  0.17201660975E+02  0.00000000000E+00 0.  1.
<mgrwt>
<rscale>  1 0.12608857E+03</rscale>
<asrwt>0</asrwt>
<pdfrwt beam="1">  1       21 0.16338125E-01 0.12608857E+03</pdfrwt>
<pdfrwt beam="2">  1       21 0.78067289E-02 0.12608857E+03</pdfrwt>
<totfact> 0.41424024E+06</totfact>
</mgrwt>
</event>
<event>
 6    1  0.4202038E-002  0.1587218E+03  0.7546771E-02  0.1190147E+00
         21   -1    0    0  503  502  0.00000000000E+00  0.00000000000E+00  0.21366651406E+03  0.21366651406E+03  0.00000000000E+00 0.  1.
         21   -1    0    0  504  503 -0.00000000000E+00 -0.00000000000E+00 -0.18272523798E+03  0.18272523798E+03  0.00000000000E+00 0.  1.
         25    2    1    2    0    0 -0.75436147404E+02 -0.62259497306E+02  0.16597694086E+03  0.22965396957E+03  0.12500297398E+03 0.  0.
          5    1    3    3  501    0 -0.10334035890E+03 -0.16467262482E+02  0.11779821738E+03  0.15756532147E+03  0.10000000000E+00 0. -1.
         -5    1    3    3    0  501  0.27904211500E+02 -0.45792234823E+02  0.48178723479E+02  0.72088648105E+02  0.10000000000E+00 0. -1.
         21    1    1    2  504  502  0.75436147404E+02  0.62259497306E+02 -0.13503566477E+03  0.16673778246E+03  0.00000000000E+00 0.  1.
<mgrwt>
<rscale>  1 0.15872177E+03</rscale>
<asrwt>0</asrwt>
<pdfrwt beam="1">  1       21 0.32871772E-01 0.15872177E+03</pdfrwt>
<pdfrwt beam="2">  1       21 0.28111575E-01 0.15872177E+03</pdfrwt>
<totfact> 0.10910471E+05</totfact>
</mgrwt>
</event>
<event>
 6    1  0.4202038E-002  0.1265867E+03  0.7546771E-02  0.1232610E+00
         21   -1    0    0  503  502  0.00000000000E+00  0.00000000000E+00  0.12783145224E+02  0.12783145224E+02  0.00000000000E+00 0. -1.
         21   -1    0    0  504  503 -0.00000000000E+00 -0.00000000000E+00 -0.42686009879E+03  0.42686009879E+03  0.00000000000E+00 0. -1.
         25    2    1    2    0    0 -0.17075737269E+02  0.10358590999E+02 -0.37444220447E+03  0.39526087649E+03  0.12500125914E+03 0.  0.
          5    1    3    3  501    0 -0.42439790990E+01 -0.35152138030E+02 -0.26771226850E+02  0.44389106250E+02  0.10000000000E+00 0.  1.
         -5    1    3    3    0  501 -0.12831758170E+02  0.45510729029E+02 -0.34767097762E+03  0.35087177024E+03  0.10000000000E+00 0.  1.
         21    1    1    2  504  502  0.17075737269E+02 -0.10358590999E+02 -0.39634749098E+02  0.44382367522E+02  0.00000000000E+00 0.  1.
<mgrwt>
<rscale>  1 0.12658671E+03</rscale>
<asrwt>0</asrwt>
<pdfrwt beam="1">  1       21 0.19666377E-02 0.12658671E+03</pdfrwt>
<pdfrwt beam="2">  1       21 0.65670784E-01 0.12658671E+03</pdfrwt>
<totfact> 0.26789045E+06</totfact>
</mgrwt>
</event>
<event>
 6    1  0.4202038E-002  0.1264527E+03  0.7546771E-02  0.1232816E+00
         21   -1    0    0  504  502  0.00000000000E+00  0.00000000000E+00  0.23910229968E+02  0.23910229968E+02  0.00000000000E+00 0.  1.
         21   -1    0    0  502  503 -0.00000000000E+00 -0.00000000000E+00 -0.22241342793E+03  0.22241342793E+03  0.00000000000E+00 0.  1.
         25    2    1    2    0    0  0.11157809537E+02  0.15468571524E+02 -0.17770786220E+03  0.21810629785E+03  0.12500599768E+03 0.  0.
          5    1    3    3  501    0 -0.66378031282E+01  0.43026068030E+02 -0.18003096561E+03  0.18522003547E+03  0.10000000000E+00 0. -1.
         -5    1    3    3    0  501  0.17795612665E+02 -0.27557496506E+02  0.23231034102E+01  0.32886262379E+02  0.10000000000E+00 0. -1.
         21    1    1    2  504  503 -0.11157809537E+02 -0.15468571524E+02 -0.20795335756E+02  0.28217360044E+02  0.00000000000E+00 0. -1.
<mgrwt>
<rscale>  1 0.12645265E+03</rscale>
<asrwt>0</asrwt>
<pdfrwt beam="1">  1       21 0.36784971E-02 0.12645265E+03</pdfrwt>
<pdfrwt beam="2">  1       21 0.34217448E-01 0.12645265E+03</pdfrwt>
<totfact> 0.36669873E+06</totfact>
</mgrwt>
</event>
<event>
 6    1  0.4202038E-002  0.1325442E+03  0.7546771E-02  0.1223729E+00
         21   -1    0    0  503  502  0.00000000000E+00  0.00000000000E+00  0.12509891298E+04  0.12509891298E+04  0.00000000000E+00 0. -1.
         21   -1    0    0  504  503 -0.00000000000E+00 -0.00000000000E+00 -0.28474288318E+02  0.28474288318E+02  0.00000000000E+00 0. -1.
         25    2    1    2    0    0 -0.34642158269E+02 -0.27260828279E+02  0.12279185116E+04  0.12350513529E+04  0.12499896515E+03 0.  0.
          5    1    3    3  501    0  0.75912995152E+01  0.28510500216E+02  0.84648350321E+02  0.89642789241E+02  0.10000000000E+00 0.  1.
         -5    1    3    3    0  501 -0.42233457784E+02 -0.55771328495E+02  0.11432701613E+04  0.11454085637E+04  0.10000000000E+00 0.  1.
         21    1    1    2  504  502  0.34642158269E+02  0.27260828279E+02 -0.54036700973E+01  0.44412065236E+02  0.00000000000E+00 0. -1.
<mgrwt>
<rscale>  1 0.13254423E+03</rscale>
<asrwt>0</asrwt>
<pdfrwt beam="1">  1       21 0.19245982E+00 0.13254423E+03</pdfrwt>
<pdfrwt beam="2">  1       21 0.43806607E-02 0.13254423E+03</pdfrwt>
<totfact> 0.52668682E+04</totfact>
</mgrwt>
</event>
<event>
 6    1  0.4202038E-002  0.1271896E+03  0.7546771E-02  0.1231686E+00
         21   -1    0    0  504  502  0.00000000000E+00  0.00000000000E+00  0.10760091659E+03  0.10760091659E+03  0.00000000000E+00 0.  1.
         21   -1    0    0  502  503 -0.00000000000E+00 -0.00000000000E+00 -0.52977205889E+02  0.52977205889E+02  0.00000000000E+00 0.  1.
         25    2    1    2    0    0  0.12679173701E+02  0.19799291826E+02  0.42342034925E+02  0.13405241867E+03  0.12499771849E+03 0.  0.
          5    1    3    3  501    0  0.30799031034E+02  0.13355412038E+02  0.82750595787E+02  0.89300719182E+02  0.10000000000E+00 0.  1.
         -5    1    3    3    0  501 -0.18119857333E+02  0.64438797879E+01 -0.40408560861E+02  0.44751699491E+02  0.10000000000E+00 0.  1.
         21    1    1    2  504  503 -0.12679173701E+02 -0.19799291826E+02  0.12281675777E+02  0.26525703807E+02  0.00000000000E+00 0.  1.
<mgrwt>
<rscale>  1 0.12718963E+03</rscale>
<asrwt>0</asrwt>
<pdfrwt beam="1">  1       21 0.16553987E-01 0.12718963E+03</pdfrwt>
<pdfrwt beam="2">  1       21 0.81503394E-02 0.12718963E+03</pdfrwt>
<totfact> 0.37570579E+06</totfact>
</mgrwt>
</event>
<event>
 6    1  0.4202038E-002  0.1261862E+03  0.7546771E-02  0.1233227E+00
         21   -1    0    0  504  502  0.00000000000E+00  0.00000000000E+00  0.80137216823E+02  0.80137216823E+02  0.00000000000E+00 0.  1.
         21   -1    0    0  502  503 -0.00000000000E+00 -0.00000000000E+00 -0.76024969144E+02  0.76024969144E+02  0.00000000000E+00 0.  1.
         25    2    1    2    0    0 -0.54561409562E+01  0.16391742127E+02  0.25429974634E+02  0.12872308673E+03  0.12499796304E+03 0.  0.
          5    1    3    3  501    0  0.40465321624E+02 -0.26435405997E+02 -0.18857500994E+02  0.51883410529E+02  0.10000000000E+00 0.  1.
         -5    1    3    3    0  501 -0.45921462580E+02  0.42827148124E+02  0.44287475628E+02  0.76839676206E+02  0.10000000000E+00 0.  1.
         21    1    1    2  504  503  0.54561409562E+01 -0.16391742127E+02 -0.21317726955E+02  0.27439099231E+02  0.00000000000E+00 0.  1.
<mgrwt>
<rscale>  1 0.12618617E+03</rscale>
<asrwt>0</asrwt>
<pdfrwt beam="1">  1       21 0.12328803E-01 0.12618617E+03</pdfrwt>
<pdfrwt beam="2">  1       21 0.11696149E-01 0.12618617E+03</pdfrwt>
<totfact> 0.33927983E+06</totfact>
</mgrwt>
</event>
<event>
 6    1  0.4202038E-002  0.1353505E+03  0.7546771E-02  0.1219726E+00
         21   -1    0    0  503  502  0.00000000000E+00  0.00000000000E+00  0.90536682562E+02  0.90536682562E+02  0.00000000000E+00 0.  1.
         21   -1    0    0  504  503 -0.00000000000E+00 -0.00000000000E+00 -0.97097933869E+02  0.97097933869E+02  0.00000000000E+00 0.  1.
         25    2    1    2    0    0 -0.30722005098E+02 -0.41842924566E+02 -0.91539351269E+01  0.13565968071E+03  0.12500033004E+03 0.  0.
          5    1    3    3  501    0 -0.73249210242E+02 -0.46144597524E+01 -0.24005964866E+02  0.77220699227E+02  0.10000000000E+00 0.  1.
         -5    1    3    3    0  501  0.42527205144E+02 -0.37228464814E+02  0.14852029739E+02  0.58438981486E+02  0.10000000000E+00 0.  1.
         21    1    1    2  504  502  0.30722005098E+02  0.41842924566E+02  0.25926838203E+01  0.51974935718E+02  0.00000000000E+00 0.  1.
<mgrwt>
<rscale>  1 0.13535049E+03</rscale>
<asrwt>0</asrwt>
<pdfrwt beam="1">  1       21 0.13928721E-01 0.13535049E+03</pdfrwt>
<pdfrwt beam="2">  1       21 0.14938144E-01 0.13535049E+03</pdfrwt>
<totfact> 0.17671932E+06</totfact>
</mgrwt>
</event>
<event>
 6    1  0.4202038E-002  0.1270667E+03  0.7546771E-02  0.1231874E+00
         21   -1    0    0  504  502  0.00000000000E+00  0.00000000000E+00  0.69666551417E+01  0.69666551417E+01  0.00000000000E+00 0.  1.
         21   -1    0    0  502  503 -0.00000000000E+00 -0.00000000000E+00 -0.81803692140E+03  0.81803692140E+03  0.00000000000E+00 0.  1.
         25    2    1    2    0    0  0.21962799123E+02  0.58768193773E+01 -0.64635000272E+03  0.65872168706E+03  0.12501613267E+03 0.  0.
          5    1    3    3  501    0  0.10907057300E+02 -0.37935438284E+02 -0.55885899081E+03  0.56025123203E+03  0.10000000000E+00 0.  1.
         -5    1    3    3    0  501  0.11055741824E+02  0.43812257661E+02 -0.87491011911E+02  0.98470455031E+02  0.10000000000E+00 0.  1.
         21    1    1    2  504  503 -0.21962799123E+02 -0.58768193773E+01 -0.16472026354E+03  0.16628188949E+03  0.00000000000E+00 0.  1.
<mgrwt>
<rscale>  1 0.12706666E+03</rscale>
<asrwt>0</asrwt>
<pdfrwt beam="1">  1       21 0.10717928E-02 0.12706666E+03</pdfrwt>
<pdfrwt beam="2">  1       21 0.12585187E+00 0.12706666E+03</pdfrwt>
<totfact> 0.15824101E+06</totfact>
</mgrwt>
</event>
<event>
 6    1  0.4202038E-002  0.1422495E+03  0.7546771E-02  0.1210334E+00
         21   -1    0    0  503  502  0.00000000000E+00  0.00000000000E+00  0.47235799758E+02  0.47235799758E+02  0.00000000000E+00 0.  1.
         21   -1    0    0  504  503 -0.00000000000E+00 -0.00000000000E+00 -0.24704141479E+03  0.24704141479E+03  0.00000000000E+00 0.  1.
         25    2    1    2    0    0  0.39703917712E+02 -0.55123964501E+02 -0.10136225396E+03  0.17466890429E+03  0.12497946653E+03 0.  0.
          5    1    3    3  501    0  0.81226991030E+02 -0.12360832196E+02 -0.51601999907E+02  0.97022629519E+02  0.10000000000E+00 0.  1.
         -5    1    3    3    0  501 -0.41523073317E+02 -0.42763132305E+02 -0.49760254055E+02  0.77646274771E+02  0.10000000000E+00 0.  1.
         21    1    1    2  504  502 -0.39703917712E+02  0.55123964501E+02 -0.98443361067E+02  0.11960831026E+03  0.00000000000E+00 0.  1.
<mgrwt>
<rscale>  1 0.14224950E+03</rscale>
<asrwt>0</asrwt>
<pdfrwt beam="1">  1       21 0.72670460E-02 0.14224950E+03</pdfrwt>
<pdfrwt beam="2">  1       21 0.38006372E-01 0.14224950E+03</pdfrwt>
<totfact> 0.94893895E+05</totfact>
</mgrwt>
</event>
<event>
 6    1  0.4202038E-002  0.1264111E+03  0.7546771E-02  0.1232880E+00
         21   -1    0    0  503  502  0.00000000000E+00  0.00000000000E+00  0.13396334803E+03  0.13396334803E+03  0.00000000000E+00 0.  1.
         21   -1    0    0  504  503 -0.00000000000E+00 -0.00000000000E+00 -0.14002598810E+04  0.14002598810E+04  0.00000000000E+00 0.  1.
         25    2    1    2    0    0 -0.16854533819E+02  0.84589802274E+01  0.10406289159E+03  0.16373405280E+03  0.12499649989E+03 0.  0.
          5    1    3    3  501    0  0.44625993716E+02  0.37594599424E+02  0.49673033927E+02  0.76630630432E+02  0.10000000000E+00 0.  1.
         -5    1    3    3    0  501 -0.61480527534E+02 -0.29135619197E+02  0.54389857666E+02  0.87103422372E+02  0.10000000000E+00 0.  1.
         21    1    1    2  504  502  0.16854533819E+02 -0.84589802274E+01 -0.13703594245E+04  0.13704891762E+04  0.00000000000E+00 0.  1.
<mgrwt>
<rscale>  1 0.12641105E+03</rscale>
<asrwt>0</asrwt>
<pdfrwt beam="1">  1       21 0.20609747E-01 0.12641105E+03</pdfrwt>
<pdfrwt beam="2">  1       21 0.21542458E+00 0.12641105E+03</pdfrwt>
<totfact> 0.25414278E+03</totfact>
</mgrwt>
</event>
<event>
 6    1  0.4202038E-002  0.1277494E+03  0.7546771E-02  0.1230834E+00
         21   -1    0    0  503  502  0.00000000000E+00  0.00000000000E+00  0.42819932290E+03  0.42819932290E+03  0.00000000000E+00 0.  1.
         21   -1    0    0  504  503 -0.00000000000E+00 -0.00000000000E+00 -0.49097406920E+02  0.49097406920E+02  0.00000000000E+00 0.  1.
         25    2    1    2    0    0  0.75854271661E+01  0.25367417174E+02  0.41413081726E+03  0.43338695318E+03  0.12497548887E+03 0.  0.
          5    1    3    3  501    0 -0.55140552049E+02  0.21595598757E+02  0.13752580616E+03  0.14973378953E+03  0.10000000000E+00 0. -1.
         -5    1    3    3    0  501  0.62725979215E+02  0.37718184169E+01  0.27660501110E+03  0.28365316365E+03  0.10000000000E+00 0. -1.
         21    1    1    2  504  502 -0.75854271661E+01 -0.25367417174E+02 -0.35028901285E+02  0.43909776640E+02  0.00000000000E+00 0.  1.
<mgrwt>
<rscale>  1 0.12774943E+03</rscale>
<asrwt>0</asrwt>
<pdfrwt beam="1">  1       21 0.65876816E-01 0.12774943E+03</pdfrwt>
<pdfrwt beam="2">  1       21 0.75534475E-02 0.12774943E+03</pdfrwt>
<totfact> 0.28498093E+05</totfact>
</mgrwt>
</event>
<event>
 6    1  0.4202038E-002  0.1263766E+03  0.7546771E-02  0.1232933E+00
         21   -1    0    0  504  502  0.00000000000E+00  0.00000000000E+00  0.13644267610E+02  0.13644267610E+02  0.00000000000E+00 0. -1.
         21   -1    0    0  502  503 -0.00000000000E+00 -0.00000000000E+00 -0.41960258718E+03  0.41960258718E+03  0.00000000000E+00 0. -1.
         25    2    1    2    0    0  0.23215649517E+01  0.18424209492E+02 -0.29779448883E+03  0.32350053166E+03  0.12500478091E+03 0.  0.
          5    1    3    3  501    0  0.52813532599E+02  0.30372303152E+02 -0.85681679877E+02  0.10513375429E+03  0.10000000000E+00 0.  1.
         -5    1    3    3    0  501 -0.50491967648E+02 -0.11948093659E+02 -0.21211280895E+03  0.21836677738E+03  0.10000000000E+00 0.  1.
         21    1    1    2  504  503 -0.23215649517E+01 -0.18424209492E+02 -0.10816383074E+03  0.10974632312E+03  0.00000000000E+00 0. -1.
<mgrwt>
<rscale>  1 0.12637657E+03</rscale>
<asrwt>0</asrwt>
<pdfrwt beam="1">  1       21 0.20991181E-02 0.12637657E+03</pdfrwt>
<pdfrwt beam="2">  1       21 0.64554245E-01 0.12637657E+03</pdfrwt>
<totfact> 0.25019093E+06</totfact>
</mgrwt>
</event>
<event>
 6    1  0.4202038E-002  0.1348600E+03  0.7546771E-02  0.1220417E+00
         21   -1    0    0  504  502  0.00000000000E+00  0.00000000000E+00  0.44572075439E+02  0.44572075439E+02  0.00000000000E+00 0.  1.
         21   -1    0    0  502  503 -0.00000000000E+00 -0.00000000000E+00 -0.62642536787E+03  0.62642536787E+03  0.00000000000E+00 0.  1.
         25    2    1    2    0    0  0.47713239837E+02  0.16915654466E+02 -0.61557815321E+02  0.14824503908E+03  0.12499813744E+03 0.  0.
          5    1    3    3  501    0 -0.65385220670E+01  0.80067649106E+01 -0.87037495546E+02  0.87649279438E+02  0.10000000000E+00 0. -1.
         -5    1    3    3    0  501  0.54251761904E+02  0.89088895550E+01  0.25479680225E+02  0.60595759647E+02  0.10000000000E+00 0. -1.
         21    1    1    2  504  503 -0.47713239837E+02 -0.16915654466E+02 -0.52029547711E+03  0.52275240423E+03  0.00000000000E+00 0.  1.
<mgrwt>
<rscale>  1 0.13486003E+03</rscale>
<asrwt>0</asrwt>
<pdfrwt beam="1">  1       21 0.68572425E-02 0.13486003E+03</pdfrwt>
<pdfrwt beam="2">  1       21 0.96373131E-01 0.13486003E+03</pdfrwt>
<totfact> 0.14339162E+05</totfact>
</mgrwt>
</event>
<event>
 6    1  0.4202038E-002  0.1262144E+03  0.7546771E-02  0.1233184E+00
         21   -1    0    0  504  502  0.00000000000E+00  0.00000000000E+00  0.90908194539E+01  0.90908194539E+01  0.00000000000E+00 0.  1.
         21   -1    0    0  502  503 -0.00000000000E+00 -0.00000000000E+00 -0.56812805623E+03  0.56812805623E+03  0.00000000000E+00 0.  1.
         25    2    1    2    0    0 -0.14378440500E+02 -0.99261267265E+01 -0.48614294781E+03  0.50225992086E+03  0.12499917945E+03 0.  0.
          5    1    3    3  501    0 -0.10472482244E+02  0.56579257694E+02 -0.18086602641E+03  0.18979835299E+03  0.10000000000E+00 0. -1.
         -5    1    3    3    0  501 -0.39059582558E+01 -0.66505384421E+02 -0.30527692139E+03  0.31246156788E+03  0.10000000000E+00 0. -1.
         21    1    1    2  504  503  0.14378440500E+02  0.99261267265E+01 -0.72894288966E+02  0.74958954815E+02  0.00000000000E+00 0.  1.
<mgrwt>
<rscale>  1 0.12621435E+03</rscale>
<asrwt>0</asrwt>
<pdfrwt beam="1">  1       21 0.13985880E-02 0.12621435E+03</pdfrwt>
<pdfrwt beam="2">  1       21 0.87404294E-01 0.12621435E+03</pdfrwt>
<totfact> 0.24575984E+06</totfact>
</mgrwt>
</event>
<event>
 6    1  0.4202038E-002  0.1376554E+03  0.7546771E-02  0.1216519E+00
         21   -1    0    0  503  502  0.00000000000E+00  0.00000000000E+00  0.35180505834E+02  0.35180505834E+02  0.00000000000E+00 0. -1.
         21   -1    0    0  504  503 -0.00000000000E+00 -0.00000000000E+00 -0.30145881119E+03  0.30145881119E+03  0.00000000000E+00 0. -1.
         25    2    1    2    0    0  0.56500917492E+02 -0.11580057145E+02 -0.23136783437E+03  0.26922127504E+03  0.12499027463E+03 0.  0.
          5    1    3    3  501    0  0.21541397444E+02 -0.30689473176E+02 -0.32337370846E+01  0.37634327723E+02  0.10000000000E+00 0. -1.
         -5    1    3    3    0  501  0.34959520048E+02  0.19109416031E+02 -0.22813409729E+03  0.23158694732E+03  0.10000000000E+00 0. -1.
         21    1    1    2  504  502 -0.56500917492E+02  0.11580057145E+02 -0.34910470990E+02  0.67418041990E+02  0.00000000000E+00 0. -1.
<mgrwt>
<rscale>  1 0.13765544E+03</rscale>
<asrwt>0</asrwt>
<pdfrwt beam="1">  1       21 0.54123856E-02 0.13765544E+03</pdfrwt>
<pdfrwt beam="2">  1       21 0.46378278E-01 0.13765544E+03</pdfrwt>
<totfact> 0.10490328E+06</totfact>
</mgrwt>
</event>
<event>
 6    1  0.4202038E-002  0.1291296E+03  0.7546771E-02  0.1228753E+00
         21   -1    0    0  503  502  0.00000000000E+00  0.00000000000E+00  0.13795380803E+03  0.13795380803E+03  0.00000000000E+00 0.  1.
         21   -1    0    0  504  503 -0.00000000000E+00 -0.00000000000E+00 -0.11238889186E+03  0.11238889186E+03  0.00000000000E+00 0.  1.
         25    2    1    2    0    0 -0.49944482771E+01 -0.32027921283E+02  0.10378784023E+03  0.16566945675E+03  0.12499488336E+03 0.  0.
          5    1    3    3  501    0  0.33170221777E+02  0.26502108592E+02  0.23857648693E+01  0.42524431173E+02  0.10000000000E+00 0.  1.
         -5    1    3    3    0  501 -0.38164670054E+02 -0.58530029875E+02  0.10140207536E+03  0.12314502558E+03  0.10000000000E+00 0.  1.
         21    1    1    2  504  502  0.49944482771E+01  0.32027921283E+02 -0.78222924054E+02  0.84673243135E+02  0.00000000000E+00 0.  1.
<mgrwt>
<rscale>  1 0.12912960E+03</rscale>
<asrwt>0</asrwt>
<pdfrwt beam="1">  1       21 0.21223663E-01 0.12912960E+03</pdfrwt>
<pdfrwt beam="2">  1       21 0.17290599E-01 0.12912960E+03</pdfrwt>
<totfact> 0.62804693E+05</totfact>
</mgrwt>
</event>
<event>
 6    1  0.4202038E-002  0.1269677E+03  0.7546771E-02  0.1232026E+00
         21   -1    0    0  504  502  0.00000000000E+00  0.00000000000E+00  0.10753004918E+03  0.10753004918E+03  0.00000000000E+00 0. -1.
         21   -1    0    0  502  503 -0.00000000000E+00 -0.00000000000E+00 -0.22109070547E+03  0.22109070547E+03  0.00000000000E+00 0. -1.
         25    2    1    2    0    0  0.12768019623E+02 -0.18102003492E+02  0.69146679590E+02  0.14457544654E+03  0.12502036470E+03 0.  0.
          5    1    3    3  501    0 -0.30524844512E+02 -0.49836807901E+02  0.18215069395E+01  0.58470517714E+02  0.10000000000E+00 0.  1.
         -5    1    3    3    0  501  0.43292864134E+02  0.31734804408E+02  0.67325172651E+02  0.86104928827E+02  0.10000000000E+00 0.  1.
         21    1    1    2  504  503 -0.12768019623E+02  0.18102003492E+02 -0.18270733588E+03  0.18404530812E+03  0.00000000000E+00 0. -1.
<mgrwt>
<rscale>  1 0.12696770E+03</rscale>
<asrwt>0</asrwt>
<pdfrwt beam="1">  1       21 0.16543085E-01 0.12696770E+03</pdfrwt>
<pdfrwt beam="2">  1       21 0.34013954E-01 0.12696770E+03</pdfrwt>
<totfact> 0.27712999E+05</totfact>
</mgrwt>
</event>
<event>
 6    1  0.4202038E-002  0.1301876E+03  0.7546771E-02  0.1227178E+00
         21   -1    0    0  503  502  0.00000000000E+00  0.00000000000E+00  0.35335742890E+02  0.35335742890E+02  0.00000000000E+00 0. -1.
         21   -1    0    0  504  503 -0.00000000000E+00 -0.00000000000E+00 -0.27154450248E+03  0.27154450248E+03  0.00000000000E+00 0. -1.
         25    2    1    2    0    0  0.39810352658E+01  0.36154631670E+02 -0.95269024938E+02  0.16132264565E+03  0.12500321137E+03 0.  0.
          5    1    3    3  501    0  0.23920524771E+02 -0.42162708420E+02 -0.26731771327E+02  0.55357773482E+02  0.10000000000E+00 0. -1.
         -5    1    3    3    0  501 -0.19939489505E+02  0.78317340090E+02 -0.68537253611E+02  0.10596487217E+03  0.10000000000E+00 0. -1.
         21    1    1    2  504  502 -0.39810352658E+01 -0.36154631670E+02 -0.14093973465E+03  0.14555759972E+03  0.00000000000E+00 0. -1.
<mgrwt>
<rscale>  1 0.13018759E+03</rscale>
<asrwt>0</asrwt>
<pdfrwt beam="1">  1       21 0.54362681E-02 0.13018759E+03</pdfrwt>
<pdfrwt beam="2">  1       21 0.41776078E-01 0.13018759E+03</pdfrwt>
<totfact> 0.12864472E+06</totfact>
</mgrwt>
</event>
<event>
 6    1  0.4202038E-002  0.1316580E+03  0.7546771E-02  0.1225016E+00
         21   -1    0    0  503  502  0.00000000000E+00  0.00000000000E+00  0.10269819648E+03  0.10269819648E+03  0.00000000000E+00 0.  1.
         21   -1    0    0  504  503 -0.00000000000E+00 -0.00000000000E+00 -0.10727340006E+03  0.10727340006E+03  0.00000000000E+00 0.  1.
         25    2    1    2    0    0 -0.51708793217E+01  0.41017616533E+02  0.50582173752E+02  0.14104033272E+03  0.12499854516E+03 0.  0.
          5    1    3    3  501    0  0.39109027255E+02  0.44348927892E+02  0.70804194335E+02  0.92247424645E+02  0.10000000000E+00 0. -1.
         -5    1    3    3    0  501 -0.44279906577E+02 -0.33313113590E+01 -0.20222020583E+02  0.48792908074E+02  0.10000000000E+00 0. -1.
         21    1    1    2  504  502  0.51708793217E+01 -0.41017616533E+02 -0.55157377330E+02  0.68931263828E+02  0.00000000000E+00 0.  1.
<mgrwt>
<rscale>  1 0.13165796E+03</rscale>
<asrwt>0</asrwt>
<pdfrwt beam="1">  1       21 0.15799723E-01 0.13165796E+03</pdfrwt>
<pdfrwt beam="2">  1       21 0.16503600E-01 0.13165796E+03</pdfrwt>
<totfact> 0.11749519E+06</totfact>
</mgrwt>
</event>
<event>
 6    1  0.4202038E-002  0.1261196E+03  0.7546771E-02  0.1233330E+00
         21   -1    0    0  503  502  0.00000000000E+00  0.00000000000E+00  0.67711936315E+02  0.67711936315E+02  0.00000000000E+00 0. -1.
         21   -1    0    0  504  503 -0.00000000000E+00 -0.00000000000E+00 -0.83628552952E+02  0.83628552952E+02  0.00000000000E+00 0. -1.
         25    2    1    2    0    0 -0.16112759290E+02 -0.45452422877E+01  0.29016809753E+01  0.12615302087E+03  0.12500353868E+03 0.  0.
          5    1    3    3  501    0  0.47281543779E+02 -0.23310992397E+02  0.22320687959E+02  0.57246570724E+02  0.10000000000E+00 0.  1.
         -5    1    3    3    0  501 -0.63394303070E+02  0.18765750109E+02 -0.19419006984E+02  0.68906450142E+02  0.10000000000E+00 0.  1.
         21    1    1    2  504  502  0.16112759290E+02  0.45452422877E+01 -0.18818297613E+02  0.25187468401E+02  0.00000000000E+00 0. -1.
<mgrwt>
<rscale>  1 0.12611965E+03</rscale>
<asrwt>0</asrwt>
<pdfrwt beam="1">  1       21 0.10417221E-01 0.12611965E+03</pdfrwt>
<pdfrwt beam="2">  1       21 0.12865931E-01 0.12611965E+03</pdfrwt>
<totfact> 0.38562124E+06</totfact>
</mgrwt>
</event>
<event>
 6    1  0.4202038E-002  0.1267693E+03  0.7546771E-02  0.1232330E+00
         21   -1    0    0  503  502  0.00000000000E+00  0.00000000000E+00  0.17516156561E+03  0.17516156561E+03  0.00000000000E+00 0.  1.
         21   -1    0    0  504  503 -0.00000000000E+00 -0.00000000000E+00 -0.31673497234E+02  0.31673497234E+02  0.00000000000E+00 0.  1.
         25    2    1    2    0    0 -0.16084588106E+02 -0.13677796889E+02  0.13104551387E+03  0.18232765040E+03  0.12499859716E+03 0.  0.
          5    1    3    3  501    0 -0.56985666979E+02 -0.36309013754E+02  0.36359381644E+02  0.76731514741E+02  0.10000000000E+00 0.  1.
         -5    1    3    3    0  501  0.40901078873E+02  0.22631216866E+02  0.94686132226E+02  0.10559613566E+03  0.10000000000E+00 0.  1.
         21    1    1    2  504  502  0.16084588106E+02  0.13677796889E+02  0.12442554508E+02  0.24507412449E+02  0.00000000000E+00 0.  1.
<mgrwt>
<rscale>  1 0.12676926E+03</rscale>
<asrwt>0</asrwt>
<pdfrwt beam="1">  1       21 0.26947933E-01 0.12676926E+03</pdfrwt>
<pdfrwt beam="2">  1       21 0.48728458E-02 0.12676926E+03</pdfrwt>
<totfact> 0.36416687E+06</totfact>
</mgrwt>
</event>
<event>
 6    1  0.4202038E-002  0.1284451E+03  0.7546771E-02  0.1229781E+00
         21   -1    0    0  503  502  0.00000000000E+00  0.00000000000E+00  0.52965284677E+01  0.52965284677E+01  0.00000000000E+00 0.  1.
         21   -1    0    0  504  503 -0.00000000000E+00 -0.00000000000E+00 -0.13485581561E+04  0.13485581561E+04  0.00000000000E+00 0.  1.
         25    2    1    2    0    0  0.23731083423E+02  0.17644044790E+02 -0.84397787121E+03  0.85369596370E+03  0.12499469869E+03 0.  0.
          5    1    3    3  501    0  0.70493714388E+02 -0.10140161468E+02 -0.56441390490E+03  0.56888949075E+03  0.10000000000E+00 0. -1.
         -5    1    3    3    0  501 -0.46762630965E+02  0.27784206258E+02 -0.27956396631E+03  0.28480647294E+03  0.10000000000E+00 0. -1.
         21    1    1    2  504  502 -0.23731083423E+02 -0.17644044790E+02 -0.49928375639E+03  0.50015872084E+03  0.00000000000E+00 0.  1.
<mgrwt>
<rscale>  1 0.12844513E+03</rscale>
<asrwt>0</asrwt>
<pdfrwt beam="1">  1       21 0.81484977E-03 0.12844513E+03</pdfrwt>
<pdfrwt beam="2">  1       21 0.20747068E+00 0.12844513E+03</pdfrwt>
<totfact> 0.64019204E+05</totfact>
</mgrwt>
</event>
<event>
 6    1  0.4202038E-002  0.1599648E+03  0.7546771E-02  0.1188737E+00
         21   -1    0    0  503  502  0.00000000000E+00  0.00000000000E+00  0.44934460758E+03  0.44934460758E+03  0.00000000000E+00 0.  1.
         21   -1    0    0  504  503 -0.00000000000E+00 -0.00000000000E+00 -0.63701877081E+02  0.63701877081E+02  0.00000000000E+00 0.  1.
         25    2    1    2    0    0 -0.97314396043E+02  0.22296516185E+02  0.38086724332E+03  0.41309633914E+03  0.12498600748E+03 0.  0.
          5    1    3    3  501    0 -0.34034333455E+02 -0.41088866698E+02  0.61550882875E+02  0.81456442366E+02  0.10000000000E+00 0. -1.
         -5    1    3    3    0  501 -0.63280062588E+02  0.63385382883E+02  0.31931636044E+03  0.33163989677E+03  0.10000000000E+00 0. -1.
         21    1    1    2  504  502  0.97314396043E+02 -0.22296516185E+02  0.47754871759E+01  0.99950145517E+02  0.00000000000E+00 0.  1.
<mgrwt>
<rscale>  1 0.15996477E+03</rscale>
<asrwt>0</asrwt>
<pdfrwt beam="1">  1       21 0.69129938E-01 0.15996477E+03</pdfrwt>
<pdfrwt beam="2">  1       21 0.98002890E-02 0.15996477E+03</pdfrwt>
<totfact> 0.16195001E+05</totfact>
</mgrwt>
</event>
<event>
 6    1  0.4202038E-002  0.1264942E+03  0.7546771E-02  0.1232752E+00
         21   -1    0    0  504  502  0.00000000000E+00  0.00000000000E+00  0.19308352448E+03  0.19308352448E+03  0.00000000000E+00 0. -1.
         21   -1    0    0  502  503 -0.00000000000E+00 -0.00000000000E+00 -0.28592490963E+02  0.28592490963E+02  0.00000000000E+00 0. -1.
         25    2    1    2    0    0 -0.16679008125E+02 -0.98732594066E+01  0.15509003147E+03  0.20013420951E+03  0.12500045357E+03 0.  0.
          5    1    3    3  501    0 -0.19158490226E+02 -0.24548718726E+02 -0.11264824049E+02  0.33114854668E+02  0.10000000000E+00 0.  1.
         -5    1    3    3    0  501  0.24794821008E+01  0.14675459320E+02  0.16635485552E+03  0.16701935484E+03  0.10000000000E+00 0.  1.
         21    1    1    2  504  503  0.16679008125E+02  0.98732594066E+01  0.94010020502E+01  0.21541805934E+02  0.00000000000E+00 0. -1.
<mgrwt>
<rscale>  1 0.12649421E+03</rscale>
<asrwt>0</asrwt>
<pdfrwt beam="1">  1       21 0.29705157E-01 0.12649421E+03</pdfrwt>
<pdfrwt beam="2">  1       21 0.43988449E-02 0.12649421E+03</pdfrwt>
<totfact> 0.35856329E+06</totfact>
</mgrwt>
</event>
<event>
 6    1  0.4202038E-002  0.1285827E+03  0.7546771E-02  0.1229574E+00
         21   -1    0    0  503  502  0.00000000000E+00  0.00000000000E+00  0.62653299949E+03  0.62653299949E+03  0.00000000000E+00 0. -1.
         21   -1    0    0  504  503 -0.00000000000E+00 -0.00000000000E+00 -0.13551652250E+02  0.13551652250E+02  0.00000000000E+00 0. -1.
         25    2    1    2    0    0 -0.29742605395E+02  0.47581573687E+01  0.58502652440E+03  0.59899043369E+03  0.12500497095E+03 0.  0.
          5    1    3    3  501    0  0.41908378384E+02  0.87552068021E+01  0.10138781897E+03  0.11005664751E+03  0.10000000000E+00 0.  1.
         -5    1    3    3    0  501 -0.71650983780E+02 -0.39970494334E+01  0.48363870543E+03  0.48893378618E+03  0.10000000000E+00 0.  1.
         21    1    1    2  504  502  0.29742605395E+02 -0.47581573687E+01  0.27954822839E+02  0.41094218051E+02  0.00000000000E+00 0. -1.
<mgrwt>
<rscale>  1 0.12858268E+03</rscale>
<asrwt>0</asrwt>
<pdfrwt beam="1">  1       21 0.96389670E-01 0.12858268E+03</pdfrwt>
<pdfrwt beam="2">  1       21 0.20848701E-02 0.12858268E+03</pdfrwt>
<totfact> 0.10350566E+06</totfact>
</mgrwt>
</event>
<event>
 6    1  0.4202038E-002  0.1468782E+03  0.7546771E-02  0.1204362E+00
         21   -1    0    0  504  502  0.00000000000E+00  0.00000000000E+00  0.19729112772E+04  0.19729112772E+04  0.00000000000E+00 0.  1.
         21   -1    0    0  502  503 -0.00000000000E+00 -0.00000000000E+00 -0.11633044724E+02  0.11633044724E+02  0.00000000000E+00 0.  1.
         25    2    1    2    0    0  0.49744789073E+02 -0.58943757795E+02  0.17977434340E+04  0.18037335343E+04  0.12499718998E+03 0.  0.
          5    1    3    3  501    0  0.71833811529E+02  0.66648020622E+01  0.11606670680E+04  0.11629069476E+04  0.10000000000E+00 0.  1.
         -5    1    3    3    0  501 -0.22089022456E+02 -0.65608559858E+02  0.63707636608E+03  0.64082658673E+03  0.10000000000E+00 0.  1.
         21    1    1    2  504  503 -0.49744789073E+02  0.58943757795E+02  0.16353479848E+03  0.18081078766E+03  0.00000000000E+00 0.  1.
<mgrwt>
<rscale>  1 0.14687821E+03</rscale>
<asrwt>0</asrwt>
<pdfrwt beam="1">  1       21 0.30352455E+00 0.14687821E+03</pdfrwt>
<pdfrwt beam="2">  1       21 0.17897008E-02 0.14687821E+03</pdfrwt>
<totfact> 0.50268748E+04</totfact>
</mgrwt>
</event>
<event>
 6    1  0.4202038E-002  0.1357441E+03  0.7546771E-02  0.1219173E+00
         21   -1    0    0  504  502  0.00000000000E+00  0.00000000000E+00  0.73244927497E+03  0.73244927497E+03  0.00000000000E+00 0. -1.
         21   -1    0    0  502  503 -0.00000000000E+00 -0.00000000000E+00 -0.16551979446E+02  0.16551979446E+02  0.00000000000E+00 0. -1.
         25    2    1    2    0    0  0.30659756999E+02  0.43156565687E+02  0.65220186853E+03  0.66617844789E+03  0.12499574895E+03 0.  0.
          5    1    3    3  501    0  0.48512586368E+01 -0.17371369367E+02  0.50044929264E+03  0.50077420429E+03  0.10000000000E+00 0. -1.
         -5    1    3    3    0  501  0.25808498362E+02  0.60527935054E+02  0.15175257590E+03  0.16540424360E+03  0.10000000000E+00 0. -1.
         21    1    1    2  504  503 -0.30659756999E+02 -0.43156565687E+02  0.63695426994E+02  0.82822806527E+02  0.00000000000E+00 0. -1.
<mgrwt>
<rscale>  1 0.13574405E+03</rscale>
<asrwt>0</asrwt>
<pdfrwt beam="1">  1       21 0.11268448E+00 0.13574405E+03</pdfrwt>
<pdfrwt beam="2">  1       21 0.25464589E-02 0.13574405E+03</pdfrwt>
<totfact> 0.51670543E+05</totfact>
</mgrwt>
</event>
<event>
 6    1  0.4202038E-002  0.2313843E+03  0.7546771E-02  0.1125669E+00
         21   -1    0    0  504  502  0.00000000000E+00  0.00000000000E+00  0.48634490254E+03  0.48634490254E+03  0.00000000000E+00 0. -1.
         21   -1    0    0  502  503 -0.00000000000E+00 -0.00000000000E+00 -0.17680680424E+03  0.17680680424E+03  0.00000000000E+00 0. -1.
         25    2    1    2    0    0  0.76832260051E+01  0.19461895972E+03  0.38914635303E+03  0.45274009669E+03  0.12491252792E+03 0.  0.
          5    1    3    3  501    0 -0.18381044576E+02  0.58100311906E+02  0.30582326323E+02  0.68182092418E+02  0.10000000000E+00 0.  1.
         -5    1    3    3    0  501  0.26064270581E+02  0.13651864782E+03  0.35856402670E+03  0.38455800427E+03  0.10000000000E+00 0.  1.
         21    1    1    2  504  503 -0.76832260051E+01 -0.19461895972E+03 -0.79608254724E+02  0.21041161010E+03  0.00000000000E+00 0. -1.
<mgrwt>
<rscale>  1 0.23138434E+03</rscale>
<asrwt>0</asrwt>
<pdfrwt beam="1">  1       21 0.74822292E-01 0.23138434E+03</pdfrwt>
<pdfrwt beam="2">  1       21 0.27201047E-01 0.23138434E+03</pdfrwt>
<totfact> 0.20140723E+04</totfact>
</mgrwt>
</event>
<event>
 6    1  0.4202038E-002  0.1259945E+03  0.7546771E-02  0.1233523E+00
         21   -1    0    0  504  502  0.00000000000E+00  0.00000000000E+00  0.32450251188E+03  0.32450251188E+03  0.00000000000E+00 0.  1.
         21   -1    0    0  502  503 -0.00000000000E+00 -0.00000000000E+00 -0.26363095394E+02  0.26363095394E+02  0.00000000000E+00 0.  1.
         25    2    1    2    0    0 -0.66733223914E+01  0.14374263844E+02  0.30760335591E+03  0.33240703630E+03  0.12499384193E+03 0.  0.
          5    1    3    3  501    0 -0.56033175452E+02 -0.17292390091E+02  0.21451695534E+03  0.22238767420E+03  0.10000000000E+00 0.  1.
         -5    1    3    3    0  501  0.49359853061E+02  0.31666653936E+02  0.93086400569E+02  0.11001936210E+03  0.10000000000E+00 0.  1.
         21    1    1    2  504  503  0.66733223914E+01 -0.14374263844E+02 -0.94639394304E+01  0.18458570972E+02  0.00000000000E+00 0.  1.
<mgrwt>
<rscale>  1 0.12599450E+03</rscale>
<asrwt>0</asrwt>
<pdfrwt beam="1">  1       21 0.49923461E-01 0.12599450E+03</pdfrwt>
<pdfrwt beam="2">  1       21 0.40558610E-02 0.12599450E+03</pdfrwt>
<totfact> 0.14608440E+06</totfact>
</mgrwt>
</event>
<event>
 6    1  0.4202038E-002  0.1260539E+03  0.7546771E-02  0.1233431E+00
         21   -1    0    0  503  502  0.00000000000E+00  0.00000000000E+00  0.20056490564E+03  0.20056490564E+03  0.00000000000E+00 0. -1.
         21   -1    0    0  504  503 -0.00000000000E+00 -0.00000000000E+00 -0.25408628240E+02  0.25408628240E+02  0.00000000000E+00 0. -1.
         25    2    1    2    0    0 -0.59901353363E+00  0.16473446182E+02  0.15051989502E+03  0.19633091957E+03  0.12497142848E+03 0.  0.
          5    1    3    3  501    0 -0.12440337560E+02 -0.53531223733E+02  0.61872384285E+02  0.82756001898E+02  0.10000000000E+00 0. -1.
         -5    1    3    3    0  501  0.11841324027E+02  0.70004669916E+02  0.88647510738E+02  0.11357491767E+03  0.10000000000E+00 0. -1.
         21    1    1    2  504  502  0.59901353363E+00 -0.16473446182E+02  0.24636382372E+02  0.29642614303E+02  0.00000000000E+00 0.  1.
<mgrwt>
<rscale>  1 0.12605392E+03</rscale>
<asrwt>0</asrwt>
<pdfrwt beam="1">  1       21 0.30856138E-01 0.12605392E+03</pdfrwt>
<pdfrwt beam="2">  1       21 0.39090199E-02 0.12605392E+03</pdfrwt>
<totfact> 0.40542508E+06</totfact>
</mgrwt>
</event>
<event>
 6    1  0.4202038E-002  0.1322906E+03  0.7546771E-02  0.1224096E+00
         21   -1    0    0  504  502  0.00000000000E+00  0.00000000000E+00  0.91441595690E+03  0.91441595690E+03  0.00000000000E+00 0.  1.
         21   -1    0    0  502  503 -0.00000000000E+00 -0.00000000000E+00 -0.98318988804E+01  0.98318988804E+01  0.00000000000E+00 0.  1.
         25    2    1    2    0    0 -0.33884333656E+02  0.27102511890E+02  0.80241394541E+03  0.81324593630E+03  0.12497247256E+03 0.  0.
          5    1    3    3  501    0 -0.55303762045E+02  0.66065243374E+02  0.46492559415E+03  0.47284134821E+03  0.10000000000E+00 0. -1.
         -5    1    3    3    0  501  0.21419428389E+02 -0.38962731484E+02  0.33748835126E+03  0.34040458809E+03  0.10000000000E+00 0. -1.
         21    1    1    2  504  503  0.33884333656E+02 -0.27102511890E+02  0.10217011261E+03  0.11100191948E+03  0.00000000000E+00 0.  1.
<mgrwt>
<rscale>  1 0.13229064E+03</rscale>
<asrwt>0</asrwt>
<pdfrwt beam="1">  1       21 0.14067931E+00 0.13229064E+03</pdfrwt>
<pdfrwt beam="2">  1       21 0.15126006E-02 0.13229064E+03</pdfrwt>
<totfact> 0.69243722E+05</totfact>
</mgrwt>
</event>
<event>
 6    1  0.4202038E-002  0.1306751E+03  0.7546771E-02  0.1226457E+00
         21   -1    0    0  504  502  0.00000000000E+00  0.00000000000E+00  0.43106318784E+03  0.43106318784E+03  0.00000000000E+00 0.  1.
         21   -1    0    0  502  503 -0.00000000000E+00 -0.00000000000E+00 -0.27185778889E+02  0.27185778889E+02  0.00000000000E+00 0.  1.
         25    2    1    2    0    0  0.38011729640E+02 -0.25259596445E+01  0.39898651990E+03  0.41984072727E+03  0.12499888459E+03 0.  0.
          5    1    3    3  501    0  0.22817540320E+02  0.61100974064E+02  0.19423300050E+03  0.20489128254E+03  0.10000000000E+00 0. -1.
         -5    1    3    3    0  501  0.15194189320E+02 -0.63626933709E+02  0.20475351940E+03  0.21494944473E+03  0.10000000000E+00 0. -1.
         21    1    1    2  504  503 -0.38011729640E+02  0.25259596445E+01  0.48908890453E+01  0.38408239455E+02  0.00000000000E+00 0.  1.
<mgrwt>
<rscale>  1 0.13067514E+03</rscale>
<asrwt>0</asrwt>
<pdfrwt beam="1">  1       21 0.66317409E-01 0.13067514E+03</pdfrwt>
<pdfrwt beam="2">  1       21 0.41824278E-02 0.13067514E+03</pdfrwt>
<totfact> 0.76277412E+05</totfact>
</mgrwt>
</event>
<event>
 6    1  0.4202038E-002  0.1259078E+03  0.7546771E-02  0.1233657E+00
         21   -1    0    0  504  502  0.00000000000E+00  0.00000000000E+00  0.24669347499E+03  0.24669347499E+03  0.00000000000E+00 0. -1.
         21   -1    0    0  502  503 -0.00000000000E+00 -0.00000000000E+00 -0.24967103907E+02  0.24967103907E+02  0.00000000000E+00 0. -1.
         25    2    1    2    0    0 -0.60880731459E+01 -0.13814529112E+02  0.22343436423E+03  0.25646771578E+03  0.12499947307E+03 0.  0.
          5    1    3    3  501    0 -0.22323220286E+02  0.50811989423E+02  0.71095545706E+02  0.90192965647E+02  0.10000000000E+00 0. -1.
         -5    1    3    3    0  501  0.16235147140E+02 -0.64626518536E+02  0.15233881852E+03  0.16627475013E+03  0.10000000000E+00 0. -1.
         21    1    1    2  504  503  0.60880731459E+01  0.13814529112E+02 -0.17079931467E+01  0.15192863121E+02  0.00000000000E+00 0. -1.
<mgrwt>
<rscale>  1 0.12590780E+03</rscale>
<asrwt>0</asrwt>
<pdfrwt beam="1">  1       21 0.37952841E-01 0.12590780E+03</pdfrwt>
<pdfrwt beam="2">  1       21 0.38410931E-02 0.12590780E+03</pdfrwt>
<totfact> 0.27828118E+06</totfact>
</mgrwt>
</event>
<event>
 6    1  0.4202038E-002  0.1315262E+03  0.7546771E-02  0.1225209E+00
         21   -1    0    0  504  502  0.00000000000E+00  0.00000000000E+00  0.29508671158E+02  0.29508671158E+02  0.00000000000E+00 0.  1.
         21   -1    0    0  502  503 -0.00000000000E+00 -0.00000000000E+00 -0.32095511599E+03  0.32095511599E+03  0.00000000000E+00 0.  1.
         25    2    1    2    0    0 -0.41909114623E+01  0.40710363814E+02 -0.13391422989E+03  0.18770231688E+03  0.12499696529E+03 0.  0.
          5    1    3    3  501    0  0.47848817461E+02  0.76073536252E+01 -0.10266124120E+02  0.49525594050E+02  0.10000000000E+00 0.  1.
         -5    1    3    3    0  501 -0.52039728923E+02  0.33103010189E+02 -0.12364810577E+03  0.13817672283E+03  0.10000000000E+00 0.  1.
         21    1    1    2  504  503  0.41909114623E+01 -0.40710363814E+02 -0.15753221494E+03  0.16276147027E+03  0.00000000000E+00 0.  1.
<mgrwt>
<rscale>  1 0.13152619E+03</rscale>
<asrwt>0</asrwt>
<pdfrwt beam="1">  1       21 0.45397956E-02 0.13152619E+03</pdfrwt>
<pdfrwt beam="2">  1       21 0.49377709E-01 0.13152619E+03</pdfrwt>
<totfact> 0.12391202E+06</totfact>
</mgrwt>
</event>
<event>
 6    1  0.4202038E-002  0.1461077E+03  0.7546771E-02  0.1205339E+00
         21   -1    0    0  503  502  0.00000000000E+00  0.00000000000E+00  0.10253504846E+02  0.10253504846E+02  0.00000000000E+00 0.  1.
         21   -1    0    0  504  503 -0.00000000000E+00 -0.00000000000E+00 -0.14605473715E+04  0.14605473715E+04  0.00000000000E+00 0. -1.
         25    2    1    2    0    0  0.55481633094E+02  0.51392952706E+02 -0.61617899401E+03  0.63326456791E+03  0.12501205182E+03 0.  0.
          5    1    3    3  501    0  0.17368687041E+02  0.43621521418E+02 -0.57388854722E+03  0.57580602902E+03  0.10000000000E+00 0. -1.
         -5    1    3    3    0  501  0.38112946053E+02  0.77714312882E+01 -0.42290446791E+02  0.57458538886E+02  0.10000000000E+00 0. -1.
         21    1    1    2  504  502 -0.55481633094E+02 -0.51392952706E+02 -0.83411487262E+03  0.83753630842E+03  0.00000000000E+00 0. -1.
<mgrwt>
<rscale>  1 0.14610770E+03</rscale>
<asrwt>0</asrwt>
<pdfrwt beam="1">  1       21 0.15774631E-02 0.14610770E+03</pdfrwt>
<pdfrwt beam="2">  1       21 0.22469947E+00 0.14610770E+03</pdfrwt>
<totfact> 0.17506851E+05</totfact>
</mgrwt>
</event>
<event>
 6    1  0.4202038E-002  0.1269288E+03  0.7546771E-02  0.1232085E+00
         21   -1    0    0  504  502  0.00000000000E+00  0.00000000000E+00  0.88055667276E+03  0.88055667276E+03  0.00000000000E+00 0. -1.
         21   -1    0    0  502  503 -0.00000000000E+00 -0.00000000000E+00 -0.63549444150E+01  0.63549444150E+01  0.00000000000E+00 0. -1.
         25    2    1    2    0    0 -0.17318564171E+02 -0.13649540080E+02  0.71318736892E+03  0.72439433640E+03  0.12499875524E+03 0.  0.
          5    1    3    3  501    0 -0.51846074575E+02 -0.39869227413E+02  0.59357153763E+03  0.59716392308E+03  0.10000000000E+00 0. -1.
         -5    1    3    3    0  501  0.34527510404E+02  0.26219687333E+02  0.11961583129E+03  0.12723041332E+03  0.10000000000E+00 0. -1.
         21    1    1    2  504  503  0.17318564171E+02  0.13649540080E+02  0.16101435942E+03  0.16251728077E+03  0.00000000000E+00 0. -1.
<mgrwt>
<rscale>  1 0.12692884E+03</rscale>
<asrwt>0</asrwt>
<pdfrwt beam="1">  1       21 0.13547016E+00 0.12692884E+03</pdfrwt>
<pdfrwt beam="2">  1       21 0.97768445E-03 0.12692884E+03</pdfrwt>
<totfact> 0.15229487E+06</totfact>
</mgrwt>
</event>
<event>
 6    1  0.4202038E-002  0.1291796E+03  0.7546771E-02  0.1228678E+00
         21   -1    0    0  503  502  0.00000000000E+00  0.00000000000E+00  0.11705687926E+03  0.11705687926E+03  0.00000000000E+00 0. -1.
         21   -1    0    0  504  503 -0.00000000000E+00 -0.00000000000E+00 -0.59839801457E+02  0.59839801457E+02  0.00000000000E+00 0. -1.
         25    2    1    2    0    0 -0.20674523347E+02 -0.25223040253E+02  0.63083338701E+02  0.14375983277E+03  0.12499497678E+03 0.  0.
          5    1    3    3  501    0  0.24119196626E+02  0.40582862093E+02  0.37032328092E+02  0.60000897205E+02  0.10000000000E+00 0. -1.
         -5    1    3    3    0  501 -0.44793719974E+02 -0.65805902346E+02  0.26051010609E+02  0.83758935562E+02  0.10000000000E+00 0. -1.
         21    1    1    2  504  502  0.20674523347E+02  0.25223040253E+02 -0.58662608966E+01  0.33136847951E+02  0.00000000000E+00 0. -1.
<mgrwt>
<rscale>  1 0.12917965E+03</rscale>
<asrwt>0</asrwt>
<pdfrwt beam="1">  1       21 0.18008751E-01 0.12917965E+03</pdfrwt>
<pdfrwt beam="2">  1       21 0.92061233E-02 0.12917965E+03</pdfrwt>
<totfact> 0.26107551E+06</totfact>
</mgrwt>
</event>
<event>
 6    1  0.4202038E-002  0.1260342E+03  0.7546771E-02  0.1233462E+00
         21   -1    0    0  504  502  0.00000000000E+00  0.00000000000E+00  0.12260047129E+03  0.12260047129E+03  0.00000000000E+00 0.  1.
         21   -1    0    0  502  503 -0.00000000000E+00 -0.00000000000E+00 -0.41385272155E+02  0.41385272155E+02  0.00000000000E+00 0.  1.
         25    2    1    2    0    0 -0.13482584746E+02 -0.88310315256E+01  0.75312014044E+02  0.14682139658E+03  0.12499942330E+03 0.  0.
          5    1    3    3  501    0  0.29348521837E+02  0.35230421455E+01 -0.23927334553E+02  0.38029921099E+02  0.10000000000E+00 0. -1.
         -5    1    3    3    0  501 -0.42831106583E+02 -0.12354073671E+02  0.99239348597E+02  0.10879147548E+03  0.10000000000E+00 0. -1.
         21    1    1    2  504  503  0.13482584746E+02  0.88310315256E+01  0.59031850957E+01  0.17164346871E+02  0.00000000000E+00 0. -1.
<mgrwt>
<rscale>  1 0.12603421E+03</rscale>
<asrwt>0</asrwt>
<pdfrwt beam="1">  1       21 0.18861611E-01 0.12603421E+03</pdfrwt>
<pdfrwt beam="2">  1       21 0.63669650E-02 0.12603421E+03</pdfrwt>
<totfact> 0.45166536E+06</totfact>
</mgrwt>
</event>
<event>
 6    1  0.4202038E-002  0.1268974E+03  0.7546771E-02  0.1232133E+00
         21   -1    0    0  504  502  0.00000000000E+00  0.00000000000E+00  0.10195914226E+04  0.10195914226E+04  0.00000000000E+00 0.  1.
         21   -1    0    0  502  503 -0.00000000000E+00 -0.00000000000E+00 -0.11703056112E+02  0.11703056112E+02  0.00000000000E+00 0. -1.
         25    2    1    2    0    0  0.20853336201E+02  0.65397587879E+01  0.10000617189E+04  0.10080805500E+04  0.12500129404E+03 0.  0.
          5    1    3    3  501    0  0.64900158255E+02 -0.23000261752E+02  0.42081581226E+03  0.42641177332E+03  0.10000000000E+00 0. -1.
         -5    1    3    3    0  501 -0.44046822054E+02  0.29540020540E+02  0.57924590668E+03  0.58166877667E+03  0.10000000000E+00 0. -1.
         21    1    1    2  504  503 -0.20853336201E+02 -0.65397587879E+01  0.78266475826E+01  0.23213928752E+02  0.00000000000E+00 0. -1.
<mgrwt>
<rscale>  1 0.12689741E+03</rscale>
<asrwt>0</asrwt>
<pdfrwt beam="1">  1       21 0.15686015E+00 0.12689741E+03</pdfrwt>
<pdfrwt beam="2">  1       21 0.18004710E-02 0.12689741E+03</pdfrwt>
<totfact> 0.39580759E+05</totfact>
</mgrwt>
</event>
<event>
 6    1  0.4202038E-002  0.1274139E+03  0.7546771E-02  0.1231344E+00
         21   -1    0    0  504  502  0.00000000000E+00  0.00000000000E+00  0.46250109610E+02  0.46250109610E+02  0.00000000000E+00 0. -1.
         21   -1    0    0  502  503 -0.00000000000E+00 -0.00000000000E+00 -0.13763555998E+03  0.13763555998E+03  0.00000000000E+00 0. -1.
         25    2    1    2    0    0  0.82500800112E+01  0.23281188285E+02 -0.52472735928E+02  0.13779579116E+03  0.12499685795E+03 0.  0.
          5    1    3    3  501    0  0.30081343054E+02  0.25682472177E+02 -0.87743008697E+02  0.96246153961E+02  0.10000000000E+00 0. -1.
         -5    1    3    3    0  501 -0.21831263043E+02 -0.24012838922E+01  0.35270272769E+02  0.41549637202E+02  0.10000000000E+00 0. -1.
         21    1    1    2  504  503 -0.82500800112E+01 -0.23281188285E+02 -0.38912714441E+02  0.46089878426E+02  0.00000000000E+00 0. -1.
<mgrwt>
<rscale>  1 0.12741386E+03</rscale>
<asrwt>0</asrwt>
<pdfrwt beam="1">  1       21 0.71154015E-02 0.12741386E+03</pdfrwt>
<pdfrwt beam="2">  1       21 0.21174701E-01 0.12741386E+03</pdfrwt>
<totfact> 0.30187879E+06</totfact>
</mgrwt>
</event>
<event>
 6    1  0.4202038E-002  0.1263364E+03  0.7546771E-02  0.1232995E+00
         21   -1    0    0  503  502  0.00000000000E+00  0.00000000000E+00  0.26771296584E+03  0.26771296584E+03  0.00000000000E+00 0. -1.
         21   -1    0    0  504  503 -0.00000000000E+00 -0.00000000000E+00 -0.58580933165E+02  0.58580933165E+02  0.00000000000E+00 0.  1.
         25    2    1    2    0    0  0.99126811081E+01  0.15360479311E+02  0.25078287581E+03  0.28080765597E+03  0.12500673296E+03 0.  0.
          5    1    3    3  501    0  0.36613069051E+02  0.61766990602E+02  0.16076667824E+03  0.17607274856E+03  0.10000000000E+00 0. -1.
         -5    1    3    3    0  501 -0.26700387943E+02 -0.46406511291E+02  0.90016197570E+02  0.10473490742E+03  0.10000000000E+00 0. -1.
         21    1    1    2  504  502 -0.99126811081E+01 -0.15360479311E+02 -0.41650843133E+02  0.45486243031E+02  0.00000000000E+00 0.  1.
<mgrwt>
<rscale>  1 0.12633641E+03</rscale>
<asrwt>0</asrwt>
<pdfrwt beam="1">  1       21 0.41186609E-01 0.12633641E+03</pdfrwt>
<pdfrwt beam="2">  1       21 0.90124514E-02 0.12633641E+03</pdfrwt>
<totfact> 0.55739805E+05</totfact>
</mgrwt>
</event>
<event>
 6    1  0.4202038E-002  0.1357492E+03  0.7546771E-02  0.1219166E+00
         21   -1    0    0  503  502  0.00000000000E+00  0.00000000000E+00  0.66769810055E+03  0.66769810055E+03  0.00000000000E+00 0.  1.
         21   -1    0    0  504  503 -0.00000000000E+00 -0.00000000000E+00 -0.14831379756E+02  0.14831379756E+02  0.00000000000E+00 0.  1.
         25    2    1    2    0    0 -0.44986278685E+02 -0.27914351511E+02  0.55389239966E+03  0.57028469186E+03  0.12499945230E+03 0.  0.
          5    1    3    3  501    0 -0.60098547342E+02 -0.56293831872E+02  0.50563949099E+03  0.51230082544E+03  0.10000000000E+00 0.  1.
         -5    1    3    3    0  501  0.15112268657E+02  0.28379480361E+02  0.48252908679E+02  0.57983866425E+02  0.10000000000E+00 0.  1.
         21    1    1    2  504  502  0.44986278685E+02  0.27914351511E+02  0.98974321134E+02  0.11224478845E+03  0.00000000000E+00 0.  1.
<mgrwt>
<rscale>  1 0.13574918E+03</rscale>
<asrwt>0</asrwt>
<pdfrwt beam="1">  1       21 0.10272276E+00 0.13574918E+03</pdfrwt>
<pdfrwt beam="2">  1       21 0.22817513E-02 0.13574918E+03</pdfrwt>
<totfact> 0.77024341E+05</totfact>
</mgrwt>
</event>
<event>
 6    1  0.4202038E-002  0.1261878E+03  0.7546771E-02  0.1233225E+00
         21   -1    0    0  504  502  0.00000000000E+00  0.00000000000E+00  0.24262263427E+04  0.24262263427E+04  0.00000000000E+00 0.  1.
         21   -1    0    0  502  503 -0.00000000000E+00 -0.00000000000E+00 -0.84014410532E+01  0.84014410532E+01  0.00000000000E+00 0.  1.
         25    2    1    2    0    0  0.16753616711E+02  0.29887407838E+01  0.24138571900E+04  0.24171532600E+04  0.12503492452E+03 0.  0.
          5    1    3    3  501    0  0.16318302589E+02 -0.23620848135E+01  0.39673631141E+02  0.42963629408E+02  0.10000000000E+00 0. -1.
         -5    1    3    3    0  501  0.43531412245E+00  0.53508255973E+01  0.23741835589E+04  0.23741896306E+04  0.10000000000E+00 0. -1.
         21    1    1    2  504  503 -0.16753616711E+02 -0.29887407838E+01  0.39677116302E+01  0.17474523741E+02  0.00000000000E+00 0.  1.
<mgrwt>
<rscale>  1 0.12618775E+03</rscale>
<asrwt>0</asrwt>
<pdfrwt beam="1">  1       21 0.37326503E+00 0.12618775E+03</pdfrwt>
<pdfrwt beam="2">  1       21 0.12925313E-02 0.12618775E+03</pdfrwt>
<totfact> 0.34535984E+04</totfact>
</mgrwt>
</event>
<event>
 6    1  0.4202038E-002  0.1301259E+03  0.7546771E-02  0.1227269E+00
         21   -1    0    0  504  502  0.00000000000E+00  0.00000000000E+00  0.15804803809E+03  0.15804803809E+03  0.00000000000E+00 0. -1.
         21   -1    0    0  502  503 -0.00000000000E+00 -0.00000000000E+00 -0.75678183452E+02  0.75678183452E+02  0.00000000000E+00 0. -1.
         25    2    1    2    0    0  0.36164742074E+02 -0.42838116593E+00  0.12319004065E+03  0.17918853122E+03  0.12499868609E+03 0.  0.
          5    1    3    3  501    0  0.55329626677E+02 -0.51892908461E+01  0.14164699471E+03  0.15215839589E+03  0.10000000000E+00 0. -1.
         -5    1    3    3    0  501 -0.19164884603E+02  0.47609096802E+01 -0.18456954060E+02  0.27030135331E+02  0.10000000000E+00 0. -1.
         21    1    1    2  504  503 -0.36164742074E+02  0.42838116593E+00 -0.40820186014E+02  0.54537690324E+02  0.00000000000E+00 0. -1.
<mgrwt>
<rscale>  1 0.13012588E+03</rscale>
<asrwt>0</asrwt>
<pdfrwt beam="1">  1       21 0.24315083E-01 0.13012588E+03</pdfrwt>
<pdfrwt beam="2">  1       21 0.11642797E-01 0.13012588E+03</pdfrwt>
<totfact> 0.99038885E+05</totfact>
</mgrwt>
</event>
<event>
 6    1  0.4202038E-002  0.1262983E+03  0.7546771E-02  0.1233054E+00
         21   -1    0    0  503  502  0.00000000000E+00  0.00000000000E+00  0.10286868483E+02  0.10286868483E+02  0.00000000000E+00 0.  1.
         21   -1    0    0  504  503 -0.00000000000E+00 -0.00000000000E+00 -0.52805123684E+03  0.52805123684E+03  0.00000000000E+00 0.  1.
         25    2    1    2    0    0  0.15603684173E+02 -0.91017011543E+01 -0.48197749468E+03  0.49825049812E+03  0.12499975030E+03 0.  0.
          5    1    3    3  501    0 -0.17680452361E+02 -0.50579148931E+02 -0.10853261472E+03  0.12103795752E+03  0.10000000000E+00 0.  1.
         -5    1    3    3    0  501  0.33284136533E+02  0.41477447777E+02 -0.37344487996E+03  0.37721254060E+03  0.10000000000E+00 0.  1.
         21    1    1    2  504  502 -0.15603684173E+02  0.91017011543E+01 -0.35786873673E+02  0.40087607199E+02  0.00000000000E+00 0. -1.
<mgrwt>
<rscale>  1 0.12629827E+03</rscale>
<asrwt>0</asrwt>
<pdfrwt beam="1">  1       21 0.15825949E-02 0.12629827E+03</pdfrwt>
<pdfrwt beam="2">  1       21 0.81238663E-01 0.12629827E+03</pdfrwt>
<totfact> 0.23795931E+06</totfact>
</mgrwt>
</event>
<event>
 6    1  0.4202038E-002  0.1359171E+03  0.7546771E-02  0.1218931E+00
         21   -1    0    0  503  502  0.00000000000E+00  0.00000000000E+00  0.71385047677E+03  0.71385047677E+03  0.00000000000E+00 0.  1.
         21   -1    0    0  504  503 -0.00000000000E+00 -0.00000000000E+00 -0.15038845450E+02  0.15038845450E+02  0.00000000000E+00 0.  1.
         25    2    1    2    0    0  0.69362091053E+00  0.53361378425E+02  0.34048909991E+03  0.36661462764E+03  0.12500216088E+03 0.  0.
          5    1    3    3  501    0 -0.36837399748E+02  0.29547894463E+02  0.30789681068E+03  0.31149723612E+03  0.10000000000E+00 0. -1.
         -5    1    3    3    0  501  0.37531020659E+02  0.23813483963E+02  0.32592289232E+02  0.55117391516E+02  0.10000000000E+00 0. -1.
         21    1    1    2  504  502 -0.69362091053E+00 -0.53361378425E+02  0.35832253141E+03  0.36227469458E+03  0.00000000000E+00 0.  1.
<mgrwt>
<rscale>  1 0.13591710E+03</rscale>
<asrwt>0</asrwt>
<pdfrwt beam="1">  1       21 0.10982312E+00 0.13591710E+03</pdfrwt>
<pdfrwt beam="2">  1       21 0.23136691E-02 0.13591710E+03</pdfrwt>
<totfact> 0.64235463E+05</totfact>
</mgrwt>
</event>
<event>
 6    1  0.4202038E-002  0.1262149E+03  0.7546771E-02  0.1233183E+00
         21   -1    0    0  504  502  0.00000000000E+00  0.00000000000E+00  0.15702665733E+03  0.15702665733E+03  0.00000000000E+00 0. -1.
         21   -1    0    0  502  503 -0.00000000000E+00 -0.00000000000E+00 -0.32894366746E+02  0.32894366746E+02  0.00000000000E+00 0. -1.
         25    2    1    2    0    0  0.17320501691E+02  0.74773971212E+00  0.11219105450E+03  0.16886984803E+03  0.12501853451E+03 0.  0.
          5    1    3    3  501    0 -0.65289317249E+01  0.56240409951E+02  0.22912122019E+02  0.61078523200E+02  0.10000000000E+00 0.  1.
         -5    1    3    3    0  501  0.23849433416E+02 -0.55492670239E+02  0.89278932479E+02  0.10779132483E+03  0.10000000000E+00 0.  1.
         21    1    1    2  504  503 -0.17320501691E+02 -0.74773971212E+00  0.11941236085E+02  0.21051176042E+02  0.00000000000E+00 0.  1.
<mgrwt>
<rscale>  1 0.12621487E+03</rscale>
<asrwt>0</asrwt>
<pdfrwt beam="1">  1       21 0.24157947E-01 0.12621487E+03</pdfrwt>
<pdfrwt beam="2">  1       21 0.50606719E-02 0.12621487E+03</pdfrwt>
<totfact> 0.42023457E+06</totfact>
</mgrwt>
</event>
<event>
 6    1  0.4202038E-002  0.1272412E+03  0.7546771E-02  0.1231608E+00
         21   -1    0    0  504  502  0.00000000000E+00  0.00000000000E+00  0.71754795805E+02  0.71754795805E+02  0.00000000000E+00 0.  1.
         21   -1    0    0  502  503 -0.00000000000E+00 -0.00000000000E+00 -0.80052908329E+02  0.80052908329E+02  0.00000000000E+00 0.  1.
         25    2    1    2    0    0  0.18566275329E+02  0.14877406767E+02 -0.22579201773E+01  0.12726126376E+03  0.12499714892E+03 0.  0.
          5    1    3    3  501    0 -0.76153956283E+00  0.51499629433E+02  0.42141288996E+02  0.66548403531E+02  0.10000000000E+00 0. -1.
         -5    1    3    3    0  501  0.19327814891E+02 -0.36622222666E+02 -0.44399209173E+02  0.60712860225E+02  0.10000000000E+00 0. -1.
         21    1    1    2  504  503 -0.18566275329E+02 -0.14877406767E+02 -0.60401923462E+01  0.24546440379E+02  0.00000000000E+00 0.  1.
<mgrwt>
<rscale>  1 0.12724123E+03</rscale>
<asrwt>0</asrwt>
<pdfrwt beam="1">  1       21 0.11039199E-01 0.12724123E+03</pdfrwt>
<pdfrwt beam="2">  1       21 0.12315832E-01 0.12724123E+03</pdfrwt>
<totfact> 0.37653914E+06</totfact>
</mgrwt>
</event>
<event>
 6    1  0.4202038E-002  0.1290176E+03  0.7546771E-02  0.1228921E+00
         21   -1    0    0  503  502  0.00000000000E+00  0.00000000000E+00  0.55367098042E+02  0.55367098042E+02  0.00000000000E+00 0.  1.
         21   -1    0    0  504  503 -0.00000000000E+00 -0.00000000000E+00 -0.33154720242E+03  0.33154720242E+03  0.00000000000E+00 0.  1.
         25    2    1    2    0    0  0.27206298177E+02 -0.16662231836E+02 -0.22169976387E+02  0.13090852367E+03  0.12501088387E+03 0.  0.
          5    1    3    3  501    0  0.77244408883E+02 -0.63023532058E+01 -0.18493147152E+02  0.79677003278E+02  0.10000000000E+00 0.  1.
         -5    1    3    3    0  501 -0.50038110706E+02 -0.10359878630E+02 -0.36768292348E+01  0.51231520390E+02  0.10000000000E+00 0.  1.
         21    1    1    2  504  502 -0.27206298177E+02  0.16662231836E+02 -0.25401012799E+03  0.25600577679E+03  0.00000000000E+00 0.  1.
<mgrwt>
<rscale>  1 0.12901757E+03</rscale>
<asrwt>0</asrwt>
<pdfrwt beam="1">  1       21 0.85180151E-02 0.12901757E+03</pdfrwt>
<pdfrwt beam="2">  1       21 0.51007262E-01 0.12901757E+03</pdfrwt>
<totfact> 0.39751211E+05</totfact>
</mgrwt>
</event>
<event>
 6    1  0.4202038E-002  0.1271743E+03  0.7546771E-02  0.1231710E+00
         21   -1    0    0  504  502  0.00000000000E+00  0.00000000000E+00  0.14419738142E+04  0.14419738142E+04  0.00000000000E+00 0.  1.
         21   -1    0    0  502  503 -0.00000000000E+00 -0.00000000000E+00 -0.49127597974E+01  0.49127597974E+01  0.00000000000E+00 0.  1.
         25    2    1    2    0    0  0.23365321005E+02  0.20901242596E+01  0.13690379549E+04  0.13749320821E+04  0.12499200557E+03 0.  0.
          5    1    3    3  501    0  0.33946687008E+02  0.11958434519E+02  0.13524152708E+04  0.13528941039E+04  0.10000000000E+00 0. -1.
         -5    1    3    3    0  501 -0.10581366003E+02 -0.98683102589E+01  0.16622684114E+02  0.22037978152E+02  0.10000000000E+00 0. -1.
         21    1    1    2  504  503 -0.23365321005E+02 -0.20901242596E+01  0.68023099501E+02  0.71954491943E+02  0.00000000000E+00 0.  1.
<mgrwt>
<rscale>  1 0.12717432E+03</rscale>
<asrwt>0</asrwt>
<pdfrwt beam="1">  1       21 0.22184179E+00 0.12717432E+03</pdfrwt>
<pdfrwt beam="2">  1       21 0.75581035E-03 0.12717432E+03</pdfrwt>
<totfact> 0.58945890E+05</totfact>
</mgrwt>
</event>
<event>
 6    1  0.4202038E-002  0.1260503E+03  0.7546771E-02  0.1233437E+00
         21   -1    0    0  504  502  0.00000000000E+00  0.00000000000E+00  0.97304457386E+02  0.97304457386E+02  0.00000000000E+00 0.  1.
         21   -1    0    0  502  503 -0.00000000000E+00 -0.00000000000E+00 -0.67751194154E+02  0.67751194154E+02  0.00000000000E+00 0.  1.
         25    2    1    2    0    0 -0.44282245838E+01  0.15605149015E+02  0.52838793123E+02  0.13667703721E+03  0.12500217836E+03 0.  0.
          5    1    3    3  501    0  0.47735541622E+02  0.43643247357E+02  0.14989747202E+02  0.66393655533E+02  0.10000000000E+00 0. -1.
         -5    1    3    3    0  501 -0.52163766206E+02 -0.28038098343E+02  0.37849045921E+02  0.70283381681E+02  0.10000000000E+00 0. -1.
         21    1    1    2  504  503  0.44282245838E+01 -0.15605149015E+02 -0.23285529891E+02  0.28378614326E+02  0.00000000000E+00 0.  1.
<mgrwt>
<rscale>  1 0.12605029E+03</rscale>
<asrwt>0</asrwt>
<pdfrwt beam="1">  1       21 0.14969917E-01 0.12605029E+03</pdfrwt>
<pdfrwt beam="2">  1       21 0.10423261E-01 0.12605029E+03</pdfrwt>
<totfact> 0.29371020E+06</totfact>
</mgrwt>
</event>
<event>
 6    1  0.4202038E-002  0.1263560E+03  0.7546771E-02  0.1232965E+00
         21   -1    0    0  504  502  0.00000000000E+00  0.00000000000E+00  0.18938463283E+03  0.18938463283E+03  0.00000000000E+00 0.  1.
         21   -1    0    0  502  503 -0.00000000000E+00 -0.00000000000E+00 -0.33120053707E+02  0.33120053707E+02  0.00000000000E+00 0.  1.
         25    2    1    2    0    0  0.17419278227E+02 -0.60432209794E+01  0.15981121940E+03  0.20372889279E+03  0.12500353650E+03 0.  0.
          5    1    3    3  501    0  0.38260251639E+02 -0.55777602814E+02  0.60624651078E+02  0.90831416093E+02  0.10000000000E+00 0. -1.
         -5    1    3    3    0  501 -0.20840973413E+02  0.49734381835E+02  0.99186568319E+02  0.11289747670E+03  0.10000000000E+00 0. -1.
         21    1    1    2  504  503 -0.17419278227E+02  0.60432209794E+01 -0.35466402721E+01  0.18775793751E+02  0.00000000000E+00 0.  1.
<mgrwt>
<rscale>  1 0.12635599E+03</rscale>
<asrwt>0</asrwt>
<pdfrwt beam="1">  1       21 0.29136097E-01 0.12635599E+03</pdfrwt>
<pdfrwt beam="2">  1       21 0.50953930E-02 0.12635599E+03</pdfrwt>
<totfact> 0.29095480E+06</totfact>
</mgrwt>
</event>
<event>
 6    1  0.4202038E-002  0.1259217E+03  0.7546771E-02  0.1233636E+00
         21   -1    0    0  503  502  0.00000000000E+00  0.00000000000E+00  0.16084865502E+03  0.16084865502E+03  0.00000000000E+00 0. -1.
         21   -1    0    0  504  503 -0.00000000000E+00 -0.00000000000E+00 -0.58056893840E+02  0.58056893840E+02  0.00000000000E+00 0. -1.
         25    2    1    2    0    0 -0.58131510299E+01 -0.13919393266E+02  0.13422194797E+03  0.18404297759E+03  0.12501497530E+03 0.  0.
          5    1    3    3  501    0 -0.14670253740E+01  0.41429473164E+02  0.30054876126E+01  0.41564364135E+02  0.10000000000E+00 0. -1.
         -5    1    3    3    0  501 -0.43461256558E+01 -0.55348866431E+02  0.13121646035E+03  0.14247861345E+03  0.10000000000E+00 0. -1.
         21    1    1    2  504  502  0.58131510299E+01  0.13919393266E+02 -0.31430186790E+02  0.34862571269E+02  0.00000000000E+00 0. -1.
<mgrwt>
<rscale>  1 0.12592175E+03</rscale>
<asrwt>0</asrwt>
<pdfrwt beam="1">  1       21 0.24745947E-01 0.12592175E+03</pdfrwt>
<pdfrwt beam="2">  1       21 0.89318299E-02 0.12592175E+03</pdfrwt>
<totfact> 0.15234347E+06</totfact>
</mgrwt>
</event>
<event>
 6    1  0.4202038E-002  0.1276506E+03  0.7546771E-02  0.1230984E+00
         21   -1    0    0  503  502  0.00000000000E+00  0.00000000000E+00  0.41684139167E+02  0.41684139167E+02  0.00000000000E+00 0.  1.
         21   -1    0    0  504  503 -0.00000000000E+00 -0.00000000000E+00 -0.82869065006E+03  0.82869065006E+03  0.00000000000E+00 0.  1.
         25    2    1    2    0    0 -0.24694304115E+02 -0.78562328004E+01 -0.56814655840E+02  0.13972324832E+03  0.12499260759E+03 0.  0.
          5    1    3    3  501    0 -0.41033385122E+02 -0.54543936868E+02 -0.55419441292E+01  0.68479945155E+02  0.10000000000E+00 0.  1.
         -5    1    3    3    0  501  0.16339081007E+02  0.46687704068E+02 -0.51272711710E+02  0.71243303162E+02  0.10000000000E+00 0.  1.
         21    1    1    2  504  502  0.24694304115E+02  0.78562328004E+01 -0.73019185506E+03  0.73065154091E+03  0.00000000000E+00 0.  1.
<mgrwt>
<rscale>  1 0.12765062E+03</rscale>
<asrwt>0</asrwt>
<pdfrwt beam="1">  1       21 0.64129455E-02 0.12765062E+03</pdfrwt>
<pdfrwt beam="2">  1       21 0.12749085E+00 0.12765062E+03</pdfrwt>
<totfact> 0.82453886E+04</totfact>
</mgrwt>
</event>
<event>
 6    1  0.4202038E-002  0.1261190E+03  0.7546771E-02  0.1233331E+00
         21   -1    0    0  503  502  0.00000000000E+00  0.00000000000E+00  0.34998888304E+02  0.34998888304E+02  0.00000000000E+00 0.  1.
         21   -1    0    0  504  503 -0.00000000000E+00 -0.00000000000E+00 -0.14649310557E+03  0.14649310557E+03  0.00000000000E+00 0.  1.
         25    2    1    2    0    0  0.25885036321E+01 -0.16553254131E+02 -0.10222010845E+03  0.16234206782E+03  0.12500114335E+03 0.  0.
          5    1    3    3  501    0  0.31449939835E+02  0.23266663798E+02 -0.10602844233E+03  0.11301538366E+03  0.10000000000E+00 0. -1.
         -5    1    3    3    0  501 -0.28861436203E+02 -0.39819917929E+02  0.38083338807E+01  0.49326684163E+02  0.10000000000E+00 0. -1.
         21    1    1    2  504  502 -0.25885036321E+01  0.16553254131E+02 -0.92741088079E+01  0.19149926046E+02  0.00000000000E+00 0.  1.
<mgrwt>
<rscale>  1 0.12611898E+03</rscale>
<asrwt>0</asrwt>
<pdfrwt beam="1">  1       21 0.53844445E-02 0.12611898E+03</pdfrwt>
<pdfrwt beam="2">  1       21 0.22537400E-01 0.12611898E+03</pdfrwt>
<totfact> 0.43124588E+06</totfact>
</mgrwt>
</event>
<event>
 6    1  0.4202038E-002  0.1498821E+03  0.7546771E-02  0.1200618E+00
         21   -1    0    0  504  502  0.00000000000E+00  0.00000000000E+00  0.12311063056E+03  0.12311063056E+03  0.00000000000E+00 0. -1.
         21   -1    0    0  502  503 -0.00000000000E+00 -0.00000000000E+00 -0.30090835821E+03  0.30090835821E+03  0.00000000000E+00 0. -1.
         25    2    1    2    0    0 -0.56457131141E+02 -0.60434908771E+02  0.68069455264E+02  0.16461494584E+03  0.12499937519E+03 0.  0.
          5    1    3    3  501    0 -0.40015937898E+01 -0.59990122166E+02  0.89606708168E+02  0.10790829282E+03  0.10000000000E+00 0.  1.
         -5    1    3    3    0  501 -0.52455537351E+02 -0.44478660477E+00 -0.21537252903E+02  0.56706653018E+02  0.10000000000E+00 0.  1.
         21    1    1    2  504  503  0.56457131141E+02  0.60434908771E+02 -0.24586718291E+03  0.25940404293E+03  0.00000000000E+00 0. -1.
<mgrwt>
<rscale>  1 0.14988205E+03</rscale>
<asrwt>0</asrwt>
<pdfrwt beam="1">  1       21 0.18940097E-01 0.14988205E+03</pdfrwt>
<pdfrwt beam="2">  1       21 0.46293593E-01 0.14988205E+03</pdfrwt>
<totfact> 0.11599977E+05</totfact>
</mgrwt>
</event>
<event>
 6    1  0.4202038E-002  0.1285943E+03  0.7546771E-02  0.1229556E+00
         21   -1    0    0  503  502  0.00000000000E+00  0.00000000000E+00  0.43613235898E+03  0.43613235898E+03  0.00000000000E+00 0. -1.
         21   -1    0    0  504  503 -0.00000000000E+00 -0.00000000000E+00 -0.32588931804E+02  0.32588931804E+02  0.00000000000E+00 0. -1.
         25    2    1    2    0    0 -0.26876954922E+02 -0.13744815687E+02  0.41647831252E+03  0.43587921528E+03  0.12500085942E+03 0.  0.
          5    1    3    3  501    0  0.20900669493E+02 -0.59026390688E+02  0.21357674623E+03  0.22256681988E+03  0.10000000000E+00 0.  1.
         -5    1    3    3    0  501 -0.47777624416E+02  0.45281575001E+02  0.20290156629E+03  0.21331239540E+03  0.10000000000E+00 0.  1.
         21    1    1    2  504  502  0.26876954922E+02  0.13744815687E+02 -0.12934885344E+02  0.32842075498E+02  0.00000000000E+00 0. -1.
<mgrwt>
<rscale>  1 0.12859434E+03</rscale>
<asrwt>0</asrwt>
<pdfrwt beam="1">  1       21 0.67097282E-01 0.12859434E+03</pdfrwt>
<pdfrwt beam="2">  1       21 0.50136821E-02 0.12859434E+03</pdfrwt>
<totfact> 0.54927167E+05</totfact>
</mgrwt>
</event>
<event>
 6    1  0.4202038E-002  0.1273020E+03  0.7546771E-02  0.1231515E+00
         21   -1    0    0  504  502  0.00000000000E+00  0.00000000000E+00  0.23313799781E+02  0.23313799781E+02  0.00000000000E+00 0.  1.
         21   -1    0    0  502  503 -0.00000000000E+00 -0.00000000000E+00 -0.39075567375E+03  0.39075567375E+03  0.00000000000E+00 0.  1.
         25    2    1    2    0    0  0.21593065509E+02 -0.10719604579E+02 -0.15642218259E+03  0.20167719366E+03  0.12499848333E+03 0.  0.
          5    1    3    3  501    0 -0.21993952562E+02  0.26881337886E+02 -0.13636466173E+03  0.14071841117E+03  0.10000000000E+00 0.  1.
         -5    1    3    3    0  501  0.43587018071E+02 -0.37600942465E+02 -0.20057520864E+02  0.60958782482E+02  0.10000000000E+00 0.  1.
         21    1    1    2  504  503 -0.21593065509E+02  0.10719604579E+02 -0.21101969138E+03  0.21239227987E+03  0.00000000000E+00 0.  1.
<mgrwt>
<rscale>  1 0.12730197E+03</rscale>
<asrwt>0</asrwt>
<pdfrwt beam="1">  1       21 0.35867388E-02 0.12730197E+03</pdfrwt>
<pdfrwt beam="2">  1       21 0.60116251E-01 0.12730197E+03</pdfrwt>
<totfact> 0.12143797E+06</totfact>
</mgrwt>
</event>
<event>
 6    1  0.4202038E-002  0.1274151E+03  0.7546771E-02  0.1231342E+00
         21   -1    0    0  504  502  0.00000000000E+00  0.00000000000E+00  0.10121683269E+02  0.10121683269E+02  0.00000000000E+00 0.  1.
         21   -1    0    0  502  503 -0.00000000000E+00 -0.00000000000E+00 -0.64413060882E+03  0.64413060882E+03  0.00000000000E+00 0.  1.
         25    2    1    2    0    0 -0.16520162476E+02  0.18361223089E+02 -0.42217715710E+03  0.44098544421E+03  0.12499823896E+03 0.  0.
          5    1    3    3  501    0  0.46506062343E+02 -0.98872526903E+01 -0.26602823677E+03  0.27024360189E+03  0.10000000000E+00 0.  1.
         -5    1    3    3    0  501 -0.63026224819E+02  0.28248475779E+02 -0.15614892033E+03  0.17074184232E+03  0.10000000000E+00 0.  1.
         21    1    1    2  504  503  0.16520162476E+02 -0.18361223089E+02 -0.21183176845E+03  0.21326684788E+03  0.00000000000E+00 0.  1.
<mgrwt>
<rscale>  1 0.12741511E+03</rscale>
<asrwt>0</asrwt>
<pdfrwt beam="1">  1       21 0.15571823E-02 0.12741511E+03</pdfrwt>
<pdfrwt beam="2">  1       21 0.99097002E-01 0.12741511E+03</pdfrwt>
<totfact> 0.15511402E+06</totfact>
</mgrwt>
</event>
<event>
 6    1  0.4202038E-002  0.1296941E+03  0.7546771E-02  0.1227910E+00
         21   -1    0    0  503  502  0.00000000000E+00  0.00000000000E+00  0.37820227543E+03  0.37820227543E+03  0.00000000000E+00 0.  1.
         21   -1    0    0  504  503 -0.00000000000E+00 -0.00000000000E+00 -0.23478775744E+02  0.23478775744E+02  0.00000000000E+00 0.  1.
         25    2    1    2    0    0  0.24170687281E+02 -0.24700829711E+02  0.34040153624E+03  0.36427153702E+03  0.12500477469E+03 0.  0.
          5    1    3    3  501    0 -0.31969766107E+02  0.31769886177E+01  0.26167344043E+03  0.26363831024E+03  0.10000000000E+00 0.  1.
         -5    1    3    3    0  501  0.56140453388E+02 -0.27877818329E+02  0.78728095816E+02  0.10063322678E+03  0.10000000000E+00 0.  1.
         21    1    1    2  504  502 -0.24170687281E+02  0.24700829711E+02  0.14321963437E+02  0.37409514147E+02  0.00000000000E+00 0.  1.
<mgrwt>
<rscale>  1 0.12969405E+03</rscale>
<asrwt>0</asrwt>
<pdfrwt beam="1">  1       21 0.58184961E-01 0.12969405E+03</pdfrwt>
<pdfrwt beam="2">  1       21 0.36121196E-02 0.12969405E+03</pdfrwt>
<totfact> 0.12865504E+06</totfact>
</mgrwt>
</event>
<event>
 6    1  0.4202038E-002  0.2108553E+03  0.7546771E-02  0.1140890E+00
         21   -1    0    0  504  502  0.00000000000E+00  0.00000000000E+00  0.15218550523E+03  0.15218550523E+03  0.00000000000E+00 0. -1.
         21   -1    0    0  502  503 -0.00000000000E+00 -0.00000000000E+00 -0.48964988097E+03  0.48964988097E+03  0.00000000000E+00 0.  1.
         25    2    1    2    0    0 -0.29272296439E+01 -0.16979411775E+03  0.51813912060E+02  0.21712819712E+03  0.12498544478E+03 0.  0.
          5    1    3    3  501    0  0.53548012884E+02 -0.10904367640E+03  0.56648984002E+02  0.13404115202E+03  0.10000000000E+00 0. -1.
         -5    1    3    3    0  501 -0.56475242528E+02 -0.60750441349E+02 -0.48350719416E+01  0.83087045100E+02  0.10000000000E+00 0. -1.
         21    1    1    2  504  503  0.29272296439E+01  0.16979411775E+03 -0.38927828780E+03  0.42470718907E+03  0.00000000000E+00 0.  1.
<mgrwt>
<rscale>  1 0.21085534E+03</rscale>
<asrwt>0</asrwt>
<pdfrwt beam="1">  1       21 0.23413154E-01 0.21085534E+03</pdfrwt>
<pdfrwt beam="2">  1       21 0.75330752E-01 0.21085534E+03</pdfrwt>
<totfact> 0.26739300E+04</totfact>
</mgrwt>
</event>
<event>
 6    1  0.4202038E-002  0.1307056E+03  0.7546771E-02  0.1226412E+00
         21   -1    0    0  504  502  0.00000000000E+00  0.00000000000E+00  0.79218122614E+03  0.79218122614E+03  0.00000000000E+00 0. -1.
         21   -1    0    0  502  503 -0.00000000000E+00 -0.00000000000E+00 -0.97269940465E+01  0.97269940465E+01  0.00000000000E+00 0. -1.
         25    2    1    2    0    0 -0.32804795859E+02 -0.19533621948E+02  0.68265034881E+03  0.69505068822E+03  0.12500497373E+03 0.  0.
          5    1    3    3  501    0  0.36048097471E+02  0.26205143831E+02  0.16831022650E+03  0.17411064654E+03  0.10000000000E+00 0.  1.
         -5    1    3    3    0  501 -0.68852893330E+02 -0.45738765778E+02  0.51434012231E+03  0.52094004168E+03  0.10000000000E+00 0.  1.
         21    1    1    2  504  503  0.32804795859E+02  0.19533621948E+02  0.99803883282E+02  0.10685753196E+03  0.00000000000E+00 0. -1.
<mgrwt>
<rscale>  1 0.13070563E+03</rscale>
<asrwt>0</asrwt>
<pdfrwt beam="1">  1       21 0.12187398E+00 0.13070563E+03</pdfrwt>
<pdfrwt beam="2">  1       21 0.14964612E-02 0.13070563E+03</pdfrwt>
<totfact> 0.10079974E+06</totfact>
</mgrwt>
</event>
<event>
 6    1  0.4202038E-002  0.1503649E+03  0.7546771E-02  0.1200025E+00
         21   -1    0    0  503  502  0.00000000000E+00  0.00000000000E+00  0.26805635356E+03  0.26805635356E+03  0.00000000000E+00 0.  1.
         21   -1    0    0  504  503 -0.00000000000E+00 -0.00000000000E+00 -0.97436226324E+03  0.97436226324E+03  0.00000000000E+00 0. -1.
         25    2    1    2    0    0  0.29879320629E+02  0.78031353019E+02  0.24499345385E+03  0.28745676160E+03  0.12501172547E+03 0.  0.
          5    1    3    3  501    0  0.51648871303E+02  0.78756831631E+02  0.24817379395E+03  0.26544394218E+03  0.10000000000E+00 0.  1.
         -5    1    3    3    0  501 -0.21769550675E+02 -0.72547861149E+00 -0.31803401011E+01  0.22012819423E+02  0.10000000000E+00 0.  1.
         21    1    1    2  504  502 -0.29879320629E+02 -0.78031353019E+02 -0.95129936352E+03  0.95496185520E+03  0.00000000000E+00 0. -1.
<mgrwt>
<rscale>  1 0.15036488E+03</rscale>
<asrwt>0</asrwt>
<pdfrwt beam="1">  1       21 0.41239438E-01 0.15036488E+03</pdfrwt>
<pdfrwt beam="2">  1       21 0.14990189E+00 0.15036488E+03</pdfrwt>
<totfact> 0.17740556E+03</totfact>
</mgrwt>
</event>
<event>
 6    1  0.4202038E-002  0.1278710E+03  0.7546771E-02  0.1230649E+00
         21   -1    0    0  504  502  0.00000000000E+00  0.00000000000E+00  0.58633388050E+03  0.58633388050E+03  0.00000000000E+00 0.  1.
         21   -1    0    0  502  503 -0.00000000000E+00 -0.00000000000E+00 -0.14398569172E+02  0.14398569172E+02  0.00000000000E+00 0.  1.
         25    2    1    2    0    0  0.18470896622E+02 -0.19613694726E+02  0.55352037865E+03  0.56809840627E+03  0.12500047436E+03 0.  0.
          5    1    3    3  501    0  0.55502486027E+02 -0.33802484479E+02  0.48163862704E+03  0.48600299481E+03  0.10000000000E+00 0.  1.
         -5    1    3    3    0  501 -0.37031589405E+02  0.14188789754E+02  0.71881751609E+02  0.82095411460E+02  0.10000000000E+00 0.  1.
         21    1    1    2  504  503 -0.18470896622E+02  0.19613694726E+02  0.18414932679E+02  0.32634043396E+02  0.00000000000E+00 0.  1.
<mgrwt>
<rscale>  1 0.12787099E+03</rscale>
<asrwt>0</asrwt>
<pdfrwt beam="1">  1       21 0.90205194E-01 0.12787099E+03</pdfrwt>
<pdfrwt beam="2">  1       21 0.22151649E-02 0.12787099E+03</pdfrwt>
<totfact> 0.10931748E+06</totfact>
</mgrwt>
</event>
<event>
 6    1  0.4202038E-002  0.1269671E+03  0.7546771E-02  0.1232027E+00
         21   -1    0    0  504  502  0.00000000000E+00  0.00000000000E+00  0.22324722172E+03  0.22324722172E+03  0.00000000000E+00 0. -1.
         21   -1    0    0  502  503 -0.00000000000E+00 -0.00000000000E+00 -0.60048477721E+02  0.60048477721E+02  0.00000000000E+00 0. -1.
         25    2    1    2    0    0 -0.21701568917E+02 -0.49513957664E+01  0.20198492814E+03  0.23857610089E+03  0.12500068123E+03 0.  0.
          5    1    3    3  501    0 -0.20797811594E+02 -0.85498657693E+01  0.21951178663E+03  0.22066056204E+03  0.10000000000E+00 0. -1.
         -5    1    3    3    0  501 -0.90375732331E+00  0.35984700029E+01 -0.17526858491E+02  0.17915538848E+02  0.10000000000E+00 0. -1.
         21    1    1    2  504  503  0.21701568917E+02  0.49513957664E+01 -0.38786184145E+02  0.44719598545E+02  0.00000000000E+00 0. -1.
<mgrwt>
<rscale>  1 0.12696710E+03</rscale>
<asrwt>0</asrwt>
<pdfrwt beam="1">  1       21 0.34345726E-01 0.12696710E+03</pdfrwt>
<pdfrwt beam="2">  1       21 0.92382274E-02 0.12696710E+03</pdfrwt>
<totfact> 0.76525618E+05</totfact>
</mgrwt>
</event>
<event>
 6    1  0.4202038E-002  0.1264615E+03  0.7546771E-02  0.1232803E+00
         21   -1    0    0  503  502  0.00000000000E+00  0.00000000000E+00  0.64702867496E+03  0.64702867496E+03  0.00000000000E+00 0.  1.
         21   -1    0    0  504  503 -0.00000000000E+00 -0.00000000000E+00 -0.12585217091E+02  0.12585217091E+02  0.00000000000E+00 0.  1.
         25    2    1    2    0    0  0.19000041306E+02 -0.24514826126E+01  0.62605599059E+03  0.63870071573E+03  0.12500195832E+03 0.  0.
          5    1    3    3  501    0  0.53418543576E+02  0.40015572077E+02  0.25276795865E+03  0.26143151632E+03  0.10000000000E+00 0.  1.
         -5    1    3    3    0  501 -0.34418502270E+02 -0.42467054690E+02  0.37328803194E+03  0.37726919941E+03  0.10000000000E+00 0.  1.
         21    1    1    2  504  502 -0.19000041306E+02  0.24514826126E+01  0.83874672856E+01  0.20913176328E+02  0.00000000000E+00 0.  1.
<mgrwt>
<rscale>  1 0.12646146E+03</rscale>
<asrwt>0</asrwt>
<pdfrwt beam="1">  1       21 0.99542847E-01 0.12646146E+03</pdfrwt>
<pdfrwt beam="2">  1       21 0.19361877E-02 0.12646146E+03</pdfrwt>
<totfact> 0.10821412E+06</totfact>
</mgrwt>
</event>
<event>
 6    1  0.4202038E-002  0.1261983E+03  0.7546771E-02  0.1233208E+00
         21   -1    0    0  503  502  0.00000000000E+00  0.00000000000E+00  0.10511940910E+03  0.10511940910E+03  0.00000000000E+00 0. -1.
         21   -1    0    0  504  503 -0.00000000000E+00 -0.00000000000E+00 -0.53131771652E+02  0.53131771652E+02  0.00000000000E+00 0. -1.
         25    2    1    2    0    0 -0.14677176343E+02 -0.93056874626E+01  0.59251288132E+02  0.13941568379E+03  0.12499600960E+03 0.  0.
          5    1    3    3  501    0  0.69497604368E+01  0.53842850580E+02  0.71885820293E+01  0.54763468118E+02  0.10000000000E+00 0. -1.
         -5    1    3    3    0  501 -0.21626936779E+02 -0.63148538043E+02  0.52062706103E+02  0.84652215672E+02  0.10000000000E+00 0. -1.
         21    1    1    2  504  502  0.14677176343E+02  0.93056874626E+01 -0.72636506846E+01  0.18835496962E+02  0.00000000000E+00 0.  1.
<mgrwt>
<rscale>  1 0.12619833E+03</rscale>
<asrwt>0</asrwt>
<pdfrwt beam="1">  1       21 0.16172217E-01 0.12619833E+03</pdfrwt>
<pdfrwt beam="2">  1       21 0.81741187E-02 0.12619833E+03</pdfrwt>
<totfact> 0.38985089E+06</totfact>
</mgrwt>
</event>
<event>
 6    1  0.4202038E-002  0.1298037E+03  0.7546771E-02  0.1227747E+00
         21   -1    0    0  503  502  0.00000000000E+00  0.00000000000E+00  0.14958127894E+03  0.14958127894E+03  0.00000000000E+00 0. -1.
         21   -1    0    0  504  503 -0.00000000000E+00 -0.00000000000E+00 -0.49819578471E+02  0.49819578471E+02  0.00000000000E+00 0. -1.
         25    2    1    2    0    0  0.20092854154E+02  0.28707909941E+02  0.10079756300E+03  0.16434461842E+03  0.12498455110E+03 0.  0.
          5    1    3    3  501    0  0.41184000753E+02  0.44509467238E+02  0.11814150571E+03  0.13279548171E+03  0.10000000000E+00 0.  1.
         -5    1    3    3    0  501 -0.21091146599E+02 -0.15801557297E+02 -0.17343942711E+02  0.31549136702E+02  0.10000000000E+00 0.  1.
         21    1    1    2  504  502 -0.20092854154E+02 -0.28707909941E+02 -0.10358625326E+01  0.35056238994E+02  0.00000000000E+00 0. -1.
<mgrwt>
<rscale>  1 0.12980372E+03</rscale>
<asrwt>0</asrwt>
<pdfrwt beam="1">  1       21 0.23012504E-01 0.12980372E+03</pdfrwt>
<pdfrwt beam="2">  1       21 0.76645506E-02 0.12980372E+03</pdfrwt>
<totfact> 0.22764500E+06</totfact>
</mgrwt>
</event>
<event>
 6    1  0.4202038E-002  0.1285022E+03  0.7546771E-02  0.1229695E+00
         21   -1    0    0  503  502  0.00000000000E+00  0.00000000000E+00  0.83600600129E+01  0.83600600129E+01  0.00000000000E+00 0. -1.
         21   -1    0    0  504  503 -0.00000000000E+00 -0.00000000000E+00 -0.10707659387E+04  0.10707659387E+04  0.00000000000E+00 0. -1.
         25    2    1    2    0    0 -0.25641138339E+02 -0.15180961306E+02 -0.51079533907E+03  0.52671119353E+03  0.12499949368E+03 0.  0.
          5    1    3    3  501    0 -0.33995368514E+02  0.51251821445E+02 -0.25148326772E+03  0.25889433795E+03  0.10000000000E+00 0.  1.
         -5    1    3    3    0  501  0.83542301758E+01 -0.66432782751E+02 -0.25931207135E+03  0.26781685558E+03  0.10000000000E+00 0.  1.
         21    1    1    2  504  502  0.25641138339E+02  0.15180961306E+02 -0.55161053964E+03  0.55241480520E+03  0.00000000000E+00 0. -1.
<mgrwt>
<rscale>  1 0.12850215E+03</rscale>
<asrwt>0</asrwt>
<pdfrwt beam="1">  1       21 0.12861636E-02 0.12850215E+03</pdfrwt>
<pdfrwt beam="2">  1       21 0.16473315E+00 0.12850215E+03</pdfrwt>
<totfact> 0.59458262E+05</totfact>
</mgrwt>
</event>
<event>
 6    1  0.4202038E-002  0.1262903E+03  0.7546771E-02  0.1233066E+00
         21   -1    0    0  504  502  0.00000000000E+00  0.00000000000E+00  0.15008309445E+03  0.15008309445E+03  0.00000000000E+00 0.  1.
         21   -1    0    0  502  503 -0.00000000000E+00 -0.00000000000E+00 -0.39392272710E+02  0.39392272710E+02  0.00000000000E+00 0.  1.
         25    2    1    2    0    0 -0.17857635806E+02  0.22214825406E+01  0.11518291760E+03  0.17092788575E+03  0.12500162990E+03 0.  0.
          5    1    3    3  501    0  0.43106168575E+02  0.36025746593E+02  0.58224584430E+02  0.80908024441E+02  0.10000000000E+00 0. -1.
         -5    1    3    3    0  501 -0.60963804381E+02 -0.33804264052E+02  0.56958333174E+02  0.90019861312E+02  0.10000000000E+00 0. -1.
         21    1    1    2  504  503  0.17857635806E+02 -0.22214825406E+01 -0.44920958651E+01  0.18547481406E+02  0.00000000000E+00 0.  1.
<mgrwt>
<rscale>  1 0.12629029E+03</rscale>
<asrwt>0</asrwt>
<pdfrwt beam="1">  1       21 0.23089707E-01 0.12629029E+03</pdfrwt>
<pdfrwt beam="2">  1       21 0.60603497E-02 0.12629029E+03</pdfrwt>
<totfact> 0.33750201E+06</totfact>
</mgrwt>
</event>
<event>
 6    1  0.4202038E-002  0.1263569E+03  0.7546771E-02  0.1232964E+00
         21   -1    0    0  504  502  0.00000000000E+00  0.00000000000E+00  0.15643165732E+04  0.15643165732E+04  0.00000000000E+00 0.  1.
         21   -1    0    0  502  503 -0.00000000000E+00 -0.00000000000E+00 -0.33986606393E+01  0.33986606393E+01  0.00000000000E+00 0.  1.
         25    2    1    2    0    0 -0.18494498485E+02  0.31134452020E+00  0.14147711956E+04  0.14204026197E+04  0.12499569076E+03 0.  0.
          5    1    3    3  501    0 -0.62441373848E+02 -0.27607660988E+02  0.10085909482E+04  0.10108990151E+04  0.10000000000E+00 0. -1.
         -5    1    3    3    0  501  0.43946875363E+02  0.27919005508E+02  0.40618024747E+03  0.40950360458E+03  0.10000000000E+00 0. -1.
         21    1    1    2  504  503  0.18494498485E+02 -0.31134452020E+00  0.14614671694E+03  0.14731261413E+03  0.00000000000E+00 0. -1.
<mgrwt>
<rscale>  1 0.12635690E+03</rscale>
<asrwt>0</asrwt>
<pdfrwt beam="1">  1       21 0.24066351E+00 0.12635690E+03</pdfrwt>
<pdfrwt beam="2">  1       21 0.52287212E-03 0.12635690E+03</pdfrwt>
<totfact> 0.81026421E+05</totfact>
</mgrwt>
</event>
<event>
 6    1  0.4202038E-002  0.1339338E+03  0.7546771E-02  0.1221733E+00
         21   -1    0    0  504  502  0.00000000000E+00  0.00000000000E+00  0.12936137373E+02  0.12936137373E+02  0.00000000000E+00 0.  1.
         21   -1    0    0  502  503 -0.00000000000E+00 -0.00000000000E+00 -0.89875740102E+03  0.89875740102E+03  0.00000000000E+00 0.  1.
         25    2    1    2    0    0 -0.45526653377E+02 -0.15498341600E+02 -0.36748536233E+03  0.39113136021E+03  0.12500149861E+03 0.  0.
          5    1    3    3  501    0 -0.33408030386E+02 -0.69488309406E+02 -0.18449079288E+03  0.19995395544E+03  0.10000000000E+00 0.  1.
         -5    1    3    3    0  501 -0.12118622991E+02  0.53989967806E+02 -0.18299456945E+03  0.19117740477E+03  0.10000000000E+00 0.  1.
         21    1    1    2  504  503  0.45526653377E+02  0.15498341600E+02 -0.51833590132E+03  0.52056217818E+03  0.00000000000E+00 0.  1.
<mgrwt>
<rscale>  1 0.13393375E+03</rscale>
<asrwt>0</asrwt>
<pdfrwt beam="1">  1       21 0.19901754E-02 0.13393375E+03</pdfrwt>
<pdfrwt beam="2">  1       21 0.13827034E+00 0.13393375E+03</pdfrwt>
<totfact> 0.46548889E+05</totfact>
</mgrwt>
</event>
<event>
 6    1  0.4202038E-002  0.1611957E+03  0.7546771E-02  0.1187353E+00
         21   -1    0    0  504  502  0.00000000000E+00  0.00000000000E+00  0.75793101884E+03  0.75793101884E+03  0.00000000000E+00 0. -1.
         21   -1    0    0  502  503 -0.00000000000E+00 -0.00000000000E+00 -0.68450149168E+02  0.68450149168E+02  0.00000000000E+00 0.  1.
         25    2    1    2    0    0  0.54980614936E+02  0.85720351417E+02  0.70515491378E+03  0.72334465834E+03  0.12495277372E+03 0.  0.
          5    1    3    3  501    0 -0.21853456601E+02  0.35366359022E+02  0.68741371823E+02  0.80335167367E+02  0.10000000000E+00 0. -1.
         -5    1    3    3    0  501  0.76834071536E+02  0.50353992395E+02  0.63641354196E+03  0.64300949098E+03  0.10000000000E+00 0. -1.
         21    1    1    2  504  503 -0.54980614936E+02 -0.85720351417E+02 -0.15674044104E+02  0.10303650967E+03  0.00000000000E+00 0.  1.
<mgrwt>
<rscale>  1 0.16119566E+03</rscale>
<asrwt>0</asrwt>
<pdfrwt beam="1">  1       21 0.11660477E+00 0.16119566E+03</pdfrwt>
<pdfrwt beam="2">  1       21 0.10530793E-01 0.16119566E+03</pdfrwt>
<totfact> 0.42714089E+04</totfact>
</mgrwt>
</event>
<event>
 6    1  0.4202038E-002  0.1871868E+03  0.7546771E-02  0.1161023E+00
         21   -1    0    0  503  502  0.00000000000E+00  0.00000000000E+00  0.29071337148E+03  0.29071337148E+03  0.00000000000E+00 0.  1.
         21   -1    0    0  504  503 -0.00000000000E+00 -0.00000000000E+00 -0.14567067473E+03  0.14567067473E+03  0.00000000000E+00 0.  1.
         25    2    1    2    0    0  0.12924766771E+03 -0.52054113723E+02  0.21113728974E+03  0.28216638968E+03  0.12499730390E+03 0.  0.
          5    1    3    3  501    0  0.23725754525E+02  0.32252853428E+02  0.98398529962E+02  0.10623294536E+03  0.10000000000E+00 0.  1.
         -5    1    3    3    0  501  0.10552191318E+03 -0.84306967151E+02  0.11273875978E+03  0.17593344431E+03  0.10000000000E+00 0.  1.
         21    1    1    2  504  502 -0.12924766771E+03  0.52054113723E+02 -0.66094592984E+02  0.15421765653E+03  0.00000000000E+00 0.  1.
<mgrwt>
<rscale>  1 0.18718685E+03</rscale>
<asrwt>0</asrwt>
<pdfrwt beam="1">  1       21 0.44725134E-01 0.18718685E+03</pdfrwt>
<pdfrwt beam="2">  1       21 0.22410873E-01 0.18718685E+03</pdfrwt>
<totfact> 0.89642113E+04</totfact>
</mgrwt>
</event>
<event>
 6    1  0.4202038E-002  0.1708810E+03  0.7546771E-02  0.1176932E+00
         21   -1    0    0  504  502  0.00000000000E+00  0.00000000000E+00  0.25440316466E+02  0.25440316466E+02  0.00000000000E+00 0. -1.
         21   -1    0    0  502  503 -0.00000000000E+00 -0.00000000000E+00 -0.93415260005E+03  0.93415260005E+03  0.00000000000E+00 0. -1.
         25    2    1    2    0    0 -0.36086451958E+02  0.11078480257E+03 -0.35802039336E+03  0.39671010238E+03  0.12499919508E+03 0.  0.
          5    1    3    3  501    0 -0.75298133902E+02  0.38878882033E+02 -0.13802989175E+03  0.16196801368E+03  0.10000000000E+00 0.  1.
         -5    1    3    3    0  501  0.39211681944E+02  0.71905920539E+02 -0.21999050161E+03  0.23474208870E+03  0.10000000000E+00 0.  1.
         21    1    1    2  504  503  0.36086451958E+02 -0.11078480257E+03 -0.55069189022E+03  0.56288281413E+03  0.00000000000E+00 0. -1.
<mgrwt>
<rscale>  1 0.17088096E+03</rscale>
<asrwt>0</asrwt>
<pdfrwt beam="1">  1       21 0.39138941E-02 0.17088096E+03</pdfrwt>
<pdfrwt beam="2">  1       21 0.14371581E+00 0.17088096E+03</pdfrwt>
<totfact> 0.13716711E+05</totfact>
</mgrwt>
</event>
<event>
 6    1  0.4202038E-002  0.1867028E+03  0.7546771E-02  0.1161469E+00
         21   -1    0    0  504  502  0.00000000000E+00  0.00000000000E+00  0.10478830464E+04  0.10478830464E+04  0.00000000000E+00 0.  1.
         21   -1    0    0  502  503 -0.00000000000E+00 -0.00000000000E+00 -0.34989906139E+02  0.34989906139E+02  0.00000000000E+00 0.  1.
         25    2    1    2    0    0 -0.52069779558E+02  0.12854211296E+03  0.84365706088E+03  0.86406895963E+03  0.12499437536E+03 0.  0.
          5    1    3    3  501    0 -0.79265184629E+02  0.13151012054E+03  0.61938467762E+03  0.63813421016E+03  0.10000000000E+00 0.  1.
         -5    1    3    3    0  501  0.27195405072E+02 -0.29680075807E+01  0.22427238326E+03  0.22593474947E+03  0.10000000000E+00 0.  1.
         21    1    1    2  504  503  0.52069779558E+02 -0.12854211296E+03  0.16923607936E+03  0.21880399289E+03  0.00000000000E+00 0.  1.
<mgrwt>
<rscale>  1 0.18670279E+03</rscale>
<asrwt>0</asrwt>
<pdfrwt beam="1">  1       21 0.16121275E+00 0.18670279E+03</pdfrwt>
<pdfrwt beam="2">  1       21 0.53830633E-02 0.18670279E+03</pdfrwt>
<totfact> 0.58713367E+04</totfact>
</mgrwt>
</event>
<event>
 6    1  0.4202038E-002  0.1336626E+03  0.7546771E-02  0.1222120E+00
         21   -1    0    0  503  502  0.00000000000E+00  0.00000000000E+00  0.50484110150E+02  0.50484110150E+02  0.00000000000E+00 0.  1.
         21   -1    0    0  504  503 -0.00000000000E+00 -0.00000000000E+00 -0.17368247725E+03  0.17368247725E+03  0.00000000000E+00 0.  1.
         25    2    1    2    0    0  0.26083902761E+02  0.39480144998E+02 -0.11461741677E+03  0.17607620852E+03  0.12500650842E+03 0.  0.
          5    1    3    3  501    0  0.55772355605E+02  0.58242843559E+02 -0.11559359557E+03  0.14094209383E+03  0.10000000000E+00 0.  1.
         -5    1    3    3    0  501 -0.29688452844E+02 -0.18762698561E+02  0.97617880943E+00  0.35134114684E+02  0.10000000000E+00 0.  1.
         21    1    1    2  504  502 -0.26083902761E+02 -0.39480144998E+02 -0.85809503306E+01  0.48090378881E+02  0.00000000000E+00 0.  1.
<mgrwt>
<rscale>  1 0.13366256E+03</rscale>
<asrwt>0</asrwt>
<pdfrwt beam="1">  1       21 0.77667861E-02 0.13366256E+03</pdfrwt>
<pdfrwt beam="2">  1       21 0.26720381E-01 0.13366256E+03</pdfrwt>
<totfact> 0.16792118E+06</totfact>
</mgrwt>
</event>
<event>
 6    1  0.4202038E-002  0.1261145E+03  0.7546771E-02  0.1233338E+00
         21   -1    0    0  504  502  0.00000000000E+00  0.00000000000E+00  0.11283936526E+03  0.11283936526E+03  0.00000000000E+00 0. -1.
         21   -1    0    0  502  503 -0.00000000000E+00 -0.00000000000E+00 -0.49306666095E+02  0.49306666095E+02  0.00000000000E+00 0. -1.
         25    2    1    2    0    0 -0.16338144743E+02 -0.36598793134E+01  0.69950783217E+02  0.14421501094E+03  0.12499811045E+03 0.  0.
          5    1    3    3  501    0  0.23180364437E+02  0.17990031106E+02 -0.25364116046E+02  0.38785550111E+02  0.10000000000E+00 0. -1.
         -5    1    3    3    0  501 -0.39518509180E+02 -0.21649910419E+02  0.95314899263E+02  0.10542946083E+03  0.10000000000E+00 0. -1.
         21    1    1    2  504  503  0.16338144743E+02  0.36598793134E+01 -0.64180840527E+01  0.17931020415E+02  0.00000000000E+00 0. -1.
<mgrwt>
<rscale>  1 0.12611446E+03</rscale>
<asrwt>0</asrwt>
<pdfrwt beam="1">  1       21 0.17359902E-01 0.12611446E+03</pdfrwt>
<pdfrwt beam="2">  1       21 0.75856410E-02 0.12611446E+03</pdfrwt>
<totfact> 0.38975093E+06</totfact>
</mgrwt>
</event>
<event>
 6    1  0.4202038E-002  0.1464220E+03  0.7546771E-02  0.1204940E+00
         21   -1    0    0  504  502  0.00000000000E+00  0.00000000000E+00  0.18214035975E+02  0.18214035975E+02  0.00000000000E+00 0. -1.
         21   -1    0    0  502  503 -0.00000000000E+00 -0.00000000000E+00 -0.69615725811E+03  0.69615725811E+03  0.00000000000E+00 0. -1.
         25    2    1    2    0    0 -0.31223681007E+02  0.69562917158E+02 -0.39258483882E+03  0.41900148414E+03  0.12500188135E+03 0.  0.
          5    1    3    3  501    0 -0.73987523545E+02  0.17901159343E+02 -0.16445746796E+03  0.18122051185E+03  0.10000000000E+00 0.  1.
         -5    1    3    3    0  501  0.42763842538E+02  0.51661757815E+02 -0.22812737085E+03  0.23778097229E+03  0.10000000000E+00 0.  1.
         21    1    1    2  504  503  0.31223681007E+02 -0.69562917158E+02 -0.28535838332E+03  0.29536980995E+03  0.00000000000E+00 0. -1.
<mgrwt>
<rscale>  1 0.14642195E+03</rscale>
<asrwt>0</asrwt>
<pdfrwt beam="1">  1       21 0.28021591E-02 0.14642195E+03</pdfrwt>
<pdfrwt beam="2">  1       21 0.10710113E+00 0.14642195E+03</pdfrwt>
<totfact> 0.49817581E+05</totfact>
</mgrwt>
</event>
<event>
 6    1  0.4202038E-002  0.1402455E+03  0.7546771E-02  0.1212999E+00
         21   -1    0    0  504  502  0.00000000000E+00  0.00000000000E+00  0.53575244079E+03  0.53575244079E+03  0.00000000000E+00 0.  1.
         21   -1    0    0  502  503 -0.00000000000E+00 -0.00000000000E+00 -0.22740130891E+02  0.22740130891E+02  0.00000000000E+00 0. -1.
         25    2    1    2    0    0 -0.52065904524E+02  0.36503510673E+02  0.43929953254E+03  0.46114300440E+03  0.12500170601E+03 0.  0.
          5    1    3    3  501    0 -0.48072269873E+01 -0.41269144164E+02  0.21691099667E+03  0.22085434605E+03  0.10000000000E+00 0.  1.
         -5    1    3    3    0  501 -0.47258677536E+02  0.77772654837E+02  0.22238853587E+03  0.24028865834E+03  0.10000000000E+00 0.  1.
         21    1    1    2  504  503  0.52065904524E+02 -0.36503510673E+02  0.73712777360E+02  0.97349567289E+02  0.00000000000E+00 0. -1.
<mgrwt>
<rscale>  1 0.14024547E+03</rscale>
<asrwt>0</asrwt>
<pdfrwt beam="1">  1       21 0.82423443E-01 0.14024547E+03</pdfrwt>
<pdfrwt beam="2">  1       21 0.34984821E-02 0.14024547E+03</pdfrwt>
<totfact> 0.63474239E+05</totfact>
</mgrwt>
</event>
<event>
 6    1  0.4202038E-002  0.1339096E+03  0.7546771E-02  0.1221767E+00
         21   -1    0    0  503  502  0.00000000000E+00  0.00000000000E+00  0.64840459098E+02  0.64840459098E+02  0.00000000000E+00 0.  1.
         21   -1    0    0  504  503 -0.00000000000E+00 -0.00000000000E+00 -0.50632311585E+03  0.50632311585E+03  0.00000000000E+00 0. -1.
         25    2    1    2    0    0 -0.27153012342E+01  0.47955157701E+02 -0.70620534296E+01  0.13409569624E+03  0.12499885255E+03 0.  0.
          5    1    3    3  501    0  0.23040511365E+02  0.27308857391E+02 -0.61095818431E+02  0.70776746787E+02  0.10000000000E+00 0. -1.
         -5    1    3    3    0  501 -0.25755812600E+02  0.20646300310E+02  0.54033765001E+02  0.63318949450E+02  0.10000000000E+00 0. -1.
         21    1    1    2  504  502  0.27153012342E+01 -0.47955157701E+02 -0.43442060332E+03  0.43706787871E+03  0.00000000000E+00 0. -1.
<mgrwt>
<rscale>  1 0.13390961E+03</rscale>
<asrwt>0</asrwt>
<pdfrwt beam="1">  1       21 0.99754558E-02 0.13390961E+03</pdfrwt>
<pdfrwt beam="2">  1       21 0.77895860E-01 0.13390961E+03</pdfrwt>
<totfact> 0.12166797E+05</totfact>
</mgrwt>
</event>
<event>
 6    1  0.4202038E-002  0.1266208E+03  0.7546771E-02  0.1232558E+00
         21   -1    0    0  503  502  0.00000000000E+00  0.00000000000E+00  0.56437543500E+02  0.56437543500E+02  0.00000000000E+00 0. -1.
         21   -1    0    0  504  503 -0.00000000000E+00 -0.00000000000E+00 -0.17230739860E+03  0.17230739860E+03  0.00000000000E+00 0. -1.
         25    2    1    2    0    0  0.18714143012E+02 -0.75495557517E+01 -0.16905696932E+02  0.12774435031E+03  0.12500240600E+03 0.  0.
          5    1    3    3  501    0 -0.75575945364E+01 -0.36562607566E+02 -0.59281130091E+02  0.70058574722E+02  0.10000000000E+00 0.  1.
         -5    1    3    3    0  501  0.26271737549E+02  0.29013051814E+02  0.42375433159E+02  0.57685775585E+02  0.10000000000E+00 0.  1.
         21    1    1    2  504  502 -0.18714143012E+02  0.75495557517E+01 -0.98964158169E+02  0.10100059179E+03  0.00000000000E+00 0. -1.
<mgrwt>
<rscale>  1 0.12662076E+03</rscale>
<asrwt>0</asrwt>
<pdfrwt beam="1">  1       21 0.86826992E-02 0.12662076E+03</pdfrwt>
<pdfrwt beam="2">  1       21 0.26508830E-01 0.12662076E+03</pdfrwt>
<totfact> 0.14046908E+06</totfact>
</mgrwt>
</event>
<event>
 6    1  0.4202038E-002  0.1412999E+03  0.7546771E-02  0.1211590E+00
         21   -1    0    0  504  502  0.00000000000E+00  0.00000000000E+00  0.51913132086E+03  0.51913132086E+03  0.00000000000E+00 0. -1.
         21   -1    0    0  502  503 -0.00000000000E+00 -0.00000000000E+00 -0.13690173652E+03  0.13690173652E+03  0.00000000000E+00 0. -1.
         25    2    1    2    0    0  0.43480553998E+02 -0.49500783054E+02  0.50081905405E+03  0.52037043016E+03  0.12499909434E+03 0.  0.
          5    1    3    3  501    0 -0.33296621923E+02 -0.18287592334E+02  0.54572029115E+02  0.66492235837E+02  0.10000000000E+00 0. -1.
         -5    1    3    3    0  501  0.76777175921E+02 -0.31213190720E+02  0.44624702493E+03  0.45387819432E+03  0.10000000000E+00 0. -1.
         21    1    1    2  504  503 -0.43480553998E+02  0.49500783054E+02 -0.11858946971E+03  0.13566262723E+03  0.00000000000E+00 0. -1.
<mgrwt>
<rscale>  1 0.14129989E+03</rscale>
<asrwt>0</asrwt>
<pdfrwt beam="1">  1       21 0.79866356E-01 0.14129989E+03</pdfrwt>
<pdfrwt beam="2">  1       21 0.21061806E-01 0.14129989E+03</pdfrwt>
<totfact> 0.29805880E+04</totfact>
</mgrwt>
</event>
<event>
 6    1  0.4202038E-002  0.1441357E+03  0.7546771E-02  0.1207870E+00
         21   -1    0    0  504  502  0.00000000000E+00  0.00000000000E+00  0.19415157927E+02  0.19415157927E+02  0.00000000000E+00 0. -1.
         21   -1    0    0  502  503 -0.00000000000E+00 -0.00000000000E+00 -0.63560833268E+03  0.63560833268E+03  0.00000000000E+00 0. -1.
         25    2    1    2    0    0  0.61519560052E+02 -0.36952048663E+02 -0.47869459950E+03  0.49992362482E+03  0.12500000359E+03 0.  0.
          5    1    3    3  501    0  0.33971112397E+02  0.37998486305E+02 -0.93020145309E+02  0.10606921736E+03  0.10000000000E+00 0. -1.
         -5    1    3    3    0  501  0.27548447656E+02 -0.74950534968E+02 -0.38567445419E+03  0.39385440746E+03  0.10000000000E+00 0. -1.
         21    1    1    2  504  503 -0.61519560052E+02  0.36952048663E+02 -0.13749857526E+03  0.15509986579E+03  0.00000000000E+00 0. -1.
<mgrwt>
<rscale>  1 0.14413574E+03</rscale>
<asrwt>0</asrwt>
<pdfrwt beam="1">  1       21 0.29869472E-02 0.14413574E+03</pdfrwt>
<pdfrwt beam="2">  1       21 0.97785903E-01 0.14413574E+03</pdfrwt>
<totfact> 0.55648258E+05</totfact>
</mgrwt>
</event>
<event>
 6    1  0.4202038E-002  0.1260516E+03  0.7546771E-02  0.1233435E+00
         21   -1    0    0  503  502  0.00000000000E+00  0.00000000000E+00  0.29148209610E+03  0.29148209610E+03  0.00000000000E+00 0. -1.
         21   -1    0    0  504  503 -0.00000000000E+00 -0.00000000000E+00 -0.18048670719E+02  0.18048670719E+02  0.00000000000E+00 0. -1.
         25    2    1    2    0    0  0.15803993509E+02 -0.36327067654E+01  0.25799034126E+03  0.28713765144E+03  0.12500420761E+03 0.  0.
          5    1    3    3  501    0  0.11938858454E+02 -0.50189152493E+02  0.43089387923E+02  0.67217503083E+02  0.10000000000E+00 0.  1.
         -5    1    3    3    0  501  0.38651350545E+01  0.46556445728E+02  0.21490095334E+03  0.21992014836E+03  0.10000000000E+00 0.  1.
         21    1    1    2  504  502 -0.15803993509E+02  0.36327067654E+01  0.15443084123E+02  0.22393115382E+02  0.00000000000E+00 0. -1.
<mgrwt>
<rscale>  1 0.12605164E+03</rscale>
<asrwt>0</asrwt>
<pdfrwt beam="1">  1       21 0.44843396E-01 0.12605164E+03</pdfrwt>
<pdfrwt beam="2">  1       21 0.27767188E-02 0.12605164E+03</pdfrwt>
<totfact> 0.33961070E+06</totfact>
</mgrwt>
</event>
<event>
 6    1  0.4202038E-002  0.1263086E+03  0.7546771E-02  0.1233038E+00
         21   -1    0    0  504  502  0.00000000000E+00  0.00000000000E+00  0.92163499043E+02  0.92163499043E+02  0.00000000000E+00 0. -1.
         21   -1    0    0  502  503 -0.00000000000E+00 -0.00000000000E+00 -0.85936362854E+02  0.85936362854E+02  0.00000000000E+00 0. -1.
         25    2    1    2    0    0  0.75654478289E+01 -0.16497546653E+02  0.45966007271E+02  0.13441253054E+03  0.12499779796E+03 0.  0.
          5    1    3    3  501    0 -0.28838342108E+02  0.39241184899E+01  0.77053679935E+02  0.82367033897E+02  0.10000000000E+00 0.  1.
         -5    1    3    3    0  501  0.36403789937E+02 -0.20421665143E+02 -0.31087672664E+02  0.52045496641E+02  0.10000000000E+00 0.  1.
         21    1    1    2  504  503 -0.75654478289E+01  0.16497546653E+02 -0.39738871082E+02  0.43687331359E+02  0.00000000000E+00 0. -1.
<mgrwt>
<rscale>  1 0.12630857E+03</rscale>
<asrwt>0</asrwt>
<pdfrwt beam="1">  1       21 0.14179000E-01 0.12630857E+03</pdfrwt>
<pdfrwt beam="2">  1       21 0.13220979E-01 0.12630857E+03</pdfrwt>
<totfact> 0.21269968E+06</totfact>
</mgrwt>
</event>
<event>
 6    1  0.4202038E-002  0.1259587E+03  0.7546771E-02  0.1233579E+00
         21   -1    0    0  504  502  0.00000000000E+00  0.00000000000E+00  0.50268481601E+02  0.50268481601E+02  0.00000000000E+00 0.  1.
         21   -1    0    0  502  503 -0.00000000000E+00 -0.00000000000E+00 -0.99528743446E+02  0.99528743446E+02  0.00000000000E+00 0.  1.
         25    2    1    2    0    0 -0.53805412504E+01 -0.14543899766E+02 -0.43817336215E+02  0.13336248489E+03  0.12500047272E+03 0.  0.
          5    1    3    3  501    0 -0.14393501384E+02 -0.63670037527E+02 -0.51085561372E+02  0.82890235501E+02  0.10000000000E+00 0.  1.
         -5    1    3    3    0  501  0.90129601332E+01  0.49126137761E+02  0.72682251575E+01  0.50472249392E+02  0.10000000000E+00 0.  1.
         21    1    1    2  504  503  0.53805412504E+01  0.14543899766E+02 -0.54429256299E+01  0.16434740155E+02  0.00000000000E+00 0. -1.
<mgrwt>
<rscale>  1 0.12595870E+03</rscale>
<asrwt>0</asrwt>
<pdfrwt beam="1">  1       21 0.77336125E-02 0.12595870E+03</pdfrwt>
<pdfrwt beam="2">  1       21 0.15312114E-01 0.12595870E+03</pdfrwt>
<totfact> 0.47339593E+06</totfact>
</mgrwt>
</event>
<event>
 6    1  0.4202038E-002  0.1365017E+03  0.7546771E-02  0.1218115E+00
         21   -1    0    0  504  502  0.00000000000E+00  0.00000000000E+00  0.92832817578E+02  0.92832817578E+02  0.00000000000E+00 0.  1.
         21   -1    0    0  502  503 -0.00000000000E+00 -0.00000000000E+00 -0.10591085896E+03  0.10591085896E+03  0.00000000000E+00 0.  1.
         25    2    1    2    0    0 -0.54713188350E+02 -0.38139635007E+01  0.14652484715E+02  0.13728587496E+03  0.12499854743E+03 0.  0.
          5    1    3    3  501    0 -0.60783722858E+02  0.51843712697E+02  0.21502105951E+01  0.79919114837E+02  0.10000000000E+00 0.  1.
         -5    1    3    3    0  501  0.60705345077E+01 -0.55657676198E+02  0.12502274120E+02  0.57366760124E+02  0.10000000000E+00 0.  1.
         21    1    1    2  504  503  0.54713188350E+02  0.38139635007E+01 -0.27730526098E+02  0.61457801577E+02  0.00000000000E+00 0.  1.
<mgrwt>
<rscale>  1 0.13650171E+03</rscale>
<asrwt>0</asrwt>
<pdfrwt beam="1">  1       21 0.14281972E-01 0.13650171E+03</pdfrwt>
<pdfrwt beam="2">  1       21 0.16293978E-01 0.13650171E+03</pdfrwt>
<totfact> 0.14437116E+06</totfact>
</mgrwt>
</event>
<event>
 6    1  0.4202038E-002  0.1271650E+03  0.7546771E-02  0.1231724E+00
         21   -1    0    0  504  502  0.00000000000E+00  0.00000000000E+00  0.44753337949E+03  0.44753337949E+03  0.00000000000E+00 0.  1.
         21   -1    0    0  502  503 -0.00000000000E+00 -0.00000000000E+00 -0.25041381794E+02  0.25041381794E+02  0.00000000000E+00 0.  1.
         25    2    1    2    0    0  0.66606436845E-01 -0.23288139982E+02  0.42975962927E+03  0.44817885243E+03  0.12501441082E+03 0.  0.
          5    1    3    3  501    0  0.38802028001E+02 -0.15780064301E+02  0.38972155231E+03  0.39196620535E+03  0.10000000000E+00 0.  1.
         -5    1    3    3    0  501 -0.38735421564E+02 -0.75080756803E+01  0.40038076961E+02  0.56212647072E+02  0.10000000000E+00 0.  1.
         21    1    1    2  504  503 -0.66606436845E-01  0.23288139982E+02 -0.72676315741E+01  0.24395908856E+02  0.00000000000E+00 0.  1.
<mgrwt>
<rscale>  1 0.12716503E+03</rscale>
<asrwt>0</asrwt>
<pdfrwt beam="1">  1       21 0.68851283E-01 0.12716503E+03</pdfrwt>
<pdfrwt beam="2">  1       21 0.38525206E-02 0.12716503E+03</pdfrwt>
<totfact> 0.80613872E+05</totfact>
</mgrwt>
</event>
<event>
 6    1  0.4202038E-002  0.1364031E+03  0.7546771E-02  0.1218252E+00
         21   -1    0    0  504  502  0.00000000000E+00  0.00000000000E+00  0.36646790275E+03  0.36646790275E+03  0.00000000000E+00 0. -1.
         21   -1    0    0  502  503 -0.00000000000E+00 -0.00000000000E+00 -0.65199423630E+02  0.65199423630E+02  0.00000000000E+00 0. -1.
         25    2    1    2    0    0  0.41997083170E+02  0.34884018841E+02  0.33892586484E+03  0.36534441583E+03  0.12500060223E+03 0.  0.
          5    1    3    3  501    0  0.43500455691E+01 -0.33675889460E+02  0.22255507297E+03  0.22513053754E+03  0.10000000000E+00 0. -1.
         -5    1    3    3    0  501  0.37647037600E+02  0.68559908300E+02  0.11637079187E+03  0.14021387829E+03  0.10000000000E+00 0. -1.
         21    1    1    2  504  503 -0.41997083170E+02 -0.34884018841E+02 -0.37657385714E+02  0.66322910552E+02  0.00000000000E+00 0. -1.
<mgrwt>
<rscale>  1 0.13640308E+03</rscale>
<asrwt>0</asrwt>
<pdfrwt beam="1">  1       21 0.56379676E-01 0.13640308E+03</pdfrwt>
<pdfrwt beam="2">  1       21 0.10030681E-01 0.13640308E+03</pdfrwt>
<totfact> 0.24231462E+05</totfact>
</mgrwt>
</event>
<event>
 6    1  0.4202038E-002  0.1259453E+03  0.7546771E-02  0.1233599E+00
         21   -1    0    0  504  502  0.00000000000E+00  0.00000000000E+00  0.37265549503E+02  0.37265549503E+02  0.00000000000E+00 0.  1.
         21   -1    0    0  502  503 -0.00000000000E+00 -0.00000000000E+00 -0.18323866810E+03  0.18323866810E+03  0.00000000000E+00 0.  1.
         25    2    1    2    0    0 -0.10191706194E+02  0.11559307119E+02 -0.72270209301E+02  0.14520742288E+03  0.12499889620E+03 0.  0.
          5    1    3    3  501    0 -0.23331019375E+02  0.64491186384E+02 -0.55270137624E+02  0.88080915636E+02  0.10000000000E+00 0. -1.
         -5    1    3    3    0  501  0.13139313181E+02 -0.52931879265E+02 -0.17000071678E+02  0.57126507249E+02  0.10000000000E+00 0. -1.
         21    1    1    2  504  503  0.10191706194E+02 -0.11559307119E+02 -0.73702909295E+02  0.75296794718E+02  0.00000000000E+00 0.  1.
<mgrwt>
<rscale>  1 0.12594528E+03</rscale>
<asrwt>0</asrwt>
<pdfrwt beam="1">  1       21 0.57331615E-02 0.12594528E+03</pdfrwt>
<pdfrwt beam="2">  1       21 0.28190564E-01 0.12594528E+03</pdfrwt>
<totfact> 0.25406254E+06</totfact>
</mgrwt>
</event>
<event>
 6    1  0.4202038E-002  0.1263761E+03  0.7546771E-02  0.1232934E+00
         21   -1    0    0  503  502  0.00000000000E+00  0.00000000000E+00  0.65430179515E+02  0.65430179515E+02  0.00000000000E+00 0.  1.
         21   -1    0    0  504  503 -0.00000000000E+00 -0.00000000000E+00 -0.80455447418E+02  0.80455447418E+02  0.00000000000E+00 0.  1.
         25    2    1    2    0    0  0.14525048698E+01  0.18549028946E+02 -0.11036812347E+02  0.12685712140E+03  0.12499896710E+03 0.  0.
          5    1    3    3  501    0  0.32552330831E+02  0.55882415388E+02 -0.34054992857E+02  0.73090704816E+02  0.10000000000E+00 0. -1.
         -5    1    3    3    0  501 -0.31099825961E+02 -0.37333386441E+02  0.23018180509E+02  0.53766416581E+02  0.10000000000E+00 0. -1.
         21    1    1    2  504  502 -0.14525048698E+01 -0.18549028946E+02 -0.39884555556E+01  0.19028505537E+02  0.00000000000E+00 0. -1.
<mgrwt>
<rscale>  1 0.12637610E+03</rscale>
<asrwt>0</asrwt>
<pdfrwt beam="1">  1       21 0.10066181E-01 0.12637610E+03</pdfrwt>
<pdfrwt beam="2">  1       21 0.12377761E-01 0.12637610E+03</pdfrwt>
<totfact> 0.43865678E+06</totfact>
</mgrwt>
</event>
<event>
 6    1  0.4202038E-002  0.1287464E+03  0.7546771E-02  0.1229328E+00
         21   -1    0    0  503  502  0.00000000000E+00  0.00000000000E+00  0.25693671763E+04  0.25693671763E+04  0.00000000000E+00 0. -1.
         21   -1    0    0  504  503 -0.00000000000E+00 -0.00000000000E+00 -0.11372716457E+02  0.11372716457E+02  0.00000000000E+00 0. -1.
         25    2    1    2    0    0  0.29371813396E+02 -0.94219805352E+01  0.25433281081E+04  0.25465846733E+04  0.12499662430E+03 0.  0.
          5    1    3    3  501    0 -0.48610240707E+02  0.36141933268E+00  0.11701032097E+04  0.11711125554E+04  0.10000000000E+00 0.  1.
         -5    1    3    3    0  501  0.77982054103E+02 -0.97833998679E+01  0.13732248984E+04  0.13754721179E+04  0.10000000000E+00 0.  1.
         21    1    1    2  504  502 -0.29371813396E+02  0.94219805352E+01  0.14666351794E+02  0.34155219430E+02  0.00000000000E+00 0. -1.
<mgrwt>
<rscale>  1 0.12874639E+03</rscale>
<asrwt>0</asrwt>
<pdfrwt beam="1">  1       21 0.39528680E+00 0.12874639E+03</pdfrwt>
<pdfrwt beam="2">  1       21 0.17496507E-02 0.12874639E+03</pdfrwt>
<totfact> 0.15648727E+04</totfact>
</mgrwt>
</event>
<event>
 6    1  0.4202038E-002  0.1265457E+03  0.7546771E-02  0.1232673E+00
         21   -1    0    0  504  502  0.00000000000E+00  0.00000000000E+00  0.10335703706E+03  0.10335703706E+03  0.00000000000E+00 0. -1.
         21   -1    0    0  502  503 -0.00000000000E+00 -0.00000000000E+00 -0.53469797716E+02  0.53469797716E+02  0.00000000000E+00 0. -1.
         25    2    1    2    0    0  0.19609904258E+02  0.21102168207E+01  0.52358142023E+02  0.13694954321E+03  0.12499920395E+03 0.  0.
          5    1    3    3  501    0 -0.50576159152E+02 -0.94238557590E+01  0.54225623921E+01  0.51731722519E+02  0.10000000000E+00 0.  1.
         -5    1    3    3    0  501  0.70186063409E+02  0.11534072580E+02  0.46935579631E+02  0.85217820686E+02  0.10000000000E+00 0.  1.
         21    1    1    2  504  503 -0.19609904258E+02 -0.21102168207E+01 -0.24709026825E+01  0.19877291568E+02  0.00000000000E+00 0. -1.
<mgrwt>
<rscale>  1 0.12654565E+03</rscale>
<asrwt>0</asrwt>
<pdfrwt beam="1">  1       21 0.15901083E-01 0.12654565E+03</pdfrwt>
<pdfrwt beam="2">  1       21 0.82261227E-02 0.12654565E+03</pdfrwt>
<totfact> 0.39765155E+06</totfact>
</mgrwt>
</event>
<event>
 6    1  0.4202038E-002  0.1261138E+03  0.7546771E-02  0.1233339E+00
         21   -1    0    0  504  502  0.00000000000E+00  0.00000000000E+00  0.16641736555E+03  0.16641736555E+03  0.00000000000E+00 0. -1.
         21   -1    0    0  502  503 -0.00000000000E+00 -0.00000000000E+00 -0.52694330621E+03  0.52694330621E+03  0.00000000000E+00 0. -1.
         25    2    1    2    0    0  0.16059105182E+02 -0.47467899676E+01  0.14236518586E+03  0.19019080780E+03  0.12499708138E+03 0.  0.
          5    1    3    3  501    0 -0.38841975717E+01  0.42369213301E+02  0.40774107847E+01  0.42741929124E+02  0.10000000000E+00 0.  1.
         -5    1    3    3    0  501  0.19943302754E+02 -0.47116003269E+02  0.13828777507E+03  0.14744887868E+03  0.10000000000E+00 0.  1.
         21    1    1    2  504  503 -0.16059105182E+02  0.47467899676E+01 -0.50289112651E+03  0.50316986396E+03  0.00000000000E+00 0. -1.
<mgrwt>
<rscale>  1 0.12611383E+03</rscale>
<asrwt>0</asrwt>
<pdfrwt beam="1">  1       21 0.25602672E-01 0.12611383E+03</pdfrwt>
<pdfrwt beam="2">  1       21 0.81068200E-01 0.12611383E+03</pdfrwt>
<totfact> 0.20191092E+04</totfact>
</mgrwt>
</event>
<event>
 6    1  0.4202038E-002  0.2165159E+03  0.7546771E-02  0.1136508E+00
         21   -1    0    0  504  502  0.00000000000E+00  0.00000000000E+00  0.23439155892E+03  0.23439155892E+03  0.00000000000E+00 0. -1.
         21   -1    0    0  502  503 -0.00000000000E+00 -0.00000000000E+00 -0.25287396250E+03  0.25287396250E+03  0.00000000000E+00 0. -1.
         25    2    1    2    0    0  0.87318371248E+02 -0.15371650959E+03  0.13330095344E+03  0.25426026237E+03  0.12500349417E+03 0.  0.
          5    1    3    3  501    0  0.56046993171E+02 -0.16844621452E+03  0.90558198354E+02  0.19928921175E+03  0.10000000000E+00 0. -1.
         -5    1    3    3    0  501  0.31271378077E+02  0.14729704935E+02  0.42742755082E+02  0.54971050620E+02  0.10000000000E+00 0. -1.
         21    1    1    2  504  503 -0.87318371248E+02  0.15371650959E+03 -0.15178335702E+03  0.23300525905E+03  0.00000000000E+00 0. -1.
<mgrwt>
<rscale>  1 0.21651590E+03</rscale>
<asrwt>0</asrwt>
<pdfrwt beam="1">  1       21 0.36060240E-01 0.21651590E+03</pdfrwt>
<pdfrwt beam="2">  1       21 0.38903686E-01 0.21651590E+03</pdfrwt>
<totfact> 0.46701543E+04</totfact>
</mgrwt>
</event>
<event>
 6    1  0.4202038E-002  0.1277178E+03  0.7546771E-02  0.1230882E+00
         21   -1    0    0  504  502  0.00000000000E+00  0.00000000000E+00  0.13373887103E+03  0.13373887103E+03  0.00000000000E+00 0.  1.
         21   -1    0    0  502  503 -0.00000000000E+00 -0.00000000000E+00 -0.79406043833E+02  0.79406043833E+02  0.00000000000E+00 0.  1.
         25    2    1    2    0    0 -0.20230842939E+02 -0.16656919416E+02  0.98839435839E+02  0.16149631195E+03  0.12500033891E+03 0.  0.
          5    1    3    3  501    0  0.35863711181E+02 -0.70232946668E+01  0.97980466195E+02  0.10457396523E+03  0.10000000000E+00 0. -1.
         -5    1    3    3    0  501 -0.56094554120E+02 -0.96336247491E+01  0.85896964425E+00  0.56922346724E+02  0.10000000000E+00 0. -1.
         21    1    1    2  504  503  0.20230842939E+02  0.16656919416E+02 -0.44506608639E+02  0.51648602914E+02  0.00000000000E+00 0.  1.
<mgrwt>
<rscale>  1 0.12771775E+03</rscale>
<asrwt>0</asrwt>
<pdfrwt beam="1">  1       21 0.20575211E-01 0.12771775E+03</pdfrwt>
<pdfrwt beam="2">  1       21 0.12216314E-01 0.12771775E+03</pdfrwt>
<totfact> 0.12424374E+06</totfact>
</mgrwt>
</event>
<event>
 6    1  0.4202038E-002  0.1270282E+03  0.7546771E-02  0.1231933E+00
         21   -1    0    0  503  502  0.00000000000E+00  0.00000000000E+00  0.10307474466E+02  0.10307474466E+02  0.00000000000E+00 0. -1.
         21   -1    0    0  504  503 -0.00000000000E+00 -0.00000000000E+00 -0.56467215191E+03  0.56467215191E+03  0.00000000000E+00 0. -1.
         25    2    1    2    0    0 -0.14311998298E+02 -0.17456387112E+02 -0.50444888084E+03  0.52019691471E+03  0.12500639165E+03 0.  0.
          5    1    3    3  501    0 -0.36501380966E+02  0.31006103342E+01 -0.47974735290E+03  0.48114394646E+03  0.10000000000E+00 0. -1.
         -5    1    3    3    0  501  0.22189382668E+02 -0.20556997446E+02 -0.24701527935E+02  0.39052968254E+02  0.10000000000E+00 0. -1.
         21    1    1    2  504  502  0.14311998298E+02  0.17456387112E+02 -0.49915796612E+02  0.54782711668E+02  0.00000000000E+00 0. -1.
<mgrwt>
<rscale>  1 0.12702817E+03</rscale>
<asrwt>0</asrwt>
<pdfrwt beam="1">  1       21 0.15857652E-02 0.12702817E+03</pdfrwt>
<pdfrwt beam="2">  1       21 0.86872645E-01 0.12702817E+03</pdfrwt>
<totfact> 0.20394888E+06</totfact>
</mgrwt>
</event>
<event>
 6    1  0.4202038E-002  0.1279715E+03  0.7546771E-02  0.1230497E+00
         21   -1    0    0  503  502  0.00000000000E+00  0.00000000000E+00  0.17688209387E+03  0.17688209387E+03  0.00000000000E+00 0.  1.
         21   -1    0    0  504  503 -0.00000000000E+00 -0.00000000000E+00 -0.40973668192E+02  0.40973668192E+02  0.00000000000E+00 0.  1.
         25    2    1    2    0    0  0.14384960820E+02 -0.23344840093E+02  0.14050929912E+03  0.19005150532E+03  0.12499921151E+03 0.  0.
          5    1    3    3  501    0  0.30153510841E+02  0.19826137936E+01  0.15426574710E+03  0.15719763262E+03  0.10000000000E+00 0. -1.
         -5    1    3    3    0  501 -0.15768550021E+02 -0.25327453886E+02 -0.13756447981E+02  0.32853872697E+02  0.10000000000E+00 0. -1.
         21    1    1    2  504  502 -0.14384960820E+02  0.23344840093E+02 -0.46008734389E+01  0.27804256745E+02  0.00000000000E+00 0.  1.
<mgrwt>
<rscale>  1 0.12797153E+03</rscale>
<asrwt>0</asrwt>
<pdfrwt beam="1">  1       21 0.27212629E-01 0.12797153E+03</pdfrwt>
<pdfrwt beam="2">  1       21 0.63036413E-02 0.12797153E+03</pdfrwt>
<totfact> 0.23154238E+06</totfact>
</mgrwt>
</event>
<event>
 6    1  0.4202038E-002  0.1272387E+03  0.7546771E-02  0.1231611E+00
         21   -1    0    0  503  502  0.00000000000E+00  0.00000000000E+00  0.35416103691E+01  0.35416103691E+01  0.00000000000E+00 0.  1.
         21   -1    0    0  504  503 -0.00000000000E+00 -0.00000000000E+00 -0.23093286092E+04  0.23093286092E+04  0.00000000000E+00 0.  1.
         25    2    1    2    0    0 -0.22938991682E+02  0.61675993322E+01 -0.11813661402E+04  0.11881984880E+04  0.12500181155E+03 0.  0.
          5    1    3    3  501    0  0.47677895427E+02 -0.19683891039E+02 -0.53087310657E+03  0.53337313633E+03  0.10000000000E+00 0.  1.
         -5    1    3    3    0  501 -0.70616887109E+02  0.25851490371E+02 -0.65049303368E+03  0.65482535165E+03  0.10000000000E+00 0.  1.
         21    1    1    2  504  502  0.22938991682E+02 -0.61675993322E+01 -0.11244208586E+04  0.11246717316E+04  0.00000000000E+00 0.  1.
<mgrwt>
<rscale>  1 0.12723871E+03</rscale>
<asrwt>0</asrwt>
<pdfrwt beam="1">  1       21 0.54486460E-03 0.12723871E+03</pdfrwt>
<pdfrwt beam="2">  1       21 0.35528037E+00 0.12723871E+03</pdfrwt>
<totfact> 0.17009978E+05</totfact>
</mgrwt>
</event>
<event>
 6    1  0.4202038E-002  0.1276302E+03  0.7546771E-02  0.1231015E+00
         21   -1    0    0  504  502  0.00000000000E+00  0.00000000000E+00  0.56545547016E+03  0.56545547016E+03  0.00000000000E+00 0. -1.
         21   -1    0    0  502  503 -0.00000000000E+00 -0.00000000000E+00 -0.11115750377E+02  0.11115750377E+02  0.00000000000E+00 0. -1.
         25    2    1    2    0    0 -0.13927710074E+02 -0.21655418006E+02  0.50546319514E+03  0.52132764264E+03  0.12500612429E+03 0.  0.
          5    1    3    3  501    0  0.99790989191E+01 -0.64788692725E+02  0.16897669793E+03  0.18124649393E+03  0.10000000000E+00 0. -1.
         -5    1    3    3    0  501 -0.23906808993E+02  0.43133274719E+02  0.33648649721E+03  0.34008114871E+03  0.10000000000E+00 0. -1.
         21    1    1    2  504  503  0.13927710074E+02  0.21655418006E+02  0.48876524640E+02  0.55243577888E+02  0.00000000000E+00 0. -1.
<mgrwt>
<rscale>  1 0.12763021E+03</rscale>
<asrwt>0</asrwt>
<pdfrwt beam="1">  1       21 0.86993127E-01 0.12763021E+03</pdfrwt>
<pdfrwt beam="2">  1       21 0.17101159E-02 0.12763021E+03</pdfrwt>
<totfact> 0.18016620E+06</totfact>
</mgrwt>
</event>
<event>
 6    1  0.4202038E-002  0.1259800E+03  0.7546771E-02  0.1233546E+00
         21   -1    0    0  504  502  0.00000000000E+00  0.00000000000E+00  0.15074344577E+03  0.15074344577E+03  0.00000000000E+00 0.  1.
         21   -1    0    0  502  503 -0.00000000000E+00 -0.00000000000E+00 -0.60083764960E+02  0.60083764960E+02  0.00000000000E+00 0.  1.
         25    2    1    2    0    0  0.45855844112E+00 -0.15645425246E+02  0.12226690898E+03  0.17555673470E+03  0.12500392177E+03 0.  0.
          5    1    3    3  501    0  0.20613496141E+00  0.12342047830E+02 -0.23811579338E+02  0.26821072813E+02  0.10000000000E+00 0.  1.
         -5    1    3    3    0  501  0.25242347971E+00 -0.27987473075E+02  0.14607848832E+03  0.14873566188E+03  0.10000000000E+00 0.  1.
         21    1    1    2  504  503 -0.45855844112E+00  0.15645425246E+02 -0.31607228170E+02  0.35270476033E+02  0.00000000000E+00 0.  1.
<mgrwt>
<rscale>  1 0.12598004E+03</rscale>
<asrwt>0</asrwt>
<pdfrwt beam="1">  1       21 0.23191299E-01 0.12598004E+03</pdfrwt>
<pdfrwt beam="2">  1       21 0.92436562E-02 0.12598004E+03</pdfrwt>
<totfact> 0.16215135E+06</totfact>
</mgrwt>
</event>
<event>
 6    1  0.4202038E-002  0.1442625E+03  0.7546771E-02  0.1207706E+00
         21   -1    0    0  504  502  0.00000000000E+00  0.00000000000E+00  0.91672876312E+01  0.91672876312E+01  0.00000000000E+00 0. -1.
         21   -1    0    0  502  503 -0.00000000000E+00 -0.00000000000E+00 -0.12761846537E+04  0.12761846537E+04  0.00000000000E+00 0. -1.
         25    2    1    2    0    0 -0.44800149227E+00  0.72014018809E+02 -0.83236426347E+03  0.84477329999E+03  0.12500176662E+03 0.  0.
          5    1    3    3  501    0  0.12855875267E+02  0.10595008338E+03 -0.66254335945E+03  0.67108450052E+03  0.10000000000E+00 0.  1.
         -5    1    3    3    0  501 -0.13303876759E+02 -0.33936064572E+02 -0.16982090402E+03  0.17368879946E+03  0.10000000000E+00 0.  1.
         21    1    1    2  504  503  0.44800149227E+00 -0.72014018809E+02 -0.43465310263E+03  0.44057864138E+03  0.00000000000E+00 0. -1.
<mgrwt>
<rscale>  1 0.14426247E+03</rscale>
<asrwt>0</asrwt>
<pdfrwt beam="1">  1       21 0.14103531E-02 0.14426247E+03</pdfrwt>
<pdfrwt beam="2">  1       21 0.19633594E+00 0.14426247E+03</pdfrwt>
<totfact> 0.31372715E+05</totfact>
</mgrwt>
</event>
<event>
 6    1  0.4202038E-002  0.1263931E+03  0.7546771E-02  0.1232908E+00
         21   -1    0    0  503  502  0.00000000000E+00  0.00000000000E+00  0.27594016694E+03  0.27594016694E+03  0.00000000000E+00 0. -1.
         21   -1    0    0  504  503 -0.00000000000E+00 -0.00000000000E+00 -0.23480818914E+02  0.23480818914E+02  0.00000000000E+00 0. -1.
         25    2    1    2    0    0 -0.18082356504E+02  0.47124861657E+01  0.25056531801E+03  0.28063890684E+03  0.12500415313E+03 0.  0.
          5    1    3    3  501    0 -0.57041640295E+02 -0.31077207564E+02  0.18687439558E+03  0.19784233945E+03  0.10000000000E+00 0. -1.
         -5    1    3    3    0  501  0.38959283792E+02  0.35789693729E+02  0.63690922430E+02  0.82796567386E+02  0.10000000000E+00 0. -1.
         21    1    1    2  504  502  0.18082356504E+02 -0.47124861657E+01  0.18940300217E+01  0.18782079020E+02  0.00000000000E+00 0. -1.
<mgrwt>
<rscale>  1 0.12639311E+03</rscale>
<asrwt>0</asrwt>
<pdfrwt beam="1">  1       21 0.42452331E-01 0.12639311E+03</pdfrwt>
<pdfrwt beam="2">  1       21 0.36124339E-02 0.12639311E+03</pdfrwt>
<totfact> 0.24625712E+06</totfact>
</mgrwt>
</event>
<event>
 6    1  0.4202038E-002  0.1261355E+03  0.7546771E-02  0.1233305E+00
         21   -1    0    0  503  502  0.00000000000E+00  0.00000000000E+00  0.14130323542E+03  0.14130323542E+03  0.00000000000E+00 0.  1.
         21   -1    0    0  504  503 -0.00000000000E+00 -0.00000000000E+00 -0.96605548668E+02  0.96605548668E+02  0.00000000000E+00 0.  1.
         25    2    1    2    0    0 -0.98211197221E+01 -0.13746902641E+02  0.11189882007E+03  0.16861647540E+03  0.12499895246E+03 0.  0.
          5    1    3    3  501    0  0.13951815384E+02 -0.22532412806E+02 -0.20693072859E+02  0.33624039670E+02  0.10000000000E+00 0. -1.
         -5    1    3    3    0  501 -0.23772935106E+02  0.87855101655E+01  0.13259189293E+03  0.13499243573E+03  0.10000000000E+00 0. -1.
         21    1    1    2  504  502  0.98211197221E+01  0.13746902641E+02 -0.67201133319E+02  0.69292308694E+02  0.00000000000E+00 0.  1.
<mgrwt>
<rscale>  1 0.12613552E+03</rscale>
<asrwt>0</asrwt>
<pdfrwt beam="1">  1       21 0.21738959E-01 0.12613552E+03</pdfrwt>
<pdfrwt beam="2">  1       21 0.14862392E-01 0.12613552E+03</pdfrwt>
<totfact> 0.79010105E+05</totfact>
</mgrwt>
</event>
<event>
 6    1  0.4202038E-002  0.1281515E+03  0.7546771E-02  0.1230225E+00
         21   -1    0    0  503  502  0.00000000000E+00  0.00000000000E+00  0.13604258323E+04  0.13604258323E+04  0.00000000000E+00 0. -1.
         21   -1    0    0  504  503 -0.00000000000E+00 -0.00000000000E+00 -0.10623192456E+02  0.10623192456E+02  0.00000000000E+00 0. -1.
         25    2    1    2    0    0  0.16071264587E+02 -0.23170087866E+02  0.13310040012E+04  0.13371590951E+04  0.12501062304E+03 0.  0.
          5    1    3    3  501    0 -0.98111169124E+01 -0.59437085562E+02  0.35020106721E+03  0.35534465330E+03  0.10000000000E+00 0.  1.
         -5    1    3    3    0  501  0.25882381500E+02  0.36266997696E+02  0.98080293404E+03  0.98181444184E+03  0.10000000000E+00 0.  1.
         21    1    1    2  504  502 -0.16071264587E+02  0.23170087866E+02  0.18798638637E+02  0.33889929651E+02  0.00000000000E+00 0. -1.
<mgrwt>
<rscale>  1 0.12815145E+03</rscale>
<asrwt>0</asrwt>
<pdfrwt beam="1">  1       21 0.20929614E+00 0.12815145E+03</pdfrwt>
<pdfrwt beam="2">  1       21 0.16343384E-02 0.12815145E+03</pdfrwt>
<totfact> 0.20732397E+05</totfact>
</mgrwt>
</event>
<event>
 6    1  0.4202038E-002  0.1294499E+03  0.7546771E-02  0.1228274E+00
         21   -1    0    0  504  502  0.00000000000E+00  0.00000000000E+00  0.19001551766E+03  0.19001551766E+03  0.00000000000E+00 0. -1.
         21   -1    0    0  502  503 -0.00000000000E+00 -0.00000000000E+00 -0.44073102730E+02  0.44073102730E+02  0.00000000000E+00 0. -1.
         25    2    1    2    0    0  0.22524668537E+02  0.25010706600E+02  0.15225097051E+03  0.19984400022E+03  0.12499748104E+03 0.  0.
          5    1    3    3  501    0  0.52232523112E+02  0.32160811971E+02  0.15733336919E+03  0.16886785768E+03  0.10000000000E+00 0. -1.
         -5    1    3    3    0  501 -0.29707854576E+02 -0.71501053715E+01 -0.50823986837E+01  0.30976142541E+02  0.10000000000E+00 0. -1.
         21    1    1    2  504  503 -0.22524668537E+02 -0.25010706600E+02 -0.63085555715E+01  0.34244620172E+02  0.00000000000E+00 0. -1.
<mgrwt>
<rscale>  1 0.12944986E+03</rscale>
<asrwt>0</asrwt>
<pdfrwt beam="1">  1       21 0.29233156E-01 0.12944986E+03</pdfrwt>
<pdfrwt beam="2">  1       21 0.67804774E-02 0.12944986E+03</pdfrwt>
<totfact> 0.17832974E+06</totfact>
</mgrwt>
</event>
<event>
 6    1  0.4202038E-002  0.1261310E+03  0.7546771E-02  0.1233312E+00
         21   -1    0    0  504  502  0.00000000000E+00  0.00000000000E+00  0.18061945514E+03  0.18061945514E+03  0.00000000000E+00 0.  1.
         21   -1    0    0  502  503 -0.00000000000E+00 -0.00000000000E+00 -0.15381453307E+03  0.15381453307E+03  0.00000000000E+00 0. -1.
         25    2    1    2    0    0  0.45675101963E+01  0.16167109655E+02  0.15799821353E+03  0.20216941507E+03  0.12500719710E+03 0.  0.
          5    1    3    3  501    0 -0.26824445182E+02 -0.43484250915E+02  0.10373511582E+03  0.11563483554E+03  0.10000000000E+00 0.  1.
         -5    1    3    3    0  501  0.31391955378E+02  0.59651360569E+02  0.54263097711E+02  0.86534579524E+02  0.10000000000E+00 0.  1.
         21    1    1    2  504  503 -0.45675101963E+01 -0.16167109655E+02 -0.13119329147E+03  0.13226457315E+03  0.00000000000E+00 0. -1.
<mgrwt>
<rscale>  1 0.12613103E+03</rscale>
<asrwt>0</asrwt>
<pdfrwt beam="1">  1       21 0.27787608E-01 0.12613103E+03</pdfrwt>
<pdfrwt beam="2">  1       21 0.23663774E-01 0.12613103E+03</pdfrwt>
<totfact> 0.21158824E+05</totfact>
</mgrwt>
</event>
<event>
 6    1  0.4202038E-002  0.1353507E+03  0.7546771E-02  0.1219725E+00
         21   -1    0    0  503  502  0.00000000000E+00  0.00000000000E+00  0.56145591242E+02  0.56145591242E+02  0.00000000000E+00 0.  1.
         21   -1    0    0  504  503 -0.00000000000E+00 -0.00000000000E+00 -0.15603271913E+03  0.15603271913E+03  0.00000000000E+00 0.  1.
         25    2    1    2    0    0  0.51498305659E+02 -0.59806231749E+01 -0.72442240460E+02  0.15351771725E+03  0.12502786877E+03 0.  0.
          5    1    3    3  501    0  0.50236752407E+02 -0.40872349114E+02  0.85452892600E+01  0.65324667493E+02  0.10000000000E+00 0.  1.
         -5    1    3    3    0  501  0.12615532515E+01  0.34891725939E+02 -0.80987529720E+02  0.88193049759E+02  0.10000000000E+00 0.  1.
         21    1    1    2  504  502 -0.51498305659E+02  0.59806231749E+01 -0.27444887429E+02  0.58660593121E+02  0.00000000000E+00 0.  1.
<mgrwt>
<rscale>  1 0.13535070E+03</rscale>
<asrwt>0</asrwt>
<pdfrwt beam="1">  1       21 0.86377832E-02 0.13535070E+03</pdfrwt>
<pdfrwt beam="2">  1       21 0.24005034E-01 0.13535070E+03</pdfrwt>
<totfact> 0.17123423E+06</totfact>
</mgrwt>
</event>
<event>
 6    1  0.4202038E-002  0.1387440E+03  0.7546771E-02  0.1215029E+00
         21   -1    0    0  504  502  0.00000000000E+00  0.00000000000E+00  0.34130277908E+03  0.34130277908E+03  0.00000000000E+00 0.  1.
         21   -1    0    0  502  503 -0.00000000000E+00 -0.00000000000E+00 -0.29720088493E+02  0.29720088493E+02  0.00000000000E+00 0.  1.
         25    2    1    2    0    0 -0.95854687501E+01 -0.59444390004E+02  0.24247633800E+03  0.27936478183E+03  0.12499756047E+03 0.  0.
          5    1    3    3  501    0  0.66491435265E+01 -0.81295946979E+02  0.78709989856E+02  0.11335128852E+03  0.10000000000E+00 0.  1.
         -5    1    3    3    0  501 -0.16234612277E+02  0.21851556975E+02  0.16376634814E+03  0.16601349332E+03  0.10000000000E+00 0.  1.
         21    1    1    2  504  503  0.95854687501E+01  0.59444390004E+02  0.69106352585E+02  0.91658085741E+02  0.00000000000E+00 0.  1.
<mgrwt>
<rscale>  1 0.13874403E+03</rscale>
<asrwt>0</asrwt>
<pdfrwt beam="1">  1       21 0.52508117E-01 0.13874403E+03</pdfrwt>
<pdfrwt beam="2">  1       21 0.45723215E-02 0.13874403E+03</pdfrwt>
<totfact> 0.10784225E+06</totfact>
</mgrwt>
</event>
<event>
 6    1  0.4202038E-002  0.1296234E+03  0.7546771E-02  0.1228016E+00
         21   -1    0    0  503  502  0.00000000000E+00  0.00000000000E+00  0.13580122584E+02  0.13580122584E+02  0.00000000000E+00 0. -1.
         21   -1    0    0  504  503 -0.00000000000E+00 -0.00000000000E+00 -0.52259264425E+03  0.52259264425E+03  0.00000000000E+00 0. -1.
         25    2    1    2    0    0 -0.25990922774E+02  0.22361163690E+02 -0.34343947199E+03  0.36708703566E+03  0.12500668430E+03 0.  0.
          5    1    3    3  501    0 -0.27087166510E+02  0.69211815416E+02 -0.14207533096E+03  0.16034150944E+03  0.10000000000E+00 0.  1.
         -5    1    3    3    0  501  0.10962437353E+01 -0.46850651726E+02 -0.20136414104E+03  0.20674552622E+03  0.10000000000E+00 0.  1.
         21    1    1    2  504  502  0.25990922774E+02 -0.22361163690E+02 -0.16557304967E+03  0.16908573117E+03  0.00000000000E+00 0. -1.
<mgrwt>
<rscale>  1 0.12962338E+03</rscale>
<asrwt>0</asrwt>
<pdfrwt beam="1">  1       21 0.20892493E-02 0.12962338E+03</pdfrwt>
<pdfrwt beam="2">  1       21 0.80398880E-01 0.12962338E+03</pdfrwt>
<totfact> 0.15591468E+06</totfact>
</mgrwt>
</event>
<event>
 6    1  0.4202038E-002  0.1296146E+03  0.7546771E-02  0.1228029E+00
         21   -1    0    0  504  502  0.00000000000E+00  0.00000000000E+00  0.18038456303E+04  0.18038456303E+04  0.00000000000E+00 0. -1.
         21   -1    0    0  502  503 -0.00000000000E+00 -0.00000000000E+00 -0.80771169645E+01  0.80771169645E+01  0.00000000000E+00 0. -1.
         25    2    1    2    0    0  0.24405997872E+02  0.24063466527E+02  0.17497456181E+04  0.17545397355E+04  0.12500100889E+03 0.  0.
          5    1    3    3  501    0  0.40121936185E+02 -0.27848927128E+02  0.13772724190E+04  0.13781381131E+04  0.10000000000E+00 0.  1.
         -5    1    3    3    0  501 -0.15715938313E+02  0.51912393655E+02  0.37247319906E+03  0.37640162240E+03  0.10000000000E+00 0.  1.
         21    1    1    2  504  503 -0.24405997872E+02 -0.24063466527E+02  0.46022895226E+02  0.57383011758E+02  0.00000000000E+00 0. -1.
<mgrwt>
<rscale>  1 0.12961464E+03</rscale>
<asrwt>0</asrwt>
<pdfrwt beam="1">  1       21 0.27751439E+00 0.12961464E+03</pdfrwt>
<pdfrwt beam="2">  1       21 0.12426348E-02 0.12961464E+03</pdfrwt>
<totfact> 0.12853997E+05</totfact>
</mgrwt>
</event>
<event>
 6    1  0.4202038E-002  0.1278854E+03  0.7546771E-02  0.1230628E+00
         21   -1    0    0  503  502  0.00000000000E+00  0.00000000000E+00  0.67611869651E+02  0.67611869651E+02  0.00000000000E+00 0. -1.
         21   -1    0    0  504  503 -0.00000000000E+00 -0.00000000000E+00 -0.92212441532E+02  0.92212441532E+02  0.00000000000E+00 0. -1.
         25    2    1    2    0    0 -0.17497279107E+01  0.26954347364E+02 -0.80338220517E+01  0.12813747497E+03  0.12500028722E+03 0.  0.
          5    1    3    3  501    0  0.50115226229E+02 -0.19148028429E+02 -0.20873500587E+02  0.57566447862E+02  0.10000000000E+00 0. -1.
         -5    1    3    3    0  501 -0.51864954140E+02  0.46102375793E+02  0.12839678536E+02  0.70571027104E+02  0.10000000000E+00 0. -1.
         21    1    1    2  504  502  0.17497279107E+01 -0.26954347364E+02 -0.16566749829E+02  0.31686836217E+02  0.00000000000E+00 0. -1.
<mgrwt>
<rscale>  1 0.12788538E+03</rscale>
<asrwt>0</asrwt>
<pdfrwt beam="1">  1       21 0.10401826E-01 0.12788538E+03</pdfrwt>
<pdfrwt beam="2">  1       21 0.14186529E-01 0.12788538E+03</pdfrwt>
<totfact> 0.32486800E+06</totfact>
</mgrwt>
</event>
<event>
 6    1  0.4202038E-002  0.1822625E+03  0.7546771E-02  0.1165631E+00
         21   -1    0    0  503  502  0.00000000000E+00  0.00000000000E+00  0.49114496553E+03  0.49114496553E+03  0.00000000000E+00 0.  1.
         21   -1    0    0  504  503 -0.00000000000E+00 -0.00000000000E+00 -0.71167891947E+02  0.71167891947E+02  0.00000000000E+00 0.  1.
         25    2    1    2    0    0  0.11208022974E+03  0.70989240741E+02  0.38367421440E+03  0.42476523742E+03  0.12497261269E+03 0.  0.
          5    1    3    3  501    0  0.12429570809E+03  0.90741247942E+02  0.36041744054E+03  0.39189812269E+03  0.10000000000E+00 0. -1.
         -5    1    3    3    0  501 -0.12215478347E+02 -0.19752007201E+02  0.23256773863E+02  0.32867114724E+02  0.10000000000E+00 0. -1.
         21    1    1    2  504  502 -0.11208022974E+03 -0.70989240741E+02  0.36302859186E+02  0.13754762006E+03  0.00000000000E+00 0.  1.
<mgrwt>
<rscale>  1 0.18226246E+03</rscale>
<asrwt>0</asrwt>
<pdfrwt beam="1">  1       21 0.75560762E-01 0.18226246E+03</pdfrwt>
<pdfrwt beam="2">  1       21 0.10948907E-01 0.18226246E+03</pdfrwt>
<totfact> 0.10848192E+05</totfact>
</mgrwt>
</event>
<event>
 6    1  0.4202038E-002  0.1284083E+03  0.7546771E-02  0.1229837E+00
         21   -1    0    0  504  502  0.00000000000E+00  0.00000000000E+00  0.23441133545E+03  0.23441133545E+03  0.00000000000E+00 0. -1.
         21   -1    0    0  502  503 -0.00000000000E+00 -0.00000000000E+00 -0.17990951911E+03  0.17990951911E+03  0.00000000000E+00 0. -1.
         25    2    1    2    0    0 -0.29180192837E+02 -0.37298384101E+01  0.21539185135E+03  0.25076352910E+03  0.12499321002E+03 0.  0.
          5    1    3    3  501    0  0.19946551088E+02  0.35919941108E+02  0.20530319107E+02  0.45930502633E+02  0.10000000000E+00 0. -1.
         -5    1    3    3    0  501 -0.49126743926E+02 -0.39649779518E+02  0.19486153224E+03  0.20483302647E+03  0.10000000000E+00 0. -1.
         21    1    1    2  504  503  0.29180192837E+02  0.37298384101E+01 -0.16089003501E+03  0.16355732546E+03  0.00000000000E+00 0. -1.
<mgrwt>
<rscale>  1 0.12840832E+03</rscale>
<asrwt>0</asrwt>
<pdfrwt beam="1">  1       21 0.36063283E-01 0.12840832E+03</pdfrwt>
<pdfrwt beam="2">  1       21 0.27678387E-01 0.12840832E+03</pdfrwt>
<totfact> 0.94748345E+04</totfact>
</mgrwt>
</event>
<event>
 6    1  0.4202038E-002  0.1291638E+03  0.7546771E-02  0.1228702E+00
         21   -1    0    0  503  502  0.00000000000E+00  0.00000000000E+00  0.43805332319E+02  0.43805332319E+02  0.00000000000E+00 0. -1.
         21   -1    0    0  504  503 -0.00000000000E+00 -0.00000000000E+00 -0.46183428328E+03  0.46183428328E+03  0.00000000000E+00 0. -1.
         25    2    1    2    0    0 -0.20401093811E+02 -0.25343737395E+02 -0.53734543428E+02  0.13989527181E+03  0.12499910505E+03 0.  0.
          5    1    3    3  501    0 -0.52751808397E+02 -0.22433140374E+02 -0.79795425978E+02  0.98251305758E+02  0.10000000000E+00 0. -1.
         -5    1    3    3    0  501  0.32350714586E+02 -0.29105970205E+01  0.26060882549E+02  0.41643966052E+02  0.10000000000E+00 0. -1.
         21    1    1    2  504  502  0.20401093811E+02  0.25343737395E+02 -0.36429440753E+03  0.36574434378E+03  0.00000000000E+00 0. -1.
<mgrwt>
<rscale>  1 0.12916379E+03</rscale>
<asrwt>0</asrwt>
<pdfrwt beam="1">  1       21 0.67392815E-02 0.12916379E+03</pdfrwt>
<pdfrwt beam="2">  1       21 0.71051433E-01 0.12916379E+03</pdfrwt>
<totfact> 0.29389880E+05</totfact>
</mgrwt>
</event>
<event>
 6    1  0.4202038E-002  0.1672609E+03  0.7546771E-02  0.1180735E+00
         21   -1    0    0  503  502  0.00000000000E+00  0.00000000000E+00  0.31802170434E+03  0.31802170434E+03  0.00000000000E+00 0. -1.
         21   -1    0    0  504  503 -0.00000000000E+00 -0.00000000000E+00 -0.44335397171E+03  0.44335397171E+03  0.00000000000E+00 0.  1.
         25    2    1    2    0    0  0.11038824886E+03 -0.13088136474E+02  0.28816914987E+03  0.33319313687E+03  0.12497736881E+03 0.  0.
          5    1    3    3  501    0  0.12166363502E+03  0.22179504504E+02  0.25532630541E+03  0.28369966997E+03  0.10000000000E+00 0. -1.
         -5    1    3    3    0  501 -0.11275386163E+02 -0.35267640978E+02  0.32842844462E+02  0.49493466899E+02  0.10000000000E+00 0. -1.
         21    1    1    2  504  502 -0.11038824886E+03  0.13088136474E+02 -0.41350141724E+03  0.42818253919E+03  0.00000000000E+00 0.  1.
<mgrwt>
<rscale>  1 0.16726090E+03</rscale>
<asrwt>0</asrwt>
<pdfrwt beam="1">  1       21 0.48926416E-01 0.16726090E+03</pdfrwt>
<pdfrwt beam="2">  1       21 0.68208303E-01 0.16726090E+03</pdfrwt>
<totfact> 0.79707155E+03</totfact>
</mgrwt>
</event>
<event>
 6    1  0.4202038E-002  0.1451872E+03  0.7546771E-02  0.1206515E+00
         21   -1    0    0  504  502  0.00000000000E+00  0.00000000000E+00  0.19554951048E+02  0.19554951048E+02  0.00000000000E+00 0. -1.
         21   -1    0    0  502  503 -0.00000000000E+00 -0.00000000000E+00 -0.63028916366E+03  0.63028916366E+03  0.00000000000E+00 0. -1.
         25    2    1    2    0    0 -0.72061924535E+02 -0.16011156807E+02 -0.35150454912E+03  0.38030878021E+03  0.12502016694E+03 0.  0.
          5    1    3    3  501    0  0.22282110483E+02  0.26885315446E+02 -0.46323975310E+02  0.58010631118E+02  0.10000000000E+00 0. -1.
         -5    1    3    3    0  501 -0.94344035018E+02 -0.42896472253E+02 -0.30518057381E+03  0.32229814909E+03  0.10000000000E+00 0. -1.
         21    1    1    2  504  503  0.72061924535E+02  0.16011156807E+02 -0.25922966349E+03  0.26953533450E+03  0.00000000000E+00 0. -1.
<mgrwt>
<rscale>  1 0.14518719E+03</rscale>
<asrwt>0</asrwt>
<pdfrwt beam="1">  1       21 0.30084545E-02 0.14518719E+03</pdfrwt>
<pdfrwt beam="2">  1       21 0.96967548E-01 0.14518719E+03</pdfrwt>
<totfact> 0.56076793E+05</totfact>
</mgrwt>
</event>
<event>
 6    1  0.4202038E-002  0.1476145E+03  0.7546771E-02  0.1203435E+00
         21   -1    0    0  503  502  0.00000000000E+00  0.00000000000E+00  0.14338331792E+02  0.14338331792E+02  0.00000000000E+00 0. -1.
         21   -1    0    0  504  503 -0.00000000000E+00 -0.00000000000E+00 -0.89930717064E+03  0.89930717064E+03  0.00000000000E+00 0. -1.
         25    2    1    2    0    0  0.15619615172E+02 -0.76934739304E+02 -0.53596721454E+03  0.55592345914E+03  0.12500844318E+03 0.  0.
          5    1    3    3  501    0 -0.27440794906E+02 -0.95303554506E+02 -0.40044194450E+03  0.41254033214E+03  0.10000000000E+00 0. -1.
         -5    1    3    3    0  501  0.43060410078E+02  0.18368815202E+02 -0.13552527004E+03  0.14338312700E+03  0.10000000000E+00 0. -1.
         21    1    1    2  504  502 -0.15619615172E+02  0.76934739304E+02 -0.34900162431E+03  0.35772204330E+03  0.00000000000E+00 0. -1.
<mgrwt>
<rscale>  1 0.14761449E+03</rscale>
<asrwt>0</asrwt>
<pdfrwt beam="1">  1       21 0.22058966E-02 0.14761449E+03</pdfrwt>
<pdfrwt beam="2">  1       21 0.13835499E+00 0.14761449E+03</pdfrwt>
<totfact> 0.39209309E+05</totfact>
</mgrwt>
</event>
<event>
 6    1  0.4202038E-002  0.1266562E+03  0.7546771E-02  0.1232503E+00
         21   -1    0    0  503  502  0.00000000000E+00  0.00000000000E+00  0.31576151579E+02  0.31576151579E+02  0.00000000000E+00 0. -1.
         21   -1    0    0  504  503 -0.00000000000E+00 -0.00000000000E+00 -0.12267950037E+04  0.12267950037E+04  0.00000000000E+00 0. -1.
         25    2    1    2    0    0  0.40479362461E+01  0.19975604997E+02 -0.95908089355E+02  0.15887146737E+03  0.12500548371E+03 0.  0.
          5    1    3    3  501    0 -0.21363238100E+02 -0.46895594006E+02 -0.59130052941E+02  0.78434417446E+02  0.10000000000E+00 0. -1.
         -5    1    3    3    0  501  0.25411174346E+02  0.66871199003E+02 -0.36778036414E+02  0.80437049922E+02  0.10000000000E+00 0. -1.
         21    1    1    2  504  502 -0.40479362461E+01 -0.19975604997E+02 -0.10993107628E+04  0.10994996879E+04  0.00000000000E+00 0. -1.
<mgrwt>
<rscale>  1 0.12665615E+03</rscale>
<asrwt>0</asrwt>
<pdfrwt beam="1">  1       21 0.48578702E-02 0.12665615E+03</pdfrwt>
<pdfrwt beam="2">  1       21 0.18873766E+00 0.12665615E+03</pdfrwt>
<totfact> 0.47042104E+04</totfact>
</mgrwt>
</event>
<event>
 6    1  0.4202038E-002  0.1268590E+03  0.7546771E-02  0.1232192E+00
         21   -1    0    0  504  502  0.00000000000E+00  0.00000000000E+00  0.52942677313E+02  0.52942677313E+02  0.00000000000E+00 0.  1.
         21   -1    0    0  502  503 -0.00000000000E+00 -0.00000000000E+00 -0.11260034665E+03  0.11260034665E+03  0.00000000000E+00 0.  1.
         25    2    1    2    0    0 -0.35335156252E+01 -0.21346448514E+02 -0.32755977850E+02  0.13101973325E+03  0.12500023928E+03 0.  0.
          5    1    3    3  501    0 -0.19809937683E+01 -0.55837119699E+02 -0.63647140467E+02  0.84691656981E+02  0.10000000000E+00 0.  1.
         -5    1    3    3    0  501 -0.15525218570E+01  0.34490671185E+02  0.30891162617E+02  0.46328076268E+02  0.10000000000E+00 0.  1.
         21    1    1    2  504  503  0.35335156252E+01  0.21346448514E+02 -0.26901691486E+02  0.34523290713E+02  0.00000000000E+00 0.  1.
<mgrwt>
<rscale>  1 0.12685904E+03</rscale>
<asrwt>0</asrwt>
<pdfrwt beam="1">  1       21 0.81450273E-02 0.12685904E+03</pdfrwt>
<pdfrwt beam="2">  1       21 0.17323130E-01 0.12685904E+03</pdfrwt>
<totfact> 0.34624892E+06</totfact>
</mgrwt>
</event>
<event>
 6    1  0.4202038E-002  0.1304124E+03  0.7546771E-02  0.1226845E+00
         21   -1    0    0  503  502  0.00000000000E+00  0.00000000000E+00  0.28592001265E+03  0.28592001265E+03  0.00000000000E+00 0.  1.
         21   -1    0    0  504  503 -0.00000000000E+00 -0.00000000000E+00 -0.28517730248E+02  0.28517730248E+02  0.00000000000E+00 0.  1.
         25    2    1    2    0    0 -0.10210183491E+02 -0.35765659893E+02  0.14020843447E+03  0.19148316483E+03  0.12499586810E+03 0.  0.
          5    1    3    3  501    0  0.34880207366E+02  0.21523183278E+02  0.10034156820E+03  0.10838965169E+03  0.10000000000E+00 0.  1.
         -5    1    3    3    0  501 -0.45090390857E+02 -0.57288843171E+02  0.39866866262E+02  0.83093513135E+02  0.10000000000E+00 0.  1.
         21    1    1    2  504  502  0.10210183491E+02  0.35765659893E+02  0.11719384794E+03  0.12295457807E+03  0.00000000000E+00 0.  1.
<mgrwt>
<rscale>  1 0.13041241E+03</rscale>
<asrwt>0</asrwt>
<pdfrwt beam="1">  1       21 0.43987692E-01 0.13041241E+03</pdfrwt>
<pdfrwt beam="2">  1       21 0.43873433E-02 0.13041241E+03</pdfrwt>
<totfact> 0.16611180E+06</totfact>
</mgrwt>
</event>
<event>
 6    1  0.4202038E-002  0.1672145E+03  0.7546771E-02  0.1180784E+00
         21   -1    0    0  504  502  0.00000000000E+00  0.00000000000E+00  0.15789493814E+03  0.15789493814E+03  0.00000000000E+00 0.  1.
         21   -1    0    0  502  503 -0.00000000000E+00 -0.00000000000E+00 -0.10665626249E+04  0.10665626249E+04  0.00000000000E+00 0. -1.
         25    2    1    2    0    0  0.59537105321E+02  0.93826233436E+02  0.10973771382E+03  0.20000766729E+03  0.12495067887E+03 0.  0.
          5    1    3    3  501    0  0.56416204915E+02  0.22127323847E+02 -0.90013018104E+01  0.61265325201E+02  0.10000000000E+00 0.  1.
         -5    1    3    3    0  501  0.31209004057E+01  0.71698909589E+02  0.11873901563E+03  0.13874234209E+03  0.10000000000E+00 0.  1.
         21    1    1    2  504  503 -0.59537105321E+02 -0.93826233436E+02 -0.10184054006E+04  0.10244498957E+04  0.00000000000E+00 0. -1.
<mgrwt>
<rscale>  1 0.16721454E+03</rscale>
<asrwt>0</asrwt>
<pdfrwt beam="1">  1       21 0.24291530E-01 0.16721454E+03</pdfrwt>
<pdfrwt beam="2">  1       21 0.16408655E+00 0.16721454E+03</pdfrwt>
<totfact> 0.38528346E+03</totfact>
</mgrwt>
</event>
<event>
 6    1  0.4202038E-002  0.1263646E+03  0.7546771E-02  0.1232952E+00
         21   -1    0    0  503  502  0.00000000000E+00  0.00000000000E+00  0.18462767287E+03  0.18462767287E+03  0.00000000000E+00 0.  1.
         21   -1    0    0  504  503 -0.00000000000E+00 -0.00000000000E+00 -0.59658035881E+02  0.59658035881E+02  0.00000000000E+00 0.  1.
         25    2    1    2    0    0  0.91417179115E+01 -0.16130315435E+02  0.16046039897E+03  0.20424382732E+03  0.12499697307E+03 0.  0.
          5    1    3    3  501    0  0.37411817128E+02  0.30852201682E+02  0.18222734754E+02  0.51803286299E+02  0.10000000000E+00 0. -1.
         -5    1    3    3    0  501 -0.28270099216E+02 -0.46982517117E+02  0.14223766422E+03  0.15244054102E+03  0.10000000000E+00 0. -1.
         21    1    1    2  504  502 -0.91417179115E+01  0.16130315435E+02 -0.35490761983E+02  0.40041881431E+02  0.00000000000E+00 0.  1.
<mgrwt>
<rscale>  1 0.12636456E+03</rscale>
<asrwt>0</asrwt>
<pdfrwt beam="1">  1       21 0.28404257E-01 0.12636456E+03</pdfrwt>
<pdfrwt beam="2">  1       21 0.91781594E-02 0.12636456E+03</pdfrwt>
<totfact> 0.11181731E+06</totfact>
</mgrwt>
</event>
<event>
 6    1  0.4202038E-002  0.1263901E+03  0.7546771E-02  0.1232913E+00
         21   -1    0    0  503  502  0.00000000000E+00  0.00000000000E+00  0.17870497544E+03  0.17870497544E+03  0.00000000000E+00 0. -1.
         21   -1    0    0  504  503 -0.00000000000E+00 -0.00000000000E+00 -0.36176942547E+02  0.36176942547E+02  0.00000000000E+00 0. -1.
         25    2    1    2    0    0  0.12216670917E+02 -0.14182439322E+02  0.14871418938E+03  0.19516752818E+03  0.12499626114E+03 0.  0.
          5    1    3    3  501    0  0.40560812003E+02 -0.29914163215E+02  0.83220937320E+01  0.51081345669E+02  0.10000000000E+00 0.  1.
         -5    1    3    3    0  501 -0.28344141086E+02  0.15731723893E+02  0.14039209565E+03  0.14408618251E+03  0.10000000000E+00 0.  1.
         21    1    1    2  504  502 -0.12216670917E+02  0.14182439322E+02 -0.61861564861E+01  0.19714389808E+02  0.00000000000E+00 0. -1.
<mgrwt>
<rscale>  1 0.12639009E+03</rscale>
<asrwt>0</asrwt>
<pdfrwt beam="1">  1       21 0.27493073E-01 0.12639009E+03</pdfrwt>
<pdfrwt beam="2">  1       21 0.55656836E-02 0.12639009E+03</pdfrwt>
<totfact> 0.28024759E+06</totfact>
</mgrwt>
</event>
<event>
 6    1  0.4202038E-002  0.1273251E+03  0.7546771E-02  0.1231480E+00
         21   -1    0    0  504  502  0.00000000000E+00  0.00000000000E+00  0.21090955162E+03  0.21090955162E+03  0.00000000000E+00 0.  1.
         21   -1    0    0  502  503 -0.00000000000E+00 -0.00000000000E+00 -0.28429341954E+02  0.28429341954E+02  0.00000000000E+00 0.  1.
         25    2    1    2    0    0 -0.24193685458E+02  0.10701063678E+01  0.16908598186E+03  0.21166426834E+03  0.12500085474E+03 0.  0.
          5    1    3    3  501    0  0.65161877471E+01  0.59772552333E+02  0.93384439209E+02  0.11106701671E+03  0.10000000000E+00 0. -1.
         -5    1    3    3    0  501 -0.30709873205E+02 -0.58702445965E+02  0.75701542648E+02  0.10059725162E+03  0.10000000000E+00 0. -1.
         21    1    1    2  504  503  0.24193685458E+02 -0.10701063678E+01  0.13394227813E+02  0.27674625244E+02  0.00000000000E+00 0.  1.
<mgrwt>
<rscale>  1 0.12732515E+03</rscale>
<asrwt>0</asrwt>
<pdfrwt beam="1">  1       21 0.32447622E-01 0.12732515E+03</pdfrwt>
<pdfrwt beam="2">  1       21 0.43737451E-02 0.12732515E+03</pdfrwt>
<totfact> 0.30520211E+06</totfact>
</mgrwt>
</event>
<event>
 6    1  0.4202038E-002  0.1405504E+03  0.7546771E-02  0.1212590E+00
         21   -1    0    0  503  502  0.00000000000E+00  0.00000000000E+00  0.13937339885E+02  0.13937339885E+02  0.00000000000E+00 0.  1.
         21   -1    0    0  504  503 -0.00000000000E+00 -0.00000000000E+00 -0.93054486050E+03  0.93054486050E+03  0.00000000000E+00 0.  1.
         25    2    1    2    0    0 -0.26033940125E+02  0.58749181566E+02 -0.40166519719E+03  0.42554595302E+03  0.12500078050E+03 0.  0.
          5    1    3    3  501    0  0.21755266811E+02  0.70467185991E+02 -0.33301267748E+03  0.34108117699E+03  0.10000000000E+00 0.  1.
         -5    1    3    3    0  501 -0.47789206936E+02 -0.11718004424E+02 -0.68652519707E+02  0.84464776028E+02  0.10000000000E+00 0.  1.
         21    1    1    2  504  502  0.26033940125E+02 -0.58749181566E+02 -0.51494232343E+03  0.51893624736E+03  0.00000000000E+00 0.  1.
<mgrwt>
<rscale>  1 0.14055044E+03</rscale>
<asrwt>0</asrwt>
<pdfrwt beam="1">  1       21 0.21442062E-02 0.14055044E+03</pdfrwt>
<pdfrwt beam="2">  1       21 0.14316075E+00 0.14055044E+03</pdfrwt>
<totfact> 0.37691587E+05</totfact>
</mgrwt>
</event>
<event>
 6    1  0.4202038E-002  0.1313668E+03  0.7546771E-02  0.1225442E+00
         21   -1    0    0  503  502  0.00000000000E+00  0.00000000000E+00  0.56663284096E+03  0.56663284096E+03  0.00000000000E+00 0.  1.
         21   -1    0    0  504  503 -0.00000000000E+00 -0.00000000000E+00 -0.16585812260E+02  0.16585812260E+02  0.00000000000E+00 0.  1.
         25    2    1    2    0    0 -0.35232491570E+02  0.19759557562E+02  0.50880228133E+03  0.52548739857E+03  0.12500190397E+03 0.  0.
          5    1    3    3  501    0 -0.11845799042E+02  0.18785969253E+02  0.72112980762E+01  0.23350554932E+02  0.10000000000E+00 0.  1.
         -5    1    3    3    0  501 -0.23386692529E+02  0.97358830901E+00  0.50159098325E+03  0.50213684364E+03  0.10000000000E+00 0.  1.
         21    1    1    2  504  502  0.35232491570E+02 -0.19759557562E+02  0.41244747372E+02  0.57731254647E+02  0.00000000000E+00 0.  1.
<mgrwt>
<rscale>  1 0.13136683E+03</rscale>
<asrwt>0</asrwt>
<pdfrwt beam="1">  1       21 0.87174269E-01 0.13136683E+03</pdfrwt>
<pdfrwt beam="2">  1       21 0.25516639E-02 0.13136683E+03</pdfrwt>
<totfact> 0.93920068E+05</totfact>
</mgrwt>
</event>
<event>
 6    1  0.4202038E-002  0.1650086E+03  0.7546771E-02  0.1183155E+00
         21   -1    0    0  504  502  0.00000000000E+00  0.00000000000E+00  0.84029550414E+02  0.84029550414E+02  0.00000000000E+00 0. -1.
         21   -1    0    0  502  503 -0.00000000000E+00 -0.00000000000E+00 -0.22339259225E+03  0.22339259225E+03  0.00000000000E+00 0. -1.
         25    2    1    2    0    0  0.10608876201E+03  0.18644316766E+02 -0.69582629113E+02  0.17907985823E+03  0.12500166950E+03 0.  0.
          5    1    3    3  501    0  0.95528652536E+02 -0.22813328685E+02 -0.96705488668E+00  0.98219736389E+02  0.10000000000E+00 0. -1.
         -5    1    3    3    0  501  0.10560109476E+02  0.41457645451E+02 -0.68615574226E+02  0.80860121845E+02  0.10000000000E+00 0. -1.
         21    1    1    2  504  503 -0.10608876201E+03 -0.18644316766E+02 -0.69780412726E+02  0.12834228443E+03  0.00000000000E+00 0. -1.
<mgrwt>
<rscale>  1 0.16500865E+03</rscale>
<asrwt>0</asrwt>
<pdfrwt beam="1">  1       21 0.12927624E-01 0.16500865E+03</pdfrwt>
<pdfrwt beam="2">  1       21 0.34368090E-01 0.16500865E+03</pdfrwt>
<totfact> 0.42112313E+05</totfact>
</mgrwt>
</event>
<event>
 6    1  0.4202038E-002  0.1283998E+03  0.7546771E-02  0.1229850E+00
         21   -1    0    0  503  502  0.00000000000E+00  0.00000000000E+00  0.28093406488E+02  0.28093406488E+02  0.00000000000E+00 0. -1.
         21   -1    0    0  504  503 -0.00000000000E+00 -0.00000000000E+00 -0.22873427817E+03  0.22873427817E+03  0.00000000000E+00 0. -1.
         25    2    1    2    0    0 -0.24094477902E+02 -0.16757041371E+02 -0.14327917843E+03  0.19239395007E+03  0.12500066700E+03 0.  0.
          5    1    3    3  501    0 -0.21592565282E+02 -0.66732188628E+02 -0.48681367764E+02  0.85377452772E+02  0.10000000000E+00 0. -1.
         -5    1    3    3    0  501 -0.25019126206E+01  0.49975147257E+02 -0.94597810671E+02  0.10701649730E+03  0.10000000000E+00 0. -1.
         21    1    1    2  504  502  0.24094477902E+02  0.16757041371E+02 -0.57361693252E+02  0.64433734593E+02  0.00000000000E+00 0. -1.
<mgrwt>
<rscale>  1 0.12839980E+03</rscale>
<asrwt>0</asrwt>
<pdfrwt beam="1">  1       21 0.43220626E-02 0.12839980E+03</pdfrwt>
<pdfrwt beam="2">  1       21 0.35189888E-01 0.12839980E+03</pdfrwt>
<totfact> 0.26571879E+06</totfact>
</mgrwt>
</event>
<event>
 6    1  0.4202038E-002  0.1259433E+03  0.7546771E-02  0.1233602E+00
         21   -1    0    0  504  502  0.00000000000E+00  0.00000000000E+00  0.13035302880E+03  0.13035302880E+03  0.00000000000E+00 0.  1.
         21   -1    0    0  502  503 -0.00000000000E+00 -0.00000000000E+00 -0.38317954422E+02  0.38317954422E+02  0.00000000000E+00 0.  1.
         25    2    1    2    0    0  0.14770626381E+01 -0.15334054534E+02  0.81889992955E+02  0.15022545207E+03  0.12499760222E+03 0.  0.
          5    1    3    3  501    0  0.60461685271E+02 -0.13034951255E+02  0.20747730112E+02  0.65238053656E+02  0.10000000000E+00 0.  1.
         -5    1    3    3    0  501 -0.58984622633E+02 -0.22991032791E+01  0.61142262842E+02  0.84987398410E+02  0.10000000000E+00 0.  1.
         21    1    1    2  504  503 -0.14770626381E+01  0.15334054534E+02  0.10145081418E+02  0.18445531152E+02  0.00000000000E+00 0.  1.
<mgrwt>
<rscale>  1 0.12594330E+03</rscale>
<asrwt>0</asrwt>
<pdfrwt beam="1">  1       21 0.20054312E-01 0.12594330E+03</pdfrwt>
<pdfrwt beam="2">  1       21 0.58950700E-02 0.12594330E+03</pdfrwt>
<totfact> 0.45968912E+06</totfact>
</mgrwt>
</event>
<event>
 6    1  0.4202038E-002  0.1263096E+03  0.7546771E-02  0.1233037E+00
         21   -1    0    0  504  502  0.00000000000E+00  0.00000000000E+00  0.37608639216E+03  0.37608639216E+03  0.00000000000E+00 0.  1.
         21   -1    0    0  502  503 -0.00000000000E+00 -0.00000000000E+00 -0.33078713709E+02  0.33078713709E+02  0.00000000000E+00 0.  1.
         25    2    1    2    0    0 -0.51932680574E+01 -0.17390846242E+02  0.36169455550E+03  0.38311494387E+03  0.12499878870E+03 0.  0.
          5    1    3    3  501    0  0.57378047792E+02 -0.26264274966E+02  0.17848507218E+03  0.18931186835E+03  0.10000000000E+00 0.  1.
         -5    1    3    3    0  501 -0.62571315850E+02  0.88734287241E+01  0.18320948332E+03  0.19380307552E+03  0.10000000000E+00 0.  1.
         21    1    1    2  504  503  0.51932680574E+01  0.17390846242E+02 -0.18686877046E+02  0.26050161993E+02  0.00000000000E+00 0.  1.
<mgrwt>
<rscale>  1 0.12630958E+03</rscale>
<asrwt>0</asrwt>
<pdfrwt beam="1">  1       21 0.57859442E-01 0.12630958E+03</pdfrwt>
<pdfrwt beam="2">  1       21 0.50890331E-02 0.12630958E+03</pdfrwt>
<totfact> 0.73519696E+05</totfact>
</mgrwt>
</event>
<event>
 6    1  0.4202038E-002  0.1292011E+03  0.7546771E-02  0.1228646E+00
         21   -1    0    0  503  502  0.00000000000E+00  0.00000000000E+00  0.36810087554E+02  0.36810087554E+02  0.00000000000E+00 0.  1.
         21   -1    0    0  504  503 -0.00000000000E+00 -0.00000000000E+00 -0.52777901550E+03  0.52777901550E+03  0.00000000000E+00 0.  1.
         25    2    1    2    0    0  0.24457064590E+02  0.21665418935E+02 -0.79237984332E+02  0.15156379110E+03  0.12500154489E+03 0.  0.
          5    1    3    3  501    0  0.20241100229E+02 -0.48991377484E+02 -0.12902785279E+02  0.54555926115E+02  0.10000000000E+00 0. -1.
         -5    1    3    3    0  501  0.42159643610E+01  0.70656796419E+02 -0.66335199052E+02  0.97007864985E+02  0.10000000000E+00 0. -1.
         21    1    1    2  504  502 -0.24457064590E+02 -0.21665418935E+02 -0.41173094362E+03  0.41302531196E+03  0.00000000000E+00 0.  1.
<mgrwt>
<rscale>  1 0.12920110E+03</rscale>
<asrwt>0</asrwt>
<pdfrwt beam="1">  1       21 0.56630903E-02 0.12920110E+03</pdfrwt>
<pdfrwt beam="2">  1       21 0.81196773E-01 0.12920110E+03</pdfrwt>
<totfact> 0.29394494E+05</totfact>
</mgrwt>
</event>
<event>
 6    1  0.4202038E-002  0.1297537E+03  0.7546771E-02  0.1227822E+00
         21   -1    0    0  504  502  0.00000000000E+00  0.00000000000E+00  0.18190059609E+02  0.18190059609E+02  0.00000000000E+00 0. -1.
         21   -1    0    0  502  503 -0.00000000000E+00 -0.00000000000E+00 -0.37228346637E+03  0.37228346637E+03  0.00000000000E+00 0. -1.
         25    2    1    2    0    0  0.29750650095E+02 -0.18107531407E+02 -0.27860451633E+03  0.30733775478E+03  0.12499214022E+03 0.  0.
          5    1    3    3  501    0  0.31403974351E+02 -0.56318880834E+02 -0.25353509974E+03  0.26160673298E+03  0.10000000000E+00 0. -1.
         -5    1    3    3    0  501 -0.16533242563E+01  0.38211349427E+02 -0.25069416597E+02  0.45731021798E+02  0.10000000000E+00 0. -1.
         21    1    1    2  504  503 -0.29750650095E+02  0.18107531407E+02 -0.75488890425E+02  0.83135771195E+02  0.00000000000E+00 0. -1.
<mgrwt>
<rscale>  1 0.12975369E+03</rscale>
<asrwt>0</asrwt>
<pdfrwt beam="1">  1       21 0.27984707E-02 0.12975369E+03</pdfrwt>
<pdfrwt beam="2">  1       21 0.57274379E-01 0.12975369E+03</pdfrwt>
<totfact> 0.20237749E+06</totfact>
</mgrwt>
</event>
<event>
 6    1  0.4202038E-002  0.1304025E+03  0.7546771E-02  0.1226860E+00
         21   -1    0    0  504  502  0.00000000000E+00  0.00000000000E+00  0.16868876623E+03  0.16868876623E+03  0.00000000000E+00 0. -1.
         21   -1    0    0  502  503 -0.00000000000E+00 -0.00000000000E+00 -0.82579222993E+02  0.82579222993E+02  0.00000000000E+00 0. -1.
         25    2    1    2    0    0 -0.31519615185E+02 -0.19636051415E+02  0.13643075004E+03  0.18872772610E+03  0.12500297750E+03 0.  0.
          5    1    3    3  501    0 -0.48425744140E+00  0.38505844516E+02  0.11200553861E+03  0.11844064019E+03  0.10000000000E+00 0.  1.
         -5    1    3    3    0  501 -0.31035357744E+02 -0.58141895931E+02  0.24425211429E+02  0.70287085913E+02  0.10000000000E+00 0.  1.
         21    1    1    2  504  503  0.31519615185E+02  0.19636051415E+02 -0.50321206809E+02  0.62540263122E+02  0.00000000000E+00 0. -1.
<mgrwt>
<rscale>  1 0.13040247E+03</rscale>
<asrwt>0</asrwt>
<pdfrwt beam="1">  1       21 0.25952118E-01 0.13040247E+03</pdfrwt>
<pdfrwt beam="2">  1       21 0.12704496E-01 0.13040247E+03</pdfrwt>
<totfact> 0.75002331E+05</totfact>
</mgrwt>
</event>
<event>
 6    1  0.4202038E-002  0.1269230E+03  0.7546771E-02  0.1232094E+00
         21   -1    0    0  504  502  0.00000000000E+00  0.00000000000E+00  0.25268662152E+03  0.25268662152E+03  0.00000000000E+00 0. -1.
         21   -1    0    0  502  503 -0.00000000000E+00 -0.00000000000E+00 -0.11929619370E+03  0.11929619370E+03  0.00000000000E+00 0. -1.
         25    2    1    2    0    0  0.20736492087E+02  0.74207959320E+01  0.23549993392E+03  0.26752506513E+03  0.12499748509E+03 0.  0.
          5    1    3    3  501    0 -0.46155909413E+02 -0.13757622094E+02  0.14637449140E+03  0.15409458742E+03  0.10000000000E+00 0.  1.
         -5    1    3    3    0  501  0.66892401500E+02  0.21178418026E+02  0.89125442519E+02  0.11343047771E+03  0.10000000000E+00 0.  1.
         21    1    1    2  504  503 -0.20736492087E+02 -0.74207959320E+01 -0.10210950611E+03  0.10445775009E+03  0.00000000000E+00 0. -1.
<mgrwt>
<rscale>  1 0.12692298E+03</rscale>
<asrwt>0</asrwt>
<pdfrwt beam="1">  1       21 0.38874865E-01 0.12692298E+03</pdfrwt>
<pdfrwt beam="2">  1       21 0.18353261E-01 0.12692298E+03</pdfrwt>
<totfact> 0.17617988E+05</totfact>
</mgrwt>
</event>
<event>
 6    1  0.4202038E-002  0.1263929E+03  0.7546771E-02  0.1232908E+00
         21   -1    0    0  503  502  0.00000000000E+00  0.00000000000E+00  0.15076927445E+02  0.15076927445E+02  0.00000000000E+00 0. -1.
         21   -1    0    0  504  503 -0.00000000000E+00 -0.00000000000E+00 -0.40748960693E+03  0.40748960693E+03  0.00000000000E+00 0. -1.
         25    2    1    2    0    0 -0.11810713401E+02  0.14597977440E+02 -0.26295559895E+03  0.29175472452E+03  0.12499031308E+03 0.  0.
          5    1    3    3  501    0  0.25435212769E+02 -0.31694492141E+02 -0.27870652233E+02  0.49277521616E+02  0.10000000000E+00 0.  1.
         -5    1    3    3    0  501 -0.37245926169E+02  0.46292469581E+02 -0.23508494671E+03  0.24247720290E+03  0.10000000000E+00 0.  1.
         21    1    1    2  504  502  0.11810713401E+02 -0.14597977440E+02 -0.12945708054E+03  0.13081180985E+03  0.00000000000E+00 0. -1.
<mgrwt>
<rscale>  1 0.12639293E+03</rscale>
<asrwt>0</asrwt>
<pdfrwt beam="1">  1       21 0.23195272E-02 0.12639293E+03</pdfrwt>
<pdfrwt beam="2">  1       21 0.62690711E-01 0.12639293E+03</pdfrwt>
<totfact> 0.22664018E+06</totfact>
</mgrwt>
</event>
<event>
 6    1  0.4202038E-002  0.1462191E+03  0.7546771E-02  0.1205197E+00
         21   -1    0    0  503  502  0.00000000000E+00  0.00000000000E+00  0.52044527496E+02  0.52044527496E+02  0.00000000000E+00 0.  1.
         21   -1    0    0  504  503 -0.00000000000E+00 -0.00000000000E+00 -0.27337969741E+03  0.27337969741E+03  0.00000000000E+00 0.  1.
         25    2    1    2    0    0  0.73727754622E+02  0.17780240396E+02 -0.19787412471E+03  0.24603695016E+03  0.12501237084E+03 0.  0.
          5    1    3    3  501    0 -0.24503688961E+02  0.35983348592E+02 -0.83552978913E+02  0.94214343037E+02  0.10000000000E+00 0.  1.
         -5    1    3    3    0  501  0.98231443582E+02 -0.18203108196E+02 -0.11432114580E+03  0.15182260712E+03  0.10000000000E+00 0.  1.
         21    1    1    2  504  502 -0.73727754622E+02 -0.17780240396E+02 -0.23461045202E+02  0.79387274749E+02  0.00000000000E+00 0.  1.
<mgrwt>
<rscale>  1 0.14621905E+03</rscale>
<asrwt>0</asrwt>
<pdfrwt beam="1">  1       21 0.80068506E-02 0.14621905E+03</pdfrwt>
<pdfrwt beam="2">  1       21 0.42058414E-01 0.14621905E+03</pdfrwt>
<totfact> 0.65526785E+05</totfact>
</mgrwt>
</event>
<event>
 6    1  0.4202038E-002  0.1293479E+03  0.7546771E-02  0.1228427E+00
         21   -1    0    0  504  502  0.00000000000E+00  0.00000000000E+00  0.34470210034E+02  0.34470210034E+02  0.00000000000E+00 0. -1.
         21   -1    0    0  502  503 -0.00000000000E+00 -0.00000000000E+00 -0.37398373066E+03  0.37398373066E+03  0.00000000000E+00 0. -1.
         25    2    1    2    0    0 -0.23459527259E+01 -0.33339687332E+02 -0.92084728536E+02  0.15877806000E+03  0.12495533947E+03 0.  0.
          5    1    3    3  501    0 -0.57177716543E+02 -0.10689146703E+01 -0.72230774270E+02  0.92128869521E+02  0.10000000000E+00 0. -1.
         -5    1    3    3    0  501  0.54831763817E+02 -0.32270772661E+02 -0.19853954267E+02  0.66649190478E+02  0.10000000000E+00 0. -1.
         21    1    1    2  504  503  0.23459527259E+01  0.33339687332E+02 -0.24742879209E+03  0.24967588069E+03  0.00000000000E+00 0. -1.
<mgrwt>
<rscale>  1 0.12934788E+03</rscale>
<asrwt>0</asrwt>
<pdfrwt beam="1">  1       21 0.53031094E-02 0.12934788E+03</pdfrwt>
<pdfrwt beam="2">  1       21 0.57535956E-01 0.12934788E+03</pdfrwt>
<totfact> 0.69407950E+05</totfact>
</mgrwt>
</event>
<event>
 6    1  0.4202038E-002  0.1270270E+03  0.7546771E-02  0.1231935E+00
         21   -1    0    0  503  502  0.00000000000E+00  0.00000000000E+00  0.21321712345E+02  0.21321712345E+02  0.00000000000E+00 0. -1.
         21   -1    0    0  504  503 -0.00000000000E+00 -0.00000000000E+00 -0.29365303326E+03  0.29365303326E+03  0.00000000000E+00 0. -1.
         25    2    1    2    0    0  0.72976061161E+01 -0.21415808694E+02 -0.18261926005E+03  0.22245368972E+03  0.12499583198E+03 0.  0.
          5    1    3    3  501    0 -0.19612786494E+02  0.47099370752E+02 -0.54216181347E+02  0.74447407202E+02  0.10000000000E+00 0. -1.
         -5    1    3    3    0  501  0.26910392610E+02 -0.68515179446E+02 -0.12840307870E+03  0.14800628252E+03  0.10000000000E+00 0. -1.
         21    1    1    2  504  502 -0.72976061161E+01  0.21415808694E+02 -0.89712060864E+02  0.92521055882E+02  0.00000000000E+00 0.  1.
<mgrwt>
<rscale>  1 0.12702697E+03</rscale>
<asrwt>0</asrwt>
<pdfrwt beam="1">  1       21 0.32802635E-02 0.12702697E+03</pdfrwt>
<pdfrwt beam="2">  1       21 0.45177389E-01 0.12702697E+03</pdfrwt>
<totfact> 0.25460827E+06</totfact>
</mgrwt>
</event>
<event>
 6    1  0.4202038E-002  0.1292962E+03  0.7546771E-02  0.1228504E+00
         21   -1    0    0  503  502  0.00000000000E+00  0.00000000000E+00  0.49142760570E+02  0.49142760570E+02  0.00000000000E+00 0. -1.
         21   -1    0    0  504  503 -0.00000000000E+00 -0.00000000000E+00 -0.19519365843E+03  0.19519365843E+03  0.00000000000E+00 0. -1.
         25    2    1    2    0    0 -0.10623547388E+02 -0.31310333514E+02 -0.43232296054E+02  0.13633243009E+03  0.12499721328E+03 0.  0.
          5    1    3    3  501    0 -0.24390300283E+01  0.48712695620E+02 -0.13974748163E+02  0.50736369286E+02  0.10000000000E+00 0. -1.
         -5    1    3    3    0  501 -0.81845173601E+01 -0.80023029134E+02 -0.29257547891E+02  0.85596060802E+02  0.10000000000E+00 0. -1.
         21    1    1    2  504  502  0.10623547388E+02  0.31310333514E+02 -0.10281860180E+03  0.10800398891E+03  0.00000000000E+00 0. -1.
<mgrwt>
<rscale>  1 0.12929617E+03</rscale>
<asrwt>0</asrwt>
<pdfrwt beam="1">  1       21 0.75604248E-02 0.12929617E+03</pdfrwt>
<pdfrwt beam="2">  1       21 0.30029793E-01 0.12929617E+03</pdfrwt>
<totfact> 0.14051330E+06</totfact>
</mgrwt>
</event>
<event>
 6    1  0.4202038E-002  0.1266118E+03  0.7546771E-02  0.1232572E+00
         21   -1    0    0  503  502  0.00000000000E+00  0.00000000000E+00  0.26265874130E+02  0.26265874130E+02  0.00000000000E+00 0. -1.
         21   -1    0    0  504  503 -0.00000000000E+00 -0.00000000000E+00 -0.30024633061E+03  0.30024633061E+03  0.00000000000E+00 0. -1.
         25    2    1    2    0    0 -0.12656257193E+02 -0.15610559406E+02 -0.13121835761E+03  0.18234255716E+03  0.12500672128E+03 0.  0.
          5    1    3    3  501    0  0.78199023836E+01 -0.54842340314E+02 -0.14130753148E+02  0.57170983453E+02  0.10000000000E+00 0.  1.
         -5    1    3    3    0  501 -0.20476159576E+02  0.39231780908E+02 -0.11708760446E+03  0.12517157370E+03  0.10000000000E+00 0.  1.
         21    1    1    2  504  502  0.12656257193E+02  0.15610559406E+02 -0.14276209887E+03  0.14416964759E+03  0.00000000000E+00 0. -1.
<mgrwt>
<rscale>  1 0.12661181E+03</rscale>
<asrwt>0</asrwt>
<pdfrwt beam="1">  1       21 0.40409038E-02 0.12661181E+03</pdfrwt>
<pdfrwt beam="2">  1       21 0.46191742E-01 0.12661181E+03</pdfrwt>
<totfact> 0.17237199E+06</totfact>
</mgrwt>
</event>
<event>
 6    1  0.4202038E-002  0.1268809E+03  0.7546771E-02  0.1232159E+00
         21   -1    0    0  504  502  0.00000000000E+00  0.00000000000E+00  0.11009847852E+03  0.11009847852E+03  0.00000000000E+00 0.  1.
         21   -1    0    0  502  503 -0.00000000000E+00 -0.00000000000E+00 -0.64377473888E+02  0.64377473888E+02  0.00000000000E+00 0.  1.
         25    2    1    2    0    0  0.17476987575E+02  0.12916309141E+02  0.67491981022E+02  0.14371475038E+03  0.12500594322E+03 0.  0.
          5    1    3    3  501    0  0.48886622033E+02  0.55434664439E+02  0.36424444842E+02  0.82399356898E+02  0.10000000000E+00 0.  1.
         -5    1    3    3    0  501 -0.31409634457E+02 -0.42518355298E+02  0.31067536180E+02  0.61315393486E+02  0.10000000000E+00 0.  1.
         21    1    1    2  504  503 -0.17476987575E+02 -0.12916309141E+02 -0.21770976395E+02  0.30761202020E+02  0.00000000000E+00 0.  1.
<mgrwt>
<rscale>  1 0.12688090E+03</rscale>
<asrwt>0</asrwt>
<pdfrwt beam="1">  1       21 0.16938227E-01 0.12688090E+03</pdfrwt>
<pdfrwt beam="2">  1       21 0.99042268E-02 0.12688090E+03</pdfrwt>
<totfact> 0.25687219E+06</totfact>
</mgrwt>
</event>
<event>
 6    1  0.4202038E-002  0.1275183E+03  0.7546771E-02  0.1231185E+00
         21   -1    0    0  503  502  0.00000000000E+00  0.00000000000E+00  0.13976301496E+02  0.13976301496E+02  0.00000000000E+00 0. -1.
         21   -1    0    0  504  503 -0.00000000000E+00 -0.00000000000E+00 -0.55733051427E+03  0.55733051427E+03  0.00000000000E+00 0. -1.
         25    2    1    2    0    0  0.25129197665E+02  0.20305106311E+01 -0.29121756564E+03  0.31791287665E+03  0.12500130823E+03 0.  0.
          5    1    3    3  501    0  0.66936072856E+02  0.21726993573E+01 -0.88801454819E+02  0.11122439863E+03  0.10000000000E+00 0. -1.
         -5    1    3    3    0  501 -0.41806875191E+02 -0.14218872614E+00 -0.20241611082E+03  0.20668847803E+03  0.10000000000E+00 0. -1.
         21    1    1    2  504  502 -0.25129197665E+02 -0.20305106311E+01 -0.25213664714E+03  0.25339393912E+03  0.00000000000E+00 0. -1.
<mgrwt>
<rscale>  1 0.12751834E+03</rscale>
<asrwt>0</asrwt>
<pdfrwt beam="1">  1       21 0.21502008E-02 0.12751834E+03</pdfrwt>
<pdfrwt beam="2">  1       21 0.85743133E-01 0.12751834E+03</pdfrwt>
<totfact> 0.12874704E+06</totfact>
</mgrwt>
</event>
<event>
 6    1  0.4202038E-002  0.1283643E+03  0.7546771E-02  0.1229903E+00
         21   -1    0    0  504  502  0.00000000000E+00  0.00000000000E+00  0.35602841374E+03  0.35602841374E+03  0.00000000000E+00 0. -1.
         21   -1    0    0  502  503 -0.00000000000E+00 -0.00000000000E+00 -0.38553713888E+03  0.38553713888E+03  0.00000000000E+00 0.  1.
         25    2    1    2    0    0 -0.24130105589E+02 -0.16380595204E+02  0.34387096850E+03  0.36704855498E+03  0.12500725113E+03 0.  0.
          5    1    3    3  501    0  0.24898958932E+02  0.11445987097E+02  0.11150246109E+02  0.29585583732E+02  0.10000000000E+00 0.  1.
         -5    1    3    3    0  501 -0.49029064521E+02 -0.27826582301E+02  0.33272072239E+03  0.33746297124E+03  0.10000000000E+00 0.  1.
         21    1    1    2  504  503  0.24130105589E+02  0.16380595204E+02 -0.37337969364E+03  0.37451699764E+03  0.00000000000E+00 0.  1.
<mgrwt>
<rscale>  1 0.12836432E+03</rscale>
<asrwt>0</asrwt>
<pdfrwt beam="1">  1       21 0.54773602E-01 0.12836432E+03</pdfrwt>
<pdfrwt beam="2">  1       21 0.59313406E-01 0.12836432E+03</pdfrwt>
<totfact> 0.87934049E+03</totfact>
</mgrwt>
</event>
<event>
 6    1  0.4202038E-002  0.1259045E+03  0.7546771E-02  0.1233662E+00
         21   -1    0    0  503  502  0.00000000000E+00  0.00000000000E+00  0.11368907850E+03  0.11368907850E+03  0.00000000000E+00 0.  1.
         21   -1    0    0  504  503 -0.00000000000E+00 -0.00000000000E+00 -0.44202215409E+02  0.44202215409E+02  0.00000000000E+00 0.  1.
         25    2    1    2    0    0 -0.48831645158E+01  0.14256592200E+02  0.66987175650E+02  0.14261568740E+03  0.12499942750E+03 0.  0.
          5    1    3    3  501    0 -0.21999527528E+02  0.19396388335E+02  0.10046912914E+03  0.10466257690E+03  0.10000000000E+00 0.  1.
         -5    1    3    3    0  501  0.17116363012E+02 -0.51397961353E+01 -0.33481953494E+02  0.37953110503E+02  0.10000000000E+00 0.  1.
         21    1    1    2  504  502  0.48831645158E+01 -0.14256592200E+02  0.24996874393E+01  0.15275606506E+02  0.00000000000E+00 0.  1.
<mgrwt>
<rscale>  1 0.12590454E+03</rscale>
<asrwt>0</asrwt>
<pdfrwt beam="1">  1       21 0.17490627E-01 0.12590454E+03</pdfrwt>
<pdfrwt beam="2">  1       21 0.68003409E-02 0.12590454E+03</pdfrwt>
<totfact> 0.46352454E+06</totfact>
</mgrwt>
</event>
<event>
 6    1  0.4202038E-002  0.1270154E+03  0.7546771E-02  0.1231953E+00
         21   -1    0    0  504  502  0.00000000000E+00  0.00000000000E+00  0.18883306132E+02  0.18883306132E+02  0.00000000000E+00 0.  1.
         21   -1    0    0  502  503 -0.00000000000E+00 -0.00000000000E+00 -0.46243893260E+03  0.46243893260E+03  0.00000000000E+00 0.  1.
         25    2    1    2    0    0  0.56271529819E+01 -0.21868565571E+02 -0.20133857175E+03  0.23805489483E+03  0.12499205362E+03 0.  0.
          5    1    3    3  501    0  0.21357246102E+01 -0.62868109063E+02 -0.47543097843E+02  0.78849962646E+02  0.10000000000E+00 0. -1.
         -5    1    3    3    0  501  0.34914283717E+01  0.40999543492E+02 -0.15379547391E+03  0.15920493219E+03  0.10000000000E+00 0. -1.
         21    1    1    2  504  503 -0.56271529819E+01  0.21868565571E+02 -0.24221705472E+03  0.24326734390E+03  0.00000000000E+00 0.  1.
<mgrwt>
<rscale>  1 0.12701540E+03</rscale>
<asrwt>0</asrwt>
<pdfrwt beam="1">  1       21 0.29051241E-02 0.12701540E+03</pdfrwt>
<pdfrwt beam="2">  1       21 0.71144449E-01 0.12701540E+03</pdfrwt>
<totfact> 0.11948906E+06</totfact>
</mgrwt>
</event>
<event>
 6    1  0.4202038E-002  0.1391392E+03  0.7546771E-02  0.1214492E+00
         21   -1    0    0  504  502  0.00000000000E+00  0.00000000000E+00  0.20366924939E+03  0.20366924939E+03  0.00000000000E+00 0.  1.
         21   -1    0    0  502  503 -0.00000000000E+00 -0.00000000000E+00 -0.50226461440E+02  0.50226461440E+02  0.00000000000E+00 0.  1.
         25    2    1    2    0    0  0.58716297896E+02  0.16957670237E+02  0.12255929079E+03  0.18541975436E+03  0.12499815730E+03 0.  0.
          5    1    3    3  501    0  0.67290847065E+02 -0.12116334576E+02  0.13603192427E+03  0.15224834344E+03  0.10000000000E+00 0. -1.
         -5    1    3    3    0  501 -0.85745491694E+01  0.29074004813E+02 -0.13472633471E+02  0.33171410913E+02  0.10000000000E+00 0. -1.
         21    1    1    2  504  503 -0.58716297896E+02 -0.16957670237E+02  0.30883497160E+02  0.68475956476E+02  0.00000000000E+00 0.  1.
<mgrwt>
<rscale>  1 0.13913916E+03</rscale>
<asrwt>0</asrwt>
<pdfrwt beam="1">  1       21 0.31333730E-01 0.13913916E+03</pdfrwt>
<pdfrwt beam="2">  1       21 0.77271480E-02 0.13913916E+03</pdfrwt>
<totfact> 0.12476878E+06</totfact>
</mgrwt>
</event>
<event>
 6    1  0.4202038E-002  0.1265492E+03  0.7546771E-02  0.1232668E+00
         21   -1    0    0  503  502  0.00000000000E+00  0.00000000000E+00  0.16664826343E+03  0.16664826343E+03  0.00000000000E+00 0.  1.
         21   -1    0    0  504  503 -0.00000000000E+00 -0.00000000000E+00 -0.17078791539E+03  0.17078791539E+03  0.00000000000E+00 0.  1.
         25    2    1    2    0    0  0.19548368580E+02  0.23238944969E+01  0.14186737855E+03  0.19010800039E+03  0.12500863777E+03 0.  0.
          5    1    3    3  501    0  0.63356788500E+02 -0.31818457742E+02  0.75608335582E+02  0.10364905842E+03  0.10000000000E+00 0.  1.
         -5    1    3    3    0  501 -0.43808419920E+02  0.34142352239E+02  0.66259042965E+02  0.86458941972E+02  0.10000000000E+00 0.  1.
         21    1    1    2  504  502 -0.19548368580E+02 -0.23238944969E+01 -0.14600703050E+03  0.14732817842E+03  0.00000000000E+00 0.  1.
<mgrwt>
<rscale>  1 0.12654919E+03</rscale>
<asrwt>0</asrwt>
<pdfrwt beam="1">  1       21 0.25638194E-01 0.12654919E+03</pdfrwt>
<pdfrwt beam="2">  1       21 0.26275064E-01 0.12654919E+03</pdfrwt>
<totfact> 0.20235425E+05</totfact>
</mgrwt>
</event>
<event>
 6    1  0.4202038E-002  0.1667941E+03  0.7546771E-02  0.1181233E+00
         21   -1    0    0  504  502  0.00000000000E+00  0.00000000000E+00  0.32584825825E+03  0.32584825825E+03  0.00000000000E+00 0.  1.
         21   -1    0    0  502  503 -0.00000000000E+00 -0.00000000000E+00 -0.59245032508E+02  0.59245032508E+02  0.00000000000E+00 0.  1.
         25    2    1    2    0    0  0.83154371961E+02 -0.72665047274E+02  0.14729161174E+03  0.22251986148E+03  0.12500164476E+03 0.  0.
          5    1    3    3  501    0  0.58624023532E+02 -0.10835116239E+03  0.10304174398E+03  0.16060623129E+03  0.10000000000E+00 0.  1.
         -5    1    3    3    0  501  0.24530348429E+02  0.35686115119E+02  0.44249867756E+02  0.61913630186E+02  0.10000000000E+00 0.  1.
         21    1    1    2  504  503 -0.83154371961E+02  0.72665047274E+02  0.11931161401E+03  0.16257342928E+03  0.00000000000E+00 0.  1.
<mgrwt>
<rscale>  1 0.16679409E+03</rscale>
<asrwt>0</asrwt>
<pdfrwt beam="1">  1       21 0.50130500E-01 0.16679409E+03</pdfrwt>
<pdfrwt beam="2">  1       21 0.91146206E-02 0.16679409E+03</pdfrwt>
<totfact> 0.36409448E+05</totfact>
</mgrwt>
</event>
<event>
 6    1  0.4202038E-002  0.1367591E+03  0.7546771E-02  0.1217758E+00
         21   -1    0    0  503  502  0.00000000000E+00  0.00000000000E+00  0.14751502146E+02  0.14751502146E+02  0.00000000000E+00 0. -1.
         21   -1    0    0  504  503 -0.00000000000E+00 -0.00000000000E+00 -0.73597273779E+03  0.73597273779E+03  0.00000000000E+00 0. -1.
         25    2    1    2    0    0  0.34661184537E+02  0.43312974402E+02 -0.35692311582E+03  0.38222657159E+03  0.12500251982E+03 0.  0.
          5    1    3    3  501    0 -0.52297792341E+01  0.65384149858E+02 -0.89596913494E+02  0.11104077878E+03  0.10000000000E+00 0.  1.
         -5    1    3    3    0  501  0.39890963771E+02 -0.22071175456E+02 -0.26732620232E+03  0.27118579282E+03  0.10000000000E+00 0.  1.
         21    1    1    2  504  502 -0.34661184537E+02 -0.43312974402E+02 -0.36429811983E+03  0.36849766835E+03  0.00000000000E+00 0. -1.
<mgrwt>
<rscale>  1 0.13675906E+03</rscale>
<asrwt>0</asrwt>
<pdfrwt beam="1">  1       21 0.22694619E-02 0.13675906E+03</pdfrwt>
<pdfrwt beam="2">  1       21 0.11322657E+00 0.13675906E+03</pdfrwt>
<totfact> 0.61595293E+05</totfact>
</mgrwt>
</event>
<event>
 6    1  0.4202038E-002  0.1335109E+03  0.7546771E-02  0.1222337E+00
         21   -1    0    0  504  502  0.00000000000E+00  0.00000000000E+00  0.32386069783E+02  0.32386069783E+02  0.00000000000E+00 0. -1.
         21   -1    0    0  502  503 -0.00000000000E+00 -0.00000000000E+00 -0.53777998274E+03  0.53777998274E+03  0.00000000000E+00 0. -1.
         25    2    1    2    0    0  0.37710061212E+02 -0.27784497935E+02 -0.11278564853E+03  0.17477349273E+03  0.12502457440E+03 0.  0.
          5    1    3    3  501    0 -0.10964212350E+02  0.38223639730E+02 -0.61361791631E+01  0.40235845728E+02  0.10000000000E+00 0. -1.
         -5    1    3    3    0  501  0.48674273563E+02 -0.66008137665E+02 -0.10664946936E+03  0.13453764700E+03  0.10000000000E+00 0. -1.
         21    1    1    2  504  503 -0.37710061212E+02  0.27784497935E+02 -0.39260826443E+03  0.39539255979E+03  0.00000000000E+00 0. -1.
<mgrwt>
<rscale>  1 0.13351094E+03</rscale>
<asrwt>0</asrwt>
<pdfrwt beam="1">  1       21 0.49824728E-02 0.13351094E+03</pdfrwt>
<pdfrwt beam="2">  1       21 0.82735373E-01 0.13351094E+03</pdfrwt>
<totfact> 0.34938414E+05</totfact>
</mgrwt>
</event>
<event>
 6    1  0.4202038E-002  0.1282987E+03  0.7546771E-02  0.1230002E+00
         21   -1    0    0  503  502  0.00000000000E+00  0.00000000000E+00  0.13532956357E+02  0.13532956357E+02  0.00000000000E+00 0.  1.
         21   -1    0    0  504  503 -0.00000000000E+00 -0.00000000000E+00 -0.92925205854E+03  0.92925205854E+03  0.00000000000E+00 0.  1.
         25    2    1    2    0    0 -0.19774285873E+02  0.21011919826E+02 -0.29865504234E+03  0.32504673933E+03  0.12501210051E+03 0.  0.
          5    1    3    3  501    0 -0.67667155215E+02 -0.55459314495E+00 -0.10939107792E+03  0.12862958212E+03  0.10000000000E+00 0. -1.
         -5    1    3    3    0  501  0.47892869342E+02  0.21566512971E+02 -0.18926396443E+03  0.19641715721E+03  0.10000000000E+00 0. -1.
         21    1    1    2  504  502  0.19774285873E+02 -0.21011919826E+02 -0.61706405984E+03  0.61773827557E+03  0.00000000000E+00 0.  1.
<mgrwt>
<rscale>  1 0.12829867E+03</rscale>
<asrwt>0</asrwt>
<pdfrwt beam="1">  1       21 0.20819935E-02 0.12829867E+03</pdfrwt>
<pdfrwt beam="2">  1       21 0.14296184E+00 0.12829867E+03</pdfrwt>
<totfact> 0.39807371E+05</totfact>
</mgrwt>
</event>
<event>
 6    1  0.4202038E-002  0.1275294E+03  0.7546771E-02  0.1231168E+00
         21   -1    0    0  504  502  0.00000000000E+00  0.00000000000E+00  0.24777816064E+02  0.24777816064E+02  0.00000000000E+00 0.  1.
         21   -1    0    0  502  503 -0.00000000000E+00 -0.00000000000E+00 -0.65093025306E+03  0.65093025306E+03  0.00000000000E+00 0.  1.
         25    2    1    2    0    0 -0.10849005449E+02  0.22826619861E+02 -0.14185923227E+03  0.19075584092E+03  0.12499997429E+03 0.  0.
          5    1    3    3  501    0 -0.59265337115E+02  0.38994345831E+02 -0.54046445791E+02  0.89185018321E+02  0.10000000000E+00 0.  1.
         -5    1    3    3    0  501  0.48416331666E+02 -0.16167725971E+02 -0.87812786479E+02  0.10157082260E+03  0.10000000000E+00 0.  1.
         21    1    1    2  504  503  0.10849005449E+02 -0.22826619861E+02 -0.48429320472E+03  0.48495222820E+03  0.00000000000E+00 0.  1.
<mgrwt>
<rscale>  1 0.12752940E+03</rscale>
<asrwt>0</asrwt>
<pdfrwt beam="1">  1       21 0.38119725E-02 0.12752940E+03</pdfrwt>
<pdfrwt beam="2">  1       21 0.10014310E+00 0.12752940E+03</pdfrwt>
<totfact> 0.35292970E+05</totfact>
</mgrwt>
</event>
<event>
 6    1  0.4202038E-002  0.1265751E+03  0.7546771E-02  0.1232628E+00
         21   -1    0    0  504  502  0.00000000000E+00  0.00000000000E+00  0.12550522046E+03  0.12550522046E+03  0.00000000000E+00 0. -1.
         21   -1    0    0  502  503 -0.00000000000E+00 -0.00000000000E+00 -0.11721175918E+03  0.11721175918E+03  0.00000000000E+00 0.  1.
         25    2    1    2    0    0 -0.18521239476E+02 -0.72966200146E+01  0.92127013907E+02  0.15655236090E+03  0.12499991215E+03 0.  0.
          5    1    3    3  501    0 -0.51525214775E+02 -0.12804958972E+02 -0.54748844404E+01  0.53374142536E+02  0.10000000000E+00 0.  1.
         -5    1    3    3    0  501  0.33003975298E+02  0.55083389575E+01  0.97601898347E+02  0.10317821836E+03  0.10000000000E+00 0.  1.
         21    1    1    2  504  503  0.18521239476E+02  0.72966200146E+01 -0.83833552635E+02  0.86164618741E+02  0.00000000000E+00 0.  1.
<mgrwt>
<rscale>  1 0.12657510E+03</rscale>
<asrwt>0</asrwt>
<pdfrwt beam="1">  1       21 0.19308495E-01 0.12657510E+03</pdfrwt>
<pdfrwt beam="2">  1       21 0.18032578E-01 0.12657510E+03</pdfrwt>
<totfact> 0.69290107E+05</totfact>
</mgrwt>
</event>
<event>
 6    1  0.4202038E-002  0.1485817E+03  0.7546771E-02  0.1202227E+00
         21   -1    0    0  503  502  0.00000000000E+00  0.00000000000E+00  0.30361365151E+03  0.30361365151E+03  0.00000000000E+00 0.  1.
         21   -1    0    0  504  503 -0.00000000000E+00 -0.00000000000E+00 -0.60975225177E+02  0.60975225177E+02  0.00000000000E+00 0.  1.
         25    2    1    2    0    0  0.69447598968E+02 -0.40359495568E+02  0.24234271015E+03  0.28426487447E+03  0.12499868724E+03 0.  0.
          5    1    3    3  501    0 -0.19890938155E+02  0.26010870631E+02  0.88675653954E+02  0.94528283682E+02  0.10000000000E+00 0. -1.
         -5    1    3    3    0  501  0.89338537123E+02 -0.66370366199E+02  0.15366705619E+03  0.18973659079E+03  0.10000000000E+00 0. -1.
         21    1    1    2  504  502 -0.69447598968E+02  0.40359495568E+02  0.29571619048E+00  0.80324002222E+02  0.00000000000E+00 0.  1.
<mgrwt>
<rscale>  1 0.14858173E+03</rscale>
<asrwt>0</asrwt>
<pdfrwt beam="1">  1       21 0.46709792E-01 0.14858173E+03</pdfrwt>
<pdfrwt beam="2">  1       21 0.93808040E-02 0.14858173E+03</pdfrwt>
<totfact> 0.40183098E+05</totfact>
</mgrwt>
</event>
<event>
 6    1  0.4202038E-002  0.1301013E+03  0.7546771E-02  0.1227305E+00
         21   -1    0    0  504  502  0.00000000000E+00  0.00000000000E+00  0.11282267168E+04  0.11282267168E+04  0.00000000000E+00 0. -1.
         21   -1    0    0  502  503 -0.00000000000E+00 -0.00000000000E+00 -0.34365845773E+02  0.34365845773E+02  0.00000000000E+00 0.  1.
         25    2    1    2    0    0  0.24057305389E+02 -0.26881353827E+02  0.11138011899E+04  0.11213739085E+04  0.12499996294E+03 0.  0.
          5    1    3    3  501    0 -0.35345139981E+02 -0.30544014166E+02  0.83428731773E+03  0.83559413248E+03  0.10000000000E+00 0. -1.
         -5    1    3    3    0  501  0.59402445371E+02  0.36626603395E+01  0.27951387222E+03  0.28577977598E+03  0.10000000000E+00 0. -1.
         21    1    1    2  504  503 -0.24057305389E+02  0.26881353827E+02 -0.19940318933E+02  0.41218654094E+02  0.00000000000E+00 0.  1.
<mgrwt>
<rscale>  1 0.13010131E+03</rscale>
<asrwt>0</asrwt>
<pdfrwt beam="1">  1       21 0.17357331E+00 0.13010131E+03</pdfrwt>
<pdfrwt beam="2">  1       21 0.52870541E-02 0.13010131E+03</pdfrwt>
<totfact> 0.51331508E+04</totfact>
</mgrwt>
</event>
<event>
 6    1  0.4202038E-002  0.1260466E+03  0.7546771E-02  0.1233443E+00
         21   -1    0    0  503  502  0.00000000000E+00  0.00000000000E+00  0.37070703461E+03  0.37070703461E+03  0.00000000000E+00 0. -1.
         21   -1    0    0  504  503 -0.00000000000E+00 -0.00000000000E+00 -0.24473351507E+02  0.24473351507E+02  0.00000000000E+00 0. -1.
         25    2    1    2    0    0 -0.10980303113E+02  0.11917689176E+02  0.35503047815E+03  0.37674178598E+03  0.12500053807E+03 0.  0.
          5    1    3    3  501    0  0.18203641964E+02 -0.43440111265E+02  0.66422566255E+02  0.81427164726E+02  0.10000000000E+00 0.  1.
         -5    1    3    3    0  501 -0.29183945077E+02  0.55357800441E+02  0.28860791190E+03  0.29531462126E+03  0.10000000000E+00 0.  1.
         21    1    1    2  504  502  0.10980303113E+02 -0.11917689176E+02 -0.87967950477E+01  0.18438600133E+02  0.00000000000E+00 0. -1.
<mgrwt>
<rscale>  1 0.12604655E+03</rscale>
<asrwt>0</asrwt>
<pdfrwt beam="1">  1       21 0.57031848E-01 0.12604655E+03</pdfrwt>
<pdfrwt beam="2">  1       21 0.37651312E-02 0.12604655E+03</pdfrwt>
<totfact> 0.12525803E+06</totfact>
</mgrwt>
</event>
<event>
 6    1  0.4202038E-002  0.1261213E+03  0.7546771E-02  0.1233327E+00
         21   -1    0    0  504  502  0.00000000000E+00  0.00000000000E+00  0.22441590698E+03  0.22441590698E+03  0.00000000000E+00 0. -1.
         21   -1    0    0  502  503 -0.00000000000E+00 -0.00000000000E+00 -0.25658160940E+02  0.25658160940E+02  0.00000000000E+00 0. -1.
         25    2    1    2    0    0 -0.16635816231E+02 -0.19541438573E+01  0.19603871058E+03  0.23310461850E+03  0.12500407217E+03 0.  0.
          5    1    3    3  501    0 -0.17009540389E+02 -0.36993723039E+02  0.19375666516E+03  0.19798867468E+03  0.10000000000E+00 0. -1.
         -5    1    3    3    0  501  0.37372415870E+00  0.35039579182E+02  0.22820454251E+01  0.35115943819E+02  0.10000000000E+00 0. -1.
         21    1    1    2  504  503  0.16635816231E+02  0.19541438573E+01  0.27190354585E+01  0.16969449422E+02  0.00000000000E+00 0. -1.
<mgrwt>
<rscale>  1 0.12612132E+03</rscale>
<asrwt>0</asrwt>
<pdfrwt beam="1">  1       21 0.34525523E-01 0.12612132E+03</pdfrwt>
<pdfrwt beam="2">  1       21 0.39474095E-02 0.12612132E+03</pdfrwt>
<totfact> 0.32053904E+06</totfact>
</mgrwt>
</event>
<event>
 6    1  0.4202038E-002  0.1344186E+03  0.7546771E-02  0.1221043E+00
         21   -1    0    0  504  502  0.00000000000E+00  0.00000000000E+00  0.24183596141E+03  0.24183596141E+03  0.00000000000E+00 0.  1.
         21   -1    0    0  502  503 -0.00000000000E+00 -0.00000000000E+00 -0.36822301226E+02  0.36822301226E+02  0.00000000000E+00 0.  1.
         25    2    1    2    0    0  0.14802057845E+01 -0.49366151741E+02  0.17571555469E+03  0.22123364307E+03  0.12501664177E+03 0.  0.
          5    1    3    3  501    0  0.18573668154E+02  0.39638550803E+02  0.58667361396E+02  0.73198805671E+02  0.10000000000E+00 0. -1.
         -5    1    3    3    0  501 -0.17093462370E+02 -0.89004702544E+02  0.11704819329E+03  0.14803483740E+03  0.10000000000E+00 0. -1.
         21    1    1    2  504  503 -0.14802057845E+01  0.49366151741E+02  0.29298105500E+02  0.57424619570E+02  0.00000000000E+00 0.  1.
<mgrwt>
<rscale>  1 0.13441863E+03</rscale>
<asrwt>0</asrwt>
<pdfrwt beam="1">  1       21 0.37205532E-01 0.13441863E+03</pdfrwt>
<pdfrwt beam="2">  1       21 0.56649696E-02 0.13441863E+03</pdfrwt>
<totfact> 0.15129392E+06</totfact>
</mgrwt>
</event>
<event>
 6    1  0.4202038E-002  0.1474026E+03  0.7546771E-02  0.1203702E+00
         21   -1    0    0  504  502  0.00000000000E+00  0.00000000000E+00  0.58839413534E+02  0.58839413534E+02  0.00000000000E+00 0. -1.
         21   -1    0    0  502  503 -0.00000000000E+00 -0.00000000000E+00 -0.10734921586E+04  0.10734921586E+04  0.00000000000E+00 0. -1.
         25    2    1    2    0    0 -0.22767379490E+02 -0.74724318052E+02 -0.37548600188E+02  0.15210986904E+03  0.12500175041E+03 0.  0.
          5    1    3    3  501    0 -0.16151707267E+02 -0.65447273175E+02  0.36862421107E+02  0.76831447360E+02  0.10000000000E+00 0. -1.
         -5    1    3    3    0  501 -0.66156722230E+01 -0.92770448773E+01 -0.74411021295E+02  0.75278421681E+02  0.10000000000E+00 0. -1.
         21    1    1    2  504  503  0.22767379490E+02  0.74724318052E+02 -0.97710414491E+03  0.98022170312E+03  0.00000000000E+00 0. -1.
<mgrwt>
<rscale>  1 0.14740256E+03</rscale>
<asrwt>0</asrwt>
<pdfrwt beam="1">  1       21 0.90522179E-02 0.14740256E+03</pdfrwt>
<pdfrwt beam="2">  1       21 0.16515263E+00 0.14740256E+03</pdfrwt>
<totfact> 0.23078886E+04</totfact>
</mgrwt>
</event>
<event>
 6    1  0.4202038E-002  0.1482533E+03  0.7546771E-02  0.1202636E+00
         21   -1    0    0  504  502  0.00000000000E+00  0.00000000000E+00  0.26980783958E+03  0.26980783958E+03  0.00000000000E+00 0. -1.
         21   -1    0    0  502  503 -0.00000000000E+00 -0.00000000000E+00 -0.23609177881E+03  0.23609177881E+03  0.00000000000E+00 0.  1.
         25    2    1    2    0    0  0.91821905107E+01 -0.79197807048E+02  0.24148303415E+03  0.28336036233E+03  0.12498973516E+03 0.  0.
          5    1    3    3  501    0  0.40810019527E+02  0.18488578680E+02  0.60560887543E+02  0.75332040563E+02  0.10000000000E+00 0.  1.
         -5    1    3    3    0  501 -0.31627829016E+02 -0.97686385729E+02  0.18092214660E+03  0.20802832176E+03  0.10000000000E+00 0.  1.
         21    1    1    2  504  503 -0.91821905107E+01  0.79197807048E+02 -0.20776697337E+03  0.22253925606E+03  0.00000000000E+00 0.  1.
<mgrwt>
<rscale>  1 0.14825329E+03</rscale>
<asrwt>0</asrwt>
<pdfrwt beam="1">  1       21 0.41508899E-01 0.14825329E+03</pdfrwt>
<pdfrwt beam="2">  1       21 0.36321812E-01 0.14825329E+03</pdfrwt>
<totfact> 0.41795448E+04</totfact>
</mgrwt>
</event>
<event>
 6    1  0.4202038E-002  0.1260294E+03  0.7546771E-02  0.1233469E+00
         21   -1    0    0  504  502  0.00000000000E+00  0.00000000000E+00  0.52408004518E+03  0.52408004518E+03  0.00000000000E+00 0.  1.
         21   -1    0    0  502  503 -0.00000000000E+00 -0.00000000000E+00 -0.33867674683E+02  0.33867674683E+02  0.00000000000E+00 0.  1.
         25    2    1    2    0    0  0.15639864570E+02 -0.37070092168E+01  0.51400754107E+03  0.52923261193E+03  0.12500023187E+03 0.  0.
          5    1    3    3  501    0 -0.41907076644E+01  0.49967255925E+02  0.38307413849E+03  0.38634193958E+03  0.10000000000E+00 0. -1.
         -5    1    3    3    0  501  0.19830572234E+02 -0.53674265141E+02  0.13093340258E+03  0.14289067235E+03  0.10000000000E+00 0. -1.
         21    1    1    2  504  503 -0.15639864570E+02  0.37070092168E+01 -0.23795170575E+02  0.28715107936E+02  0.00000000000E+00 0.  1.
<mgrwt>
<rscale>  1 0.12602938E+03</rscale>
<asrwt>0</asrwt>
<pdfrwt beam="1">  1       21 0.80627694E-01 0.12602938E+03</pdfrwt>
<pdfrwt beam="2">  1       21 0.52104119E-02 0.12602938E+03</pdfrwt>
<totfact> 0.34386723E+05</totfact>
</mgrwt>
</event>
<event>
 6    1  0.4202038E-002  0.1286659E+03  0.7546771E-02  0.1229449E+00
         21   -1    0    0  504  502  0.00000000000E+00  0.00000000000E+00  0.21928735165E+03  0.21928735165E+03  0.00000000000E+00 0. -1.
         21   -1    0    0  502  503 -0.00000000000E+00 -0.00000000000E+00 -0.14926941558E+03  0.14926941558E+03  0.00000000000E+00 0. -1.
         25    2    1    2    0    0  0.13346749923E+02  0.27413875010E+02  0.19847446898E+03  0.23653125029E+03  0.12500104500E+03 0.  0.
          5    1    3    3  501    0  0.54259789862E+02  0.50995071711E+02  0.81551070635E+02  0.11043192137E+03  0.10000000000E+00 0.  1.
         -5    1    3    3    0  501 -0.40913039939E+02 -0.23581196701E+02  0.11692339834E+03  0.12609932892E+03  0.10000000000E+00 0.  1.
         21    1    1    2  504  503 -0.13346749923E+02 -0.27413875010E+02 -0.12845653291E+03  0.13202551694E+03  0.00000000000E+00 0. -1.
<mgrwt>
<rscale>  1 0.12866591E+03</rscale>
<asrwt>0</asrwt>
<pdfrwt beam="1">  1       21 0.33736516E-01 0.12866591E+03</pdfrwt>
<pdfrwt beam="2">  1       21 0.22964525E-01 0.12866591E+03</pdfrwt>
<totfact> 0.15373347E+05</totfact>
</mgrwt>
</event>
<event>
 6    1  0.4202038E-002  0.1276777E+03  0.7546771E-02  0.1230943E+00
         21   -1    0    0  504  502  0.00000000000E+00  0.00000000000E+00  0.19021722945E+03  0.19021722945E+03  0.00000000000E+00 0. -1.
         21   -1    0    0  502  503 -0.00000000000E+00 -0.00000000000E+00 -0.24319947682E+03  0.24319947682E+03  0.00000000000E+00 0. -1.
         25    2    1    2    0    0  0.24363954642E+02 -0.90856641462E+01  0.16794353736E+03  0.21096591634E+03  0.12500173814E+03 0.  0.
          5    1    3    3  501    0  0.18443837281E+02  0.18853259726E+02 -0.11852616050E+02  0.28915653947E+02  0.10000000000E+00 0. -1.
         -5    1    3    3    0  501  0.59201173608E+01 -0.27938923872E+02  0.17979615341E+03  0.18205026239E+03  0.10000000000E+00 0. -1.
         21    1    1    2  504  503 -0.24363954642E+02  0.90856641462E+01 -0.22092578474E+03  0.22245078993E+03  0.00000000000E+00 0. -1.
<mgrwt>
<rscale>  1 0.12767766E+03</rscale>
<asrwt>0</asrwt>
<pdfrwt beam="1">  1       21 0.29264189E-01 0.12767766E+03</pdfrwt>
<pdfrwt beam="2">  1       21 0.37415304E-01 0.12767766E+03</pdfrwt>
<totfact> 0.79203082E+04</totfact>
</mgrwt>
</event>
<event>
 6    1  0.4202038E-002  0.1322883E+03  0.7546771E-02  0.1224099E+00
         21   -1    0    0  504  502  0.00000000000E+00  0.00000000000E+00  0.20668145281E+03  0.20668145281E+03  0.00000000000E+00 0.  1.
         21   -1    0    0  502  503 -0.00000000000E+00 -0.00000000000E+00 -0.70667291017E+02  0.70667291017E+02  0.00000000000E+00 0. -1.
         25    2    1    2    0    0 -0.38555054042E+02 -0.19653355630E+02  0.17481433561E+03  0.21922645836E+03  0.12500976574E+03 0.  0.
          5    1    3    3  501    0  0.15808213229E+02 -0.52332486452E+02  0.13152184012E+03  0.14243101197E+03  0.10000000000E+00 0. -1.
         -5    1    3    3    0  501 -0.54363267271E+02  0.32679130821E+02  0.43292495489E+02  0.76795446383E+02  0.10000000000E+00 0. -1.
         21    1    1    2  504  503  0.38555054042E+02  0.19653355630E+02 -0.38800173817E+02  0.58122285467E+02  0.00000000000E+00 0. -1.
<mgrwt>
<rscale>  1 0.13228828E+03</rscale>
<asrwt>0</asrwt>
<pdfrwt beam="1">  1       21 0.31797146E-01 0.13228828E+03</pdfrwt>
<pdfrwt beam="2">  1       21 0.10871891E-01 0.13228828E+03</pdfrwt>
<totfact> 0.66896384E+05</totfact>
</mgrwt>
</event>
<event>
 6    1  0.4202038E-002  0.1374930E+03  0.7546771E-02  0.1216743E+00
         21   -1    0    0  504  502  0.00000000000E+00  0.00000000000E+00  0.13858037298E+03  0.13858037298E+03  0.00000000000E+00 0.  1.
         21   -1    0    0  502  503 -0.00000000000E+00 -0.00000000000E+00 -0.96696075484E+02  0.96696075484E+02  0.00000000000E+00 0.  1.
         25    2    1    2    0    0 -0.16129928411E+02  0.54965553947E+02  0.86699288032E+02  0.16254564283E+03  0.12499173071E+03 0.  0.
          5    1    3    3  501    0  0.48578621721E+01  0.93479554803E+02  0.60497997388E+02  0.11145422235E+03  0.10000000000E+00 0. -1.
         -5    1    3    3    0  501 -0.20987790583E+02 -0.38514000856E+02  0.26201290644E+02  0.51091420482E+02  0.10000000000E+00 0. -1.
         21    1    1    2  504  503  0.16129928411E+02 -0.54965553947E+02 -0.44814990537E+02  0.72730805633E+02  0.00000000000E+00 0.  1.
<mgrwt>
<rscale>  1 0.13749298E+03</rscale>
<asrwt>0</asrwt>
<pdfrwt beam="1">  1       21 0.21320057E-01 0.13749298E+03</pdfrwt>
<pdfrwt beam="2">  1       21 0.14876319E-01 0.13749298E+03</pdfrwt>
<totfact> 0.81806961E+05</totfact>
</mgrwt>
</event>
<event>
 6    1  0.4202038E-002  0.1326679E+03  0.7546771E-02  0.1223550E+00
         21   -1    0    0  503  502  0.00000000000E+00  0.00000000000E+00  0.31113825491E+03  0.31113825491E+03  0.00000000000E+00 0. -1.
         21   -1    0    0  504  503 -0.00000000000E+00 -0.00000000000E+00 -0.36320169829E+02  0.36320169829E+02  0.00000000000E+00 0. -1.
         25    2    1    2    0    0  0.15875874326E+02 -0.41531669220E+02  0.27232986223E+03  0.30292625449E+03  0.12499535537E+03 0.  0.
          5    1    3    3  501    0  0.15048693852E+02  0.28707559555E+01  0.25467504078E+03  0.25513543624E+03  0.10000000000E+00 0. -1.
         -5    1    3    3    0  501  0.82718047411E+00 -0.44402425176E+02  0.17654821445E+02  0.47790818253E+02  0.10000000000E+00 0. -1.
         21    1    1    2  504  502 -0.15875874326E+02  0.41531669220E+02  0.24882228491E+01  0.44532170245E+02  0.00000000000E+00 0. -1.
<mgrwt>
<rscale>  1 0.13266786E+03</rscale>
<asrwt>0</asrwt>
<pdfrwt beam="1">  1       21 0.47867422E-01 0.13266786E+03</pdfrwt>
<pdfrwt beam="2">  1       21 0.55877186E-02 0.13266786E+03</pdfrwt>
<totfact> 0.93162245E+05</totfact>
</mgrwt>
</event>
<event>
 6    1  0.4202038E-002  0.1265522E+03  0.7546771E-02  0.1232663E+00
         21   -1    0    0  503  502  0.00000000000E+00  0.00000000000E+00  0.11899502430E+03  0.11899502430E+03  0.00000000000E+00 0.  1.
         21   -1    0    0  504  503 -0.00000000000E+00 -0.00000000000E+00 -0.48429423350E+02  0.48429423350E+02  0.00000000000E+00 0.  1.
         25    2    1    2    0    0  0.16145439386E+02 -0.11399857243E+02  0.75084442129E+02  0.14715003315E+03  0.12499930738E+03 0.  0.
          5    1    3    3  501    0  0.29810239786E+02  0.51224014855E+02  0.19747261752E+02  0.62470108377E+02  0.10000000000E+00 0.  1.
         -5    1    3    3    0  501 -0.13664800400E+02 -0.62623872098E+02  0.55337180377E+02  0.84679924768E+02  0.10000000000E+00 0.  1.
         21    1    1    2  504  502 -0.16145439386E+02  0.11399857243E+02 -0.45188411743E+01  0.20274414509E+02  0.00000000000E+00 0.  1.
<mgrwt>
<rscale>  1 0.12655220E+03</rscale>
<asrwt>0</asrwt>
<pdfrwt beam="1">  1       21 0.18306927E-01 0.12655220E+03</pdfrwt>
<pdfrwt beam="2">  1       21 0.74506805E-02 0.12655220E+03</pdfrwt>
<totfact> 0.36481695E+06</totfact>
</mgrwt>
</event>
<event>
 6    1  0.4202038E-002  0.1489042E+03  0.7546771E-02  0.1201826E+00
         21   -1    0    0  504  502  0.00000000000E+00  0.00000000000E+00  0.56301110393E+02  0.56301110393E+02  0.00000000000E+00 0.  1.
         21   -1    0    0  502  503 -0.00000000000E+00 -0.00000000000E+00 -0.59288279394E+03  0.59288279394E+03  0.00000000000E+00 0. -1.
         25    2    1    2    0    0  0.53711796335E+02 -0.60515712186E+02 -0.51740698387E+02  0.15763747786E+03  0.12500146427E+03 0.  0.
          5    1    3    3  501    0 -0.32396711392E+02  0.13678955283E+02 -0.10130749547E+02  0.36596486348E+02  0.10000000000E+00 0. -1.
         -5    1    3    3    0  501  0.86108507727E+02 -0.74194667468E+02 -0.41609948839E+02  0.12104099151E+03  0.10000000000E+00 0. -1.
         21    1    1    2  504  503 -0.53711796335E+02  0.60515712186E+02 -0.48484098516E+03  0.49154642647E+03  0.00000000000E+00 0. -1.
<mgrwt>
<rscale>  1 0.14890425E+03</rscale>
<asrwt>0</asrwt>
<pdfrwt beam="1">  1       21 0.86617097E-02 0.14890425E+03</pdfrwt>
<pdfrwt beam="2">  1       21 0.91212733E-01 0.14890425E+03</pdfrwt>
<totfact> 0.10828097E+05</totfact>
</mgrwt>
</event>
<event>
 6    1  0.4202038E-002  0.1263048E+03  0.7546771E-02  0.1233044E+00
         21   -1    0    0  504  502  0.00000000000E+00  0.00000000000E+00  0.19247577280E+04  0.19247577280E+04  0.00000000000E+00 0. -1.
         21   -1    0    0  502  503 -0.00000000000E+00 -0.00000000000E+00 -0.98198970323E+01  0.98198970323E+01  0.00000000000E+00 0. -1.
         25    2    1    2    0    0 -0.62894528038E+01  0.16978727310E+02  0.19120802470E+04  0.19162473172E+04  0.12500030087E+03 0.  0.
          5    1    3    3  501    0  0.33498833525E+01  0.48427536364E+02  0.17591502907E+04  0.17598199349E+04  0.10000000000E+00 0. -1.
         -5    1    3    3    0  501 -0.96393361564E+01 -0.31448809053E+02  0.15292995635E+03  0.15642738233E+03  0.10000000000E+00 0. -1.
         21    1    1    2  504  503  0.62894528038E+01 -0.16978727310E+02  0.28575838920E+01  0.18330307781E+02  0.00000000000E+00 0. -1.
<mgrwt>
<rscale>  1 0.12630483E+03</rscale>
<asrwt>0</asrwt>
<pdfrwt beam="1">  1       21 0.29611627E+00 0.12630483E+03</pdfrwt>
<pdfrwt beam="2">  1       21 0.15107549E-02 0.12630483E+03</pdfrwt>
<totfact> 0.74313744E+04</totfact>
</mgrwt>
</event>
<event>
 6    1  0.4202038E-002  0.1259702E+03  0.7546771E-02  0.1233561E+00
         21   -1    0    0  504  502  0.00000000000E+00  0.00000000000E+00  0.16614948887E+02  0.16614948887E+02  0.00000000000E+00 0. -1.
         21   -1    0    0  502  503 -0.00000000000E+00 -0.00000000000E+00 -0.31018905004E+03  0.31018905004E+03  0.00000000000E+00 0. -1.
         25    2    1    2    0    0 -0.14327214407E+02 -0.62137192370E+01 -0.24068413628E+03  0.27165667112E+03  0.12499845651E+03 0.  0.
          5    1    3    3  501    0  0.42914215011E+02 -0.63759697888E+01 -0.28552933316E+02  0.51938067366E+02  0.10000000000E+00 0. -1.
         -5    1    3    3    0  501 -0.57241429419E+02  0.16225055174E+00 -0.21213120296E+03  0.21971860376E+03  0.10000000000E+00 0. -1.
         21    1    1    2  504  503  0.14327214407E+02  0.62137192370E+01 -0.52889964876E+02  0.55147327805E+02  0.00000000000E+00 0. -1.
<mgrwt>
<rscale>  1 0.12597021E+03</rscale>
<asrwt>0</asrwt>
<pdfrwt beam="1">  1       21 0.25561460E-02 0.12597021E+03</pdfrwt>
<pdfrwt beam="2">  1       21 0.47721392E-01 0.12597021E+03</pdfrwt>
<totfact> 0.34238854E+06</totfact>
</mgrwt>
</event>
<event>
 6    1  0.4202038E-002  0.1271420E+03  0.7546771E-02  0.1231759E+00
         21   -1    0    0  503  502  0.00000000000E+00  0.00000000000E+00  0.27395052608E+03  0.27395052608E+03  0.00000000000E+00 0.  1.
         21   -1    0    0  504  503 -0.00000000000E+00 -0.00000000000E+00 -0.20848584538E+02  0.20848584538E+02  0.00000000000E+00 0.  1.
         25    2    1    2    0    0  0.16464653994E+02 -0.16455694398E+02  0.20259215050E+03  0.23918334216E+03  0.12499286786E+03 0.  0.
          5    1    3    3  501    0  0.34003813185E+02 -0.64861607554E+02  0.95404973026E+02  0.12027221759E+03  0.10000000000E+00 0. -1.
         -5    1    3    3    0  501 -0.17539159190E+02  0.48405913156E+02  0.10718717747E+03  0.11891112457E+03  0.10000000000E+00 0. -1.
         21    1    1    2  504  502 -0.16464653994E+02  0.16455694398E+02  0.50509791048E+02  0.55615768456E+02  0.00000000000E+00 0.  1.
<mgrwt>
<rscale>  1 0.12714201E+03</rscale>
<asrwt>0</asrwt>
<pdfrwt beam="1">  1       21 0.42146232E-01 0.12714201E+03</pdfrwt>
<pdfrwt beam="2">  1       21 0.32074747E-02 0.12714201E+03</pdfrwt>
<totfact> 0.30403238E+06</totfact>
</mgrwt>
</event>
<event>
 6    1  0.4202038E-002  0.1478843E+03  0.7546771E-02  0.1203097E+00
         21   -1    0    0  503  502  0.00000000000E+00  0.00000000000E+00  0.41190125921E+02  0.41190125921E+02  0.00000000000E+00 0. -1.
         21   -1    0    0  504  503 -0.00000000000E+00 -0.00000000000E+00 -0.31777113756E+03  0.31777113756E+03  0.00000000000E+00 0. -1.
         25    2    1    2    0    0 -0.73861089067E+02  0.28109931829E+02 -0.15754174519E+03  0.21607677971E+03  0.12499657798E+03 0.  0.
          5    1    3    3  501    0 -0.38859648705E+02  0.29650890621E+02  0.56143306302E+01  0.49201405676E+02  0.10000000000E+00 0.  1.
         -5    1    3    3    0  501 -0.35001440362E+02 -0.15409587922E+01 -0.16315607582E+03  0.16687537403E+03  0.10000000000E+00 0.  1.
         21    1    1    2  504  502  0.73861089067E+02 -0.28109931829E+02 -0.11903926644E+03  0.14288448377E+03  0.00000000000E+00 0. -1.
<mgrwt>
<rscale>  1 0.14788432E+03</rscale>
<asrwt>0</asrwt>
<pdfrwt beam="1">  1       21 0.63369422E-02 0.14788432E+03</pdfrwt>
<pdfrwt beam="2">  1       21 0.48887869E-01 0.14788432E+03</pdfrwt>
<totfact> 0.72026944E+05</totfact>
</mgrwt>
</event>
<event>
 6    1  0.4202038E-002  0.1288142E+03  0.7546771E-02  0.1229226E+00
         21   -1    0    0  503  502  0.00000000000E+00  0.00000000000E+00  0.16777789784E+03  0.16777789784E+03  0.00000000000E+00 0. -1.
         21   -1    0    0  504  503 -0.00000000000E+00 -0.00000000000E+00 -0.40748258051E+02  0.40748258051E+02  0.00000000000E+00 0. -1.
         25    2    1    2    0    0  0.95584894159E+01 -0.29607971397E+02  0.12120671072E+03  0.17687330147E+03  0.12500040543E+03 0.  0.
          5    1    3    3  501    0 -0.51629113071E+02 -0.39422499575E+02  0.77059504800E+02  0.10078628909E+03  0.10000000000E+00 0. -1.
         -5    1    3    3    0  501  0.61187602486E+02  0.98145281776E+01  0.44147205922E+02  0.76087012375E+02  0.10000000000E+00 0. -1.
         21    1    1    2  504  502 -0.95584894159E+01  0.29607971397E+02  0.58229290653E+01  0.31652854422E+02  0.00000000000E+00 0. -1.
<mgrwt>
<rscale>  1 0.12881420E+03</rscale>
<asrwt>0</asrwt>
<pdfrwt beam="1">  1       21 0.25811984E-01 0.12881420E+03</pdfrwt>
<pdfrwt beam="2">  1       21 0.62689629E-02 0.12881420E+03</pdfrwt>
<totfact> 0.25847944E+06</totfact>
</mgrwt>
</event>
<event>
 6    1  0.4202038E-002  0.2033298E+03  0.7546771E-02  0.1146960E+00
         21   -1    0    0  504  502  0.00000000000E+00  0.00000000000E+00  0.21741901023E+03  0.21741901023E+03  0.00000000000E+00 0. -1.
         21   -1    0    0  502  503 -0.00000000000E+00 -0.00000000000E+00 -0.19058738850E+03  0.19058738850E+03  0.00000000000E+00 0. -1.
         25    2    1    2    0    0 -0.71704670221E+02 -0.14344353421E+03  0.10584637055E+03  0.22923017612E+03  0.12500164897E+03 0.  0.
          5    1    3    3  501    0  0.57880473087E+01  0.14632458270E+02  0.36984325792E+02  0.40192793894E+02  0.10000000000E+00 0. -1.
         -5    1    3    3    0  501 -0.77492717530E+02 -0.15807599248E+03  0.68862044763E+02  0.18903738223E+03  0.10000000000E+00 0. -1.
         21    1    1    2  504  503  0.71704670221E+02  0.14344353421E+03 -0.79014748825E+02  0.17877622261E+03  0.00000000000E+00 0. -1.
<mgrwt>
<rscale>  1 0.20332983E+03</rscale>
<asrwt>0</asrwt>
<pdfrwt beam="1">  1       21 0.33449078E-01 0.20332983E+03</pdfrwt>
<pdfrwt beam="2">  1       21 0.29321137E-01 0.20332983E+03</pdfrwt>
<totfact> 0.95490858E+04</totfact>
</mgrwt>
</event>
<event>
 6    1  0.4202038E-002  0.1359582E+03  0.7546771E-02  0.1218873E+00
         21   -1    0    0  504  502  0.00000000000E+00  0.00000000000E+00  0.26366254999E+03  0.26366254999E+03  0.00000000000E+00 0.  1.
         21   -1    0    0  502  503 -0.00000000000E+00 -0.00000000000E+00 -0.67892325311E+02  0.67892325311E+02  0.00000000000E+00 0.  1.
         25    2    1    2    0    0  0.11469036552E+02 -0.52246759468E+02  0.23062014554E+03  0.26771304216E+03  0.12499343480E+03 0.  0.
          5    1    3    3  501    0 -0.68536043547E+01  0.32508451263E+02  0.13324645282E+03  0.13732588425E+03  0.10000000000E+00 0. -1.
         -5    1    3    3    0  501  0.18322640907E+02 -0.84755210731E+02  0.97373692720E+02  0.13038715792E+03  0.10000000000E+00 0. -1.
         21    1    1    2  504  503 -0.11469036552E+02  0.52246759468E+02 -0.34849920857E+02  0.63841833136E+02  0.00000000000E+00 0.  1.
<mgrwt>
<rscale>  1 0.13595816E+03</rscale>
<asrwt>0</asrwt>
<pdfrwt beam="1">  1       21 0.40563469E-01 0.13595816E+03</pdfrwt>
<pdfrwt beam="2">  1       21 0.10444973E-01 0.13595816E+03</pdfrwt>
<totfact> 0.44382047E+05</totfact>
</mgrwt>
</event>
<event>
 6    1  0.4202038E-002  0.1277335E+03  0.7546771E-02  0.1230858E+00
         21   -1    0    0  503  502  0.00000000000E+00  0.00000000000E+00  0.14318412028E+03  0.14318412028E+03  0.00000000000E+00 0.  1.
         21   -1    0    0  504  503 -0.00000000000E+00 -0.00000000000E+00 -0.59495412048E+02  0.59495412048E+02  0.00000000000E+00 0.  1.
         25    2    1    2    0    0  0.22646423781E+02  0.13342918225E+02  0.10770017295E+03  0.16707834674E+03  0.12499981087E+03 0.  0.
          5    1    3    3  501    0 -0.14203554811E+02 -0.16715479499E+02  0.11664522563E+03  0.11868979268E+03  0.10000000000E+00 0. -1.
         -5    1    3    3    0  501  0.36849978592E+02  0.30058397724E+02 -0.89450526793E+01  0.48388554054E+02  0.10000000000E+00 0. -1.
         21    1    1    2  504  502 -0.22646423781E+02 -0.13342918225E+02 -0.24011464726E+02  0.35601185586E+02  0.00000000000E+00 0.  1.
<mgrwt>
<rscale>  1 0.12773350E+03</rscale>
<asrwt>0</asrwt>
<pdfrwt beam="1">  1       21 0.22028326E-01 0.12773350E+03</pdfrwt>
<pdfrwt beam="2">  1       21 0.91531403E-02 0.12773350E+03</pdfrwt>
<totfact> 0.18166777E+06</totfact>
</mgrwt>
</event>
<event>
 6    1  0.4202038E-002  0.1320049E+03  0.7546771E-02  0.1224511E+00
         21   -1    0    0  503  502  0.00000000000E+00  0.00000000000E+00  0.10069652648E+03  0.10069652648E+03  0.00000000000E+00 0. -1.
         21   -1    0    0  504  503 -0.00000000000E+00 -0.00000000000E+00 -0.69465548875E+03  0.69465548875E+03  0.00000000000E+00 0.  1.
         25    2    1    2    0    0 -0.37644289593E+02 -0.19574652893E+02  0.56444377631E+02  0.14356618834E+03  0.12500009238E+03 0.  0.
          5    1    3    3  501    0 -0.27464063099E+02 -0.43572400140E+02 -0.25573626876E+02  0.57505210264E+02  0.10000000000E+00 0.  1.
         -5    1    3    3    0  501 -0.10180226495E+02  0.23997747247E+02  0.82018004507E+02  0.86060978078E+02  0.10000000000E+00 0.  1.
         21    1    1    2  504  502  0.37644289593E+02  0.19574652893E+02 -0.65040333991E+03  0.65178582689E+03  0.00000000000E+00 0.  1.
<mgrwt>
<rscale>  1 0.13200486E+03</rscale>
<asrwt>0</asrwt>
<pdfrwt beam="1">  1       21 0.15491773E-01 0.13200486E+03</pdfrwt>
<pdfrwt beam="2">  1       21 0.10687007E+00 0.13200486E+03</pdfrwt>
<totfact> 0.26913420E+04</totfact>
</mgrwt>
</event>
<event>
 6    1  0.4202038E-002  0.1270184E+03  0.7546771E-02  0.1231948E+00
         21   -1    0    0  503  502  0.00000000000E+00  0.00000000000E+00  0.10334121725E+02  0.10334121725E+02  0.00000000000E+00 0.  1.
         21   -1    0    0  504  503 -0.00000000000E+00 -0.00000000000E+00 -0.54282948980E+03  0.54282948980E+03  0.00000000000E+00 0.  1.
         25    2    1    2    0    0 -0.20089498570E+02  0.10645251159E+02 -0.44688630365E+03  0.46458697106E+03  0.12496709951E+03 0.  0.
          5    1    3    3  501    0  0.36911474789E+02 -0.15455652023E+02 -0.56716873351E+02  0.69412879736E+02  0.10000000000E+00 0.  1.
         -5    1    3    3    0  501 -0.57000973359E+02  0.26100903182E+02 -0.39016943030E+03  0.39517409132E+03  0.10000000000E+00 0.  1.
         21    1    1    2  504  502  0.20089498570E+02 -0.10645251159E+02 -0.85609064421E+02  0.88576640465E+02  0.00000000000E+00 0.  1.
<mgrwt>
<rscale>  1 0.12701844E+03</rscale>
<asrwt>0</asrwt>
<pdfrwt beam="1">  1       21 0.15898647E-02 0.12701844E+03</pdfrwt>
<pdfrwt beam="2">  1       21 0.83512237E-01 0.12701844E+03</pdfrwt>
<totfact> 0.22205191E+06</totfact>
</mgrwt>
</event>
<event>
 6    1  0.4202038E-002  0.1266623E+03  0.7546771E-02  0.1232494E+00
         21   -1    0    0  504  502  0.00000000000E+00  0.00000000000E+00  0.39026682308E+02  0.39026682308E+02  0.00000000000E+00 0.  1.
         21   -1    0    0  502  503 -0.00000000000E+00 -0.00000000000E+00 -0.21223070568E+03  0.21223070568E+03  0.00000000000E+00 0.  1.
         25    2    1    2    0    0  0.79157332804E+00 -0.20442145326E+02 -0.67370240709E+02  0.14346454293E+03  0.12499927140E+03 0.  0.
          5    1    3    3  501    0 -0.48569504931E+02  0.13598591800E+02  0.35879129810E+01  0.50564825994E+02  0.10000000000E+00 0. -1.
         -5    1    3    3    0  501  0.49361078259E+02 -0.34040737126E+02 -0.70958153690E+02  0.92899716933E+02  0.10000000000E+00 0. -1.
         21    1    1    2  504  503 -0.79157332804E+00  0.20442145326E+02 -0.10583378266E+03  0.10779284506E+03  0.00000000000E+00 0.  1.
<mgrwt>
<rscale>  1 0.12666225E+03</rscale>
<asrwt>0</asrwt>
<pdfrwt beam="1">  1       21 0.60041050E-02 0.12666225E+03</pdfrwt>
<pdfrwt beam="2">  1       21 0.32650878E-01 0.12666225E+03</pdfrwt>
<totfact> 0.17698131E+06</totfact>
</mgrwt>
</event>
<event>
 6    1  0.4202038E-002  0.1263346E+03  0.7546771E-02  0.1232998E+00
         21   -1    0    0  503  502  0.00000000000E+00  0.00000000000E+00  0.24022877580E+03  0.24022877580E+03  0.00000000000E+00 0.  1.
         21   -1    0    0  504  503 -0.00000000000E+00 -0.00000000000E+00 -0.69517265761E+02  0.69517265761E+02  0.00000000000E+00 0.  1.
         25    2    1    2    0    0  0.24389162939E+01  0.18159330669E+02  0.22191890178E+03  0.25535940192E+03  0.12499886230E+03 0.  0.
          5    1    3    3  501    0 -0.51070872101E+02  0.29746509378E+02  0.16970885595E+03  0.17970585573E+03  0.10000000000E+00 0.  1.
         -5    1    3    3    0  501  0.53509788395E+02 -0.11587178709E+02  0.52210045834E+02  0.75653546186E+02  0.10000000000E+00 0.  1.
         21    1    1    2  504  502 -0.24389162939E+01 -0.18159330669E+02 -0.51207391740E+02  0.54386639645E+02  0.00000000000E+00 0.  1.
<mgrwt>
<rscale>  1 0.12633458E+03</rscale>
<asrwt>0</asrwt>
<pdfrwt beam="1">  1       21 0.36958273E-01 0.12633458E+03</pdfrwt>
<pdfrwt beam="2">  1       21 0.10694964E-01 0.12633458E+03</pdfrwt>
<totfact> 0.51287744E+05</totfact>
</mgrwt>
</event>
<event>
 6    1  0.4202038E-002  0.1286483E+03  0.7546771E-02  0.1229475E+00
         21   -1    0    0  504  502  0.00000000000E+00  0.00000000000E+00  0.14221303085E+03  0.14221303085E+03  0.00000000000E+00 0. -1.
         21   -1    0    0  502  503 -0.00000000000E+00 -0.00000000000E+00 -0.11983488143E+04  0.11983488143E+04  0.00000000000E+00 0.  1.
         25    2    1    2    0    0  0.12270576170E+02  0.27801151805E+02  0.11288077340E+03  0.17115037724E+03  0.12500764595E+03 0.  0.
          5    1    3    3  501    0 -0.55622941941E+02  0.24075456318E+02  0.50999102431E+02  0.79211474647E+02  0.10000000000E+00 0. -1.
         -5    1    3    3    0  501  0.67893518111E+02  0.37256954876E+01  0.61881670970E+02  0.91938902595E+02  0.10000000000E+00 0. -1.
         21    1    1    2  504  503 -0.12270576170E+02 -0.27801151805E+02 -0.11690165568E+04  0.11694114679E+04  0.00000000000E+00 0.  1.
<mgrwt>
<rscale>  1 0.12864829E+03</rscale>
<asrwt>0</asrwt>
<pdfrwt beam="1">  1       21 0.21878927E-01 0.12864829E+03</pdfrwt>
<pdfrwt beam="2">  1       21 0.18436136E+00 0.12864829E+03</pdfrwt>
<totfact> 0.35558633E+03</totfact>
</mgrwt>
</event>
<event>
 6    1  0.4202038E-002  0.1451294E+03  0.7546771E-02  0.1206589E+00
         21   -1    0    0  504  502  0.00000000000E+00  0.00000000000E+00  0.21050722210E+03  0.21050722210E+03  0.00000000000E+00 0. -1.
         21   -1    0    0  502  503 -0.00000000000E+00 -0.00000000000E+00 -0.58566993417E+02  0.58566993417E+02  0.00000000000E+00 0. -1.
         25    2    1    2    0    0  0.28968834102E+02  0.67866668999E+02  0.12141159826E+03  0.18921762289E+03  0.12496981440E+03 0.  0.
          5    1    3    3  501    0  0.59423733585E+01  0.81936451140E+02  0.13574045351E+03  0.15866434554E+03  0.10000000000E+00 0. -1.
         -5    1    3    3    0  501  0.23026460744E+02 -0.14069782141E+02 -0.14328855254E+02  0.30553277349E+02  0.10000000000E+00 0. -1.
         21    1    1    2  504  503 -0.28968834102E+02 -0.67866668999E+02  0.30528630424E+02  0.79856592626E+02  0.00000000000E+00 0. -1.
<mgrwt>
<rscale>  1 0.14512937E+03</rscale>
<asrwt>0</asrwt>
<pdfrwt beam="1">  1       21 0.32385726E-01 0.14512937E+03</pdfrwt>
<pdfrwt beam="2">  1       21 0.90103068E-02 0.14512937E+03</pdfrwt>
<totfact> 0.89676675E+05</totfact>
</mgrwt>
</event>
<event>
 6    1  0.4202038E-002  0.1303542E+03  0.7546771E-02  0.1226931E+00
         21   -1    0    0  503  502  0.00000000000E+00  0.00000000000E+00  0.53650777390E+02  0.53650777390E+02  0.00000000000E+00 0.  1.
         21   -1    0    0  504  503 -0.00000000000E+00 -0.00000000000E+00 -0.16397989923E+03  0.16397989923E+03  0.00000000000E+00 0.  1.
         25    2    1    2    0    0 -0.60714179749E+01  0.36466582782E+02 -0.36989872293E+02  0.13550078377E+03  0.12500215187E+03 0.  0.
          5    1    3    3  501    0  0.41543580858E+02  0.61951520502E+02 -0.32321843884E+02  0.81293121450E+02  0.10000000000E+00 0. -1.
         -5    1    3    3    0  501 -0.47614998833E+02 -0.25484937720E+02 -0.46680284090E+01  0.54207662316E+02  0.10000000000E+00 0. -1.
         21    1    1    2  504  502  0.60714179749E+01 -0.36466582782E+02 -0.73339249550E+02  0.82129892856E+02  0.00000000000E+00 0.  1.
<mgrwt>
<rscale>  1 0.13035418E+03</rscale>
<asrwt>0</asrwt>
<pdfrwt beam="1">  1       21 0.82539660E-02 0.13035418E+03</pdfrwt>
<pdfrwt beam="2">  1       21 0.25227676E-01 0.13035418E+03</pdfrwt>
<totfact> 0.16853211E+06</totfact>
</mgrwt>
</event>
<event>
 6    1  0.4202038E-002  0.1266311E+03  0.7546771E-02  0.1232542E+00
         21   -1    0    0  503  502  0.00000000000E+00  0.00000000000E+00  0.22405315699E+02  0.22405315699E+02  0.00000000000E+00 0.  1.
         21   -1    0    0  504  503 -0.00000000000E+00 -0.00000000000E+00 -0.87861067753E+03  0.87861067753E+03  0.00000000000E+00 0.  1.
         25    2    1    2    0    0 -0.34607606122E+01  0.19975416113E+02 -0.15784858274E+03  0.20236501812E+03  0.12499772548E+03 0.  0.
          5    1    3    3  501    0 -0.22116903373E+02  0.22038753599E+02  0.10524409984E+02  0.32949010312E+02  0.10000000000E+00 0. -1.
         -5    1    3    3    0  501  0.18656142761E+02 -0.20633374856E+01 -0.16837299272E+03  0.16941600781E+03  0.10000000000E+00 0. -1.
         21    1    1    2  504  502  0.34607606122E+01 -0.19975416113E+02 -0.69835677910E+03  0.69865097511E+03  0.00000000000E+00 0.  1.
<mgrwt>
<rscale>  1 0.12663106E+03</rscale>
<asrwt>0</asrwt>
<pdfrwt beam="1">  1       21 0.34469716E-02 0.12663106E+03</pdfrwt>
<pdfrwt beam="2">  1       21 0.13517088E+00 0.12663106E+03</pdfrwt>
<totfact> 0.20163351E+05</totfact>
</mgrwt>
</event>
<event>
 6    1  0.4202038E-002  0.1401751E+03  0.7546771E-02  0.1213094E+00
         21   -1    0    0  504  502  0.00000000000E+00  0.00000000000E+00  0.98381827906E+01  0.98381827906E+01  0.00000000000E+00 0. -1.
         21   -1    0    0  502  503 -0.00000000000E+00 -0.00000000000E+00 -0.10566747218E+04  0.10566747218E+04  0.00000000000E+00 0. -1.
         25    2    1    2    0    0 -0.55855765983E+02 -0.30079118422E+02 -0.74706531683E+03  0.76010238649E+03  0.12499772146E+03 0.  0.
          5    1    3    3  501    0 -0.59331931595E+02 -0.49527234909E+02 -0.72975168355E+03  0.73383292019E+03  0.10000000000E+00 0. -1.
         -5    1    3    3    0  501  0.34761656126E+01  0.19448116487E+02 -0.17313633279E+02  0.26269466298E+02  0.10000000000E+00 0. -1.
         21    1    1    2  504  503  0.55855765983E+02  0.30079118422E+02 -0.29977122215E+03  0.30641051808E+03  0.00000000000E+00 0. -1.
<mgrwt>
<rscale>  1 0.14017507E+03</rscale>
<asrwt>0</asrwt>
<pdfrwt beam="1">  1       21 0.15135673E-02 0.14017507E+03</pdfrwt>
<pdfrwt beam="2">  1       21 0.16256526E+00 0.14017507E+03</pdfrwt>
<totfact> 0.47365450E+05</totfact>
</mgrwt>
</event>
<event>
 6    1  0.4202038E-002  0.1279771E+03  0.7546771E-02  0.1230489E+00
         21   -1    0    0  504  502  0.00000000000E+00  0.00000000000E+00  0.50131227765E+02  0.50131227765E+02  0.00000000000E+00 0.  1.
         21   -1    0    0  502  503 -0.00000000000E+00 -0.00000000000E+00 -0.12874169650E+03  0.12874169650E+03  0.00000000000E+00 0.  1.
         25    2    1    2    0    0 -0.12096728354E+02  0.24625614818E+02 -0.80799168728E+02  0.15134944066E+03  0.12500158311E+03 0.  0.
          5    1    3    3  501    0  0.56284327565E+02  0.18768619132E+02 -0.38595783545E+02  0.70780160363E+02  0.10000000000E+00 0. -1.
         -5    1    3    3    0  501 -0.68381055919E+02  0.58569956862E+01 -0.42203385184E+02  0.80569280300E+02  0.10000000000E+00 0. -1.
         21    1    1    2  504  503  0.12096728354E+02 -0.24625614818E+02  0.21886999910E+01  0.27523483604E+02  0.00000000000E+00 0.  1.
<mgrwt>
<rscale>  1 0.12797714E+03</rscale>
<asrwt>0</asrwt>
<pdfrwt beam="1">  1       21 0.77124967E-02 0.12797714E+03</pdfrwt>
<pdfrwt beam="2">  1       21 0.19806415E-01 0.12797714E+03</pdfrwt>
<totfact> 0.29758257E+06</totfact>
</mgrwt>
</event>
<event>
 6    1  0.4202038E-002  0.1270059E+03  0.7546771E-02  0.1231967E+00
         21   -1    0    0  503  502  0.00000000000E+00  0.00000000000E+00  0.63906192153E+03  0.63906192153E+03  0.00000000000E+00 0.  1.
         21   -1    0    0  504  503 -0.00000000000E+00 -0.00000000000E+00 -0.17237628913E+03  0.17237628913E+03  0.00000000000E+00 0.  1.
         25    2    1    2    0    0 -0.70281893600E+01 -0.21368157370E+02  0.63198240037E+03  0.64461790285E+03  0.12499797081E+03 0.  0.
          5    1    3    3  501    0 -0.17680871479E+02  0.39884895163E+02  0.10116133953E+03  0.11016825629E+03  0.10000000000E+00 0. -1.
         -5    1    3    3    0  501  0.10652682119E+02 -0.61253052533E+02  0.53082106084E+03  0.53444964656E+03  0.10000000000E+00 0. -1.
         21    1    1    2  504  502  0.70281893600E+01  0.21368157370E+02 -0.16529676797E+03  0.16682030781E+03  0.00000000000E+00 0.  1.
<mgrwt>
<rscale>  1 0.12700585E+03</rscale>
<asrwt>0</asrwt>
<pdfrwt beam="1">  1       21 0.98317218E-01 0.12700585E+03</pdfrwt>
<pdfrwt beam="2">  1       21 0.26519429E-01 0.12700585E+03</pdfrwt>
<totfact> 0.12152604E+04</totfact>
</mgrwt>
</event>
<event>
 6    1  0.4202038E-002  0.1661288E+03  0.7546771E-02  0.1181946E+00
         21   -1    0    0  504  502  0.00000000000E+00  0.00000000000E+00  0.29823456135E+03  0.29823456135E+03  0.00000000000E+00 0.  1.
         21   -1    0    0  502  503 -0.00000000000E+00 -0.00000000000E+00 -0.13090632907E+03  0.13090632907E+03  0.00000000000E+00 0. -1.
         25    2    1    2    0    0  0.29952046480E+02 -0.10523685781E+03 -0.60176861337E+02  0.17669190755E+03  0.12500741667E+03 0.  0.
          5    1    3    3  501    0 -0.18633828788E+02 -0.74396439817E+01 -0.64355590402E+02  0.67410829203E+02  0.10000000000E+00 0.  1.
         -5    1    3    3    0  501  0.48585875268E+02 -0.97797213824E+02  0.41787290655E+01  0.10928107834E+03  0.10000000000E+00 0.  1.
         21    1    1    2  504  503 -0.29952046480E+02  0.10523685781E+03  0.22750509362E+03  0.25244898287E+03  0.00000000000E+00 0.  1.
<mgrwt>
<rscale>  1 0.16612879E+03</rscale>
<asrwt>0</asrwt>
<pdfrwt beam="1">  1       21 0.45882240E-01 0.16612879E+03</pdfrwt>
<pdfrwt beam="2">  1       21 0.20139435E-01 0.16612879E+03</pdfrwt>
<totfact> 0.10480648E+05</totfact>
</mgrwt>
</event>
<event>
 6    1  0.4202038E-002  0.1275599E+03  0.7546771E-02  0.1231122E+00
         21   -1    0    0  503  502  0.00000000000E+00  0.00000000000E+00  0.98779350534E+03  0.98779350534E+03  0.00000000000E+00 0. -1.
         21   -1    0    0  504  503 -0.00000000000E+00 -0.00000000000E+00 -0.46700335007E+02  0.46700335007E+02  0.00000000000E+00 0.  1.
         25    2    1    2    0    0  0.21368918597E+02  0.13746812813E+02  0.97986772151E+03  0.98813576270E+03  0.12500371323E+03 0.  0.
          5    1    3    3  501    0 -0.17546374721E+02  0.60762602774E+02  0.38686995139E+03  0.39200553370E+03  0.10000000000E+00 0.  1.
         -5    1    3    3    0  501  0.38915293319E+02 -0.47015789962E+02  0.59299777012E+03  0.59613022900E+03  0.10000000000E+00 0.  1.
         21    1    1    2  504  502 -0.21368918597E+02 -0.13746812813E+02 -0.38774551176E+02  0.46358077650E+02  0.00000000000E+00 0.  1.
<mgrwt>
<rscale>  1 0.12755992E+03</rscale>
<asrwt>0</asrwt>
<pdfrwt beam="1">  1       21 0.15196822E+00 0.12755992E+03</pdfrwt>
<pdfrwt beam="2">  1       21 0.71846677E-02 0.12755992E+03</pdfrwt>
<totfact> 0.43516000E+04</totfact>
</mgrwt>
</event>
<event>
 6    1  0.4202038E-002  0.1260240E+03  0.7546771E-02  0.1233478E+00
         21   -1    0    0  503  502  0.00000000000E+00  0.00000000000E+00  0.22947854434E+03  0.22947854434E+03  0.00000000000E+00 0.  1.
         21   -1    0    0  504  503 -0.00000000000E+00 -0.00000000000E+00 -0.22688039930E+02  0.22688039930E+02  0.00000000000E+00 0.  1.
         25    2    1    2    0    0 -0.92626896566E+01  0.13090942823E+02  0.19532886017E+03  0.23245517913E+03  0.12499950595E+03 0.  0.
          5    1    3    3  501    0  0.10856359966E+02  0.28067583786E+02 -0.50480360606E+01  0.30514627302E+02  0.10000000000E+00 0.  1.
         -5    1    3    3    0  501 -0.20119049623E+02 -0.14976640963E+02  0.20037689623E+03  0.20194055183E+03  0.10000000000E+00 0.  1.
         21    1    1    2  504  502  0.92626896566E+01 -0.13090942823E+02  0.11461644242E+02  0.19711405135E+02  0.00000000000E+00 0.  1.
<mgrwt>
<rscale>  1 0.12602399E+03</rscale>
<asrwt>0</asrwt>
<pdfrwt beam="1">  1       21 0.35304390E-01 0.12602399E+03</pdfrwt>
<pdfrwt beam="2">  1       21 0.34904678E-02 0.12602399E+03</pdfrwt>
<totfact> 0.37605446E+06</totfact>
</mgrwt>
</event>
<event>
 6    1  0.4202038E-002  0.1351594E+03  0.7546771E-02  0.1219995E+00
         21   -1    0    0  504  502  0.00000000000E+00  0.00000000000E+00  0.22614071779E+04  0.22614071779E+04  0.00000000000E+00 0. -1.
         21   -1    0    0  502  503 -0.00000000000E+00 -0.00000000000E+00 -0.41607043632E+01  0.41607043632E+01  0.00000000000E+00 0.  1.
         25    2    1    2    0    0 -0.35640304696E+02 -0.36999651043E+02  0.13165536427E+04  0.13234732971E+04  0.12501547267E+03 0.  0.
          5    1    3    3  501    0  0.44505515499E+02  0.39014757227E+01  0.38467239317E+03  0.38725808253E+03  0.10000000000E+00 0.  1.
         -5    1    3    3    0  501 -0.80145820194E+02 -0.40901126766E+02  0.93188124956E+03  0.93621521455E+03  0.10000000000E+00 0.  1.
         21    1    1    2  504  503  0.35640304696E+02  0.36999651043E+02  0.94069283080E+03  0.94209458517E+03  0.00000000000E+00 0. -1.
<mgrwt>
<rscale>  1 0.13515944E+03</rscale>
<asrwt>0</asrwt>
<pdfrwt beam="1">  1       21 0.34790781E+00 0.13515944E+03</pdfrwt>
<pdfrwt beam="2">  1       21 0.64011017E-03 0.13515944E+03</pdfrwt>
<totfact> 0.14471160E+05</totfact>
</mgrwt>
</event>
<event>
 6    1  0.4202038E-002  0.1259582E+03  0.7546771E-02  0.1233579E+00
         21   -1    0    0  503  502  0.00000000000E+00  0.00000000000E+00  0.91141180237E+02  0.91141180237E+02  0.00000000000E+00 0.  1.
         21   -1    0    0  504  503 -0.00000000000E+00 -0.00000000000E+00 -0.87956612218E+02  0.87956612218E+02  0.00000000000E+00 0.  1.
         25    2    1    2    0    0 -0.90612077242E+01  0.12600203971E+02  0.45579550191E+02  0.13395130711E+03  0.12499834661E+03 0.  0.
          5    1    3    3  501    0 -0.20093901602E+02 -0.35590412187E+02 -0.24902131060E+02  0.47859883542E+02  0.10000000000E+00 0.  1.
         -5    1    3    3    0  501  0.11032693878E+02  0.48190616159E+02  0.70481681252E+02  0.86091423569E+02  0.10000000000E+00 0.  1.
         21    1    1    2  504  502  0.90612077242E+01 -0.12600203971E+02 -0.42394982173E+02  0.45146485345E+02  0.00000000000E+00 0.  1.
<mgrwt>
<rscale>  1 0.12595816E+03</rscale>
<asrwt>0</asrwt>
<pdfrwt beam="1">  1       21 0.14021720E-01 0.12595816E+03</pdfrwt>
<pdfrwt beam="2">  1       21 0.13531786E-01 0.12595816E+03</pdfrwt>
<totfact> 0.20815942E+06</totfact>
</mgrwt>
</event>
<event>
 6    1  0.4202038E-002  0.1260624E+03  0.7546771E-02  0.1233418E+00
         21   -1    0    0  504  502  0.00000000000E+00  0.00000000000E+00  0.29745571026E+03  0.29745571026E+03  0.00000000000E+00 0. -1.
         21   -1    0    0  502  503 -0.00000000000E+00 -0.00000000000E+00 -0.52356724974E+02  0.52356724974E+02  0.00000000000E+00 0.  1.
         25    2    1    2    0    0  0.75636238225E+00 -0.16292737687E+02  0.28231350455E+03  0.30918060253E+03  0.12500281894E+03 0.  0.
          5    1    3    3  501    0  0.38848447985E+02 -0.63428267572E+01  0.26188339014E+03  0.26482513739E+03  0.10000000000E+00 0. -1.
         -5    1    3    3    0  501 -0.38092085602E+02 -0.99499109293E+01  0.20430114417E+02  0.44355465144E+02  0.10000000000E+00 0. -1.
         21    1    1    2  504  503 -0.75636238225E+00  0.16292737687E+02 -0.37214519262E+02  0.40631832709E+02  0.00000000000E+00 0.  1.
<mgrwt>
<rscale>  1 0.12606241E+03</rscale>
<asrwt>0</asrwt>
<pdfrwt beam="1">  1       21 0.45762416E-01 0.12606241E+03</pdfrwt>
<pdfrwt beam="2">  1       21 0.80548809E-02 0.12606241E+03</pdfrwt>
<totfact> 0.54715065E+05</totfact>
</mgrwt>
</event>
<event>
 6    1  0.4202038E-002  0.1326672E+03  0.7546771E-02  0.1223551E+00
         21   -1    0    0  503  502  0.00000000000E+00  0.00000000000E+00  0.12505604269E+03  0.12505604269E+03  0.00000000000E+00 0. -1.
         21   -1    0    0  504  503 -0.00000000000E+00 -0.00000000000E+00 -0.77544668742E+02  0.77544668742E+02  0.00000000000E+00 0. -1.
         25    2    1    2    0    0 -0.13077787853E+02 -0.42481122227E+02  0.72936063952E+02  0.15139437255E+03  0.12499964933E+03 0.  0.
          5    1    3    3  501    0 -0.56886095121E+02  0.43238477382E+01  0.65491104029E+02  0.86855156348E+02  0.10000000000E+00 0.  1.
         -5    1    3    3    0  501  0.43808307268E+02 -0.46804969965E+02  0.74449599234E+01  0.64539216198E+02  0.10000000000E+00 0.  1.
         21    1    1    2  504  502  0.13077787853E+02  0.42481122227E+02 -0.25424690002E+02  0.51206338889E+02  0.00000000000E+00 0. -1.
<mgrwt>
<rscale>  1 0.13266720E+03</rscale>
<asrwt>0</asrwt>
<pdfrwt beam="1">  1       21 0.19239391E-01 0.13266720E+03</pdfrwt>
<pdfrwt beam="2">  1       21 0.11929949E-01 0.13266720E+03</pdfrwt>
<totfact> 0.14680076E+06</totfact>
</mgrwt>
</event>
<event>
 6    1  0.4202038E-002  0.1265600E+03  0.7546771E-02  0.1232651E+00
         21   -1    0    0  504  502  0.00000000000E+00  0.00000000000E+00  0.62945325358E+01  0.62945325358E+01  0.00000000000E+00 0. -1.
         21   -1    0    0  502  503 -0.00000000000E+00 -0.00000000000E+00 -0.94804575968E+03  0.94804575968E+03  0.00000000000E+00 0. -1.
         25    2    1    2    0    0  0.19789346122E+02 -0.45355499632E+00 -0.66860917164E+03  0.68048192295E+03  0.12500239649E+03 0.  0.
          5    1    3    3  501    0  0.68154752298E+02 -0.24356139603E+02 -0.36241555767E+03  0.36957183096E+03  0.10000000000E+00 0. -1.
         -5    1    3    3    0  501 -0.48365406176E+02  0.23902584607E+02 -0.30619361397E+03  0.31091009199E+03  0.10000000000E+00 0. -1.
         21    1    1    2  504  503 -0.19789346122E+02  0.45355499632E+00 -0.27314205550E+03  0.27385836927E+03  0.00000000000E+00 0. -1.
<mgrwt>
<rscale>  1 0.12655996E+03</rscale>
<asrwt>0</asrwt>
<pdfrwt beam="1">  1       21 0.96838956E-03 0.12655996E+03</pdfrwt>
<pdfrwt beam="2">  1       21 0.14585320E+00 0.12655996E+03</pdfrwt>
<totfact> 0.12813242E+06</totfact>
</mgrwt>
</event>
<event>
 6    1  0.4202038E-002  0.1268084E+03  0.7546771E-02  0.1232270E+00
         21   -1    0    0  503  502  0.00000000000E+00  0.00000000000E+00  0.31344033251E+03  0.31344033251E+03  0.00000000000E+00 0. -1.
         21   -1    0    0  504  503 -0.00000000000E+00 -0.00000000000E+00 -0.63099927367E+02  0.63099927367E+02  0.00000000000E+00 0. -1.
         25    2    1    2    0    0  0.11177097169E+02  0.18172763395E+02  0.29825347672E+03  0.32409181606E+03  0.12500076812E+03 0.  0.
          5    1    3    3  501    0 -0.41162207532E+02 -0.18779205115E+02  0.48819027775E+02  0.66560448816E+02  0.10000000000E+00 0.  1.
         -5    1    3    3    0  501  0.52339304701E+02  0.36951968510E+02  0.24943444894E+03  0.25753136724E+03  0.10000000000E+00 0.  1.
         21    1    1    2  504  502 -0.11177097169E+02 -0.18172763395E+02 -0.47913071580E+02  0.52448443816E+02  0.00000000000E+00 0. -1.
<mgrwt>
<rscale>  1 0.12680839E+03</rscale>
<asrwt>0</asrwt>
<pdfrwt beam="1">  1       21 0.48221589E-01 0.12680839E+03</pdfrwt>
<pdfrwt beam="2">  1       21 0.97076813E-02 0.12680839E+03</pdfrwt>
<totfact> 0.35567367E+05</totfact>
</mgrwt>
</event>
<event>
 6    1  0.4202038E-002  0.1265752E+03  0.7546771E-02  0.1232628E+00
         21   -1    0    0  504  502  0.00000000000E+00  0.00000000000E+00  0.22309136006E+03  0.22309136006E+03  0.00000000000E+00 0. -1.
         21   -1    0    0  502  503 -0.00000000000E+00 -0.00000000000E+00 -0.37209047042E+02  0.37209047042E+02  0.00000000000E+00 0. -1.
         25    2    1    2    0    0 -0.27248567808E+01 -0.19748537858E+02  0.19942316751E+03  0.23620093963E+03  0.12499541812E+03 0.  0.
          5    1    3    3  501    0 -0.12556407664E+02 -0.31634311966E+02 -0.20888832316E+01  0.34099362167E+02  0.10000000000E+00 0. -1.
         -5    1    3    3    0  501  0.98315508835E+01  0.11885774108E+02  0.20151205074E+03  0.20210157746E+03  0.10000000000E+00 0. -1.
         21    1    1    2  504  503  0.27248567808E+01  0.19748537858E+02 -0.13540854493E+02  0.24099467471E+02  0.00000000000E+00 0. -1.
<mgrwt>
<rscale>  1 0.12657521E+03</rscale>
<asrwt>0</asrwt>
<pdfrwt beam="1">  1       21 0.34321747E-01 0.12657521E+03</pdfrwt>
<pdfrwt beam="2">  1       21 0.57244689E-02 0.12657521E+03</pdfrwt>
<totfact> 0.17404131E+06</totfact>
</mgrwt>
</event>
<event>
 6    1  0.4202038E-002  0.1329074E+03  0.7546771E-02  0.1223204E+00
         21   -1    0    0  503  502  0.00000000000E+00  0.00000000000E+00  0.54987325625E+03  0.54987325625E+03  0.00000000000E+00 0.  1.
         21   -1    0    0  504  503 -0.00000000000E+00 -0.00000000000E+00 -0.23922467981E+02  0.23922467981E+02  0.00000000000E+00 0.  1.
         25    2    1    2    0    0 -0.44260721789E+02 -0.89692699158E+01  0.50816689366E+03  0.52525990031E+03  0.12499964706E+03 0.  0.
          5    1    3    3  501    0  0.24218520596E+02  0.39455946499E+02  0.13284195849E+03  0.14067801673E+03  0.10000000000E+00 0.  1.
         -5    1    3    3    0  501 -0.68479242385E+02 -0.48425216415E+02  0.37532493517E+03  0.38458188359E+03  0.10000000000E+00 0.  1.
         21    1    1    2  504  502  0.44260721789E+02  0.89692699158E+01  0.17783894608E+02  0.48535823920E+02  0.00000000000E+00 0.  1.
<mgrwt>
<rscale>  1 0.13290738E+03</rscale>
<asrwt>0</asrwt>
<pdfrwt beam="1">  1       21 0.84595876E-01 0.13290738E+03</pdfrwt>
<pdfrwt beam="2">  1       21 0.36803801E-02 0.13290738E+03</pdfrwt>
<totfact> 0.55080445E+05</totfact>
</mgrwt>
</event>
<event>
 6    1  0.4202038E-002  0.1279060E+03  0.7546771E-02  0.1230596E+00
         21   -1    0    0  503  502  0.00000000000E+00  0.00000000000E+00  0.16762139191E+02  0.16762139191E+02  0.00000000000E+00 0.  1.
         21   -1    0    0  504  503 -0.00000000000E+00 -0.00000000000E+00 -0.97426898500E+03  0.97426898500E+03  0.00000000000E+00 0.  1.
         25    2    1    2    0    0  0.48232932402E+01 -0.26677590323E+02 -0.23122980106E+03  0.26424827924E+03  0.12499989680E+03 0.  0.
          5    1    3    3  501    0  0.37655886391E+02 -0.66317712826E+02 -0.13128329441E+03  0.15182660573E+03  0.10000000000E+00 0. -1.
         -5    1    3    3    0  501 -0.32832593151E+02  0.39640122503E+02 -0.99946506648E+02  0.11242167352E+03  0.10000000000E+00 0. -1.
         21    1    1    2  504  502 -0.48232932402E+01  0.26677590323E+02 -0.72627704475E+03  0.72678284495E+03  0.00000000000E+00 0.  1.
<mgrwt>
<rscale>  1 0.12790595E+03</rscale>
<asrwt>0</asrwt>
<pdfrwt beam="1">  1       21 0.25787905E-02 0.12790595E+03</pdfrwt>
<pdfrwt beam="2">  1       21 0.14988755E+00 0.12790595E+03</pdfrwt>
<totfact> 0.24910167E+05</totfact>
</mgrwt>
</event>
<event>
 6    1  0.4202038E-002  0.1607441E+03  0.7546771E-02  0.1187859E+00
         21   -1    0    0  503  502  0.00000000000E+00  0.00000000000E+00  0.67377894248E+03  0.67377894248E+03  0.00000000000E+00 0. -1.
         21   -1    0    0  504  503 -0.00000000000E+00 -0.00000000000E+00 -0.37932849423E+02  0.37932849423E+02  0.00000000000E+00 0. -1.
         25    2    1    2    0    0  0.11683431265E+02 -0.10038264829E+03  0.56721109418E+03  0.58954820602E+03  0.12500193288E+03 0.  0.
          5    1    3    3  501    0 -0.21334105775E+02  0.23935418889E+02  0.11932868810E+03  0.12356129714E+03  0.10000000000E+00 0.  1.
         -5    1    3    3    0  501  0.33017537040E+02 -0.12431806718E+03  0.44788240608E+03  0.46598690888E+03  0.10000000000E+00 0.  1.
         21    1    1    2  504  502 -0.11683431265E+02  0.10038264829E+03  0.68634998881E+02  0.12216358588E+03  0.00000000000E+00 0. -1.
<mgrwt>
<rscale>  1 0.16074409E+03</rscale>
<asrwt>0</asrwt>
<pdfrwt beam="1">  1       21 0.10365829E+00 0.16074409E+03</pdfrwt>
<pdfrwt beam="2">  1       21 0.58358235E-02 0.16074409E+03</pdfrwt>
<totfact> 0.15765911E+05</totfact>
</mgrwt>
</event>
<event>
 6    1  0.4202038E-002  0.1261849E+03  0.7546771E-02  0.1233229E+00
         21   -1    0    0  503  502  0.00000000000E+00  0.00000000000E+00  0.83931352996E+02  0.83931352996E+02  0.00000000000E+00 0.  1.
         21   -1    0    0  504  503 -0.00000000000E+00 -0.00000000000E+00 -0.96804428408E+02  0.96804428408E+02  0.00000000000E+00 0.  1.
         25    2    1    2    0    0  0.61454925920E+01  0.16035919783E+02  0.34108866744E+02  0.13071357942E+03  0.12501082854E+03 0.  0.
          5    1    3    3  501    0 -0.16156549353E+02 -0.51912504403E+02  0.10270457923E+02  0.55330231396E+02  0.10000000000E+00 0.  1.
         -5    1    3    3    0  501  0.22302041945E+02  0.67948424186E+02  0.23838408821E+02  0.75383348025E+02  0.10000000000E+00 0.  1.
         21    1    1    2  504  502 -0.61454925920E+01 -0.16035919783E+02 -0.46981942156E+02  0.50022201983E+02  0.00000000000E+00 0.  1.
<mgrwt>
<rscale>  1 0.12618488E+03</rscale>
<asrwt>0</asrwt>
<pdfrwt beam="1">  1       21 0.12912516E-01 0.12618488E+03</pdfrwt>
<pdfrwt beam="2">  1       21 0.14892989E-01 0.12618488E+03</pdfrwt>
<totfact> 0.20308784E+06</totfact>
</mgrwt>
</event>
<event>
 6    1  0.4202038E-002  0.1269335E+03  0.7546771E-02  0.1232078E+00
         21   -1    0    0  504  502  0.00000000000E+00  0.00000000000E+00  0.29416202191E+02  0.29416202191E+02  0.00000000000E+00 0.  1.
         21   -1    0    0  502  503 -0.00000000000E+00 -0.00000000000E+00 -0.29084893089E+03  0.29084893089E+03  0.00000000000E+00 0.  1.
         25    2    1    2    0    0  0.21034445539E+02 -0.63357806485E+01 -0.11216766898E+03  0.16939217968E+03  0.12501813691E+03 0.  0.
          5    1    3    3  501    0 -0.31013098851E+02 -0.88940442337E+01  0.12243481654E+02  0.34508392692E+02  0.10000000000E+00 0.  1.
         -5    1    3    3    0  501  0.52047544391E+02  0.25582635852E+01 -0.12441115064E+03  0.13488378699E+03  0.10000000000E+00 0.  1.
         21    1    1    2  504  503 -0.21034445539E+02  0.63357806485E+01 -0.14926505971E+03  0.15087295340E+03  0.00000000000E+00 0. -1.
<mgrwt>
<rscale>  1 0.12693354E+03</rscale>
<asrwt>0</asrwt>
<pdfrwt beam="1">  1       21 0.45255696E-02 0.12693354E+03</pdfrwt>
<pdfrwt beam="2">  1       21 0.44745989E-01 0.12693354E+03</pdfrwt>
<totfact> 0.15227364E+06</totfact>
</mgrwt>
</event>
<event>
 6    1  0.4202038E-002  0.1264776E+03  0.7546771E-02  0.1232778E+00
         21   -1    0    0  503  502  0.00000000000E+00  0.00000000000E+00  0.19898178025E+02  0.19898178025E+02  0.00000000000E+00 0. -1.
         21   -1    0    0  504  503 -0.00000000000E+00 -0.00000000000E+00 -0.26688800716E+03  0.26688800716E+03  0.00000000000E+00 0. -1.
         25    2    1    2    0    0 -0.76418681517E+01  0.17668393741E+02 -0.21274206033E+03  0.24749903774E+03  0.12500407659E+03 0.  0.
          5    1    3    3  501    0  0.41070061244E+02  0.46604249900E+02 -0.68201850446E+02  0.92250791019E+02  0.10000000000E+00 0.  1.
         -5    1    3    3    0  501 -0.48711929396E+02 -0.28935856159E+02 -0.14454020988E+03  0.15524824672E+03  0.10000000000E+00 0.  1.
         21    1    1    2  504  502  0.76418681517E+01 -0.17668393741E+02 -0.34247768809E+02  0.39287147448E+02  0.00000000000E+00 0. -1.
<mgrwt>
<rscale>  1 0.12647762E+03</rscale>
<asrwt>0</asrwt>
<pdfrwt beam="1">  1       21 0.30612585E-02 0.12647762E+03</pdfrwt>
<pdfrwt beam="2">  1       21 0.41059689E-01 0.12647762E+03</pdfrwt>
<totfact> 0.34586656E+06</totfact>
</mgrwt>
</event>
<event>
 6    1  0.4202038E-002  0.1278817E+03  0.7546771E-02  0.1230633E+00
         21   -1    0    0  503  502  0.00000000000E+00  0.00000000000E+00  0.16554668842E+03  0.16554668842E+03  0.00000000000E+00 0.  1.
         21   -1    0    0  504  503 -0.00000000000E+00 -0.00000000000E+00 -0.11364670661E+03  0.11364670661E+03  0.00000000000E+00 0.  1.
         25    2    1    2    0    0  0.95471463089E+00 -0.26991614915E+02  0.13848196872E+03  0.18849665191E+03  0.12499709343E+03 0.  0.
          5    1    3    3  501    0  0.17234681721E+02 -0.51009745192E+02  0.75277529367E+01  0.54366399759E+02  0.10000000000E+00 0.  1.
         -5    1    3    3    0  501 -0.16279967090E+02  0.24018130276E+02  0.13095421579E+03  0.13413025215E+03  0.10000000000E+00 0.  1.
         21    1    1    2  504  502 -0.95471463089E+00  0.26991614915E+02 -0.86581986908E+02  0.90696743120E+02  0.00000000000E+00 0.  1.
<mgrwt>
<rscale>  1 0.12788171E+03</rscale>
<asrwt>0</asrwt>
<pdfrwt beam="1">  1       21 0.25468721E-01 0.12788171E+03</pdfrwt>
<pdfrwt beam="2">  1       21 0.17484109E-01 0.12788171E+03</pdfrwt>
<totfact> 0.43717808E+05</totfact>
</mgrwt>
</event>
<event>
 6    1  0.4202038E-002  0.1277959E+03  0.7546771E-02  0.1230763E+00
         21   -1    0    0  504  502  0.00000000000E+00  0.00000000000E+00  0.43578548742E+03  0.43578548742E+03  0.00000000000E+00 0. -1.
         21   -1    0    0  502  503 -0.00000000000E+00 -0.00000000000E+00 -0.18667640459E+02  0.18667640459E+02  0.00000000000E+00 0. -1.
         25    2    1    2    0    0  0.26588784932E+02 -0.61531805207E+00  0.40598035995E+03  0.42561936785E+03  0.12499780608E+03 0.  0.
          5    1    3    3  501    0  0.10188648428E+02  0.10298407678E+02 -0.41078757209E+01  0.15058233643E+02  0.10000000000E+00 0. -1.
         -5    1    3    3    0  501  0.16400136504E+02 -0.10913725730E+02  0.41008823567E+03  0.41056113421E+03  0.10000000000E+00 0. -1.
         21    1    1    2  504  503 -0.26588784932E+02  0.61531805207E+00  0.11137487012E+02  0.28833760029E+02  0.00000000000E+00 0. -1.
<mgrwt>
<rscale>  1 0.12779591E+03</rscale>
<asrwt>0</asrwt>
<pdfrwt beam="1">  1       21 0.67043913E-01 0.12779591E+03</pdfrwt>
<pdfrwt beam="2">  1       21 0.28719450E-02 0.12779591E+03</pdfrwt>
<totfact> 0.13854103E+06</totfact>
</mgrwt>
</event>
<event>
 6    1  0.4202038E-002  0.1447782E+03  0.7546771E-02  0.1207040E+00
         21   -1    0    0  504  502  0.00000000000E+00  0.00000000000E+00  0.11367587856E+03  0.11367587856E+03  0.00000000000E+00 0. -1.
         21   -1    0    0  502  503 -0.00000000000E+00 -0.00000000000E+00 -0.15275901969E+03  0.15275901969E+03  0.00000000000E+00 0. -1.
         25    2    1    2    0    0 -0.72757569693E+02  0.65534989613E+01  0.48222341821E+02  0.15259791107E+03  0.12499646362E+03 0.  0.
          5    1    3    3  501    0  0.32689981046E+01  0.11811234921E+02  0.71790072735E+02  0.72828676785E+02  0.10000000000E+00 0.  1.
         -5    1    3    3    0  501 -0.76026567797E+02 -0.52577359599E+01 -0.23567730914E+02  0.79769234288E+02  0.10000000000E+00 0.  1.
         21    1    1    2  504  503  0.72757569693E+02 -0.65534989613E+01 -0.87305482952E+02  0.11383698718E+03  0.00000000000E+00 0. -1.
<mgrwt>
<rscale>  1 0.14477820E+03</rscale>
<asrwt>0</asrwt>
<pdfrwt beam="1">  1       21 0.17488597E-01 0.14477820E+03</pdfrwt>
<pdfrwt beam="2">  1       21 0.23501388E-01 0.14477820E+03</pdfrwt>
<totfact> 0.50780842E+05</totfact>
</mgrwt>
</event>
<event>
 6    1  0.4202038E-002  0.1284770E+03  0.7546771E-02  0.1229733E+00
         21   -1    0    0  504  502  0.00000000000E+00  0.00000000000E+00  0.15510975361E+03  0.15510975361E+03  0.00000000000E+00 0. -1.
         21   -1    0    0  502  503 -0.00000000000E+00 -0.00000000000E+00 -0.95736782015E+02  0.95736782015E+02  0.00000000000E+00 0. -1.
         25    2    1    2    0    0  0.25812759134E+02 -0.14841089812E+02  0.12470673028E+03  0.17904781345E+03  0.12497917604E+03 0.  0.
          5    1    3    3  501    0 -0.21813978271E+02  0.41732454216E+02  0.20721043564E+02  0.51447245109E+02  0.10000000000E+00 0. -1.
         -5    1    3    3    0  501  0.47626737405E+02 -0.56573544028E+02  0.10398568672E+03  0.12760056835E+03  0.10000000000E+00 0. -1.
         21    1    1    2  504  503 -0.25812759134E+02  0.14841089812E+02 -0.65333758688E+02  0.71798722170E+02  0.00000000000E+00 0. -1.
<mgrwt>
<rscale>  1 0.12847704E+03</rscale>
<asrwt>0</asrwt>
<pdfrwt beam="1">  1       21 0.23863039E-01 0.12847704E+03</pdfrwt>
<pdfrwt beam="2">  1       21 0.14728736E-01 0.12847704E+03</pdfrwt>
<totfact> 0.67451489E+05</totfact>
</mgrwt>
</event>
<event>
 6    1  0.4202038E-002  0.1294146E+03  0.7546771E-02  0.1228327E+00
         21   -1    0    0  503  502  0.00000000000E+00  0.00000000000E+00  0.69797993506E+02  0.69797993506E+02  0.00000000000E+00 0. -1.
         21   -1    0    0  504  503 -0.00000000000E+00 -0.00000000000E+00 -0.16565968321E+04  0.16565968321E+04  0.00000000000E+00 0. -1.
         25    2    1    2    0    0 -0.33294789257E+02 -0.39025874009E+01  0.94824616826E+01  0.12976156690E+03  0.12499749592E+03 0.  0.
          5    1    3    3  501    0 -0.13302350304E+02 -0.11358042936E+02 -0.57165228113E+02  0.59781526981E+02  0.10000000000E+00 0. -1.
         -5    1    3    3    0  501 -0.19992438953E+02  0.74554555348E+01  0.66647689796E+02  0.69980039923E+02  0.10000000000E+00 0. -1.
         21    1    1    2  504  502  0.33294789257E+02  0.39025874009E+01 -0.15962813003E+04  0.15966332587E+04  0.00000000000E+00 0. -1.
<mgrwt>
<rscale>  1 0.12941463E+03</rscale>
<asrwt>0</asrwt>
<pdfrwt beam="1">  1       21 0.10738153E-01 0.12941463E+03</pdfrwt>
<pdfrwt beam="2">  1       21 0.25486104E+00 0.12941463E+03</pdfrwt>
<totfact> 0.48140221E+03</totfact>
</mgrwt>
</event>
<event>
 6    1  0.4202038E-002  0.1273413E+03  0.7546771E-02  0.1231455E+00
         21   -1    0    0  503  502  0.00000000000E+00  0.00000000000E+00  0.17309897460E+02  0.17309897460E+02  0.00000000000E+00 0.  1.
         21   -1    0    0  504  503 -0.00000000000E+00 -0.00000000000E+00 -0.34656618940E+03  0.34656618940E+03  0.00000000000E+00 0.  1.
         25    2    1    2    0    0  0.72056548463E+01  0.23187910557E+02 -0.24401443971E+03  0.27524328239E+03  0.12500486812E+03 0.  0.
          5    1    3    3  501    0 -0.13493538941E+01  0.21369400667E+02 -0.25792449721E+03  0.25881176230E+03  0.10000000000E+00 0. -1.
         -5    1    3    3    0  501  0.85550087404E+01  0.18185098899E+01  0.13910057500E+02  0.16431520089E+02  0.10000000000E+00 0. -1.
         21    1    1    2  504  502 -0.72056548463E+01 -0.23187910557E+02 -0.85241852229E+02  0.88632804476E+02  0.00000000000E+00 0.  1.
<mgrwt>
<rscale>  1 0.12734134E+03</rscale>
<asrwt>0</asrwt>
<pdfrwt beam="1">  1       21 0.26630610E-02 0.12734134E+03</pdfrwt>
<pdfrwt beam="2">  1       21 0.53317877E-01 0.12734134E+03</pdfrwt>
<totfact> 0.25482281E+06</totfact>
</mgrwt>
</event>
<event>
 6    1  0.4202038E-002  0.1259685E+03  0.7546771E-02  0.1233563E+00
         21   -1    0    0  503  502  0.00000000000E+00  0.00000000000E+00  0.42549817969E+02  0.42549817969E+02  0.00000000000E+00 0.  1.
         21   -1    0    0  504  503 -0.00000000000E+00 -0.00000000000E+00 -0.28414668082E+03  0.28414668082E+03  0.00000000000E+00 0. -1.
         25    2    1    2    0    0  0.89028912179E+01  0.12796969153E+02 -0.51707003089E+02  0.13616780612E+03  0.12500013345E+03 0.  0.
          5    1    3    3  501    0  0.41580644808E+02  0.32469027655E+02 -0.74834992035E+02  0.91561311766E+02  0.10000000000E+00 0.  1.
         -5    1    3    3    0  501 -0.32677753590E+02 -0.19672058502E+02  0.23127988946E+02  0.44606494349E+02  0.10000000000E+00 0.  1.
         21    1    1    2  504  502 -0.89028912179E+01 -0.12796969153E+02 -0.18988985977E+03  0.19052869268E+03  0.00000000000E+00 0. -1.
<mgrwt>
<rscale>  1 0.12596848E+03</rscale>
<asrwt>0</asrwt>
<pdfrwt beam="1">  1       21 0.65461258E-02 0.12596848E+03</pdfrwt>
<pdfrwt beam="2">  1       21 0.43714874E-01 0.12596848E+03</pdfrwt>
<totfact> 0.85658375E+05</totfact>
</mgrwt>
</event>
<event>
 6    1  0.4202038E-002  0.1920400E+03  0.7546771E-02  0.1156634E+00
         21   -1    0    0  504  502  0.00000000000E+00  0.00000000000E+00  0.23561440396E+03  0.23561440396E+03  0.00000000000E+00 0. -1.
         21   -1    0    0  502  503 -0.00000000000E+00 -0.00000000000E+00 -0.14493954653E+03  0.14493954653E+03  0.00000000000E+00 0. -1.
         25    2    1    2    0    0  0.14578544330E+03 -0.12701390450E+01  0.12708853705E+03  0.23028431019E+03  0.12499743412E+03 0.  0.
          5    1    3    3  501    0  0.56980947183E+02  0.55115086182E+02  0.23585201090E+02  0.82708964310E+02  0.10000000000E+00 0. -1.
         -5    1    3    3    0  501  0.88804496121E+02 -0.56385225227E+02  0.10350333596E+03  0.14757534588E+03  0.10000000000E+00 0. -1.
         21    1    1    2  504  503 -0.14578544330E+03  0.12701390450E+01 -0.36413679625E+02  0.15026964030E+03  0.00000000000E+00 0. -1.
<mgrwt>
<rscale>  1 0.19204001E+03</rscale>
<asrwt>0</asrwt>
<pdfrwt beam="1">  1       21 0.36248370E-01 0.19204001E+03</pdfrwt>
<pdfrwt beam="2">  1       21 0.22298392E-01 0.19204001E+03</pdfrwt>
<totfact> 0.13815585E+05</totfact>
</mgrwt>
</event>
<event>
 6    1  0.4202038E-002  0.1362213E+03  0.7546771E-02  0.1218506E+00
         21   -1    0    0  503  502  0.00000000000E+00  0.00000000000E+00  0.23030054139E+03  0.23030054139E+03  0.00000000000E+00 0.  1.
         21   -1    0    0  504  503 -0.00000000000E+00 -0.00000000000E+00 -0.25163983404E+03  0.25163983404E+03  0.00000000000E+00 0. -1.
         25    2    1    2    0    0  0.38223319296E+02 -0.38354467137E+02  0.20670556991E+03  0.24755490953E+03  0.12499661321E+03 0.  0.
          5    1    3    3  501    0 -0.32289332995E+02  0.19480326830E+02  0.28152128154E+02  0.47059924334E+02  0.10000000000E+00 0.  1.
         -5    1    3    3    0  501  0.70512652291E+02 -0.57834793967E+02  0.17855344175E+03  0.20049498520E+03  0.10000000000E+00 0.  1.
         21    1    1    2  504  502 -0.38223319296E+02  0.38354467137E+02 -0.22804486256E+03  0.23438546590E+03  0.00000000000E+00 0. -1.
<mgrwt>
<rscale>  1 0.13622129E+03</rscale>
<asrwt>0</asrwt>
<pdfrwt beam="1">  1       21 0.35430853E-01 0.13622129E+03</pdfrwt>
<pdfrwt beam="2">  1       21 0.38713820E-01 0.13622129E+03</pdfrwt>
<totfact> 0.50800585E+04</totfact>
</mgrwt>
</event>
<event>
 6    1  0.4202038E-002  0.1673956E+03  0.7546771E-02  0.1180591E+00
         21   -1    0    0  504  502  0.00000000000E+00  0.00000000000E+00  0.78110163603E+02  0.78110163603E+02  0.00000000000E+00 0.  1.
         21   -1    0    0  502  503 -0.00000000000E+00 -0.00000000000E+00 -0.38083446030E+03  0.38083446030E+03  0.00000000000E+00 0.  1.
         25    2    1    2    0    0  0.11134261390E+03  0.47442499431E+00 -0.37852873578E+02  0.17162202901E+03  0.12499551214E+03 0.  0.
          5    1    3    3  501    0  0.78243814731E+01  0.65090561960E+01  0.40433120949E+02  0.41694556332E+02  0.10000000000E+00 0. -1.
         -5    1    3    3    0  501  0.10351823242E+03 -0.60346312017E+01 -0.78285994528E+02  0.12992747268E+03  0.10000000000E+00 0. -1.
         21    1    1    2  504  503 -0.11134261390E+03 -0.47442499431E+00 -0.26487142311E+03  0.28732259489E+03  0.00000000000E+00 0.  1.
<mgrwt>
<rscale>  1 0.16739558E+03</rscale>
<asrwt>0</asrwt>
<pdfrwt beam="1">  1       21 0.12016948E-01 0.16739558E+03</pdfrwt>
<pdfrwt beam="2">  1       21 0.58589916E-01 0.16739558E+03</pdfrwt>
<totfact> 0.16093557E+05</totfact>
</mgrwt>
</event>
<event>
 6    1  0.4202038E-002  0.1275435E+03  0.7546771E-02  0.1231147E+00
         21   -1    0    0  503  502  0.00000000000E+00  0.00000000000E+00  0.47944735133E+03  0.47944735133E+03  0.00000000000E+00 0. -1.
         21   -1    0    0  504  503 -0.00000000000E+00 -0.00000000000E+00 -0.52081410991E+02  0.52081410991E+02  0.00000000000E+00 0. -1.
         25    2    1    2    0    0 -0.24735063104E+02  0.56723185325E+01  0.46720075367E+03  0.48429730144E+03  0.12499333345E+03 0.  0.
          5    1    3    3  501    0 -0.80322256354E+01 -0.46341982798E+02  0.76544213234E+02  0.89839426745E+02  0.10000000000E+00 0. -1.
         -5    1    3    3    0  501 -0.16702837468E+02  0.52014301330E+02  0.39065654044E+03  0.39445787469E+03  0.10000000000E+00 0. -1.
         21    1    1    2  504  502  0.24735063104E+02 -0.56723185325E+01 -0.39834813329E+02  0.47231460884E+02  0.00000000000E+00 0. -1.
<mgrwt>
<rscale>  1 0.12754345E+03</rscale>
<asrwt>0</asrwt>
<pdfrwt beam="1">  1       21 0.73761128E-01 0.12754345E+03</pdfrwt>
<pdfrwt beam="2">  1       21 0.80125251E-02 0.12754345E+03</pdfrwt>
<totfact> 0.20128389E+05</totfact>
</mgrwt>
</event>
<event>
 6    1  0.4202038E-002  0.1943906E+03  0.7546771E-02  0.1154560E+00
         21   -1    0    0  503  502  0.00000000000E+00  0.00000000000E+00  0.73623092704E+03  0.73623092704E+03  0.00000000000E+00 0.  1.
         21   -1    0    0  504  503 -0.00000000000E+00 -0.00000000000E+00 -0.63716571040E+02  0.63716571040E+02  0.00000000000E+00 0.  1.
         25    2    1    2    0    0  0.14821516713E+03  0.13993397777E+02  0.60686973489E+03  0.63724295841E+03  0.12499664786E+03 0.  0.
          5    1    3    3  501    0  0.10001822998E+03  0.68247450319E+02  0.40570146237E+03  0.42338522338E+03  0.10000000000E+00 0. -1.
         -5    1    3    3    0  501  0.48196937143E+02 -0.54254052542E+02  0.20116827251E+03  0.21385773503E+03  0.10000000000E+00 0. -1.
         21    1    1    2  504  502 -0.14821516713E+03 -0.13993397777E+02  0.65644621112E+02  0.16270453967E+03  0.00000000000E+00 0.  1.
<mgrwt>
<rscale>  1 0.19439062E+03</rscale>
<asrwt>0</asrwt>
<pdfrwt beam="1">  1       21 0.11326629E+00 0.19439062E+03</pdfrwt>
<pdfrwt beam="2">  1       21 0.98025499E-02 0.19439062E+03</pdfrwt>
<totfact> 0.51089418E+04</totfact>
</mgrwt>
</event>
<event>
 6    1  0.4202038E-002  0.1327290E+03  0.7546771E-02  0.1223462E+00
         21   -1    0    0  503  502  0.00000000000E+00  0.00000000000E+00  0.46577103008E+03  0.46577103008E+03  0.00000000000E+00 0.  1.
         21   -1    0    0  504  503 -0.00000000000E+00 -0.00000000000E+00 -0.26973397946E+02  0.26973397946E+02  0.00000000000E+00 0.  1.
         25    2    1    2    0    0  0.41811171568E+01 -0.44410535437E+02  0.42620503390E+03  0.44639412135E+03  0.12500881270E+03 0.  0.
          5    1    3    3  501    0 -0.26104695412E+02 -0.72864691347E+02  0.16935007562E+03  0.18619929237E+03  0.10000000000E+00 0.  1.
         -5    1    3    3    0  501  0.30285812569E+02  0.28454155910E+02  0.25685495828E+03  0.26019482898E+03  0.10000000000E+00 0.  1.
         21    1    1    2  504  502 -0.41811171568E+01  0.44410535437E+02  0.12592598227E+02  0.46350306672E+02  0.00000000000E+00 0.  1.
<mgrwt>
<rscale>  1 0.13272897E+03</rscale>
<asrwt>0</asrwt>
<pdfrwt beam="1">  1       21 0.71657076E-01 0.13272897E+03</pdfrwt>
<pdfrwt beam="2">  1       21 0.41497539E-02 0.13272897E+03</pdfrwt>
<totfact> 0.65291528E+05</totfact>
</mgrwt>
</event>
<event>
 6    1  0.4202038E-002  0.1268368E+03  0.7546771E-02  0.1232226E+00
         21   -1    0    0  503  502  0.00000000000E+00  0.00000000000E+00  0.52153606695E+02  0.52153606695E+02  0.00000000000E+00 0.  1.
         21   -1    0    0  504  503 -0.00000000000E+00 -0.00000000000E+00 -0.16994630596E+03  0.16994630596E+03  0.00000000000E+00 0. -1.
         25    2    1    2    0    0 -0.20952035951E+02  0.48291758882E+01 -0.28161143231E+02  0.12992548786E+03  0.12500109462E+03 0.  0.
          5    1    3    3  501    0 -0.35030425422E+02  0.60175299111E+02 -0.18023812038E+02  0.71924023308E+02  0.10000000000E+00 0. -1.
         -5    1    3    3    0  501  0.14078389471E+02 -0.55346123223E+02 -0.10137331193E+02  0.58001464547E+02  0.10000000000E+00 0. -1.
         21    1    1    2  504  502  0.20952035951E+02 -0.48291758882E+01 -0.89631556032E+02  0.92174424799E+02  0.00000000000E+00 0. -1.
<mgrwt>
<rscale>  1 0.12683683E+03</rscale>
<asrwt>0</asrwt>
<pdfrwt beam="1">  1       21 0.80236319E-02 0.12683683E+03</pdfrwt>
<pdfrwt beam="2">  1       21 0.26145585E-01 0.12683683E+03</pdfrwt>
<totfact> 0.16527548E+06</totfact>
</mgrwt>
</event>
<event>
 6    1  0.4202038E-002  0.1273347E+03  0.7546771E-02  0.1231465E+00
         21   -1    0    0  503  502  0.00000000000E+00  0.00000000000E+00  0.94033392424E+02  0.94033392424E+02  0.00000000000E+00 0. -1.
         21   -1    0    0  504  503 -0.00000000000E+00 -0.00000000000E+00 -0.36596638527E+03  0.36596638527E+03  0.00000000000E+00 0. -1.
         25    2    1    2    0    0  0.24149095782E+02 -0.27602037320E+01  0.50257362616E+02  0.13689387756E+03  0.12499333448E+03 0.  0.
          5    1    3    3  501    0  0.16391199629E+02 -0.25560795024E+02  0.87456908169E+02  0.92578326049E+02  0.10000000000E+00 0. -1.
         -5    1    3    3    0  501  0.77578961538E+01  0.22800591292E+02 -0.37199545553E+02  0.44315551507E+02  0.10000000000E+00 0. -1.
         21    1    1    2  504  502 -0.24149095782E+02  0.27602037320E+01 -0.32219035546E+03  0.32310590014E+03  0.00000000000E+00 0. -1.
<mgrwt>
<rscale>  1 0.12733472E+03</rscale>
<asrwt>0</asrwt>
<pdfrwt beam="1">  1       21 0.14466676E-01 0.12733472E+03</pdfrwt>
<pdfrwt beam="2">  1       21 0.56302521E-01 0.12733472E+03</pdfrwt>
<totfact> 0.12726827E+05</totfact>
</mgrwt>
</event>
<event>
 6    1  0.4202038E-002  0.1286612E+03  0.7546771E-02  0.1229456E+00
         21   -1    0    0  504  502  0.00000000000E+00  0.00000000000E+00  0.39691660913E+03  0.39691660913E+03  0.00000000000E+00 0. -1.
         21   -1    0    0  502  503 -0.00000000000E+00 -0.00000000000E+00 -0.56162728711E+02  0.56162728711E+02  0.00000000000E+00 0. -1.
         25    2    1    2    0    0 -0.10596771484E+01 -0.30455013145E+02  0.38126360359E+03  0.40238744092E+03  0.12500034578E+03 0.  0.
          5    1    3    3  501    0 -0.43827307463E+02  0.21796358976E+02  0.81131291984E+02  0.94753420430E+02  0.10000000000E+00 0. -1.
         -5    1    3    3    0  501  0.42767630315E+02 -0.52251372121E+02  0.30013231161E+03  0.30763402049E+03  0.10000000000E+00 0. -1.
         21    1    1    2  504  503  0.10596771484E+01  0.30455013145E+02 -0.40509723176E+02  0.50691896918E+02  0.00000000000E+00 0. -1.
<mgrwt>
<rscale>  1 0.12866125E+03</rscale>
<asrwt>0</asrwt>
<pdfrwt beam="1">  1       21 0.61064092E-01 0.12866125E+03</pdfrwt>
<pdfrwt beam="2">  1       21 0.86404200E-02 0.12866125E+03</pdfrwt>
<totfact> 0.26584749E+05</totfact>
</mgrwt>
</event>
<event>
 6    1  0.4202038E-002  0.1312754E+03  0.7546771E-02  0.1225575E+00
         21   -1    0    0  504  502  0.00000000000E+00  0.00000000000E+00  0.27242516415E+03  0.27242516415E+03  0.00000000000E+00 0.  1.
         21   -1    0    0  502  503 -0.00000000000E+00 -0.00000000000E+00 -0.27194822413E+02  0.27194822413E+02  0.00000000000E+00 0.  1.
         25    2    1    2    0    0  0.14604178947E+02  0.37371300672E+02  0.17543237831E+03  0.21911127986E+03  0.12499334960E+03 0.  0.
          5    1    3    3  501    0 -0.30645247910E+02 -0.11843415264E+02  0.13928966182E+03  0.14311190584E+03  0.10000000000E+00 0.  1.
         -5    1    3    3    0  501  0.45249426857E+02  0.49214715936E+02  0.36142716493E+02  0.75999374017E+02  0.10000000000E+00 0.  1.
         21    1    1    2  504  503 -0.14604178947E+02 -0.37371300672E+02  0.69797963423E+02  0.80508706701E+02  0.00000000000E+00 0.  1.
<mgrwt>
<rscale>  1 0.13127541E+03</rscale>
<asrwt>0</asrwt>
<pdfrwt beam="1">  1       21 0.41911562E-01 0.13127541E+03</pdfrwt>
<pdfrwt beam="2">  1       21 0.41838190E-02 0.13127541E+03</pdfrwt>
<totfact> 0.19827492E+06</totfact>
</mgrwt>
</event>
<event>
 6    1  0.4202038E-002  0.1263740E+03  0.7546771E-02  0.1232937E+00
         21   -1    0    0  504  502  0.00000000000E+00  0.00000000000E+00  0.21313770904E+03  0.21313770904E+03  0.00000000000E+00 0.  1.
         21   -1    0    0  502  503 -0.00000000000E+00 -0.00000000000E+00 -0.62833286121E+02  0.62833286121E+02  0.00000000000E+00 0.  1.
         25    2    1    2    0    0  0.96645303370E+01 -0.15831763882E+02  0.19227346982E+03  0.23008582554E+03  0.12500540798E+03 0.  0.
          5    1    3    3  501    0 -0.53488112305E+02  0.26922133551E+01  0.12492011141E+03  0.13591640962E+03  0.10000000000E+00 0. -1.
         -5    1    3    3    0  501  0.63152642642E+02 -0.18523977237E+02  0.67353358409E+02  0.94169415917E+02  0.10000000000E+00 0. -1.
         21    1    1    2  504  503 -0.96645303370E+01  0.15831763882E+02 -0.41969046894E+02  0.45885169624E+02  0.00000000000E+00 0.  1.
<mgrwt>
<rscale>  1 0.12637405E+03</rscale>
<asrwt>0</asrwt>
<pdfrwt beam="1">  1       21 0.32790416E-01 0.12637405E+03</pdfrwt>
<pdfrwt beam="2">  1       21 0.96666595E-02 0.12637405E+03</pdfrwt>
<totfact> 0.77413683E+05</totfact>
</mgrwt>
</event>
<event>
 6    1  0.4202038E-002  0.1837547E+03  0.7546771E-02  0.1164218E+00
         21   -1    0    0  503  502  0.00000000000E+00  0.00000000000E+00  0.21493199541E+03  0.21493199541E+03  0.00000000000E+00 0. -1.
         21   -1    0    0  504  503 -0.00000000000E+00 -0.00000000000E+00 -0.41210696101E+03  0.41210696101E+03  0.00000000000E+00 0.  1.
         25    2    1    2    0    0 -0.11237567685E+03 -0.74237901528E+02  0.16104384840E+03  0.24433766628E+03  0.12500486104E+03 0.  0.
          5    1    3    3  501    0 -0.82592211387E+01 -0.42131992310E+02 -0.75588029681E+01  0.43594323164E+02  0.10000000000E+00 0.  1.
         -5    1    3    3    0  501 -0.10411645571E+03 -0.32105909218E+02  0.16860265137E+03  0.20074334312E+03  0.10000000000E+00 0.  1.
         21    1    1    2  504  502  0.11237567685E+03  0.74237901528E+02 -0.35821881400E+03  0.38270129014E+03  0.00000000000E+00 0.  1.
<mgrwt>
<rscale>  1 0.18375466E+03</rscale>
<asrwt>0</asrwt>
<pdfrwt beam="1">  1       21 0.33066461E-01 0.18375466E+03</pdfrwt>
<pdfrwt beam="2">  1       21 0.63401070E-01 0.18375466E+03</pdfrwt>
<totfact> 0.20365561E+04</totfact>
</mgrwt>
</event>
<event>
 6    1  0.4202038E-002  0.1260245E+03  0.7546771E-02  0.1233477E+00
         21   -1    0    0  503  502  0.00000000000E+00  0.00000000000E+00  0.32891274463E+03  0.32891274463E+03  0.00000000000E+00 0. -1.
         21   -1    0    0  504  503 -0.00000000000E+00 -0.00000000000E+00 -0.24645694511E+02  0.24645694511E+02  0.00000000000E+00 0. -1.
         25    2    1    2    0    0 -0.15800253775E+02 -0.27642680882E+01  0.31145169356E+03  0.33598265186E+03  0.12499958291E+03 0.  0.
          5    1    3    3  501    0 -0.70112966741E+02 -0.10480993968E+02  0.16451000968E+03  0.17913467734E+03  0.10000000000E+00 0. -1.
         -5    1    3    3    0  501  0.54312712966E+02  0.77167258795E+01  0.14694168388E+03  0.15684797452E+03  0.10000000000E+00 0. -1.
         21    1    1    2  504  502  0.15800253775E+02  0.27642680882E+01 -0.71846434418E+01  0.17575787288E+02  0.00000000000E+00 0. -1.
<mgrwt>
<rscale>  1 0.12602454E+03</rscale>
<asrwt>0</asrwt>
<pdfrwt beam="1">  1       21 0.50601957E-01 0.12602454E+03</pdfrwt>
<pdfrwt beam="2">  1       21 0.37916456E-02 0.12602454E+03</pdfrwt>
<totfact> 0.15886620E+06</totfact>
</mgrwt>
</event>
<event>
 6    1  0.4202038E-002  0.1271814E+03  0.7546771E-02  0.1231699E+00
         21   -1    0    0  504  502  0.00000000000E+00  0.00000000000E+00  0.63195709793E+02  0.63195709793E+02  0.00000000000E+00 0.  1.
         21   -1    0    0  502  503 -0.00000000000E+00 -0.00000000000E+00 -0.91370903872E+02  0.91370903872E+02  0.00000000000E+00 0.  1.
         25    2    1    2    0    0 -0.23236596139E+02  0.33951291908E+01 -0.16208683208E+02  0.12821014037E+03  0.12499460940E+03 0.  0.
          5    1    3    3  501    0  0.76736528363E+01  0.61056886378E+02 -0.40907301518E+01  0.61673109174E+02  0.10000000000E+00 0. -1.
         -5    1    3    3    0  501 -0.30910248975E+02 -0.57661757187E+02 -0.12117953056E+02  0.66537031192E+02  0.10000000000E+00 0. -1.
         21    1    1    2  504  503  0.23236596139E+02 -0.33951291908E+01 -0.11966510871E+02  0.26356473299E+02  0.00000000000E+00 0.  1.
<mgrwt>
<rscale>  1 0.12718144E+03</rscale>
<asrwt>0</asrwt>
<pdfrwt beam="1">  1       21 0.97224169E-02 0.12718144E+03</pdfrwt>
<pdfrwt beam="2">  1       21 0.14057062E-01 0.12718144E+03</pdfrwt>
<totfact> 0.37159330E+06</totfact>
</mgrwt>
</event>
<event>
 6    1  0.4202038E-002  0.1336255E+03  0.7546771E-02  0.1222173E+00
         21   -1    0    0  504  502  0.00000000000E+00  0.00000000000E+00  0.26208735778E+03  0.26208735778E+03  0.00000000000E+00 0. -1.
         21   -1    0    0  502  503 -0.00000000000E+00 -0.00000000000E+00 -0.85840153266E+02  0.85840153266E+02  0.00000000000E+00 0. -1.
         25    2    1    2    0    0 -0.46831869877E+02 -0.61701178776E+01  0.23633483894E+03  0.27149572314E+03  0.12499790877E+03 0.  0.
          5    1    3    3  501    0 -0.14970685035E+02  0.41492983285E+01  0.23747779319E+03  0.23798539944E+03  0.10000000000E+00 0. -1.
         -5    1    3    3    0  501 -0.31861184842E+02 -0.10319416206E+02 -0.11429542504E+01  0.33510323705E+02  0.10000000000E+00 0. -1.
         21    1    1    2  504  503  0.46831869877E+02  0.61701178776E+01 -0.60087634428E+02  0.76431787902E+02  0.00000000000E+00 0. -1.
<mgrwt>
<rscale>  1 0.13362549E+03</rscale>
<asrwt>0</asrwt>
<pdfrwt beam="1">  1       21 0.40321132E-01 0.13362549E+03</pdfrwt>
<pdfrwt beam="2">  1       21 0.13206178E-01 0.13362549E+03</pdfrwt>
<totfact> 0.29660055E+05</totfact>
</mgrwt>
</event>
<event>
 6    1  0.4202038E-002  0.1650778E+03  0.7546771E-02  0.1183080E+00
         21   -1    0    0  503  502  0.00000000000E+00  0.00000000000E+00  0.25920764867E+03  0.25920764867E+03  0.00000000000E+00 0. -1.
         21   -1    0    0  504  503 -0.00000000000E+00 -0.00000000000E+00 -0.19747339012E+03  0.19747339012E+03  0.00000000000E+00 0. -1.
         25    2    1    2    0    0  0.10701054082E+03 -0.13261854837E+02  0.21389414374E+03  0.27018770566E+03  0.12499423557E+03 0.  0.
          5    1    3    3  501    0  0.74151906154E+02 -0.58813941071E+02  0.76295970059E+02  0.12156755282E+03  0.10000000000E+00 0. -1.
         -5    1    3    3    0  501  0.32858634670E+02  0.45552086234E+02  0.13759817368E+03  0.14862015285E+03  0.10000000000E+00 0. -1.
         21    1    1    2  504  502 -0.10701054082E+03  0.13261854837E+02 -0.15215988519E+03  0.18649333313E+03  0.00000000000E+00 0. -1.
<mgrwt>
<rscale>  1 0.16507783E+03</rscale>
<asrwt>0</asrwt>
<pdfrwt beam="1">  1       21 0.39878100E-01 0.16507783E+03</pdfrwt>
<pdfrwt beam="2">  1       21 0.30380522E-01 0.16507783E+03</pdfrwt>
<totfact> 0.63807984E+04</totfact>
</mgrwt>
</event>
<event>
 6    1  0.4202038E-002  0.1772117E+03  0.7546771E-02  0.1170529E+00
         21   -1    0    0  503  502  0.00000000000E+00  0.00000000000E+00  0.29541748305E+03  0.29541748305E+03  0.00000000000E+00 0. -1.
         21   -1    0    0  504  503 -0.00000000000E+00 -0.00000000000E+00 -0.77917452827E+02  0.77917452827E+02  0.00000000000E+00 0. -1.
         25    2    1    2    0    0 -0.81087827107E+02 -0.95938792772E+02  0.13883100905E+03  0.22511785672E+03  0.12499805068E+03 0.  0.
          5    1    3    3  501    0 -0.49392091393E+02  0.22614364897E+02  0.38082700062E+02  0.66342220613E+02  0.10000000000E+00 0.  1.
         -5    1    3    3    0  501 -0.31695735715E+02 -0.11855315767E+03  0.10074830899E+03  0.15877563610E+03  0.10000000000E+00 0.  1.
         21    1    1    2  504  502  0.81087827107E+02  0.95938792772E+02  0.78669021179E+02  0.14821707917E+03  0.00000000000E+00 0. -1.
<mgrwt>
<rscale>  1 0.17721174E+03</rscale>
<asrwt>0</asrwt>
<pdfrwt beam="1">  1       21 0.45448843E-01 0.17721174E+03</pdfrwt>
<pdfrwt beam="2">  1       21 0.11987301E-01 0.17721174E+03</pdfrwt>
<totfact> 0.27401648E+05</totfact>
</mgrwt>
</event>
<event>
 6    1  0.4202038E-002  0.1382843E+03  0.7546771E-02  0.1215656E+00
         21   -1    0    0  503  502  0.00000000000E+00  0.00000000000E+00  0.64720435513E+03  0.64720435513E+03  0.00000000000E+00 0. -1.
         21   -1    0    0  504  503 -0.00000000000E+00 -0.00000000000E+00 -0.15044617363E+02  0.15044617363E+02  0.00000000000E+00 0. -1.
         25    2    1    2    0    0 -0.58574360018E+02  0.76028663142E+01  0.44426350508E+03  0.46528767303E+03  0.12503518505E+03 0.  0.
          5    1    3    3  501    0 -0.95482011266E+02 -0.11234347048E+02  0.33112817571E+03  0.34480270268E+03  0.10000000000E+00 0.  1.
         -5    1    3    3    0  501  0.36907651249E+02  0.18837213362E+02  0.11313532937E+03  0.12048497035E+03  0.10000000000E+00 0.  1.
         21    1    1    2  504  502  0.58574360018E+02 -0.76028663142E+01  0.18789623268E+03  0.19696129945E+03  0.00000000000E+00 0. -1.
<mgrwt>
<rscale>  1 0.13828433E+03</rscale>
<asrwt>0</asrwt>
<pdfrwt beam="1">  1       21 0.99569879E-01 0.13828433E+03</pdfrwt>
<pdfrwt beam="2">  1       21 0.23145570E-02 0.13828433E+03</pdfrwt>
<totfact> 0.80979811E+05</totfact>
</mgrwt>
</event>
<event>
 6    1  0.4202038E-002  0.1260569E+03  0.7546771E-02  0.1233427E+00
         21   -1    0    0  503  502  0.00000000000E+00  0.00000000000E+00  0.78266294605E+02  0.78266294605E+02  0.00000000000E+00 0.  1.
         21   -1    0    0  504  503 -0.00000000000E+00 -0.00000000000E+00 -0.92346695861E+02  0.92346695861E+02  0.00000000000E+00 0.  1.
         25    2    1    2    0    0 -0.53131217983E+01 -0.15434155832E+02  0.24774793259E+02  0.12846837550E+03  0.12499556270E+03 0.  0.
          5    1    3    3  501    0 -0.30318127773E+02  0.19372376973E+02  0.62012043829E+02  0.71693663884E+02  0.10000000000E+00 0. -1.
         -5    1    3    3    0  501  0.25005005975E+02 -0.34806532805E+02 -0.37237250570E+02  0.56774711621E+02  0.10000000000E+00 0. -1.
         21    1    1    2  504  502  0.53131217983E+01  0.15434155832E+02 -0.38855194515E+02  0.42144614962E+02  0.00000000000E+00 0.  1.
<mgrwt>
<rscale>  1 0.12605686E+03</rscale>
<asrwt>0</asrwt>
<pdfrwt beam="1">  1       21 0.12040968E-01 0.12605686E+03</pdfrwt>
<pdfrwt beam="2">  1       21 0.14207184E-01 0.12605686E+03</pdfrwt>
<totfact> 0.25023578E+06</totfact>
</mgrwt>
</event>
<event>
 6    1  0.4202038E-002  0.1259510E+03  0.7546771E-02  0.1233590E+00
         21   -1    0    0  504  502  0.00000000000E+00  0.00000000000E+00  0.24314157866E+02  0.24314157866E+02  0.00000000000E+00 0. -1.
         21   -1    0    0  502  503 -0.00000000000E+00 -0.00000000000E+00 -0.21550239243E+03  0.21550239243E+03  0.00000000000E+00 0. -1.
         25    2    1    2    0    0 -0.12521305184E+02  0.90799575275E+01 -0.15027375380E+03  0.19607614051E+03  0.12499769231E+03 0.  0.
          5    1    3    3  501    0 -0.25513561929E+02 -0.53497787574E+02 -0.52000339965E+02  0.78847957958E+02  0.10000000000E+00 0.  1.
         -5    1    3    3    0  501  0.12992256745E+02  0.62577745102E+02 -0.98273413837E+02  0.11722818255E+03  0.10000000000E+00 0.  1.
         21    1    1    2  504  503  0.12521305184E+02 -0.90799575275E+01 -0.40914480765E+02  0.43740409789E+02  0.00000000000E+00 0. -1.
<mgrwt>
<rscale>  1 0.12595099E+03</rscale>
<asrwt>0</asrwt>
<pdfrwt beam="1">  1       21 0.37406399E-02 0.12595099E+03</pdfrwt>
<pdfrwt beam="2">  1       21 0.33154212E-01 0.12595099E+03</pdfrwt>
<totfact> 0.37930438E+06</totfact>
</mgrwt>
</event>
<event>
 6    1  0.4202038E-002  0.1321230E+03  0.7546771E-02  0.1224339E+00
         21   -1    0    0  503  502  0.00000000000E+00  0.00000000000E+00  0.14559097712E+04  0.14559097712E+04  0.00000000000E+00 0. -1.
         21   -1    0    0  504  503 -0.00000000000E+00 -0.00000000000E+00 -0.72576361329E+01  0.72576361329E+01  0.00000000000E+00 0. -1.
         25    2    1    2    0    0  0.80437015639E+01 -0.42043311583E+02  0.13382643470E+04  0.13447705959E+04  0.12499660869E+03 0.  0.
          5    1    3    3  501    0  0.25512671229E+02 -0.74067443897E+02  0.53781508047E+03  0.54349052745E+03  0.10000000000E+00 0. -1.
         -5    1    3    3    0  501 -0.17468969665E+02  0.32024132314E+02  0.80044926649E+03  0.80128006850E+03  0.10000000000E+00 0. -1.
         21    1    1    2  504  502 -0.80437015639E+01  0.42043311583E+02  0.11038778808E+03  0.11839681136E+03  0.00000000000E+00 0. -1.
<mgrwt>
<rscale>  1 0.13212302E+03</rscale>
<asrwt>0</asrwt>
<pdfrwt beam="1">  1       21 0.22398589E+00 0.13212302E+03</pdfrwt>
<pdfrwt beam="2">  1       21 0.11165606E-02 0.13212302E+03</pdfrwt>
<totfact> 0.30910181E+05</totfact>
</mgrwt>
</event>
<event>
 6    1  0.4202038E-002  0.2217986E+03  0.7546771E-02  0.1132549E+00
         21   -1    0    0  503  502  0.00000000000E+00  0.00000000000E+00  0.14658911687E+04  0.14658911687E+04  0.00000000000E+00 0. -1.
         21   -1    0    0  504  503 -0.00000000000E+00 -0.00000000000E+00 -0.45279574459E+03  0.45279574459E+03  0.00000000000E+00 0. -1.
         25    2    1    2    0    0 -0.13745896745E+03  0.12114439095E+03  0.14385018185E+04  0.14555006316E+04  0.12499470150E+03 0.  0.
          5    1    3    3  501    0 -0.66340181903E+01  0.51314884445E+02  0.15384772201E+03  0.16231561579E+03  0.10000000000E+00 0. -1.
         -5    1    3    3    0  501 -0.13082494926E+03  0.69829506502E+02  0.12846540965E+04  0.12931850158E+04  0.10000000000E+00 0. -1.
         21    1    1    2  504  502  0.13745896745E+03 -0.12114439095E+03 -0.42540639440E+03  0.46318628173E+03  0.00000000000E+00 0. -1.
<mgrwt>
<rscale>  1 0.22179857E+03</rscale>
<asrwt>0</asrwt>
<pdfrwt beam="1">  1       21 0.22552172E+00 0.22179857E+03</pdfrwt>
<pdfrwt beam="2">  1       21 0.69660885E-01 0.22179857E+03</pdfrwt>
<totfact> 0.16770093E+02</totfact>
</mgrwt>
</event>
<event>
 6    1  0.4202038E-002  0.1428811E+03  0.7546771E-02  0.1209504E+00
         21   -1    0    0  504  502  0.00000000000E+00  0.00000000000E+00  0.11317024396E+02  0.11317024396E+02  0.00000000000E+00 0.  1.
         21   -1    0    0  502  503 -0.00000000000E+00 -0.00000000000E+00 -0.10033430058E+04  0.10033430058E+04  0.00000000000E+00 0.  1.
         25    2    1    2    0    0  0.60360298689E+02 -0.33864657163E+02 -0.61998783266E+03  0.63623888282E+03  0.12499929079E+03 0.  0.
          5    1    3    3  501    0  0.33211776435E+02 -0.48378301359E+02 -0.59115486172E+03  0.59406023488E+03  0.10000000000E+00 0. -1.
         -5    1    3    3    0  501  0.27148522253E+02  0.14513644195E+02 -0.28832970948E+02  0.42178647940E+02  0.10000000000E+00 0. -1.
         21    1    1    2  504  503 -0.60360298689E+02  0.33864657163E+02 -0.37203814872E+03  0.37842114735E+03  0.00000000000E+00 0.  1.
<mgrwt>
<rscale>  1 0.14288108E+03</rscale>
<asrwt>0</asrwt>
<pdfrwt beam="1">  1       21 0.17410802E-02 0.14288108E+03</pdfrwt>
<pdfrwt beam="2">  1       21 0.15436051E+00 0.14288108E+03</pdfrwt>
<totfact> 0.43370080E+05</totfact>
</mgrwt>
</event>
<event>
 6    1  0.4202038E-002  0.1269843E+03  0.7546771E-02  0.1232000E+00
         21   -1    0    0  504  502  0.00000000000E+00  0.00000000000E+00  0.20871448288E+02  0.20871448288E+02  0.00000000000E+00 0.  1.
         21   -1    0    0  502  503 -0.00000000000E+00 -0.00000000000E+00 -0.29009877515E+03  0.29009877515E+03  0.00000000000E+00 0.  1.
         25    2    1    2    0    0  0.15035420257E+02 -0.16530580796E+02 -0.18906086533E+03  0.22774771736E+03  0.12500275196E+03 0.  0.
          5    1    3    3  501    0 -0.36351588116E+02  0.28230452576E+02 -0.30643296577E+02  0.55293924045E+02  0.10000000000E+00 0. -1.
         -5    1    3    3    0  501  0.51387008373E+02 -0.44761033372E+02 -0.15841756875E+03  0.17245379331E+03  0.10000000000E+00 0. -1.
         21    1    1    2  504  503 -0.15035420257E+02  0.16530580796E+02 -0.80166461530E+02  0.83222506079E+02  0.00000000000E+00 0.  1.
<mgrwt>
<rscale>  1 0.12698430E+03</rscale>
<asrwt>0</asrwt>
<pdfrwt beam="1">  1       21 0.32109919E-02 0.12698430E+03</pdfrwt>
<pdfrwt beam="2">  1       21 0.44630583E-01 0.12698430E+03</pdfrwt>
<totfact> 0.27030579E+06</totfact>
</mgrwt>
</event>
<event>
 6    1  0.4202038E-002  0.1259344E+03  0.7546771E-02  0.1233616E+00
         21   -1    0    0  503  502  0.00000000000E+00  0.00000000000E+00  0.25952836673E+03  0.25952836673E+03  0.00000000000E+00 0.  1.
         21   -1    0    0  504  503 -0.00000000000E+00 -0.00000000000E+00 -0.19415844996E+02  0.19415844996E+02  0.00000000000E+00 0.  1.
         25    2    1    2    0    0 -0.15116555096E+02 -0.28105318919E+01  0.20467797910E+03  0.24031758698E+03  0.12499223238E+03 0.  0.
          5    1    3    3  501    0  0.14601593607E+02 -0.33079963727E+02  0.19294679569E+03  0.19630579845E+03  0.10000000000E+00 0. -1.
         -5    1    3    3    0  501 -0.29718148703E+02  0.30269431835E+02  0.11731183412E+02  0.44011788537E+02  0.10000000000E+00 0. -1.
         21    1    1    2  504  502  0.15116555096E+02  0.28105318919E+01  0.35434542629E+02  0.38626624741E+02  0.00000000000E+00 0. -1.
<mgrwt>
<rscale>  1 0.12593438E+03</rscale>
<asrwt>0</asrwt>
<pdfrwt beam="1">  1       21 0.39927439E-01 0.12593438E+03</pdfrwt>
<pdfrwt beam="2">  1       21 0.29870533E-02 0.12593438E+03</pdfrwt>
<totfact> 0.38073016E+06</totfact>
</mgrwt>
</event>
<event>
 6    1  0.4202038E-002  0.1260622E+03  0.7546771E-02  0.1233419E+00
         21   -1    0    0  503  502  0.00000000000E+00  0.00000000000E+00  0.14875781894E+03  0.14875781894E+03  0.00000000000E+00 0.  1.
         21   -1    0    0  504  503 -0.00000000000E+00 -0.00000000000E+00 -0.79628940016E+02  0.79628940016E+02  0.00000000000E+00 0. -1.
         25    2    1    2    0    0  0.15216627617E+02 -0.53270375276E+01  0.12059421663E+03  0.17445528327E+03  0.12502702784E+03 0.  0.
          5    1    3    3  501    0  0.63483889646E+02  0.63038943089E+01  0.10418352734E+03  0.12216448214E+03  0.10000000000E+00 0. -1.
         -5    1    3    3    0  501 -0.48267262030E+02 -0.11630931836E+02  0.16410689293E+02  0.52290801125E+02  0.10000000000E+00 0. -1.
         21    1    1    2  504  502 -0.15216627617E+02  0.53270375276E+01 -0.51465337707E+02  0.53931475690E+02  0.00000000000E+00 0. -1.
<mgrwt>
<rscale>  1 0.12606221E+03</rscale>
<asrwt>0</asrwt>
<pdfrwt beam="1">  1       21 0.22885818E-01 0.12606221E+03</pdfrwt>
<pdfrwt beam="2">  1       21 0.12250606E-01 0.12606221E+03</pdfrwt>
<totfact> 0.10137952E+06</totfact>
</mgrwt>
</event>
<event>
 6    1  0.4202038E-002  0.1377291E+03  0.7546771E-02  0.1216418E+00
         21   -1    0    0  503  502  0.00000000000E+00  0.00000000000E+00  0.28117376686E+03  0.28117376686E+03  0.00000000000E+00 0. -1.
         21   -1    0    0  504  503 -0.00000000000E+00 -0.00000000000E+00 -0.63100710680E+02  0.63100710680E+02  0.00000000000E+00 0. -1.
         25    2    1    2    0    0  0.65095335796E+01 -0.57501404110E+02  0.24452609827E+03  0.28064626887E+03  0.12498211870E+03 0.  0.
          5    1    3    3  501    0  0.34919663486E+02  0.76360321753E+01  0.18357999387E+03  0.18702758095E+03  0.10000000000E+00 0.  1.
         -5    1    3    3    0  501 -0.28410129906E+02 -0.65137436285E+02  0.60946104401E+02  0.93618687925E+02  0.10000000000E+00 0.  1.
         21    1    1    2  504  502 -0.65095335796E+01  0.57501404110E+02 -0.26453042094E+02  0.63628208666E+02  0.00000000000E+00 0. -1.
<mgrwt>
<rscale>  1 0.13772914E+03</rscale>
<asrwt>0</asrwt>
<pdfrwt beam="1">  1       21 0.43257502E-01 0.13772914E+03</pdfrwt>
<pdfrwt beam="2">  1       21 0.97078018E-02 0.13772914E+03</pdfrwt>
<totfact> 0.44315267E+05</totfact>
</mgrwt>
</event>
<event>
 6    1  0.4202038E-002  0.1946399E+03  0.7546771E-02  0.1154342E+00
         21   -1    0    0  504  502  0.00000000000E+00  0.00000000000E+00  0.13073381374E+03  0.13073381374E+03  0.00000000000E+00 0.  1.
         21   -1    0    0  502  503 -0.00000000000E+00 -0.00000000000E+00 -0.50332410548E+03  0.50332410548E+03  0.00000000000E+00 0.  1.
         25    2    1    2    0    0  0.19490263544E+02  0.14791957654E+03  0.37013099364E+02  0.19812786806E+03  0.12499844432E+03 0.  0.
          5    1    3    3  501    0 -0.53191445532E+02  0.69541987984E+02  0.21097283161E+02  0.90058443953E+02  0.10000000000E+00 0. -1.
         -5    1    3    3    0  501  0.72681709076E+02  0.78377588556E+02  0.15915816204E+02  0.10806942411E+03  0.10000000000E+00 0. -1.
         21    1    1    2  504  503 -0.19490263544E+02 -0.14791957654E+03 -0.40960339110E+03  0.43593005116E+03  0.00000000000E+00 0.  1.
<mgrwt>
<rscale>  1 0.19463988E+03</rscale>
<asrwt>0</asrwt>
<pdfrwt beam="1">  1       21 0.20112894E-01 0.19463988E+03</pdfrwt>
<pdfrwt beam="2">  1       21 0.77434478E-01 0.19463988E+03</pdfrwt>
<totfact> 0.33774161E+04</totfact>
</mgrwt>
</event>
<event>
 6    1  0.4202038E-002  0.1275520E+03  0.7546771E-02  0.1231134E+00
         21   -1    0    0  504  502  0.00000000000E+00  0.00000000000E+00  0.21575088133E+02  0.21575088133E+02  0.00000000000E+00 0.  1.
         21   -1    0    0  502  503 -0.00000000000E+00 -0.00000000000E+00 -0.12082166059E+04  0.12082166059E+04  0.00000000000E+00 0.  1.
         25    2    1    2    0    0  0.25009571480E+02 -0.43299733796E+01 -0.16849721805E+03  0.21133107016E+03  0.12500112555E+03 0.  0.
          5    1    3    3  501    0  0.64783161569E+02 -0.38263373896E+02 -0.10168173058E+03  0.12649161292E+03  0.10000000000E+00 0. -1.
         -5    1    3    3    0  501 -0.39773590089E+02  0.33933400516E+02 -0.66815487475E+02  0.84839457245E+02  0.10000000000E+00 0. -1.
         21    1    1    2  504  503 -0.25009571480E+02  0.43299733796E+01 -0.10181442997E+04  0.10184606238E+04  0.00000000000E+00 0.  1.
<mgrwt>
<rscale>  1 0.12755198E+03</rscale>
<asrwt>0</asrwt>
<pdfrwt beam="1">  1       21 0.33192436E-02 0.12755198E+03</pdfrwt>
<pdfrwt beam="2">  1       21 0.18587952E+00 0.12755198E+03</pdfrwt>
<totfact> 0.92376344E+04</totfact>
</mgrwt>
</event>
<event>
 6    1  0.4202038E-002  0.1350192E+03  0.7546771E-02  0.1220193E+00
         21   -1    0    0  503  502  0.00000000000E+00  0.00000000000E+00  0.54483746417E+02  0.54483746417E+02  0.00000000000E+00 0. -1.
         21   -1    0    0  504  503 -0.00000000000E+00 -0.00000000000E+00 -0.29350097839E+03  0.29350097839E+03  0.00000000000E+00 0. -1.
         25    2    1    2    0    0  0.36740973972E+02 -0.35449602100E+02 -0.37541901861E+02  0.14014131716E+03  0.12499448357E+03 0.  0.
          5    1    3    3  501    0 -0.34141958448E+02 -0.39811254318E+02  0.11683594015E+02  0.53731979920E+02  0.10000000000E+00 0. -1.
         -5    1    3    3    0  501  0.70882932420E+02  0.43616522177E+01 -0.49225495876E+02  0.86409337243E+02  0.10000000000E+00 0. -1.
         21    1    1    2  504  502 -0.36740973972E+02  0.35449602100E+02 -0.20147533012E+03  0.20784340765E+03  0.00000000000E+00 0. -1.
<mgrwt>
<rscale>  1 0.13501924E+03</rscale>
<asrwt>0</asrwt>
<pdfrwt beam="1">  1       21 0.83821148E-02 0.13501924E+03</pdfrwt>
<pdfrwt beam="2">  1       21 0.45153997E-01 0.13501924E+03</pdfrwt>
<totfact> 0.52455951E+05</totfact>
</mgrwt>
</event>
<event>
 6    1  0.4202038E-002  0.1281250E+03  0.7546771E-02  0.1230265E+00
         21   -1    0    0  504  502  0.00000000000E+00  0.00000000000E+00  0.28338237579E+02  0.28338237579E+02  0.00000000000E+00 0. -1.
         21   -1    0    0  502  503 -0.00000000000E+00 -0.00000000000E+00 -0.32864664373E+03  0.32864664373E+03  0.00000000000E+00 0. -1.
         25    2    1    2    0    0 -0.26144352420E+02  0.10360715260E+02 -0.12350634637E+03  0.17796019048E+03  0.12500056087E+03 0.  0.
          5    1    3    3  501    0  0.48954886891E+02  0.66676259041E+01 -0.69981149282E+02  0.85664516811E+02  0.10000000000E+00 0.  1.
         -5    1    3    3    0  501 -0.75099239312E+02  0.36930893561E+01 -0.53525197085E+02  0.92295673665E+02  0.10000000000E+00 0.  1.
         21    1    1    2  504  503  0.26144352420E+02 -0.10360715260E+02 -0.17680205978E+03  0.17902469083E+03  0.00000000000E+00 0. -1.
<mgrwt>
<rscale>  1 0.12812499E+03</rscale>
<asrwt>0</asrwt>
<pdfrwt beam="1">  1       21 0.43597286E-02 0.12812499E+03</pdfrwt>
<pdfrwt beam="2">  1       21 0.50561026E-01 0.12812499E+03</pdfrwt>
<totfact> 0.12621471E+06</totfact>
</mgrwt>
</event>
<event>
 6    1  0.4202038E-002  0.1298888E+03  0.7546771E-02  0.1227621E+00
         21   -1    0    0  503  502  0.00000000000E+00  0.00000000000E+00  0.50994582354E+03  0.50994582354E+03  0.00000000000E+00 0. -1.
         21   -1    0    0  504  503 -0.00000000000E+00 -0.00000000000E+00 -0.25935763799E+02  0.25935763799E+02  0.00000000000E+00 0. -1.
         25    2    1    2    0    0 -0.54721423796E+01  0.34867258521E+02  0.48343784263E+03  0.50058289768E+03  0.12500167882E+03 0.  0.
          5    1    3    3  501    0  0.52930234127E+02  0.37403772251E+01  0.12057354883E+03  0.13173302844E+03  0.10000000000E+00 0.  1.
         -5    1    3    3    0  501 -0.58402376506E+02  0.31126881296E+02  0.36286429380E+03  0.36884986924E+03  0.10000000000E+00 0.  1.
         21    1    1    2  504  502  0.54721423796E+01 -0.34867258521E+02  0.57221711273E+00  0.35298689656E+02  0.00000000000E+00 0. -1.
<mgrwt>
<rscale>  1 0.12988876E+03</rscale>
<asrwt>0</asrwt>
<pdfrwt beam="1">  1       21 0.78453196E-01 0.12988876E+03</pdfrwt>
<pdfrwt beam="2">  1       21 0.39901179E-02 0.12988876E+03</pdfrwt>
<totfact> 0.57064296E+05</totfact>
</mgrwt>
</event>
<event>
 6    1  0.4202038E-002  0.1608289E+03  0.7546771E-02  0.1187764E+00
         21   -1    0    0  503  502  0.00000000000E+00  0.00000000000E+00  0.73113699447E+03  0.73113699447E+03  0.00000000000E+00 0.  1.
         21   -1    0    0  504  503 -0.00000000000E+00 -0.00000000000E+00 -0.26592753775E+02  0.26592753775E+02  0.00000000000E+00 0.  1.
         25    2    1    2    0    0 -0.10084077302E+03 -0.84209116368E+01  0.54976835798E+03  0.57280990851E+03  0.12500468229E+03 0.  0.
          5    1    3    3  501    0  0.11615437684E+02  0.25841488002E+02  0.23682708970E+03  0.23851578839E+03  0.10000000000E+00 0. -1.
         -5    1    3    3    0  501 -0.11245621071E+03 -0.34262399639E+02  0.31294126828E+03  0.33429412012E+03  0.10000000000E+00 0. -1.
         21    1    1    2  504  502  0.10084077302E+03  0.84209116368E+01  0.15477588271E+03  0.18491983973E+03  0.00000000000E+00 0.  1.
<mgrwt>
<rscale>  1 0.16082893E+03</rscale>
<asrwt>0</asrwt>
<pdfrwt beam="1">  1       21 0.11248260E+00 0.16082893E+03</pdfrwt>
<pdfrwt beam="2">  1       21 0.40911934E-02 0.16082893E+03</pdfrwt>
<totfact> 0.23591595E+05</totfact>
</mgrwt>
</event>
<event>
 6    1  0.4202038E-002  0.1262115E+03  0.7546771E-02  0.1233188E+00
         21   -1    0    0  503  502  0.00000000000E+00  0.00000000000E+00  0.21087323300E+02  0.21087323300E+02  0.00000000000E+00 0. -1.
         21   -1    0    0  504  503 -0.00000000000E+00 -0.00000000000E+00 -0.24617142504E+03  0.24617142504E+03  0.00000000000E+00 0. -1.
         25    2    1    2    0    0 -0.16808491912E+02 -0.46400619701E+01 -0.19031073797E+03  0.22835833185E+03  0.12500118064E+03 0.  0.
          5    1    3    3  501    0 -0.64355695590E+01  0.60111945712E+02 -0.97361519599E+02  0.11460426725E+03  0.10000000000E+00 0.  1.
         -5    1    3    3    0  501 -0.10372922353E+02 -0.64752007682E+02 -0.92949218371E+02  0.11375406460E+03  0.10000000000E+00 0.  1.
         21    1    1    2  504  502  0.16808491912E+02  0.46400619701E+01 -0.34773363769E+02  0.38900416492E+02  0.00000000000E+00 0. -1.
<mgrwt>
<rscale>  1 0.12621153E+03</rscale>
<asrwt>0</asrwt>
<pdfrwt beam="1">  1       21 0.32442036E-02 0.12621153E+03</pdfrwt>
<pdfrwt beam="2">  1       21 0.37872526E-01 0.12621153E+03</pdfrwt>
<totfact> 0.36934288E+06</totfact>
</mgrwt>
</event>
<event>
 6    1  0.4202038E-002  0.1277725E+03  0.7546771E-02  0.1230799E+00
         21   -1    0    0  503  502  0.00000000000E+00  0.00000000000E+00  0.83661914729E+03  0.83661914729E+03  0.00000000000E+00 0.  1.
         21   -1    0    0  504  503 -0.00000000000E+00 -0.00000000000E+00 -0.72300410115E+01  0.72300410115E+01  0.00000000000E+00 0.  1.
         25    2    1    2    0    0 -0.16168394860E+02  0.20737279000E+02  0.72666715878E+03  0.73781499462E+03  0.12503741399E+03 0.  0.
          5    1    3    3  501    0 -0.22863347446E+02 -0.21931962934E+02  0.64187247621E+03  0.64265389548E+03  0.10000000000E+00 0.  1.
         -5    1    3    3    0  501  0.66949525867E+01  0.42669241934E+02  0.84794682571E+02  0.95161099140E+02  0.10000000000E+00 0.  1.
         21    1    1    2  504  502  0.16168394860E+02 -0.20737279000E+02  0.10272194750E+03  0.10603419368E+03  0.00000000000E+00 0.  1.
<mgrwt>
<rscale>  1 0.12777248E+03</rscale>
<asrwt>0</asrwt>
<pdfrwt beam="1">  1       21 0.12871056E+00 0.12777248E+03</pdfrwt>
<pdfrwt beam="2">  1       21 0.11123147E-02 0.12777248E+03</pdfrwt>
<totfact> 0.14116151E+06</totfact>
</mgrwt>
</event>
<event>
 6    1  0.4202038E-002  0.1288068E+03  0.7546771E-02  0.1229237E+00
         21   -1    0    0  504  502  0.00000000000E+00  0.00000000000E+00  0.28277870978E+03  0.28277870978E+03  0.00000000000E+00 0.  1.
         21   -1    0    0  502  503 -0.00000000000E+00 -0.00000000000E+00 -0.23509238213E+02  0.23509238213E+02  0.00000000000E+00 0.  1.
         25    2    1    2    0    0  0.15878470723E+02 -0.26691367874E+02  0.18162984420E+03  0.22266697760E+03  0.12500651046E+03 0.  0.
          5    1    3    3  501    0  0.27586006725E+02 -0.23131567964E+02  0.19854886522E+03  0.20178632036E+03  0.10000000000E+00 0. -1.
         -5    1    3    3    0  501 -0.11707536002E+02 -0.35597999094E+01 -0.16919021020E+02  0.20880657243E+02  0.10000000000E+00 0. -1.
         21    1    1    2  504  503 -0.15878470723E+02  0.26691367874E+02  0.77639627365E+02  0.83620970389E+02  0.00000000000E+00 0.  1.
<mgrwt>
<rscale>  1 0.12880676E+03</rscale>
<asrwt>0</asrwt>
<pdfrwt beam="1">  1       21 0.43504415E-01 0.12880676E+03</pdfrwt>
<pdfrwt beam="2">  1       21 0.36168061E-02 0.12880676E+03</pdfrwt>
<totfact> 0.23404740E+06</totfact>
</mgrwt>
</event>
<event>
 6    1  0.4202038E-002  0.1769863E+03  0.7546771E-02  0.1170752E+00
         21   -1    0    0  503  502  0.00000000000E+00  0.00000000000E+00  0.12727095631E+03  0.12727095631E+03  0.00000000000E+00 0. -1.
         21   -1    0    0  504  503 -0.00000000000E+00 -0.00000000000E+00 -0.33548674469E+03  0.33548674469E+03  0.00000000000E+00 0. -1.
         25    2    1    2    0    0  0.77979582450E+01  0.12505196653E+03  0.42906912392E+02  0.18211306213E+03  0.12500144712E+03 0.  0.
          5    1    3    3  501    0 -0.25498810863E+02  0.11819716633E+03 -0.76851767875E+01  0.12116035418E+03  0.10000000000E+00 0.  1.
         -5    1    3    3    0  501  0.33296769108E+02  0.68548002057E+01  0.50592089180E+02  0.60952707951E+02  0.10000000000E+00 0.  1.
         21    1    1    2  504  502 -0.77979582450E+01 -0.12505196653E+03 -0.25112270077E+03  0.28064463887E+03  0.00000000000E+00 0. -1.
<mgrwt>
<rscale>  1 0.17698634E+03</rscale>
<asrwt>0</asrwt>
<pdfrwt beam="1">  1       21 0.19580147E-01 0.17698634E+03</pdfrwt>
<pdfrwt beam="2">  1       21 0.51613344E-01 0.17698634E+03</pdfrwt>
<totfact> 0.86171897E+04</totfact>
</mgrwt>
</event>
<event>
 6    1  0.4202038E-002  0.1372279E+03  0.7546771E-02  0.1217108E+00
         21   -1    0    0  504  502  0.00000000000E+00  0.00000000000E+00  0.53751202727E+02  0.53751202727E+02  0.00000000000E+00 0.  1.
         21   -1    0    0  502  503 -0.00000000000E+00 -0.00000000000E+00 -0.21725411569E+03  0.21725411569E+03  0.00000000000E+00 0.  1.
         25    2    1    2    0    0 -0.47438202802E+02  0.30926434609E+02 -0.16468299043E+03  0.21436416707E+03  0.12499872537E+03 0.  0.
          5    1    3    3  501    0 -0.83901548850E+02  0.89816475854E+01 -0.66772266711E+02  0.10760430054E+03  0.10000000000E+00 0. -1.
         -5    1    3    3    0  501  0.36463346048E+02  0.21944787023E+02 -0.97910723719E+02  0.10675986653E+03  0.10000000000E+00 0. -1.
         21    1    1    2  504  503  0.47438202802E+02 -0.30926434609E+02  0.11800774715E+01  0.56641151344E+02  0.00000000000E+00 0.  1.
<mgrwt>
<rscale>  1 0.13722794E+03</rscale>
<asrwt>0</asrwt>
<pdfrwt beam="1">  1       21 0.82694159E-02 0.13722794E+03</pdfrwt>
<pdfrwt beam="2">  1       21 0.33423710E-01 0.13722794E+03</pdfrwt>
<totfact> 0.97841982E+05</totfact>
</mgrwt>
</event>
<event>
 6    1  0.4202038E-002  0.1263219E+03  0.7546771E-02  0.1233018E+00
         21   -1    0    0  504  502  0.00000000000E+00  0.00000000000E+00  0.31387219360E+03  0.31387219360E+03  0.00000000000E+00 0. -1.
         21   -1    0    0  502  503 -0.00000000000E+00 -0.00000000000E+00 -0.40599961279E+03  0.40599961279E+03  0.00000000000E+00 0.  1.
         25    2    1    2    0    0 -0.17422866166E+02 -0.55605877352E+01  0.30094098587E+03  0.32637816291E+03  0.12499100708E+03 0.  0.
          5    1    3    3  501    0 -0.37660577122E+02 -0.46328996474E+02  0.74821743836E+02  0.95723551617E+02  0.10000000000E+00 0.  1.
         -5    1    3    3    0  501  0.20237710956E+02  0.40768408739E+02  0.22611924203E+03  0.23065461130E+03  0.10000000000E+00 0.  1.
         21    1    1    2  504  503  0.17422866166E+02  0.55605877352E+01 -0.39306840506E+03  0.39349364347E+03  0.00000000000E+00 0.  1.
<mgrwt>
<rscale>  1 0.12632192E+03</rscale>
<asrwt>0</asrwt>
<pdfrwt beam="1">  1       21 0.48288030E-01 0.12632192E+03</pdfrwt>
<pdfrwt beam="2">  1       21 0.62461478E-01 0.12632192E+03</pdfrwt>
<totfact> 0.10245427E+04</totfact>
</mgrwt>
</event>
<event>
 6    1  0.4202038E-002  0.1317915E+03  0.7546771E-02  0.1224821E+00
         21   -1    0    0  503  502  0.00000000000E+00  0.00000000000E+00  0.20703195798E+03  0.20703195798E+03  0.00000000000E+00 0.  1.
         21   -1    0    0  504  503 -0.00000000000E+00 -0.00000000000E+00 -0.41442080985E+02  0.41442080985E+02  0.00000000000E+00 0.  1.
         25    2    1    2    0    0 -0.36728182483E+02 -0.19843401952E+02  0.15849390041E+03  0.20612934776E+03  0.12500508610E+03 0.  0.
          5    1    3    3  501    0 -0.22175012221E+02 -0.64850528568E+02  0.41960486987E+02  0.80361773815E+02  0.10000000000E+00 0.  1.
         -5    1    3    3    0  501 -0.14553170262E+02  0.45007126616E+02  0.11653341342E+03  0.12576757394E+03  0.10000000000E+00 0.  1.
         21    1    1    2  504  502  0.36728182483E+02  0.19843401952E+02  0.70959765790E+01  0.42344691204E+02  0.00000000000E+00 0.  1.
<mgrwt>
<rscale>  1 0.13179147E+03</rscale>
<asrwt>0</asrwt>
<pdfrwt beam="1">  1       21 0.31851070E-01 0.13179147E+03</pdfrwt>
<pdfrwt beam="2">  1       21 0.63757049E-02 0.13179147E+03</pdfrwt>
<totfact> 0.16787038E+06</totfact>
</mgrwt>
</event>
<event>
 6    1  0.4202038E-002  0.1270688E+03  0.7546771E-02  0.1231871E+00
         21   -1    0    0  504  502  0.00000000000E+00  0.00000000000E+00  0.52726265822E+02  0.52726265822E+02  0.00000000000E+00 0. -1.
         21   -1    0    0  502  503 -0.00000000000E+00 -0.00000000000E+00 -0.15078298308E+03  0.15078298308E+03  0.00000000000E+00 0. -1.
         25    2    1    2    0    0 -0.14549958820E+02 -0.17679932480E+02 -0.28424759788E+02  0.13020924334E+03  0.12498879457E+03 0.  0.
          5    1    3    3  501    0 -0.17627620389E+02  0.40847548294E+02  0.24890793193E+02  0.50978591467E+02  0.10000000000E+00 0. -1.
         -5    1    3    3    0  501  0.30776615696E+01 -0.58527480774E+02 -0.53315552981E+02  0.79230651873E+02  0.10000000000E+00 0. -1.
         21    1    1    2  504  503  0.14549958820E+02  0.17679932480E+02 -0.69631957468E+02  0.73300005559E+02  0.00000000000E+00 0. -1.
<mgrwt>
<rscale>  1 0.12706880E+03</rscale>
<asrwt>0</asrwt>
<pdfrwt beam="1">  1       21 0.81117333E-02 0.12706880E+03</pdfrwt>
<pdfrwt beam="2">  1       21 0.23197382E-01 0.12706880E+03</pdfrwt>
<totfact> 0.20325906E+06</totfact>
</mgrwt>
</event>
<event>
 6    1  0.4202038E-002  0.1267083E+03  0.7546771E-02  0.1232423E+00
         21   -1    0    0  504  502  0.00000000000E+00  0.00000000000E+00  0.12983294857E+03  0.12983294857E+03  0.00000000000E+00 0.  1.
         21   -1    0    0  502  503 -0.00000000000E+00 -0.00000000000E+00 -0.42819080581E+02  0.42819080581E+02  0.00000000000E+00 0.  1.
         25    2    1    2    0    0 -0.12228014384E+01  0.20674286411E+02  0.64928448664E+02  0.14237518802E+03  0.12500427735E+03 0.  0.
          5    1    3    3  501    0  0.60409284957E+02  0.20495911017E+02  0.43119946032E+02  0.76998076750E+02  0.10000000000E+00 0. -1.
         -5    1    3    3    0  501 -0.61632086395E+02  0.17837539448E+00  0.21808502632E+02  0.65377111272E+02  0.10000000000E+00 0. -1.
         21    1    1    2  504  503  0.12228014384E+01 -0.20674286411E+02  0.22085419321E+02  0.30276841126E+02  0.00000000000E+00 0.  1.
<mgrwt>
<rscale>  1 0.12670829E+03</rscale>
<asrwt>0</asrwt>
<pdfrwt beam="1">  1       21 0.19974300E-01 0.12670829E+03</pdfrwt>
<pdfrwt beam="2">  1       21 0.65875509E-02 0.12670829E+03</pdfrwt>
<totfact> 0.38359354E+06</totfact>
</mgrwt>
</event>
<event>
 6    1  0.4202038E-002  0.2008634E+03  0.7546771E-02  0.1149013E+00
         21   -1    0    0  503  502  0.00000000000E+00  0.00000000000E+00  0.49649409394E+03  0.49649409394E+03  0.00000000000E+00 0. -1.
         21   -1    0    0  504  503 -0.00000000000E+00 -0.00000000000E+00 -0.69151942872E+02  0.69151942872E+02  0.00000000000E+00 0. -1.
         25    2    1    2    0    0  0.90162049890E+02  0.12878692762E+03  0.31035307970E+03  0.36968249228E+03  0.12502337001E+03 0.  0.
          5    1    3    3  501    0  0.11848846199E+03  0.75472480326E+02  0.21559962560E+03  0.25733017598E+03  0.10000000000E+00 0.  1.
         -5    1    3    3    0  501 -0.28326412099E+02  0.53314447299E+02  0.94753454102E+02  0.11235231630E+03  0.10000000000E+00 0.  1.
         21    1    1    2  504  502 -0.90162049890E+02 -0.12878692762E+03  0.11698907137E+03  0.19596354453E+03  0.00000000000E+00 0. -1.
<mgrwt>
<rscale>  1 0.20086341E+03</rscale>
<asrwt>0</asrwt>
<pdfrwt beam="1">  1       21 0.76383704E-01 0.20086341E+03</pdfrwt>
<pdfrwt beam="2">  1       21 0.10638761E-01 0.20086341E+03</pdfrwt>
<totfact> 0.11061976E+05</totfact>
</mgrwt>
</event>
<event>
 6    1  0.4202038E-002  0.1328531E+03  0.7546771E-02  0.1223283E+00
         21   -1    0    0  504  502  0.00000000000E+00  0.00000000000E+00  0.11466163742E+04  0.11466163742E+04  0.00000000000E+00 0.  1.
         21   -1    0    0  502  503 -0.00000000000E+00 -0.00000000000E+00 -0.22919199817E+02  0.22919199817E+02  0.00000000000E+00 0. -1.
         25    2    1    2    0    0 -0.14814954394E+02  0.42495832426E+02  0.11159975955E+04  0.11238774732E+04  0.12499825259E+03 0.  0.
          5    1    3    3  501    0  0.67266497779E+01 -0.40351575040E+02  0.54079445134E+03  0.54233951177E+03  0.10000000000E+00 0.  1.
         -5    1    3    3    0  501 -0.21541604172E+02  0.82847407466E+02  0.57520314411E+03  0.58153796147E+03  0.10000000000E+00 0.  1.
         21    1    1    2  504  503  0.14814954394E+02 -0.42495832426E+02  0.76995788813E+01  0.45658100730E+02  0.00000000000E+00 0. -1.
<mgrwt>
<rscale>  1 0.13285308E+03</rscale>
<asrwt>0</asrwt>
<pdfrwt beam="1">  1       21 0.17640247E+00 0.13285308E+03</pdfrwt>
<pdfrwt beam="2">  1       21 0.35260316E-02 0.13285308E+03</pdfrwt>
<totfact> 0.96343755E+04</totfact>
</mgrwt>
</event>
<event>
 6    1  0.4202038E-002  0.1267998E+03  0.7546771E-02  0.1232283E+00
         21   -1    0    0  504  502  0.00000000000E+00  0.00000000000E+00  0.28485556516E+03  0.28485556516E+03  0.00000000000E+00 0.  1.
         21   -1    0    0  502  503 -0.00000000000E+00 -0.00000000000E+00 -0.23484178836E+02  0.23484178836E+02  0.00000000000E+00 0.  1.
         25    2    1    2    0    0  0.61501050199E+01 -0.20379792507E+02  0.25704249241E+03  0.28661650628E+03  0.12500007613E+03 0.  0.
          5    1    3    3  501    0 -0.91960085487E+01  0.19930467285E+02  0.23876372621E+03  0.23977055085E+03  0.10000000000E+00 0.  1.
         -5    1    3    3    0  501  0.15346113569E+02 -0.40310259792E+02  0.18278766192E+02  0.46845955425E+02  0.10000000000E+00 0.  1.
         21    1    1    2  504  503 -0.61501050199E+01  0.20379792507E+02  0.43288939149E+01  0.21723237717E+02  0.00000000000E+00 0.  1.
<mgrwt>
<rscale>  1 0.12679976E+03</rscale>
<asrwt>0</asrwt>
<pdfrwt beam="1">  1       21 0.43823931E-01 0.12679976E+03</pdfrwt>
<pdfrwt beam="2">  1       21 0.36129508E-02 0.12679976E+03</pdfrwt>
<totfact> 0.23091136E+06</totfact>
</mgrwt>
</event>
<event>
 6    1  0.4202038E-002  0.1277127E+03  0.7546771E-02  0.1230890E+00
         21   -1    0    0  504  502  0.00000000000E+00  0.00000000000E+00  0.29751305929E+03  0.29751305929E+03  0.00000000000E+00 0.  1.
         21   -1    0    0  502  503 -0.00000000000E+00 -0.00000000000E+00 -0.21414199550E+02  0.21414199550E+02  0.00000000000E+00 0.  1.
         25    2    1    2    0    0  0.13411102414E+02  0.22494586426E+02  0.18999979626E+03  0.22893329894E+03  0.12499867479E+03 0.  0.
          5    1    3    3  501    0  0.93504267726E+01  0.74255131982E+02  0.12564310061E+03  0.14624450019E+03  0.10000000000E+00 0.  1.
         -5    1    3    3    0  501  0.40606756410E+01 -0.51760545557E+02  0.64356695656E+02  0.82688798750E+02  0.10000000000E+00 0.  1.
         21    1    1    2  504  503 -0.13411102414E+02 -0.22494586426E+02  0.86099063472E+02  0.89993959893E+02  0.00000000000E+00 0.  1.
<mgrwt>
<rscale>  1 0.12771270E+03</rscale>
<asrwt>0</asrwt>
<pdfrwt beam="1">  1       21 0.45771237E-01 0.12771270E+03</pdfrwt>
<pdfrwt beam="2">  1       21 0.32944924E-02 0.12771270E+03</pdfrwt>
<totfact> 0.24621321E+06</totfact>
</mgrwt>
</event>
<event>
 6    1  0.4202038E-002  0.1466734E+03  0.7546771E-02  0.1204621E+00
         21   -1    0    0  504  502  0.00000000000E+00  0.00000000000E+00  0.23296113568E+03  0.23296113568E+03  0.00000000000E+00 0.  1.
         21   -1    0    0  502  503 -0.00000000000E+00 -0.00000000000E+00 -0.54873982140E+02  0.54873982140E+02  0.00000000000E+00 0.  1.
         25    2    1    2    0    0  0.68523336329E+02  0.34564712777E+02  0.13736481978E+03  0.20095315503E+03  0.12499163897E+03 0.  0.
          5    1    3    3  501    0  0.14142484405E+02 -0.46103954407E+02  0.57786278824E+02  0.75265187819E+02  0.10000000000E+00 0. -1.
         -5    1    3    3    0  501  0.54380851924E+02  0.80668667184E+02  0.79578540955E+02  0.12568796721E+03  0.10000000000E+00 0. -1.
         21    1    1    2  504  503 -0.68523336329E+02 -0.34564712777E+02  0.40722333758E+02  0.86881962787E+02  0.00000000000E+00 0.  1.
<mgrwt>
<rscale>  1 0.14667337E+03</rscale>
<asrwt>0</asrwt>
<pdfrwt beam="1">  1       21 0.35840174E-01 0.14667337E+03</pdfrwt>
<pdfrwt beam="2">  1       21 0.84421512E-02 0.14667337E+03</pdfrwt>
<totfact> 0.82299529E+05</totfact>
</mgrwt>
</event>
<event>
 6    1  0.4202038E-002  0.1676017E+03  0.7546771E-02  0.1180372E+00
         21   -1    0    0  504  502  0.00000000000E+00  0.00000000000E+00  0.21536043713E+03  0.21536043713E+03  0.00000000000E+00 0.  1.
         21   -1    0    0  502  503 -0.00000000000E+00 -0.00000000000E+00 -0.52331985154E+03  0.52331985154E+03  0.00000000000E+00 0.  1.
         25    2    1    2    0    0 -0.11164853324E+03 -0.60135014900E+00  0.17539529339E+03  0.24259810782E+03  0.12499830551E+03 0.  0.
          5    1    3    3  501    0 -0.92226879112E+01  0.15052743981E+02 -0.16724652351E+02  0.24318040010E+02  0.10000000000E+00 0.  1.
         -5    1    3    3    0  501 -0.10242584533E+03 -0.15654094130E+02  0.19211994574E+03  0.21828006781E+03  0.10000000000E+00 0.  1.
         21    1    1    2  504  503  0.11164853324E+03  0.60135014900E+00 -0.48335470780E+03  0.49608218084E+03  0.00000000000E+00 0.  1.
<mgrwt>
<rscale>  1 0.16760171E+03</rscale>
<asrwt>0</asrwt>
<pdfrwt beam="1">  1       21 0.33132375E-01 0.16760171E+03</pdfrwt>
<pdfrwt beam="2">  1       21 0.80510746E-01 0.16760171E+03</pdfrwt>
<totfact> 0.12099702E+04</totfact>
</mgrwt>
</event>
<event>
 6    1  0.4202038E-002  0.1282127E+03  0.7546771E-02  0.1230132E+00
         21   -1    0    0  504  502  0.00000000000E+00  0.00000000000E+00  0.13626686238E+03  0.13626686238E+03  0.00000000000E+00 0.  1.
         21   -1    0    0  502  503 -0.00000000000E+00 -0.00000000000E+00 -0.45251388309E+02  0.45251388309E+02  0.00000000000E+00 0.  1.
         25    2    1    2    0    0 -0.25283981217E+02 -0.13151898274E+02  0.78938975717E+02  0.15056515801E+03  0.12500501103E+03 0.  0.
          5    1    3    3  501    0 -0.23634623334E+02 -0.22616333240E+02  0.11171711886E+03  0.11640798338E+03  0.10000000000E+00 0. -1.
         -5    1    3    3    0  501 -0.16493578826E+01  0.94644349659E+01 -0.32778143139E+02  0.34157174624E+02  0.10000000000E+00 0. -1.
         21    1    1    2  504  503  0.25283981217E+02  0.13151898274E+02  0.12076498358E+02  0.30953092688E+02  0.00000000000E+00 0. -1.
<mgrwt>
<rscale>  1 0.12821273E+03</rscale>
<asrwt>0</asrwt>
<pdfrwt beam="1">  1       21 0.20964132E-01 0.12821273E+03</pdfrwt>
<pdfrwt beam="2">  1       21 0.69617521E-02 0.12821273E+03</pdfrwt>
<totfact> 0.31931745E+06</totfact>
</mgrwt>
</event>
<event>
 6    1  0.4202038E-002  0.1458268E+03  0.7546771E-02  0.1205697E+00
         21   -1    0    0  503  502  0.00000000000E+00  0.00000000000E+00  0.30396541968E+03  0.30396541968E+03  0.00000000000E+00 0.  1.
         21   -1    0    0  504  503 -0.00000000000E+00 -0.00000000000E+00 -0.40140991542E+02  0.40140991542E+02  0.00000000000E+00 0.  1.
         25    2    1    2    0    0 -0.40929857946E+02  0.62954604401E+02  0.17322109723E+03  0.22643101422E+03  0.12500768053E+03 0.  0.
          5    1    3    3  501    0 -0.66136896372E+02 -0.89318841881E+01  0.58652297300E+02  0.88848014021E+02  0.10000000000E+00 0. -1.
         -5    1    3    3    0  501  0.25207038426E+02  0.71886488589E+02  0.11456879993E+03  0.13758300020E+03  0.10000000000E+00 0. -1.
         21    1    1    2  504  502  0.40929857946E+02 -0.62954604401E+02  0.90603330915E+02  0.11767539700E+03  0.00000000000E+00 0.  1.
<mgrwt>
<rscale>  1 0.14582680E+03</rscale>
<asrwt>0</asrwt>
<pdfrwt beam="1">  1       21 0.46763909E-01 0.14582680E+03</pdfrwt>
<pdfrwt beam="2">  1       21 0.61755373E-02 0.14582680E+03</pdfrwt>
<totfact> 0.82471094E+05</totfact>
</mgrwt>
</event>
<event>
 6    1  0.4202038E-002  0.1267898E+03  0.7546771E-02  0.1232298E+00
         21   -1    0    0  503  502  0.00000000000E+00  0.00000000000E+00  0.84359719094E+02  0.84359719094E+02  0.00000000000E+00 0. -1.
         21   -1    0    0  504  503 -0.00000000000E+00 -0.00000000000E+00 -0.65373241060E+02  0.65373241060E+02  0.00000000000E+00 0. -1.
         25    2    1    2    0    0  0.20589071716E+02  0.51650024221E+01  0.20567358945E+02  0.12844713603E+03  0.12500025350E+03 0.  0.
          5    1    3    3  501    0  0.20519949071E+02  0.70355330884E+01 -0.51746226822E+02  0.56109259718E+02  0.10000000000E+00 0. -1.
         -5    1    3    3    0  501  0.69122644760E-01 -0.18705306663E+01  0.72313585767E+02  0.72337876312E+02  0.10000000000E+00 0. -1.
         21    1    1    2  504  502 -0.20589071716E+02 -0.51650024221E+01 -0.15808809107E+01  0.21285824123E+02  0.00000000000E+00 0. -1.
<mgrwt>
<rscale>  1 0.12678979E+03</rscale>
<asrwt>0</asrwt>
<pdfrwt beam="1">  1       21 0.12978418E-01 0.12678979E+03</pdfrwt>
<pdfrwt beam="2">  1       21 0.10057422E-01 0.12678979E+03</pdfrwt>
<totfact> 0.40389522E+06</totfact>
</mgrwt>
</event>
<event>
 6    1  0.4202038E-002  0.1358773E+03  0.7546771E-02  0.1218987E+00
         21   -1    0    0  503  502  0.00000000000E+00  0.00000000000E+00  0.63724481465E+03  0.63724481465E+03  0.00000000000E+00 0.  1.
         21   -1    0    0  504  503 -0.00000000000E+00 -0.00000000000E+00 -0.14616165335E+02  0.14616165335E+02  0.00000000000E+00 0.  1.
         25    2    1    2    0    0 -0.16445411425E+02  0.50665251737E+02  0.38315610903E+03  0.40653565141E+03  0.12500085075E+03 0.  0.
          5    1    3    3  501    0 -0.13659656605E+02 -0.41427769285E+02  0.11524895329E+03  0.12322815230E+03  0.10000000000E+00 0.  1.
         -5    1    3    3    0  501 -0.27857548192E+01  0.92093021022E+02  0.26790715575E+03  0.28330749911E+03  0.10000000000E+00 0.  1.
         21    1    1    2  504  502  0.16445411425E+02 -0.50665251737E+02  0.23947254029E+03  0.24532532858E+03  0.00000000000E+00 0.  1.
<mgrwt>
<rscale>  1 0.13587727E+03</rscale>
<asrwt>0</asrwt>
<pdfrwt beam="1">  1       21 0.98037642E-01 0.13587727E+03</pdfrwt>
<pdfrwt beam="2">  1       21 0.22486413E-02 0.13587727E+03</pdfrwt>
<totfact> 0.88015258E+05</totfact>
</mgrwt>
</event>
<event>
 6    1  0.4202038E-002  0.1900464E+03  0.7546771E-02  0.1158420E+00
         21   -1    0    0  504  502  0.00000000000E+00  0.00000000000E+00  0.38600922492E+02  0.38600922492E+02  0.00000000000E+00 0. -1.
         21   -1    0    0  502  503 -0.00000000000E+00 -0.00000000000E+00 -0.97414368376E+03  0.97414368376E+03  0.00000000000E+00 0. -1.
         25    2    1    2    0    0  0.53785389094E+02  0.13265132304E+03 -0.25911862095E+03  0.32134106331E+03  0.12501350992E+03 0.  0.
          5    1    3    3  501    0 -0.35562309802E+02  0.61435719926E+02 -0.13575713094E+03  0.15319606445E+03  0.10000000000E+00 0. -1.
         -5    1    3    3    0  501  0.89347698896E+02  0.71215603116E+02 -0.12336149001E+03  0.16814499886E+03  0.10000000000E+00 0. -1.
         21    1    1    2  504  503 -0.53785389094E+02 -0.13265132304E+03 -0.67642414032E+03  0.69140354294E+03  0.00000000000E+00 0. -1.
<mgrwt>
<rscale>  1 0.19004636E+03</rscale>
<asrwt>0</asrwt>
<pdfrwt beam="1">  1       21 0.59386034E-02 0.19004636E+03</pdfrwt>
<pdfrwt beam="2">  1       21 0.14986826E+00 0.19004636E+03</pdfrwt>
<totfact> 0.60207009E+04</totfact>
</mgrwt>
</event>
<event>
 6    1  0.4202038E-002  0.1279118E+03  0.7546771E-02  0.1230588E+00
         21   -1    0    0  504  502  0.00000000000E+00  0.00000000000E+00  0.47503267492E+02  0.47503267492E+02  0.00000000000E+00 0. -1.
         21   -1    0    0  502  503 -0.00000000000E+00 -0.00000000000E+00 -0.16413844851E+03  0.16413844851E+03  0.00000000000E+00 0.  1.
         25    2    1    2    0    0 -0.27087578527E+02  0.16296991303E+01 -0.45930249173E+02  0.13590810248E+03  0.12500012680E+03 0.  0.
          5    1    3    3  501    0 -0.48525216474E+00 -0.54384807802E+02 -0.49846187486E+02  0.73773946595E+02  0.10000000000E+00 0. -1.
         -5    1    3    3    0  501 -0.26602326362E+02  0.56014506932E+02  0.39159383125E+01  0.62134155886E+02  0.10000000000E+00 0. -1.
         21    1    1    2  504  503  0.27087578527E+02 -0.16296991303E+01 -0.70704931844E+02  0.75733613520E+02  0.00000000000E+00 0.  1.
<mgrwt>
<rscale>  1 0.12791178E+03</rscale>
<asrwt>0</asrwt>
<pdfrwt beam="1">  1       21 0.73081950E-02 0.12791178E+03</pdfrwt>
<pdfrwt beam="2">  1       21 0.25252069E-01 0.12791178E+03</pdfrwt>
<totfact> 0.20731851E+06</totfact>
</mgrwt>
</event>
<event>
 6    1  0.4202038E-002  0.1259422E+03  0.7546771E-02  0.1233604E+00
         21   -1    0    0  503  502  0.00000000000E+00  0.00000000000E+00  0.44335483539E+03  0.44335483539E+03  0.00000000000E+00 0. -1.
         21   -1    0    0  504  503 -0.00000000000E+00 -0.00000000000E+00 -0.12005562826E+02  0.12005562826E+02  0.00000000000E+00 0. -1.
         25    2    1    2    0    0  0.38850641233E+01 -0.14914130934E+02  0.41081158937E+03  0.42968314261E+03  0.12499566414E+03 0.  0.
          5    1    3    3  501    0  0.83449751802E+01 -0.65678886136E+02  0.15032984014E+03  0.16426328115E+03  0.10000000000E+00 0.  1.
         -5    1    3    3    0  501 -0.44599110569E+01  0.50764755202E+02  0.26048174923E+03  0.26541986146E+03  0.10000000000E+00 0.  1.
         21    1    1    2  504  502 -0.38850641233E+01  0.14914130934E+02  0.20537683193E+02  0.25677255611E+02  0.00000000000E+00 0. -1.
<mgrwt>
<rscale>  1 0.12594221E+03</rscale>
<asrwt>0</asrwt>
<pdfrwt beam="1">  1       21 0.68208424E-01 0.12594221E+03</pdfrwt>
<pdfrwt beam="2">  1       21 0.18470100E-02 0.12594221E+03</pdfrwt>
<totfact> 0.27300390E+06</totfact>
</mgrwt>
</event>
<event>
 6    1  0.4202038E-002  0.1305451E+03  0.7546771E-02  0.1226649E+00
         21   -1    0    0  504  502  0.00000000000E+00  0.00000000000E+00  0.14627358705E+03  0.14627358705E+03  0.00000000000E+00 0.  1.
         21   -1    0    0  502  503 -0.00000000000E+00 -0.00000000000E+00 -0.41896539118E+03  0.41896539118E+03  0.00000000000E+00 0.  1.
         25    2    1    2    0    0  0.12684819151E+02  0.35432597134E+02  0.11605581724E+03  0.17467389185E+03  0.12500256878E+03 0.  0.
          5    1    3    3  501    0 -0.28293246295E+02  0.47205875809E+02  0.11983716662E+03  0.13187061462E+03  0.10000000000E+00 0. -1.
         -5    1    3    3    0  501  0.40978065447E+02 -0.11773278674E+02 -0.37813493789E+01  0.42803277230E+02  0.10000000000E+00 0. -1.
         21    1    1    2  504  503 -0.12684819151E+02 -0.35432597134E+02 -0.38874762138E+03  0.39056508638E+03  0.00000000000E+00 0.  1.
<mgrwt>
<rscale>  1 0.13054507E+03</rscale>
<asrwt>0</asrwt>
<pdfrwt beam="1">  1       21 0.22503629E-01 0.13054507E+03</pdfrwt>
<pdfrwt beam="2">  1       21 0.64456214E-01 0.13054507E+03</pdfrwt>
<totfact> 0.42431486E+04</totfact>
</mgrwt>
</event>
<event>
 6    1  0.4202038E-002  0.1261761E+03  0.7546771E-02  0.1233243E+00
         21   -1    0    0  503  502  0.00000000000E+00  0.00000000000E+00  0.51456076196E+01  0.51456076196E+01  0.00000000000E+00 0.  1.
         21   -1    0    0  504  503 -0.00000000000E+00 -0.00000000000E+00 -0.10264932819E+04  0.10264932819E+04  0.00000000000E+00 0.  1.
         25    2    1    2    0    0 -0.16897004009E+02  0.30141237967E+01 -0.83176091634E+03  0.84127678071E+03  0.12500322441E+03 0.  0.
          5    1    3    3  501    0  0.48080834450E+02 -0.14532969690E+02 -0.51503205073E+03  0.51747560052E+03  0.10000000000E+00 0. -1.
         -5    1    3    3    0  501 -0.64977838459E+02  0.17547093486E+02 -0.31672886561E+03  0.32380118019E+03  0.10000000000E+00 0. -1.
         21    1    1    2  504  502  0.16897004009E+02 -0.30141237967E+01 -0.18958675798E+03  0.19036210885E+03  0.00000000000E+00 0.  1.
<mgrwt>
<rscale>  1 0.12617607E+03</rscale>
<asrwt>0</asrwt>
<pdfrwt beam="1">  1       21 0.79163138E-03 0.12617607E+03</pdfrwt>
<pdfrwt beam="2">  1       21 0.15792215E+00 0.12617607E+03</pdfrwt>
<totfact> 0.14297386E+06</totfact>
</mgrwt>
</event>
<event>
 6    1  0.4202038E-002  0.1259528E+03  0.7546771E-02  0.1233588E+00
         21   -1    0    0  503  502  0.00000000000E+00  0.00000000000E+00  0.28214266783E+01  0.28214266783E+01  0.00000000000E+00 0. -1.
         21   -1    0    0  504  503 -0.00000000000E+00 -0.00000000000E+00 -0.19541795713E+04  0.19541795713E+04  0.00000000000E+00 0. -1.
         25    2    1    2    0    0  0.10889648742E+02  0.11013968896E+02 -0.18662182931E+04  0.18704638021E+04  0.12499690135E+03 0.  0.
          5    1    3    3  501    0 -0.43359444417E+02  0.44459303387E+02 -0.88020426545E+03  0.88239233337E+03  0.10000000000E+00 0.  1.
         -5    1    3    3    0  501  0.54249093159E+02 -0.33445334491E+02 -0.98601402768E+03  0.98807146872E+03  0.10000000000E+00 0.  1.
         21    1    1    2  504  502 -0.10889648742E+02 -0.11013968896E+02 -0.85139851493E+02  0.86537195892E+02  0.00000000000E+00 0. -1.
<mgrwt>
<rscale>  1 0.12595284E+03</rscale>
<asrwt>0</asrwt>
<pdfrwt beam="1">  1       21 0.43406722E-03 0.12595284E+03</pdfrwt>
<pdfrwt beam="2">  1       21 0.30064192E+00 0.12595284E+03</pdfrwt>
<totfact> 0.49420076E+05</totfact>
</mgrwt>
</event>
<event>
 6    1  0.4202038E-002  0.1444533E+03  0.7546771E-02  0.1207459E+00
         21   -1    0    0  503  502  0.00000000000E+00  0.00000000000E+00  0.35425251061E+03  0.35425251061E+03  0.00000000000E+00 0. -1.
         21   -1    0    0  504  503 -0.00000000000E+00 -0.00000000000E+00 -0.91698534474E+02  0.91698534474E+02  0.00000000000E+00 0. -1.
         25    2    1    2    0    0  0.66396193534E+02  0.28870488886E+02  0.32158226905E+03  0.35253638345E+03  0.12499914497E+03 0.  0.
          5    1    3    3  501    0  0.15202468084E+02 -0.43454349322E+02  0.17762357948E+03  0.18349261974E+03  0.10000000000E+00 0.  1.
         -5    1    3    3    0  501  0.51193725450E+02  0.72324838207E+02  0.14395868957E+03  0.16904376371E+03  0.10000000000E+00 0.  1.
         21    1    1    2  504  502 -0.66396193534E+02 -0.28870488886E+02 -0.59028292913E+02  0.93414661636E+02  0.00000000000E+00 0. -1.
<mgrwt>
<rscale>  1 0.14445327E+03</rscale>
<asrwt>0</asrwt>
<pdfrwt beam="1">  1       21 0.54500385E-01 0.14445327E+03</pdfrwt>
<pdfrwt beam="2">  1       21 0.14107467E-01 0.14445327E+03</pdfrwt>
<totfact> 0.14172614E+05</totfact>
</mgrwt>
</event>
<event>
 6    1  0.4202038E-002  0.1259003E+03  0.7546771E-02  0.1233669E+00
         21   -1    0    0  504  502  0.00000000000E+00  0.00000000000E+00  0.16150778598E+03  0.16150778598E+03  0.00000000000E+00 0.  1.
         21   -1    0    0  502  503 -0.00000000000E+00 -0.00000000000E+00 -0.30838768628E+02  0.30838768628E+02  0.00000000000E+00 0.  1.
         25    2    1    2    0    0 -0.12967891256E+02  0.76470838553E+01  0.11345891526E+03  0.16948104108E+03  0.12499701491E+03 0.  0.
          5    1    3    3  501    0 -0.32506488349E+02  0.41170629429E+02  0.11922329998E+03  0.13025320637E+03  0.10000000000E+00 0.  1.
         -5    1    3    3    0  501  0.19538597094E+02 -0.33523545573E+02 -0.57643847212E+01  0.39227834702E+02  0.10000000000E+00 0.  1.
         21    1    1    2  504  503  0.12967891256E+02 -0.76470838553E+01  0.17210102095E+02  0.22865513535E+02  0.00000000000E+00 0.  1.
<mgrwt>
<rscale>  1 0.12590035E+03</rscale>
<asrwt>0</asrwt>
<pdfrwt beam="1">  1       21 0.24847351E-01 0.12590035E+03</pdfrwt>
<pdfrwt beam="2">  1       21 0.47444260E-02 0.12590035E+03</pdfrwt>
<totfact> 0.44402258E+06</totfact>
</mgrwt>
</event>
<event>
 6    1  0.4202038E-002  0.1268422E+03  0.7546771E-02  0.1232218E+00
         21   -1    0    0  503  502  0.00000000000E+00  0.00000000000E+00  0.51310063344E+01  0.51310063344E+01  0.00000000000E+00 0. -1.
         21   -1    0    0  504  503 -0.00000000000E+00 -0.00000000000E+00 -0.19989433909E+04  0.19989433909E+04  0.00000000000E+00 0. -1.
         25    2    1    2    0    0  0.18829038435E+02  0.10524038018E+02 -0.79396946020E+03  0.80403759312E+03  0.12499463734E+03 0.  0.
          5    1    3    3  501    0  0.37269362553E+02  0.44800018674E+02 -0.18812864758E+03  0.19694782329E+03  0.10000000000E+00 0. -1.
         -5    1    3    3    0  501 -0.18440324118E+02 -0.34275980657E+02 -0.60584081262E+03  0.60708976983E+03  0.10000000000E+00 0. -1.
         21    1    1    2  504  502 -0.18829038435E+02 -0.10524038018E+02 -0.11998429243E+04  0.12000368041E+04  0.00000000000E+00 0.  1.
<mgrwt>
<rscale>  1 0.12684221E+03</rscale>
<asrwt>0</asrwt>
<pdfrwt beam="1">  1       21 0.78938437E-03 0.12684221E+03</pdfrwt>
<pdfrwt beam="2">  1       21 0.30753023E+00 0.12684221E+03</pdfrwt>
<totfact> 0.17868776E+05</totfact>
</mgrwt>
</event>
<event>
 6    1  0.4202038E-002  0.1263378E+03  0.7546771E-02  0.1232993E+00
         21   -1    0    0  503  502  0.00000000000E+00  0.00000000000E+00  0.33553544794E+02  0.33553544794E+02  0.00000000000E+00 0.  1.
         21   -1    0    0  504  503 -0.00000000000E+00 -0.00000000000E+00 -0.24239726463E+03  0.24239726463E+03  0.00000000000E+00 0. -1.
         25    2    1    2    0    0 -0.17041906777E+02  0.70711745869E+01 -0.88621703554E+02  0.15432120244E+03  0.12498319521E+03 0.  0.
          5    1    3    3  501    0 -0.67470067872E+02 -0.18113911316E+02 -0.45825802516E+02  0.83548417209E+02  0.10000000000E+00 0.  1.
         -5    1    3    3    0  501  0.50428161096E+02  0.25185085903E+02 -0.42795901038E+02  0.70772785229E+02  0.10000000000E+00 0.  1.
         21    1    1    2  504  502  0.17041906777E+02 -0.70711745869E+01 -0.12022201628E+03  0.12162960698E+03  0.00000000000E+00 0. -1.
<mgrwt>
<rscale>  1 0.12633775E+03</rscale>
<asrwt>0</asrwt>
<pdfrwt beam="1">  1       21 0.51620838E-02 0.12633775E+03</pdfrwt>
<pdfrwt beam="2">  1       21 0.37291887E-01 0.12633775E+03</pdfrwt>
<totfact> 0.17594859E+06</totfact>
</mgrwt>
</event>
<event>
 6    1  0.4202038E-002  0.1278754E+03  0.7546771E-02  0.1230643E+00
         21   -1    0    0  503  502  0.00000000000E+00  0.00000000000E+00  0.28505600895E+02  0.28505600895E+02  0.00000000000E+00 0.  1.
         21   -1    0    0  504  503 -0.00000000000E+00 -0.00000000000E+00 -0.22740089531E+03  0.22740089531E+03  0.00000000000E+00 0.  1.
         25    2    1    2    0    0 -0.10753307285E+02 -0.24701322766E+02 -0.13196492290E+03  0.18375759742E+03  0.12500529897E+03 0.  0.
          5    1    3    3  501    0  0.71181316774E+01 -0.73727112093E+02 -0.62753456472E+02  0.97079148922E+02  0.10000000000E+00 0.  1.
         -5    1    3    3    0  501 -0.17871438963E+02  0.49025789327E+02 -0.69211466424E+02  0.86678448500E+02  0.10000000000E+00 0.  1.
         21    1    1    2  504  502  0.10753307285E+02  0.24701322766E+02 -0.66930371516E+02  0.72148898781E+02  0.00000000000E+00 0.  1.
<mgrwt>
<rscale>  1 0.12787538E+03</rscale>
<asrwt>0</asrwt>
<pdfrwt beam="1">  1       21 0.43854769E-02 0.12787538E+03</pdfrwt>
<pdfrwt beam="2">  1       21 0.34984754E-01 0.12787538E+03</pdfrwt>
<totfact> 0.26230123E+06</totfact>
</mgrwt>
</event>
<event>
 6    1  0.4202038E-002  0.1403149E+03  0.7546771E-02  0.1212906E+00
         21   -1    0    0  503  502  0.00000000000E+00  0.00000000000E+00  0.41661710346E+02  0.41661710346E+02  0.00000000000E+00 0.  1.
         21   -1    0    0  504  503 -0.00000000000E+00 -0.00000000000E+00 -0.99124150579E+03  0.99124150579E+03  0.00000000000E+00 0.  1.
         25    2    1    2    0    0  0.35308127823E+01 -0.63658419376E+02 -0.81059668526E+02  0.16204612576E+03  0.12499366390E+03 0.  0.
          5    1    3    3  501    0  0.24830771624E+02 -0.35526751658E+02 -0.10882948538E+03  0.11714343426E+03  0.10000000000E+00 0. -1.
         -5    1    3    3    0  501 -0.21299958842E+02 -0.28131667718E+02  0.27769816856E+02  0.44902691495E+02  0.10000000000E+00 0. -1.
         21    1    1    2  504  502 -0.35308127823E+01  0.63658419376E+02 -0.86852012692E+03  0.87085709038E+03  0.00000000000E+00 0.  1.
<mgrwt>
<rscale>  1 0.14031492E+03</rscale>
<asrwt>0</asrwt>
<pdfrwt beam="1">  1       21 0.64094941E-02 0.14031492E+03</pdfrwt>
<pdfrwt beam="2">  1       21 0.15249869E+00 0.14031492E+03</pdfrwt>
<totfact> 0.51967088E+04</totfact>
</mgrwt>
</event>
<event>
 6    1  0.4202038E-002  0.1379212E+03  0.7546771E-02  0.1216154E+00
         21   -1    0    0  503  502  0.00000000000E+00  0.00000000000E+00  0.60170493706E+03  0.60170493706E+03  0.00000000000E+00 0. -1.
         21   -1    0    0  504  503 -0.00000000000E+00 -0.00000000000E+00 -0.16497167438E+02  0.16497167438E+02  0.00000000000E+00 0. -1.
         25    2    1    2    0    0 -0.34898937193E+02  0.46681652986E+02  0.45719113705E+03  0.47754162406E+03  0.12500061747E+03 0.  0.
          5    1    3    3  501    0 -0.66118802028E+02 -0.69445281543E+01  0.32197432244E+03  0.32876647756E+03  0.10000000000E+00 0.  1.
         -5    1    3    3    0  501  0.31219864834E+02  0.53626181140E+02  0.13521681461E+03  0.14877514650E+03  0.10000000000E+00 0.  1.
         21    1    1    2  504  502  0.34898937193E+02 -0.46681652986E+02  0.12801663257E+03  0.14066048044E+03  0.00000000000E+00 0. -1.
<mgrwt>
<rscale>  1 0.13792123E+03</rscale>
<asrwt>0</asrwt>
<pdfrwt beam="1">  1       21 0.92569973E-01 0.13792123E+03</pdfrwt>
<pdfrwt beam="2">  1       21 0.25380262E-02 0.13792123E+03</pdfrwt>
<totfact> 0.82554878E+05</totfact>
</mgrwt>
</event>
<event>
 6    1  0.4202038E-002  0.1330104E+03  0.7546771E-02  0.1223056E+00
         21   -1    0    0  503  502  0.00000000000E+00  0.00000000000E+00  0.86909593158E+02  0.86909593158E+02  0.00000000000E+00 0. -1.
         21   -1    0    0  504  503 -0.00000000000E+00 -0.00000000000E+00 -0.12487193012E+03  0.12487193012E+03  0.00000000000E+00 0. -1.
         25    2    1    2    0    0 -0.36155257991E+02 -0.27549468749E+02  0.23771907869E+02  0.13511801896E+03  0.12500239812E+03 0.  0.
          5    1    3    3  501    0  0.42436232615E+02  0.16528372738E+01 -0.11746797449E+02  0.44063170108E+02  0.10000000000E+00 0. -1.
         -5    1    3    3    0  501 -0.78591490606E+02 -0.29202306023E+02  0.35518705319E+02  0.91054848857E+02  0.10000000000E+00 0. -1.
         21    1    1    2  504  502  0.36155257991E+02  0.27549468749E+02 -0.61734244834E+02  0.76663504316E+02  0.00000000000E+00 0. -1.
<mgrwt>
<rscale>  1 0.13301043E+03</rscale>
<asrwt>0</asrwt>
<pdfrwt beam="1">  1       21 0.13370707E-01 0.13301043E+03</pdfrwt>
<pdfrwt beam="2">  1       21 0.19211066E-01 0.13301043E+03</pdfrwt>
<totfact> 0.12016988E+06</totfact>
</mgrwt>
</event>
<event>
 6    1  0.4202038E-002  0.1376355E+03  0.7546771E-02  0.1216546E+00
         21   -1    0    0  503  502  0.00000000000E+00  0.00000000000E+00  0.52687375794E+02  0.52687375794E+02  0.00000000000E+00 0.  1.
         21   -1    0    0  504  503 -0.00000000000E+00 -0.00000000000E+00 -0.19176659649E+03  0.19176659649E+03  0.00000000000E+00 0.  1.
         25    2    1    2    0    0  0.29147173193E+02 -0.49704596975E+02 -0.69731958013E+02  0.15429218710E+03  0.12499371331E+03 0.  0.
          5    1    3    3  501    0 -0.12386452057E+02 -0.18102892614E+02  0.32674205715E+02  0.39354194626E+02  0.10000000000E+00 0.  1.
         -5    1    3    3    0  501  0.41533625251E+02 -0.31601704361E+02 -0.10240616373E+03  0.11493799248E+03  0.10000000000E+00 0.  1.
         21    1    1    2  504  502 -0.29147173193E+02  0.49704596975E+02 -0.69347262684E+02  0.90161785183E+02  0.00000000000E+00 0.  1.
<mgrwt>
<rscale>  1 0.13763551E+03</rscale>
<asrwt>0</asrwt>
<pdfrwt beam="1">  1       21 0.81057501E-02 0.13763551E+03</pdfrwt>
<pdfrwt beam="2">  1       21 0.29502553E-01 0.13763551E+03</pdfrwt>
<totfact> 0.12906812E+06</totfact>
</mgrwt>
</event>
<event>
 6    1  0.4202038E-002  0.1266092E+03  0.7546771E-02  0.1232576E+00
         21   -1    0    0  504  502  0.00000000000E+00  0.00000000000E+00  0.53710923580E+02  0.53710923580E+02  0.00000000000E+00 0.  1.
         21   -1    0    0  502  503 -0.00000000000E+00 -0.00000000000E+00 -0.10046907524E+03  0.10046907524E+03  0.00000000000E+00 0.  1.
         25    2    1    2    0    0 -0.20068586585E+02 -0.85409754552E+00 -0.43227327505E+02  0.13378528457E+03  0.12500569136E+03 0.  0.
          5    1    3    3  501    0  0.16897203839E+02  0.56160032992E+02 -0.20982920820E+02  0.62287701590E+02  0.10000000000E+00 0. -1.
         -5    1    3    3    0  501 -0.36965790424E+02 -0.57014130538E+02 -0.22244406685E+02  0.71497582976E+02  0.10000000000E+00 0. -1.
         21    1    1    2  504  503  0.20068586585E+02  0.85409754552E+00 -0.35308241508E+01  0.20394714249E+02  0.00000000000E+00 0.  1.
<mgrwt>
<rscale>  1 0.12660924E+03</rscale>
<asrwt>0</asrwt>
<pdfrwt beam="1">  1       21 0.82632191E-02 0.12660924E+03</pdfrwt>
<pdfrwt beam="2">  1       21 0.15456781E-01 0.12660924E+03</pdfrwt>
<totfact> 0.41533176E+06</totfact>
</mgrwt>
</event>
<event>
 6    1  0.4202038E-002  0.1261312E+03  0.7546771E-02  0.1233312E+00
         21   -1    0    0  503  502  0.00000000000E+00  0.00000000000E+00  0.98196316827E+03  0.98196316827E+03  0.00000000000E+00 0. -1.
         21   -1    0    0  504  503 -0.00000000000E+00 -0.00000000000E+00 -0.52066548042E+01  0.52066548042E+01  0.00000000000E+00 0. -1.
         25    2    1    2    0    0  0.74180163184E+01 -0.15129125664E+02  0.86756265704E+03  0.87668355384E+03  0.12500068905E+03 0.  0.
          5    1    3    3  501    0 -0.12180790091E+02  0.39484962115E+02  0.12083486154E+03  0.12770476751E+03  0.10000000000E+00 0. -1.
         -5    1    3    3    0  501  0.19598806409E+02 -0.54614087780E+02  0.74672779550E+03  0.74897878632E+03  0.10000000000E+00 0. -1.
         21    1    1    2  504  502 -0.74180163184E+01  0.15129125664E+02  0.10919385642E+03  0.11048626924E+03  0.00000000000E+00 0. -1.
<mgrwt>
<rscale>  1 0.12613124E+03</rscale>
<asrwt>0</asrwt>
<pdfrwt beam="1">  1       21 0.15107111E+00 0.12613124E+03</pdfrwt>
<pdfrwt beam="2">  1       21 0.80102460E-03 0.12613124E+03</pdfrwt>
<totfact> 0.15760516E+06</totfact>
</mgrwt>
</event>
<event>
 6    1  0.4202038E-002  0.1678358E+03  0.7546771E-02  0.1180124E+00
         21   -1    0    0  503  502  0.00000000000E+00  0.00000000000E+00  0.63433400198E+03  0.63433400198E+03  0.00000000000E+00 0. -1.
         21   -1    0    0  504  503 -0.00000000000E+00 -0.00000000000E+00 -0.32546689800E+02  0.32546689800E+02  0.00000000000E+00 0. -1.
         25    2    1    2    0    0  0.65762257894E+02 -0.90674752761E+02  0.43216808230E+03  0.46361419553E+03  0.12498914188E+03 0.  0.
          5    1    3    3  501    0  0.21756697252E+02 -0.82843432343E+01  0.19379815200E+01  0.23361292570E+02  0.10000000000E+00 0. -1.
         -5    1    3    3    0  501  0.44005560642E+02 -0.82390409527E+02  0.43023010078E+03  0.44025290296E+03  0.10000000000E+00 0. -1.
         21    1    1    2  504  502 -0.65762257894E+02  0.90674752761E+02  0.16961922988E+03  0.20326649625E+03  0.00000000000E+00 0. -1.
<mgrwt>
<rscale>  1 0.16783585E+03</rscale>
<asrwt>0</asrwt>
<pdfrwt beam="1">  1       21 0.97589837E-01 0.16783585E+03</pdfrwt>
<pdfrwt beam="2">  1       21 0.50071835E-02 0.16783585E+03</pdfrwt>
<totfact> 0.23515831E+05</totfact>
</mgrwt>
</event>
<event>
 6    1  0.4202038E-002  0.1527587E+03  0.7546771E-02  0.1197124E+00
         21   -1    0    0  503  502  0.00000000000E+00  0.00000000000E+00  0.81428426704E+02  0.81428426704E+02  0.00000000000E+00 0. -1.
         21   -1    0    0  504  503 -0.00000000000E+00 -0.00000000000E+00 -0.42878673723E+03  0.42878673723E+03  0.00000000000E+00 0.  1.
         25    2    1    2    0    0 -0.34975544926E+02 -0.80549400728E+02 -0.85880462476E+00  0.15276110774E+03  0.12499489506E+03 0.  0.
          5    1    3    3  501    0  0.27030616656E+02  0.20388871930E+02 -0.50065691409E+01  0.34226248260E+02  0.10000000000E+00 0.  1.
         -5    1    3    3    0  501 -0.62006161582E+02 -0.10093827266E+03  0.41477645162E+01  0.11853485948E+03  0.10000000000E+00 0.  1.
         21    1    1    2  504  502  0.34975544926E+02  0.80549400728E+02 -0.34649950591E+03  0.35745405620E+03  0.00000000000E+00 0.  1.
<mgrwt>
<rscale>  1 0.15275869E+03</rscale>
<asrwt>0</asrwt>
<pdfrwt beam="1">  1       21 0.12527450E-01 0.15275869E+03</pdfrwt>
<pdfrwt beam="2">  1       21 0.65967190E-01 0.15275869E+03</pdfrwt>
<totfact> 0.11638720E+05</totfact>
</mgrwt>
</event>
<event>
 6    1  0.4202038E-002  0.1318897E+03  0.7546771E-02  0.1224678E+00
         21   -1    0    0  504  502  0.00000000000E+00  0.00000000000E+00  0.16555351910E+03  0.16555351910E+03  0.00000000000E+00 0. -1.
         21   -1    0    0  502  503 -0.00000000000E+00 -0.00000000000E+00 -0.74243501784E+02  0.74243501784E+02  0.00000000000E+00 0. -1.
         25    2    1    2    0    0 -0.56240116024E+01  0.41674541771E+02  0.12814649026E+03  0.18389243541E+03  0.12500603144E+03 0.  0.
          5    1    3    3  501    0 -0.55765768298E+02  0.18602616083E+02  0.11182301838E+03  0.12633398465E+03  0.10000000000E+00 0.  1.
         -5    1    3    3    0  501  0.50141756695E+02  0.23071925687E+02  0.16323471880E+02  0.57558450758E+02  0.10000000000E+00 0.  1.
         21    1    1    2  504  503  0.56240116024E+01 -0.41674541771E+02 -0.36836472941E+02  0.55904585474E+02  0.00000000000E+00 0. -1.
<mgrwt>
<rscale>  1 0.13188974E+03</rscale>
<asrwt>0</asrwt>
<pdfrwt beam="1">  1       21 0.25469772E-01 0.13188974E+03</pdfrwt>
<pdfrwt beam="2">  1       21 0.11422077E-01 0.13188974E+03</pdfrwt>
<totfact> 0.93858594E+05</totfact>
</mgrwt>
</event>
<event>
 6    1  0.4202038E-002  0.1333093E+03  0.7546771E-02  0.1222626E+00
         21   -1    0    0  504  502  0.00000000000E+00  0.00000000000E+00  0.92895257223E+03  0.92895257223E+03  0.00000000000E+00 0.  1.
         21   -1    0    0  502  503 -0.00000000000E+00 -0.00000000000E+00 -0.98450740635E+01  0.98450740635E+01  0.00000000000E+00 0.  1.
         25    2    1    2    0    0 -0.42988396410E+02 -0.17339759157E+02  0.79920662227E+03  0.81024847471E+03  0.12499078454E+03 0.  0.
          5    1    3    3  501    0 -0.54375130434E+01  0.39628500222E+02  0.56205675395E+03  0.56347829527E+03  0.10000000000E+00 0.  1.
         -5    1    3    3    0  501 -0.37550883367E+02 -0.56968259379E+02  0.23714986832E+03  0.24677017945E+03  0.10000000000E+00 0.  1.
         21    1    1    2  504  503  0.42988396410E+02  0.17339759157E+02  0.11990087589E+03  0.12854917158E+03  0.00000000000E+00 0.  1.
<mgrwt>
<rscale>  1 0.13330929E+03</rscale>
<asrwt>0</asrwt>
<pdfrwt beam="1">  1       21 0.14291571E+00 0.13330929E+03</pdfrwt>
<pdfrwt beam="2">  1       21 0.15146275E-02 0.13330929E+03</pdfrwt>
<totfact> 0.66353814E+05</totfact>
</mgrwt>
</event>
<event>
 6    1  0.4202038E-002  0.1295432E+03  0.7546771E-02  0.1228135E+00
         21   -1    0    0  504  502  0.00000000000E+00  0.00000000000E+00  0.12644730602E+03  0.12644730602E+03  0.00000000000E+00 0. -1.
         21   -1    0    0  502  503 -0.00000000000E+00 -0.00000000000E+00 -0.71303689980E+02  0.71303689980E+02  0.00000000000E+00 0. -1.
         25    2    1    2    0    0  0.33795759756E+02  0.36298528766E+01  0.82959343963E+02  0.15383011339E+03  0.12500448722E+03 0.  0.
          5    1    3    3  501    0  0.43267067609E+02  0.54156114969E+02  0.19198145167E+02  0.71927065183E+02  0.10000000000E+00 0.  1.
         -5    1    3    3    0  501 -0.94713078525E+01 -0.50526262092E+02  0.63761198795E+02  0.81903048205E+02  0.10000000000E+00 0.  1.
         21    1    1    2  504  503 -0.33795759756E+02 -0.36298528766E+01 -0.27815727923E+02  0.43920882611E+02  0.00000000000E+00 0. -1.
<mgrwt>
<rscale>  1 0.12954324E+03</rscale>
<asrwt>0</asrwt>
<pdfrwt beam="1">  1       21 0.19453432E-01 0.12954324E+03</pdfrwt>
<pdfrwt beam="2">  1       21 0.10969798E-01 0.12954324E+03</pdfrwt>
<totfact> 0.16672520E+06</totfact>
</mgrwt>
</event>
<event>
 6    1  0.4202038E-002  0.1271817E+03  0.7546771E-02  0.1231699E+00
         21   -1    0    0  503  502  0.00000000000E+00  0.00000000000E+00  0.26988958893E+02  0.26988958893E+02  0.00000000000E+00 0. -1.
         21   -1    0    0  504  503 -0.00000000000E+00 -0.00000000000E+00 -0.51790621410E+03  0.51790621410E+03  0.00000000000E+00 0. -1.
         25    2    1    2    0    0 -0.72256615483E+01  0.22313252975E+02 -0.12533388548E+03  0.17856022835E+03  0.12500032343E+03 0.  0.
          5    1    3    3  501    0  0.44672050615E+02 -0.29667186953E+02 -0.56447777853E+02  0.77859461291E+02  0.10000000000E+00 0. -1.
         -5    1    3    3    0  501 -0.51897712164E+02  0.51980439929E+02 -0.68886107625E+02  0.10070076706E+03  0.10000000000E+00 0. -1.
         21    1    1    2  504  502  0.72256615483E+01 -0.22313252975E+02 -0.36558336972E+03  0.36633494464E+03  0.00000000000E+00 0. -1.
<mgrwt>
<rscale>  1 0.12718165E+03</rscale>
<asrwt>0</asrwt>
<pdfrwt beam="1">  1       21 0.41521479E-02 0.12718165E+03</pdfrwt>
<pdfrwt beam="2">  1       21 0.79677872E-01 0.12718165E+03</pdfrwt>
<totfact> 0.51611991E+05</totfact>
</mgrwt>
</event>
<event>
 6    1  0.4202038E-002  0.1265138E+03  0.7546771E-02  0.1232722E+00
         21   -1    0    0  503  502  0.00000000000E+00  0.00000000000E+00  0.33188833536E+03  0.33188833536E+03  0.00000000000E+00 0.  1.
         21   -1    0    0  504  503 -0.00000000000E+00 -0.00000000000E+00 -0.11127812800E+03  0.11127812800E+03  0.00000000000E+00 0.  1.
         25    2    1    2    0    0  0.19540638690E+02  0.27687401710E+00  0.31883407608E+03  0.34301736647E+03  0.12499532956E+03 0.  0.
          5    1    3    3  501    0  0.37979473002E+02 -0.23914400524E+02  0.33345796926E+02  0.55913246146E+02  0.10000000000E+00 0.  1.
         -5    1    3    3    0  501 -0.18438834311E+02  0.24191274541E+02  0.28548827916E+03  0.28710412033E+03  0.10000000000E+00 0.  1.
         21    1    1    2  504  502 -0.19540638690E+02 -0.27687401710E+00 -0.98223868726E+02  0.10014909689E+03  0.00000000000E+00 0.  1.
<mgrwt>
<rscale>  1 0.12651382E+03</rscale>
<asrwt>0</asrwt>
<pdfrwt beam="1">  1       21 0.51059744E-01 0.12651382E+03</pdfrwt>
<pdfrwt beam="2">  1       21 0.17119712E-01 0.12651382E+03</pdfrwt>
<totfact> 0.11508586E+05</totfact>
</mgrwt>
</event>
<event>
 6    1  0.4202038E-002  0.1274222E+03  0.7546771E-02  0.1231332E+00
         21   -1    0    0  503  502  0.00000000000E+00  0.00000000000E+00  0.19945342108E+03  0.19945342108E+03  0.00000000000E+00 0. -1.
         21   -1    0    0  504  503 -0.00000000000E+00 -0.00000000000E+00 -0.14666836301E+03  0.14666836301E+03  0.00000000000E+00 0. -1.
         25    2    1    2    0    0 -0.24368243796E+02 -0.42742248928E+01  0.17776522178E+03  0.21871644031E+03  0.12499730751E+03 0.  0.
          5    1    3    3  501    0 -0.21955504569E+02  0.11385889271E+02  0.19426929151E+03  0.19583730563E+03  0.10000000000E+00 0.  1.
         -5    1    3    3    0  501 -0.24127392273E+01 -0.15660114164E+02 -0.16504069727E+02  0.22879134681E+02  0.10000000000E+00 0.  1.
         21    1    1    2  504  502  0.24368243796E+02  0.42742248928E+01 -0.12498016371E+03  0.12740534378E+03  0.00000000000E+00 0. -1.
<mgrwt>
<rscale>  1 0.12742216E+03</rscale>
<asrwt>0</asrwt>
<pdfrwt beam="1">  1       21 0.30685142E-01 0.12742216E+03</pdfrwt>
<pdfrwt beam="2">  1       21 0.22564364E-01 0.12742216E+03</pdfrwt>
<totfact> 0.19110084E+05</totfact>
</mgrwt>
</event>
<event>
 6    1  0.4202038E-002  0.1263672E+03  0.7546771E-02  0.1232948E+00
         21   -1    0    0  503  502  0.00000000000E+00  0.00000000000E+00  0.78370118730E+02  0.78370118730E+02  0.00000000000E+00 0. -1.
         21   -1    0    0  504  503 -0.00000000000E+00 -0.00000000000E+00 -0.10503585728E+03  0.10503585728E+03  0.00000000000E+00 0.  1.
         25    2    1    2    0    0 -0.15257349946E+02  0.10509515802E+02  0.24737727206E+02  0.12876576242E+03  0.12500171908E+03 0.  0.
          5    1    3    3  501    0 -0.27925567121E+02 -0.65853638922E+01 -0.46377775150E+02  0.54535422842E+02  0.10000000000E+00 0.  1.
         -5    1    3    3    0  501  0.12668217175E+02  0.17094879694E+02  0.71115502356E+02  0.74230339575E+02  0.10000000000E+00 0.  1.
         21    1    1    2  504  502  0.15257349946E+02 -0.10509515802E+02 -0.51403465760E+02  0.54640213597E+02  0.00000000000E+00 0.  1.
<mgrwt>
<rscale>  1 0.12636719E+03</rscale>
<asrwt>0</asrwt>
<pdfrwt beam="1">  1       21 0.12056941E-01 0.12636719E+03</pdfrwt>
<pdfrwt beam="2">  1       21 0.16159363E-01 0.12636719E+03</pdfrwt>
<totfact> 0.19794052E+06</totfact>
</mgrwt>
</event>
<event>
 6    1  0.4202038E-002  0.1340932E+03  0.7546771E-02  0.1221506E+00
         21   -1    0    0  504  502  0.00000000000E+00  0.00000000000E+00  0.61451364000E+02  0.61451364000E+02  0.00000000000E+00 0. -1.
         21   -1    0    0  502  503 -0.00000000000E+00 -0.00000000000E+00 -0.44776652595E+03  0.44776652595E+03  0.00000000000E+00 0. -1.
         25    2    1    2    0    0  0.28123269735E+02 -0.39576599776E+02 -0.15213192291E+02  0.13495341470E+03  0.12499502938E+03 0.  0.
          5    1    3    3  501    0  0.43694476475E+02 -0.78870658392E+02 -0.40132560388E+00  0.90166285783E+02  0.10000000000E+00 0. -1.
         -5    1    3    3    0  501 -0.15571206740E+02  0.39294058616E+02 -0.14811866688E+02  0.44787128917E+02  0.10000000000E+00 0. -1.
         21    1    1    2  504  503 -0.28123269735E+02  0.39576599776E+02 -0.37110196966E+03  0.37426447525E+03  0.00000000000E+00 0. -1.
<mgrwt>
<rscale>  1 0.13409319E+03</rscale>
<asrwt>0</asrwt>
<pdfrwt beam="1">  1       21 0.94540559E-02 0.13409319E+03</pdfrwt>
<pdfrwt beam="2">  1       21 0.68887159E-01 0.13409319E+03</pdfrwt>
<totfact> 0.17512978E+05</totfact>
</mgrwt>
</event>
<event>
 6    1  0.4202038E-002  0.1265522E+03  0.7546771E-02  0.1232663E+00
         21   -1    0    0  504  502  0.00000000000E+00  0.00000000000E+00  0.39918310545E+03  0.39918310545E+03  0.00000000000E+00 0. -1.
         21   -1    0    0  502  503 -0.00000000000E+00 -0.00000000000E+00 -0.13407753940E+02  0.13407753940E+02  0.00000000000E+00 0. -1.
         25    2    1    2    0    0  0.19412566957E+02  0.37111938946E+01  0.33401368098E+03  0.35718426004E+03  0.12499934327E+03 0.  0.
          5    1    3    3  501    0 -0.30478812756E+02 -0.29146333549E+02  0.25319659563E+03  0.25668461743E+03  0.10000000000E+00 0.  1.
         -5    1    3    3    0  501  0.49891379713E+02  0.32857527444E+02  0.80817085355E+02  0.10049964261E+03  0.10000000000E+00 0.  1.
         21    1    1    2  504  503 -0.19412566957E+02 -0.37111938946E+01  0.51761670526E+02  0.55406599351E+02  0.00000000000E+00 0.  1.
<mgrwt>
<rscale>  1 0.12655219E+03</rscale>
<asrwt>0</asrwt>
<pdfrwt beam="1">  1       21 0.61412776E-01 0.12655219E+03</pdfrwt>
<pdfrwt beam="2">  1       21 0.20627317E-02 0.12655219E+03</pdfrwt>
<totfact> 0.28636276E+06</totfact>
</mgrwt>
</event>
<event>
 6    1  0.4202038E-002  0.1262046E+03  0.7546771E-02  0.1233199E+00
         21   -1    0    0  504  502  0.00000000000E+00  0.00000000000E+00  0.13735461319E+02  0.13735461319E+02  0.00000000000E+00 0. -1.
         21   -1    0    0  502  503 -0.00000000000E+00 -0.00000000000E+00 -0.71020203424E+03  0.71020203424E+03  0.00000000000E+00 0. -1.
         25    2    1    2    0    0 -0.10510828372E+02  0.13861744190E+02 -0.28023165848E+03  0.30733921248E+03  0.12499993459E+03 0.  0.
          5    1    3    3  501    0 -0.51447072086E+00 -0.47712646758E+02 -0.51298350502E+02  0.70059204284E+02  0.10000000000E+00 0. -1.
         -5    1    3    3    0  501 -0.99963576509E+01  0.61574390948E+02 -0.22893330798E+03  0.23728000820E+03  0.10000000000E+00 0. -1.
         21    1    1    2  504  503  0.10510828372E+02 -0.13861744190E+02 -0.41623491444E+03  0.41659828308E+03  0.00000000000E+00 0. -1.
<mgrwt>
<rscale>  1 0.12620463E+03</rscale>
<asrwt>0</asrwt>
<pdfrwt beam="1">  1       21 0.21131473E-02 0.12620463E+03</pdfrwt>
<pdfrwt beam="2">  1       21 0.10926188E+00 0.12620463E+03</pdfrwt>
<totfact> 0.75394233E+05</totfact>
</mgrwt>
</event>
<event>
 6    1  0.4202038E-002  0.1298740E+03  0.7546771E-02  0.1227643E+00
         21   -1    0    0  503  502  0.00000000000E+00  0.00000000000E+00  0.15433329407E+03  0.15433329407E+03  0.00000000000E+00 0. -1.
         21   -1    0    0  504  503 -0.00000000000E+00 -0.00000000000E+00 -0.44651920823E+02  0.44651920823E+02  0.00000000000E+00 0. -1.
         25    2    1    2    0    0 -0.23637420837E+02 -0.26146585469E+02  0.94455820360E+02  0.16059004519E+03  0.12499955608E+03 0.  0.
          5    1    3    3  501    0 -0.25985683855E+02  0.10502064411E+02  0.11509859566E+03  0.11846200169E+03  0.10000000000E+00 0.  1.
         -5    1    3    3    0  501  0.23482630180E+01 -0.36648649880E+02 -0.20642775297E+02  0.42128043501E+02  0.10000000000E+00 0.  1.
         21    1    1    2  504  502  0.23637420837E+02  0.26146585469E+02  0.15225552883E+02  0.38395169698E+02  0.00000000000E+00 0. -1.
<mgrwt>
<rscale>  1 0.12987402E+03</rscale>
<asrwt>0</asrwt>
<pdfrwt beam="1">  1       21 0.23743583E-01 0.12987402E+03</pdfrwt>
<pdfrwt beam="2">  1       21 0.68695264E-02 0.12987402E+03</pdfrwt>
<totfact> 0.25900612E+06</totfact>
</mgrwt>
</event>
<event>
 6    1  0.4202038E-002  0.1276326E+03  0.7546771E-02  0.1231011E+00
         21   -1    0    0  504  502  0.00000000000E+00  0.00000000000E+00  0.45150395604E+02  0.45150395604E+02  0.00000000000E+00 0. -1.
         21   -1    0    0  502  503 -0.00000000000E+00 -0.00000000000E+00 -0.54900740850E+03  0.54900740850E+03  0.00000000000E+00 0.  1.
         25    2    1    2    0    0 -0.16182923942E+02  0.20079011996E+02 -0.46142546291E+02  0.13571741900E+03  0.12500011797E+03 0.  0.
          5    1    3    3  501    0  0.20926617206E+02  0.65575737597E+02 -0.27394581727E+02  0.74084909240E+02  0.10000000000E+00 0.  1.
         -5    1    3    3    0  501 -0.37109541148E+02 -0.45496725601E+02 -0.18747964563E+02  0.61632509765E+02  0.10000000000E+00 0.  1.
         21    1    1    2  504  503  0.16182923942E+02 -0.20079011996E+02 -0.45771446661E+03  0.45844038510E+03  0.00000000000E+00 0.  1.
<mgrwt>
<rscale>  1 0.12763261E+03</rscale>
<asrwt>0</asrwt>
<pdfrwt beam="1">  1       21 0.69462148E-02 0.12763261E+03</pdfrwt>
<pdfrwt beam="2">  1       21 0.84462678E-01 0.12763261E+03</pdfrwt>
<totfact> 0.19018157E+05</totfact>
</mgrwt>
</event>
<event>
 6    1  0.4202038E-002  0.1261222E+03  0.7546771E-02  0.1233326E+00
         21   -1    0    0  503  502  0.00000000000E+00  0.00000000000E+00  0.34856223858E+02  0.34856223858E+02  0.00000000000E+00 0.  1.
         21   -1    0    0  504  503 -0.00000000000E+00 -0.00000000000E+00 -0.14690938503E+03  0.14690938503E+03  0.00000000000E+00 0.  1.
         25    2    1    2    0    0 -0.40506715164E+01 -0.16313784852E+02 -0.10176041544E+03  0.16205550664E+03  0.12499703023E+03 0.  0.
          5    1    3    3  501    0  0.55836633379E+02 -0.92864545557E+01 -0.19100275074E+02  0.59739420596E+02  0.10000000000E+00 0. -1.
         -5    1    3    3    0  501 -0.59887304895E+02 -0.70273302960E+01 -0.82660140361E+02  0.10231608604E+03  0.10000000000E+00 0. -1.
         21    1    1    2  504  502  0.40506715164E+01  0.16313784852E+02 -0.10292745741E+02  0.19710102253E+02  0.00000000000E+00 0.  1.
<mgrwt>
<rscale>  1 0.12612218E+03</rscale>
<asrwt>0</asrwt>
<pdfrwt beam="1">  1       21 0.53624960E-02 0.12612218E+03</pdfrwt>
<pdfrwt beam="2">  1       21 0.22601444E-01 0.12612218E+03</pdfrwt>
<totfact> 0.43192708E+06</totfact>
</mgrwt>
</event>
<event>
 6    1  0.4202038E-002  0.1267716E+03  0.7546771E-02  0.1232326E+00
         21   -1    0    0  504  502  0.00000000000E+00  0.00000000000E+00  0.18038337895E+02  0.18038337895E+02  0.00000000000E+00 0.  1.
         21   -1    0    0  502  503 -0.00000000000E+00 -0.00000000000E+00 -0.30445200208E+03  0.30445200208E+03  0.00000000000E+00 0.  1.
         25    2    1    2    0    0 -0.20768680348E+02  0.36290214686E+01 -0.23721939188E+03  0.26896852846E+03  0.12500608600E+03 0.  0.
          5    1    3    3  501    0  0.40552300248E+02 -0.25629380433E+02 -0.47754386086E+02  0.67689331414E+02  0.10000000000E+00 0. -1.
         -5    1    3    3    0  501 -0.61320980596E+02  0.29258401901E+02 -0.18946500580E+03  0.20127919705E+03  0.10000000000E+00 0. -1.
         21    1    1    2  504  503  0.20768680348E+02 -0.36290214686E+01 -0.49194272297E+02  0.53521811508E+02  0.00000000000E+00 0.  1.
<mgrwt>
<rscale>  1 0.12677156E+03</rscale>
<asrwt>0</asrwt>
<pdfrwt beam="1">  1       21 0.27751290E-02 0.12677156E+03</pdfrwt>
<pdfrwt beam="2">  1       21 0.46838769E-01 0.12677156E+03</pdfrwt>
<totfact> 0.31115844E+06</totfact>
</mgrwt>
</event>
<event>
 6    1  0.4202038E-002  0.1273809E+03  0.7546771E-02  0.1231395E+00
         21   -1    0    0  504  502  0.00000000000E+00  0.00000000000E+00  0.32684338046E+02  0.32684338046E+02  0.00000000000E+00 0.  1.
         21   -1    0    0  502  503 -0.00000000000E+00 -0.00000000000E+00 -0.19371062485E+03  0.19371062485E+03  0.00000000000E+00 0.  1.
         25    2    1    2    0    0  0.15851215245E+02  0.18710776603E+02 -0.15593503780E+03  0.20134950418E+03  0.12499813052E+03 0.  0.
          5    1    3    3  501    0  0.30546755009E+02 -0.48098169319E+02 -0.53400753772E+02  0.78090899834E+02  0.10000000000E+00 0. -1.
         -5    1    3    3    0  501 -0.14695539764E+02  0.66808945922E+02 -0.10253428403E+03  0.12325860435E+03  0.10000000000E+00 0. -1.
         21    1    1    2  504  503 -0.15851215245E+02 -0.18710776603E+02 -0.50912490027E+01  0.25045458715E+02  0.00000000000E+00 0. -1.
<mgrwt>
<rscale>  1 0.12738087E+03</rscale>
<asrwt>0</asrwt>
<pdfrwt beam="1">  1       21 0.50283597E-02 0.12738087E+03</pdfrwt>
<pdfrwt beam="2">  1       21 0.29801635E-01 0.12738087E+03</pdfrwt>
<totfact> 0.28493220E+06</totfact>
</mgrwt>
</event>
<event>
 6    1  0.4202038E-002  0.1265483E+03  0.7546771E-02  0.1232669E+00
         21   -1    0    0  503  502  0.00000000000E+00  0.00000000000E+00  0.12452995599E+02  0.12452995599E+02  0.00000000000E+00 0.  1.
         21   -1    0    0  504  503 -0.00000000000E+00 -0.00000000000E+00 -0.59288164216E+03  0.59288164216E+03  0.00000000000E+00 0.  1.
         25    2    1    2    0    0 -0.10580772478E+02 -0.16666125503E+02 -0.31933460941E+03  0.34349535743E+03  0.12499902130E+03 0.  0.
          5    1    3    3  501    0  0.23152423182E+02 -0.57240593030E+02 -0.96997990562E+02  0.11498321774E+03  0.10000000000E+00 0.  1.
         -5    1    3    3    0  501 -0.33733195660E+02  0.40574467527E+02 -0.22233661885E+03  0.22851213969E+03  0.10000000000E+00 0.  1.
         21    1    1    2  504  502  0.10580772478E+02  0.16666125503E+02 -0.26109403715E+03  0.26183928032E+03  0.00000000000E+00 0.  1.
<mgrwt>
<rscale>  1 0.12654828E+03</rscale>
<asrwt>0</asrwt>
<pdfrwt beam="1">  1       21 0.19158459E-02 0.12654828E+03</pdfrwt>
<pdfrwt beam="2">  1       21 0.91212539E-01 0.12654828E+03</pdfrwt>
<totfact> 0.13472302E+06</totfact>
</mgrwt>
</event>
<event>
 6    1  0.4202038E-002  0.1326851E+03  0.7546771E-02  0.1223525E+00
         21   -1    0    0  503  502  0.00000000000E+00  0.00000000000E+00  0.73594007472E+02  0.73594007472E+02  0.00000000000E+00 0. -1.
         21   -1    0    0  504  503 -0.00000000000E+00 -0.00000000000E+00 -0.16169967345E+03  0.16169967345E+03  0.00000000000E+00 0. -1.
         25    2    1    2    0    0 -0.44501086694E+02  0.10646458357E+00  0.42741724259E+01  0.13275396864E+03  0.12499995835E+03 0.  0.
          5    1    3    3  501    0  0.25633439193E+02 -0.39922341241E+02  0.18188162231E+02  0.50810292071E+02  0.10000000000E+00 0. -1.
         -5    1    3    3    0  501 -0.70134525886E+02  0.40028805825E+02 -0.13913989805E+02  0.81943676567E+02  0.10000000000E+00 0. -1.
         21    1    1    2  504  502  0.44501086694E+02 -0.10646458357E+00 -0.92379838407E+02  0.10253971229E+03  0.00000000000E+00 0. -1.
<mgrwt>
<rscale>  1 0.13268514E+03</rscale>
<asrwt>0</asrwt>
<pdfrwt beam="1">  1       21 0.11322155E-01 0.13268514E+03</pdfrwt>
<pdfrwt beam="2">  1       21 0.24876872E-01 0.13268514E+03</pdfrwt>
<totfact> 0.99676362E+05</totfact>
</mgrwt>
</event>
<event>
 6    1  0.4202038E-002  0.1270179E+03  0.7546771E-02  0.1231949E+00
         21   -1    0    0  503  502  0.00000000000E+00  0.00000000000E+00  0.85590418753E+03  0.85590418753E+03  0.00000000000E+00 0.  1.
         21   -1    0    0  504  503 -0.00000000000E+00 -0.00000000000E+00 -0.65725235940E+01  0.65725235940E+01  0.00000000000E+00 0.  1.
         25    2    1    2    0    0  0.20470029009E+02  0.94705973047E+01  0.74305496259E+03  0.75383302033E+03  0.12499932322E+03 0.  0.
          5    1    3    3  501    0  0.56544326146E+02  0.48040802581E+02  0.42948400221E+03  0.43584595637E+03  0.10000000000E+00 0. -1.
         -5    1    3    3    0  501 -0.36074297137E+02 -0.38570205277E+02  0.31357096038E+03  0.31798706395E+03  0.10000000000E+00 0. -1.
         21    1    1    2  504  502 -0.20470029009E+02 -0.94705973047E+01  0.10627670135E+03  0.10864369080E+03  0.00000000000E+00 0. -1.
<mgrwt>
<rscale>  1 0.12701789E+03</rscale>
<asrwt>0</asrwt>
<pdfrwt beam="1">  1       21 0.13167748E+00 0.12701789E+03</pdfrwt>
<pdfrwt beam="2">  1       21 0.10111582E-02 0.12701789E+03</pdfrwt>
<totfact> 0.15505070E+06</totfact>
</mgrwt>
</event>
<event>
 6    1  0.4202038E-002  0.1262921E+03  0.7546771E-02  0.1233064E+00
         21   -1    0    0  504  502  0.00000000000E+00  0.00000000000E+00  0.11546884106E+03  0.11546884106E+03  0.00000000000E+00 0.  1.
         21   -1    0    0  502  503 -0.00000000000E+00 -0.00000000000E+00 -0.60118331242E+02  0.60118331242E+02  0.00000000000E+00 0.  1.
         25    2    1    2    0    0 -0.17048403715E+02 -0.57173471030E+01  0.76634257113E+02  0.14772440097E+03  0.12500541249E+03 0.  0.
          5    1    3    3  501    0 -0.16866234401E+02  0.45517339205E+02 -0.75989204958E+01  0.49132999337E+02  0.10000000000E+00 0. -1.
         -5    1    3    3    0  501 -0.18216931402E+00 -0.51234686308E+02  0.84233177608E+02  0.98591401637E+02  0.10000000000E+00 0. -1.
         21    1    1    2  504  503  0.17048403715E+02  0.57173471030E+01 -0.21283747295E+02  0.27862771327E+02  0.00000000000E+00 0.  1.
<mgrwt>
<rscale>  1 0.12629208E+03</rscale>
<asrwt>0</asrwt>
<pdfrwt beam="1">  1       21 0.17764437E-01 0.12629208E+03</pdfrwt>
<pdfrwt beam="2">  1       21 0.92489741E-02 0.12629208E+03</pdfrwt>
<totfact> 0.26531107E+06</totfact>
</mgrwt>
</event>
<event>
 6    1  0.4202038E-002  0.1859203E+03  0.7546771E-02  0.1162193E+00
         21   -1    0    0  504  502  0.00000000000E+00  0.00000000000E+00  0.28010324685E+03  0.28010324685E+03  0.00000000000E+00 0.  1.
         21   -1    0    0  502  503 -0.00000000000E+00 -0.00000000000E+00 -0.23374261050E+03  0.23374261050E+03  0.00000000000E+00 0.  1.
         25    2    1    2    0    0 -0.58934025067E+02 -0.12438335242E+03  0.22272783702E+03  0.29012767048E+03  0.12498775191E+03 0.  0.
          5    1    3    3  501    0  0.31653684916E+02 -0.21180683227E+00  0.29973758522E+02  0.43593999940E+02  0.10000000000E+00 0.  1.
         -5    1    3    3    0  501 -0.90587709983E+02 -0.12417154558E+03  0.19275407850E+03  0.24653367054E+03  0.10000000000E+00 0.  1.
         21    1    1    2  504  503  0.58934025067E+02  0.12438335242E+03 -0.17636720066E+03  0.22371818687E+03  0.00000000000E+00 0.  1.
<mgrwt>
<rscale>  1 0.18592035E+03</rscale>
<asrwt>0</asrwt>
<pdfrwt beam="1">  1       21 0.43092807E-01 0.18592035E+03</pdfrwt>
<pdfrwt beam="2">  1       21 0.35960402E-01 0.18592035E+03</pdfrwt>
<totfact> 0.38743118E+04</totfact>
</mgrwt>
</event>
<event>
 6    1  0.4202038E-002  0.1271321E+03  0.7546771E-02  0.1231774E+00
         21   -1    0    0  503  502  0.00000000000E+00  0.00000000000E+00  0.52543747042E+02  0.52543747042E+02  0.00000000000E+00 0. -1.
         21   -1    0    0  504  503 -0.00000000000E+00 -0.00000000000E+00 -0.12157346134E+03  0.12157346134E+03  0.00000000000E+00 0. -1.
         25    2    1    2    0    0 -0.22533336174E+02 -0.53758680996E+01 -0.33106017148E+02  0.13137187865E+03  0.12500364367E+03 0.  0.
          5    1    3    3  501    0 -0.21145161460E+02  0.57518358364E+02 -0.30390331224E+02  0.68403666817E+02  0.10000000000E+00 0. -1.
         -5    1    3    3    0  501 -0.13881747139E+01 -0.62894226464E+02 -0.27156859238E+01  0.62968211834E+02  0.10000000000E+00 0. -1.
         21    1    1    2  504  502  0.22533336174E+02  0.53758680996E+01 -0.35923697151E+02  0.42745329732E+02  0.00000000000E+00 0. -1.
<mgrwt>
<rscale>  1 0.12713207E+03</rscale>
<asrwt>0</asrwt>
<pdfrwt beam="1">  1       21 0.80836535E-02 0.12713207E+03</pdfrwt>
<pdfrwt beam="2">  1       21 0.18703609E-01 0.12713207E+03</pdfrwt>
<totfact> 0.30490700E+06</totfact>
</mgrwt>
</event>
<event>
 6    1  0.4202038E-002  0.1259366E+03  0.7546771E-02  0.1233613E+00
         21   -1    0    0  504  502  0.00000000000E+00  0.00000000000E+00  0.14746510260E+03  0.14746510260E+03  0.00000000000E+00 0. -1.
         21   -1    0    0  502  503 -0.00000000000E+00 -0.00000000000E+00 -0.43450979679E+03  0.43450979679E+03  0.00000000000E+00 0. -1.
         25    2    1    2    0    0  0.84322354569E+01  0.12760889162E+02  0.12040766788E+03  0.17423555834E+03  0.12500432160E+03 0.  0.
          5    1    3    3  501    0 -0.51553148409E+02  0.12587412308E+02  0.95561565225E+02  0.10930778933E+03  0.10000000000E+00 0.  1.
         -5    1    3    3    0  501  0.59985383866E+02  0.17347685333E+00  0.24846102657E+02  0.64927769013E+02  0.10000000000E+00 0.  1.
         21    1    1    2  504  503 -0.84322354569E+01 -0.12760889162E+02 -0.40745236207E+03  0.40773934105E+03  0.00000000000E+00 0. -1.
<mgrwt>
<rscale>  1 0.12593658E+03</rscale>
<asrwt>0</asrwt>
<pdfrwt beam="1">  1       21 0.22686939E-01 0.12593658E+03</pdfrwt>
<pdfrwt beam="2">  1       21 0.66847660E-01 0.12593658E+03</pdfrwt>
<totfact> 0.38743862E+04</totfact>
</mgrwt>
</event>
<event>
 6    1  0.4202038E-002  0.1284592E+03  0.7546771E-02  0.1229760E+00
         21   -1    0    0  504  502  0.00000000000E+00  0.00000000000E+00  0.26607023334E+02  0.26607023334E+02  0.00000000000E+00 0. -1.
         21   -1    0    0  502  503 -0.00000000000E+00 -0.00000000000E+00 -0.55051113675E+03  0.55051113675E+03  0.00000000000E+00 0. -1.
         25    2    1    2    0    0 -0.19185453572E+02  0.22577381687E+02 -0.13233494908E+03  0.18442969546E+03  0.12499581603E+03 0.  0.
          5    1    3    3  501    0 -0.57018204106E+02  0.52034038620E+02 -0.60562030537E+02  0.98114149425E+02  0.10000000000E+00 0.  1.
         -5    1    3    3    0  501  0.37832750535E+02 -0.29456656933E+02 -0.71772918541E+02  0.86315546031E+02  0.10000000000E+00 0.  1.
         21    1    1    2  504  503  0.19185453572E+02 -0.22577381687E+02 -0.39156916434E+03  0.39268846463E+03  0.00000000000E+00 0. -1.
<mgrwt>
<rscale>  1 0.12845923E+03</rscale>
<asrwt>0</asrwt>
<pdfrwt beam="1">  1       21 0.40933883E-02 0.12845923E+03</pdfrwt>
<pdfrwt beam="2">  1       21 0.84694019E-01 0.12845923E+03</pdfrwt>
<totfact> 0.46073506E+05</totfact>
</mgrwt>
</event>
<event>
 6    1  0.4202038E-002  0.1263269E+03  0.7546771E-02  0.1233010E+00
         21   -1    0    0  503  502  0.00000000000E+00  0.00000000000E+00  0.79568930382E+01  0.79568930382E+01  0.00000000000E+00 0.  1.
         21   -1    0    0  504  503 -0.00000000000E+00 -0.00000000000E+00 -0.77103007328E+03  0.77103007328E+03  0.00000000000E+00 0.  1.
         25    2    1    2    0    0 -0.31019834132E+00 -0.18347606950E+02 -0.73262619356E+03  0.74343770610E+03  0.12498700918E+03 0.  0.
          5    1    3    3  501    0 -0.65389214298E+01  0.26149924681E+02 -0.34096479822E+02  0.43464422124E+02  0.10000000000E+00 0.  1.
         -5    1    3    3    0  501  0.62287230885E+01 -0.44497531630E+02 -0.69852971373E+03  0.69997328398E+03  0.10000000000E+00 0.  1.
         21    1    1    2  504  502  0.31019834132E+00  0.18347606950E+02 -0.30446986686E+02  0.35549260218E+02  0.00000000000E+00 0.  1.
<mgrwt>
<rscale>  1 0.12632689E+03</rscale>
<asrwt>0</asrwt>
<pdfrwt beam="1">  1       21 0.12241378E-02 0.12632689E+03</pdfrwt>
<pdfrwt beam="2">  1       21 0.11861997E+00 0.12632689E+03</pdfrwt>
<totfact> 0.14827507E+06</totfact>
</mgrwt>
</event>
<event>
 6    1  0.4202038E-002  0.1260323E+03  0.7546771E-02  0.1233465E+00
         21   -1    0    0  503  502  0.00000000000E+00  0.00000000000E+00  0.18577760183E+02  0.18577760183E+02  0.00000000000E+00 0. -1.
         21   -1    0    0  504  503 -0.00000000000E+00 -0.00000000000E+00 -0.27688550955E+03  0.27688550955E+03  0.00000000000E+00 0. -1.
         25    2    1    2    0    0  0.51391677233E+01 -0.15287861009E+02 -0.21456574100E+03  0.24884253363E+03  0.12499607831E+03 0.  0.
          5    1    3    3  501    0  0.36636049950E+02 -0.37069220630E+02 -0.20188329796E+03  0.20850228600E+03  0.10000000000E+00 0.  1.
         -5    1    3    3    0  501 -0.31496882227E+02  0.21781359621E+02 -0.12682443043E+02  0.40340247625E+02  0.10000000000E+00 0.  1.
         21    1    1    2  504  502 -0.51391677233E+01  0.15287861009E+02 -0.43742008365E+02  0.46620736104E+02  0.00000000000E+00 0. -1.
<mgrwt>
<rscale>  1 0.12603233E+03</rscale>
<asrwt>0</asrwt>
<pdfrwt beam="1">  1       21 0.28581171E-02 0.12603233E+03</pdfrwt>
<pdfrwt beam="2">  1       21 0.42597768E-01 0.12603233E+03</pdfrwt>
<totfact> 0.35941247E+06</totfact>
</mgrwt>
</event>
<event>
 6    1  0.4202038E-002  0.1261300E+03  0.7546771E-02  0.1233314E+00
         21   -1    0    0  503  502  0.00000000000E+00  0.00000000000E+00  0.13644674762E+03  0.13644674762E+03  0.00000000000E+00 0.  1.
         21   -1    0    0  504  503 -0.00000000000E+00 -0.00000000000E+00 -0.37550439892E+02  0.37550439892E+02  0.00000000000E+00 0.  1.
         25    2    1    2    0    0  0.11421604176E+02  0.12362091182E+02  0.90105398521E+02  0.15500891679E+03  0.12500202839E+03 0.  0.
          5    1    3    3  501    0 -0.33532011742E+02 -0.40602452794E+02  0.58432010654E+02  0.78659168909E+02  0.10000000000E+00 0. -1.
         -5    1    3    3    0  501  0.44953615917E+02  0.52964543976E+02  0.31673387868E+02  0.76349747883E+02  0.10000000000E+00 0. -1.
         21    1    1    2  504  502 -0.11421604176E+02 -0.12362091182E+02  0.87909092102E+01  0.18988270724E+02  0.00000000000E+00 0. -1.
<mgrwt>
<rscale>  1 0.12613002E+03</rscale>
<asrwt>0</asrwt>
<pdfrwt beam="1">  1       21 0.20991807E-01 0.12613002E+03</pdfrwt>
<pdfrwt beam="2">  1       21 0.57769908E-02 0.12613002E+03</pdfrwt>
<totfact> 0.43712969E+06</totfact>
</mgrwt>
</event>
<event>
 6    1  0.4202038E-002  0.1281094E+03  0.7546771E-02  0.1230288E+00
         21   -1    0    0  504  502  0.00000000000E+00  0.00000000000E+00  0.44465844004E+03  0.44465844004E+03  0.00000000000E+00 0.  1.
         21   -1    0    0  502  503 -0.00000000000E+00 -0.00000000000E+00 -0.87104389537E+02  0.87104389537E+02  0.00000000000E+00 0. -1.
         25    2    1    2    0    0  0.11414454938E+02  0.25607959073E+02  0.43285332804E+03  0.45141335200E+03  0.12500381362E+03 0.  0.
          5    1    3    3  501    0 -0.36115131197E+02  0.47871744293E+02  0.11957921493E+03  0.13377296156E+03  0.10000000000E+00 0.  1.
         -5    1    3    3    0  501  0.47529586136E+02 -0.22263785221E+02  0.31327411311E+03  0.31764039043E+03  0.10000000000E+00 0.  1.
         21    1    1    2  504  503 -0.11414454938E+02 -0.25607959073E+02 -0.75299277536E+02  0.80349477577E+02  0.00000000000E+00 0. -1.
<mgrwt>
<rscale>  1 0.12810937E+03</rscale>
<asrwt>0</asrwt>
<pdfrwt beam="1">  1       21 0.68408990E-01 0.12810937E+03</pdfrwt>
<pdfrwt beam="2">  1       21 0.13400675E-01 0.12810937E+03</pdfrwt>
<totfact> 0.96277416E+04</totfact>
</mgrwt>
</event>
<event>
 6    1  0.4202038E-002  0.1279575E+03  0.7546771E-02  0.1230518E+00
         21   -1    0    0  504  502  0.00000000000E+00  0.00000000000E+00  0.47049334582E+02  0.47049334582E+02  0.00000000000E+00 0.  1.
         21   -1    0    0  502  503 -0.00000000000E+00 -0.00000000000E+00 -0.15578300733E+03  0.15578300733E+03  0.00000000000E+00 0. -1.
         25    2    1    2    0    0 -0.24654400095E+02  0.11997927376E+02 -0.48841093385E+02  0.13696193302E+03  0.12498531509E+03 0.  0.
          5    1    3    3  501    0  0.19685737242E+02  0.26009765174E+02 -0.76284641257E+02  0.82966213767E+02  0.10000000000E+00 0. -1.
         -5    1    3    3    0  501 -0.44340137336E+02 -0.14011837798E+02  0.27443547872E+02  0.53995719249E+02  0.10000000000E+00 0. -1.
         21    1    1    2  504  503  0.24654400095E+02 -0.11997927376E+02 -0.59892579364E+02  0.65870408896E+02  0.00000000000E+00 0. -1.
<mgrwt>
<rscale>  1 0.12795749E+03</rscale>
<asrwt>0</asrwt>
<pdfrwt beam="1">  1       21 0.72383591E-02 0.12795749E+03</pdfrwt>
<pdfrwt beam="2">  1       21 0.23966617E-01 0.12795749E+03</pdfrwt>
<totfact> 0.23258860E+06</totfact>
</mgrwt>
</event>
<event>
 6    1  0.4202038E-002  0.1267815E+03  0.7546771E-02  0.1232311E+00
         21   -1    0    0  504  502  0.00000000000E+00  0.00000000000E+00  0.70688395056E+03  0.70688395056E+03  0.00000000000E+00 0.  1.
         21   -1    0    0  502  503 -0.00000000000E+00 -0.00000000000E+00 -0.17892715849E+02  0.17892715849E+02  0.00000000000E+00 0.  1.
         25    2    1    2    0    0  0.19308232133E+02 -0.87610400390E+01  0.69186025055E+03  0.70338052417E+03  0.12499596732E+03 0.  0.
          5    1    3    3  501    0  0.42592332601E+02  0.16948162211E+02  0.94676461397E+02  0.10519025307E+03  0.10000000000E+00 0. -1.
         -5    1    3    3    0  501 -0.23284100467E+02 -0.25709202250E+02  0.59718378915E+03  0.59819027110E+03  0.10000000000E+00 0. -1.
         21    1    1    2  504  503 -0.19308232133E+02  0.87610400390E+01 -0.28690158383E+01  0.21396142236E+02  0.00000000000E+00 0.  1.
<mgrwt>
<rscale>  1 0.12678153E+03</rscale>
<asrwt>0</asrwt>
<pdfrwt beam="1">  1       21 0.10875136E+00 0.12678153E+03</pdfrwt>
<pdfrwt beam="2">  1       21 0.27527261E-02 0.12678153E+03</pdfrwt>
<totfact> 0.49613028E+05</totfact>
</mgrwt>
</event>
<event>
 6    1  0.4202038E-002  0.1290611E+03  0.7546771E-02  0.1228856E+00
         21   -1    0    0  504  502  0.00000000000E+00  0.00000000000E+00  0.18837692391E+02  0.18837692391E+02  0.00000000000E+00 0. -1.
         21   -1    0    0  502  503 -0.00000000000E+00 -0.00000000000E+00 -0.72839597679E+03  0.72839597679E+03  0.00000000000E+00 0. -1.
         25    2    1    2    0    0  0.30684834121E+02 -0.94770677851E+01 -0.20894039741E+03  0.24558673893E+03  0.12500153122E+03 0.  0.
          5    1    3    3  501    0  0.51755334471E+02 -0.42141530962E+02 -0.54020407038E+02  0.85864647292E+02  0.10000000000E+00 0. -1.
         -5    1    3    3    0  501 -0.21070500350E+02  0.32664463177E+02 -0.15491999037E+03  0.15972209163E+03  0.10000000000E+00 0. -1.
         21    1    1    2  504  503 -0.30684834121E+02  0.94770677851E+01 -0.50061788699E+03  0.50164693025E+03  0.00000000000E+00 0. -1.
<mgrwt>
<rscale>  1 0.12906106E+03</rscale>
<asrwt>0</asrwt>
<pdfrwt beam="1">  1       21 0.28981059E-02 0.12906106E+03</pdfrwt>
<pdfrwt beam="2">  1       21 0.11206094E+00 0.12906106E+03</pdfrwt>
<totfact> 0.42438665E+05</totfact>
</mgrwt>
</event>
<event>
 6    1  0.4202038E-002  0.1276809E+03  0.7546771E-02  0.1230938E+00
         21   -1    0    0  503  502  0.00000000000E+00  0.00000000000E+00  0.12945708357E+03  0.12945708357E+03  0.00000000000E+00 0.  1.
         21   -1    0    0  504  503 -0.00000000000E+00 -0.00000000000E+00 -0.61358262007E+02  0.61358262007E+02  0.00000000000E+00 0.  1.
         25    2    1    2    0    0  0.25865692115E+02  0.30147483142E+01  0.90470619377E+02  0.15648430898E+03  0.12499713297E+03 0.  0.
          5    1    3    3  501    0  0.37110035237E+02  0.32299888673E+02 -0.10882755657E+02  0.50387318785E+02  0.10000000000E+00 0.  1.
         -5    1    3    3    0  501 -0.11244343123E+02 -0.29285140359E+02  0.10135337503E+03  0.10609699020E+03  0.10000000000E+00 0.  1.
         21    1    1    2  504  502 -0.25865692115E+02 -0.30147483142E+01 -0.22371797816E+02  0.34331036592E+02  0.00000000000E+00 0.  1.
<mgrwt>
<rscale>  1 0.12768088E+03</rscale>
<asrwt>0</asrwt>
<pdfrwt beam="1">  1       21 0.19916474E-01 0.12768088E+03</pdfrwt>
<pdfrwt beam="2">  1       21 0.94397327E-02 0.12768088E+03</pdfrwt>
<totfact> 0.20760014E+06</totfact>
</mgrwt>
</event>
<event>
 6    1  0.4202038E-002  0.1260246E+03  0.7546771E-02  0.1233477E+00
         21   -1    0    0  504  502  0.00000000000E+00  0.00000000000E+00  0.68421613552E+03  0.68421613552E+03  0.00000000000E+00 0. -1.
         21   -1    0    0  502  503 -0.00000000000E+00 -0.00000000000E+00 -0.25125014387E+02  0.25125014387E+02  0.00000000000E+00 0. -1.
         25    2    1    2    0    0 -0.11441513452E+02 -0.11309751803E+02  0.67503075538E+03  0.68669406056E+03  0.12499357337E+03 0.  0.
          5    1    3    3  501    0  0.54319392841E+01 -0.63317988268E+02  0.24121117900E+03  0.24944241114E+03  0.10000000000E+00 0. -1.
         -5    1    3    3    0  501 -0.16873452736E+02  0.52008236465E+02  0.43381957638E+03  0.43725164942E+03  0.10000000000E+00 0. -1.
         21    1    1    2  504  503  0.11441513452E+02  0.11309751803E+02 -0.15939634247E+02  0.22647089346E+02  0.00000000000E+00 0. -1.
<mgrwt>
<rscale>  1 0.12602465E+03</rscale>
<asrwt>0</asrwt>
<pdfrwt beam="1">  1       21 0.10526401E+00 0.12602465E+03</pdfrwt>
<pdfrwt beam="2">  1       21 0.38653873E-02 0.12602465E+03</pdfrwt>
<totfact> 0.30671434E+05</totfact>
</mgrwt>
</event>
<event>
 6    1  0.4202038E-002  0.1259751E+03  0.7546771E-02  0.1233553E+00
         21   -1    0    0  503  502  0.00000000000E+00  0.00000000000E+00  0.18672625169E+02  0.18672625169E+02  0.00000000000E+00 0. -1.
         21   -1    0    0  504  503 -0.00000000000E+00 -0.00000000000E+00 -0.96724486796E+03  0.96724486796E+03  0.00000000000E+00 0.  1.
         25    2    1    2    0    0  0.14386762868E+02  0.60792369438E+01 -0.19480599960E+03  0.23198945582E+03  0.12500317621E+03 0.  0.
          5    1    3    3  501    0  0.32214451359E+02 -0.18966811599E+02 -0.27456333623E+01  0.37484120920E+02  0.10000000000E+00 0. -1.
         -5    1    3    3    0  501 -0.17827688491E+02  0.25046048542E+02 -0.19206036624E+03  0.19450533490E+03  0.10000000000E+00 0. -1.
         21    1    1    2  504  502 -0.14386762868E+02 -0.60792369438E+01 -0.75376624319E+03  0.75392803731E+03  0.00000000000E+00 0.  1.
<mgrwt>
<rscale>  1 0.12597512E+03</rscale>
<asrwt>0</asrwt>
<pdfrwt beam="1">  1       21 0.28727108E-02 0.12597512E+03</pdfrwt>
<pdfrwt beam="2">  1       21 0.14880694E+00 0.12597512E+03</pdfrwt>
<totfact> 0.21296541E+05</totfact>
</mgrwt>
</event>
<event>
 6    1  0.4202038E-002  0.1278917E+03  0.7546771E-02  0.1230618E+00
         21   -1    0    0  503  502  0.00000000000E+00  0.00000000000E+00  0.98162159984E+03  0.98162159984E+03  0.00000000000E+00 0.  1.
         21   -1    0    0  504  503 -0.00000000000E+00 -0.00000000000E+00 -0.61240692933E+01  0.61240692933E+01  0.00000000000E+00 0.  1.
         25    2    1    2    0    0 -0.94385497835E+01 -0.25357261984E+02  0.81938904233E+03  0.82930976079E+03  0.12499679877E+03 0.  0.
          5    1    3    3  501    0 -0.18684644746E+02  0.12057125888E+02  0.74673939092E+03  0.74707042385E+03  0.10000000000E+00 0. -1.
         -5    1    3    3    0  501  0.92460949623E+01 -0.37414387872E+02  0.72649651405E+02  0.82239336945E+02  0.10000000000E+00 0. -1.
         21    1    1    2  504  502  0.94385497835E+01  0.25357261984E+02  0.15610848822E+03  0.15843590834E+03  0.00000000000E+00 0. -1.
<mgrwt>
<rscale>  1 0.12789166E+03</rscale>
<asrwt>0</asrwt>
<pdfrwt beam="1">  1       21 0.15101858E+00 0.12789166E+03</pdfrwt>
<pdfrwt beam="2">  1       21 0.94216529E-03 0.12789166E+03</pdfrwt>
<totfact> 0.12228084E+06</totfact>
</mgrwt>
</event>
<event>
 6    1  0.4202038E-002  0.1610238E+03  0.7546771E-02  0.1187546E+00
         21   -1    0    0  503  502  0.00000000000E+00  0.00000000000E+00  0.11741994101E+03  0.11741994101E+03  0.00000000000E+00 0. -1.
         21   -1    0    0  504  503 -0.00000000000E+00 -0.00000000000E+00 -0.15347047655E+03  0.15347047655E+03  0.00000000000E+00 0. -1.
         25    2    1    2    0    0 -0.31115258630E+02  0.96626133496E+02  0.57070398489E+01  0.16112492164E+03  0.12499560422E+03 0.  0.
          5    1    3    3  501    0  0.28914604126E+02 -0.15769369115E+02 -0.47434514903E+01  0.33275180932E+02  0.10000000000E+00 0. -1.
         -5    1    3    3    0  501 -0.60029862755E+02  0.11239550261E+03  0.10450491339E+02  0.12784974071E+03  0.10000000000E+00 0. -1.
         21    1    1    2  504  502  0.31115258630E+02 -0.96626133496E+02 -0.41757575390E+02  0.10976549593E+03  0.00000000000E+00 0. -1.
<mgrwt>
<rscale>  1 0.16102382E+03</rscale>
<asrwt>0</asrwt>
<pdfrwt beam="1">  1       21 0.18064606E-01 0.16102382E+03</pdfrwt>
<pdfrwt beam="2">  1       21 0.23610842E-01 0.16102382E+03</pdfrwt>
<totfact> 0.47360422E+05</totfact>
</mgrwt>
</event>
<event>
 6    1  0.4202038E-002  0.1311116E+03  0.7546771E-02  0.1225816E+00
         21   -1    0    0  504  502  0.00000000000E+00  0.00000000000E+00  0.76944887227E+02  0.76944887227E+02  0.00000000000E+00 0.  1.
         21   -1    0    0  502  503 -0.00000000000E+00 -0.00000000000E+00 -0.94852232533E+02  0.94852232533E+02  0.00000000000E+00 0.  1.
         25    2    1    2    0    0 -0.30726493727E+02 -0.24936414333E+02 -0.10438252300E+02  0.13152641668E+03  0.12499719595E+03 0.  0.
          5    1    3    3  501    0 -0.23318652884E+02 -0.30644915099E+02 -0.65334857493E+02  0.75838802716E+02  0.10000000000E+00 0. -1.
         -5    1    3    3    0  501 -0.74078408431E+01  0.57085007662E+01  0.54896605193E+02  0.55687613961E+02  0.10000000000E+00 0. -1.
         21    1    1    2  504  503  0.30726493727E+02  0.24936414333E+02 -0.74690930055E+01  0.40270703083E+02  0.00000000000E+00 0.  1.
<mgrwt>
<rscale>  1 0.13111156E+03</rscale>
<asrwt>0</asrwt>
<pdfrwt beam="1">  1       21 0.11837675E-01 0.13111156E+03</pdfrwt>
<pdfrwt beam="2">  1       21 0.14592651E-01 0.13111156E+03</pdfrwt>
<totfact> 0.24611775E+06</totfact>
</mgrwt>
</event>
<event>
 6    1  0.4202038E-002  0.1261301E+03  0.7546771E-02  0.1233314E+00
         21   -1    0    0  503  502  0.00000000000E+00  0.00000000000E+00  0.12870554370E+02  0.12870554370E+02  0.00000000000E+00 0. -1.
         21   -1    0    0  504  503 -0.00000000000E+00 -0.00000000000E+00 -0.52073300735E+03  0.52073300735E+03  0.00000000000E+00 0. -1.
         25    2    1    2    0    0  0.11915186832E+02  0.11954608210E+02 -0.30515270751E+03  0.33019233970E+03  0.12499568777E+03 0.  0.
          5    1    3    3  501    0  0.31858343472E+02  0.16517757940E+02 -0.30751123035E+03  0.30959805744E+03  0.10000000000E+00 0.  1.
         -5    1    3    3    0  501 -0.19943156640E+02 -0.45631497300E+01  0.23585228360E+01  0.20594282269E+02  0.10000000000E+00 0.  1.
         21    1    1    2  504  502 -0.11915186832E+02 -0.11954608210E+02 -0.20270974547E+03  0.20341122202E+03  0.00000000000E+00 0. -1.
<mgrwt>
<rscale>  1 0.12613012E+03</rscale>
<asrwt>0</asrwt>
<pdfrwt beam="1">  1       21 0.19800857E-02 0.12613012E+03</pdfrwt>
<pdfrwt beam="2">  1       21 0.80112755E-01 0.12613012E+03</pdfrwt>
<totfact> 0.17132153E+06</totfact>
</mgrwt>
</event>
<event>
 6    1  0.4202038E-002  0.1306308E+03  0.7546771E-02  0.1226523E+00
         21   -1    0    0  503  502  0.00000000000E+00  0.00000000000E+00  0.93577020710E+03  0.93577020710E+03  0.00000000000E+00 0. -1.
         21   -1    0    0  504  503 -0.00000000000E+00 -0.00000000000E+00 -0.91072479055E+01  0.91072479055E+01  0.00000000000E+00 0. -1.
         25    2    1    2    0    0  0.83402102881E+01  0.37001791348E+02  0.84243675509E+03  0.85250459574E+03  0.12500283103E+03 0.  0.
          5    1    3    3  501    0 -0.31747388556E+02  0.62142281749E+02  0.30005352733E+03  0.30806117757E+03  0.10000000000E+00 0. -1.
         -5    1    3    3    0  501  0.40087598844E+02 -0.25140490402E+02  0.54238322776E+03  0.54444341817E+03  0.10000000000E+00 0. -1.
         21    1    1    2  504  502 -0.83402102881E+01 -0.37001791348E+02  0.84226204105E+02  0.92372859264E+02  0.00000000000E+00 0. -1.
<mgrwt>
<rscale>  1 0.13063078E+03</rscale>
<asrwt>0</asrwt>
<pdfrwt beam="1">  1       21 0.14396457E+00 0.13063078E+03</pdfrwt>
<pdfrwt beam="2">  1       21 0.14011158E-02 0.13063078E+03</pdfrwt>
<totfact> 0.73780749E+05</totfact>
</mgrwt>
</event>
<event>
 6    1  0.4202038E-002  0.1357992E+03  0.7546771E-02  0.1219096E+00
         21   -1    0    0  504  502  0.00000000000E+00  0.00000000000E+00  0.12675766114E+03  0.12675766114E+03  0.00000000000E+00 0.  1.
         21   -1    0    0  502  503 -0.00000000000E+00 -0.00000000000E+00 -0.21480974277E+03  0.21480974277E+03  0.00000000000E+00 0. -1.
         25    2    1    2    0    0  0.64575798124E+01 -0.52650043984E+02  0.85242477034E+02  0.16033624894E+03  0.12501082100E+03 0.  0.
          5    1    3    3  501    0 -0.46581166527E+02 -0.29120998663E+02 -0.26723222256E+01  0.54999899493E+02  0.10000000000E+00 0.  1.
         -5    1    3    3    0  501  0.53038746339E+02 -0.23529045321E+02  0.87914799260E+02  0.10533634945E+03  0.10000000000E+00 0.  1.
         21    1    1    2  504  503 -0.64575798124E+01  0.52650043984E+02 -0.17329455866E+03  0.18123115496E+03  0.00000000000E+00 0. -1.
<mgrwt>
<rscale>  1 0.13579924E+03</rscale>
<asrwt>0</asrwt>
<pdfrwt beam="1">  1       21 0.19501179E-01 0.13579924E+03</pdfrwt>
<pdfrwt beam="2">  1       21 0.33047652E-01 0.13579924E+03</pdfrwt>
<totfact> 0.21651275E+05</totfact>
</mgrwt>
</event>
<event>
 6    1  0.4202038E-002  0.1604034E+03  0.7546771E-02  0.1188242E+00
         21   -1    0    0  504  502  0.00000000000E+00  0.00000000000E+00  0.18751507087E+03  0.18751507087E+03  0.00000000000E+00 0. -1.
         21   -1    0    0  502  503 -0.00000000000E+00 -0.00000000000E+00 -0.93402724228E+02  0.93402724228E+02  0.00000000000E+00 0. -1.
         25    2    1    2    0    0  0.97329682400E+02 -0.25141652585E+02  0.34582436063E+02  0.16408894582E+03  0.12499626988E+03 0.  0.
          5    1    3    3  501    0  0.11840818973E+03 -0.48557552219E+02  0.20622373201E+02  0.12962880679E+03  0.10000000000E+00 0. -1.
         -5    1    3    3    0  501 -0.21078507329E+02  0.23415899634E+02  0.13960062862E+02  0.34460139030E+02  0.10000000000E+00 0. -1.
         21    1    1    2  504  503 -0.97329682400E+02  0.25141652585E+02  0.59529910575E+02  0.11682884928E+03  0.00000000000E+00 0. -1.
<mgrwt>
<rscale>  1 0.16040336E+03</rscale>
<asrwt>0</asrwt>
<pdfrwt beam="1">  1       21 0.28848472E-01 0.16040336E+03</pdfrwt>
<pdfrwt beam="2">  1       21 0.14369650E-01 0.16040336E+03</pdfrwt>
<totfact> 0.49037713E+05</totfact>
</mgrwt>
</event>
<event>
 6    1  0.4202038E-002  0.1269587E+03  0.7546771E-02  0.1232040E+00
         21   -1    0    0  504  502  0.00000000000E+00  0.00000000000E+00  0.19474290828E+04  0.19474290828E+04  0.00000000000E+00 0.  1.
         21   -1    0    0  502  503 -0.00000000000E+00 -0.00000000000E+00 -0.39643394674E+01  0.39643394674E+01  0.00000000000E+00 0.  1.
         25    2    1    2    0    0 -0.12772260233E+02 -0.18225623763E+02  0.18772576485E+04  0.18815458496E+04  0.12499280596E+03 0.  0.
          5    1    3    3  501    0  0.28248263010E+02 -0.25968994171E+02  0.16524333065E+04  0.16528787601E+04  0.10000000000E+00 0.  1.
         -5    1    3    3    0  501 -0.41020523243E+02  0.77433704082E+01  0.22482434194E+03  0.22866708954E+03  0.10000000000E+00 0.  1.
         21    1    1    2  504  503  0.12772260233E+02  0.18225623763E+02  0.66207094904E+02  0.69847572675E+02  0.00000000000E+00 0.  1.
<mgrwt>
<rscale>  1 0.12695868E+03</rscale>
<asrwt>0</asrwt>
<pdfrwt beam="1">  1       21 0.29960371E+00 0.12695868E+03</pdfrwt>
<pdfrwt beam="2">  1       21 0.60989993E-03 0.12695868E+03</pdfrwt>
<totfact> 0.29587063E+05</totfact>
</mgrwt>
</event>
<event>
 6    1  0.4202038E-002  0.1370666E+03  0.7546771E-02  0.1217331E+00
         21   -1    0    0  504  502  0.00000000000E+00  0.00000000000E+00  0.43219613155E+02  0.43219613155E+02  0.00000000000E+00 0. -1.
         21   -1    0    0  502  503 -0.00000000000E+00 -0.00000000000E+00 -0.22520373601E+03  0.22520373601E+03  0.00000000000E+00 0. -1.
         25    2    1    2    0    0 -0.47172097826E+01 -0.56038773631E+02 -0.10294968222E+03  0.17142314801E+03  0.12499864953E+03 0.  0.
          5    1    3    3  501    0  0.27450192949E+02  0.32608795036E+02 -0.28518071125E+02  0.51284861190E+02  0.10000000000E+00 0.  1.
         -5    1    3    3    0  501 -0.32167402731E+02 -0.88647568667E+02 -0.74431611098E+02  0.12013828682E+03  0.10000000000E+00 0.  1.
         21    1    1    2  504  503  0.47172097826E+01  0.56038773631E+02 -0.79034440634E+02  0.97000201158E+02  0.00000000000E+00 0. -1.
<mgrwt>
<rscale>  1 0.13706662E+03</rscale>
<asrwt>0</asrwt>
<pdfrwt beam="1">  1       21 0.66491714E-02 0.13706662E+03</pdfrwt>
<pdfrwt beam="2">  1       21 0.34646728E-01 0.13706662E+03</pdfrwt>
<totfact> 0.13265503E+06</totfact>
</mgrwt>
</event>
<event>
 6    1  0.4202038E-002  0.1262739E+03  0.7546771E-02  0.1233092E+00
         21   -1    0    0  503  502  0.00000000000E+00  0.00000000000E+00  0.19743327610E+04  0.19743327610E+04  0.00000000000E+00 0. -1.
         21   -1    0    0  504  503 -0.00000000000E+00 -0.00000000000E+00 -0.31435993905E+01  0.31435993905E+01  0.00000000000E+00 0. -1.
         25    2    1    2    0    0 -0.10835555708E+02  0.14280669546E+02  0.18951734667E+04  0.18993755751E+04  0.12499503837E+03 0.  0.
          5    1    3    3  501    0  0.34683785308E+02  0.37753537290E+02  0.39306363593E+03  0.39639289402E+03  0.10000000000E+00 0. -1.
         -5    1    3    3    0  501 -0.45519341016E+02 -0.23472867745E+02  0.15021098307E+04  0.15029826810E+04  0.10000000000E+00 0. -1.
         21    1    1    2  504  502  0.10835555708E+02 -0.14280669546E+02  0.76015694909E+02  0.78100785289E+02  0.00000000000E+00 0. -1.
<mgrwt>
<rscale>  1 0.12627393E+03</rscale>
<asrwt>0</asrwt>
<pdfrwt beam="1">  1       21 0.30374251E+00 0.12627393E+03</pdfrwt>
<pdfrwt beam="2">  1       21 0.48363225E-03 0.12627393E+03</pdfrwt>
<totfact> 0.40184311E+05</totfact>
</mgrwt>
</event>
<event>
 6    1  0.4202038E-002  0.1265295E+03  0.7546771E-02  0.1232698E+00
         21   -1    0    0  504  502  0.00000000000E+00  0.00000000000E+00  0.26597901855E+02  0.26597901855E+02  0.00000000000E+00 0. -1.
         21   -1    0    0  502  503 -0.00000000000E+00 -0.00000000000E+00 -0.94214831032E+03  0.94214831032E+03  0.00000000000E+00 0. -1.
         25    2    1    2    0    0  0.61753925607E+01  0.18605934312E+02 -0.12469296324E+03  0.17764582984E+03  0.12500155804E+03 0.  0.
          5    1    3    3  501    0  0.54202135953E+02  0.46686367778E+01 -0.11427486159E+03  0.12656390363E+03  0.10000000000E+00 0.  1.
         -5    1    3    3    0  501 -0.48026743393E+02  0.13937297534E+02 -0.10418101656E+02  0.51081926212E+02  0.10000000000E+00 0.  1.
         21    1    1    2  504  503 -0.61753925607E+01 -0.18605934312E+02 -0.79085744523E+03  0.79110038234E+03  0.00000000000E+00 0. -1.
<mgrwt>
<rscale>  1 0.12652947E+03</rscale>
<asrwt>0</asrwt>
<pdfrwt beam="1">  1       21 0.40919844E-02 0.12652947E+03</pdfrwt>
<pdfrwt beam="2">  1       21 0.14494591E+00 0.12652947E+03</pdfrwt>
<totfact> 0.12712753E+05</totfact>
</mgrwt>
</event>
<event>
 6    1  0.4202038E-002  0.1263994E+03  0.7546771E-02  0.1232898E+00
         21   -1    0    0  503  502  0.00000000000E+00  0.00000000000E+00  0.13414244144E+03  0.13414244144E+03  0.00000000000E+00 0.  1.
         21   -1    0    0  504  503 -0.00000000000E+00 -0.00000000000E+00 -0.40223093229E+02  0.40223093229E+02  0.00000000000E+00 0.  1.
         25    2    1    2    0    0  0.70866297607E+00  0.18808318195E+02  0.71974914552E+02  0.14545510048E+03  0.12499017119E+03 0.  0.
          5    1    3    3  501    0  0.60805945123E+02  0.14028151384E+02  0.19085962073E+02  0.65256692697E+02  0.10000000000E+00 0.  1.
         -5    1    3    3    0  501 -0.60097282147E+02  0.47801668109E+01  0.52888952479E+02  0.80198407781E+02  0.10000000000E+00 0.  1.
         21    1    1    2  504  502 -0.70866297607E+00 -0.18808318195E+02  0.21944433661E+02  0.28910434193E+02  0.00000000000E+00 0. -1.
<mgrwt>
<rscale>  1 0.12639936E+03</rscale>
<asrwt>0</asrwt>
<pdfrwt beam="1">  1       21 0.20637298E-01 0.12639936E+03</pdfrwt>
<pdfrwt beam="2">  1       21 0.61881683E-02 0.12639936E+03</pdfrwt>
<totfact> 0.40158912E+06</totfact>
</mgrwt>
</event>
<event>
 6    1  0.4202038E-002  0.1284413E+03  0.7546771E-02  0.1229787E+00
         21   -1    0    0  504  502  0.00000000000E+00  0.00000000000E+00  0.32843936063E+02  0.32843936063E+02  0.00000000000E+00 0. -1.
         21   -1    0    0  502  503 -0.00000000000E+00 -0.00000000000E+00 -0.21834863170E+03  0.21834863170E+03  0.00000000000E+00 0. -1.
         25    2    1    2    0    0 -0.20045519339E+02  0.21687252322E+02 -0.10650964599E+03  0.16685765431E+03  0.12500004941E+03 0.  0.
          5    1    3    3  501    0 -0.47296874578E+02  0.50348588680E+02 -0.10693429687E+03  0.12730643571E+03  0.10000000000E+00 0. -1.
         -5    1    3    3    0  501  0.27251355240E+02 -0.28661336359E+02  0.42465087584E+00  0.39551218598E+02  0.10000000000E+00 0. -1.
         21    1    1    2  504  503  0.20045519339E+02 -0.21687252322E+02 -0.78995049647E+02  0.84334913456E+02  0.00000000000E+00 0. -1.
<mgrwt>
<rscale>  1 0.12844132E+03</rscale>
<asrwt>0</asrwt>
<pdfrwt beam="1">  1       21 0.50529133E-02 0.12844132E+03</pdfrwt>
<pdfrwt beam="2">  1       21 0.33592097E-01 0.12844132E+03</pdfrwt>
<totfact> 0.22408310E+06</totfact>
</mgrwt>
</event>
<event>
 6    1  0.4202038E-002  0.1551626E+03  0.7546771E-02  0.1194269E+00
         21   -1    0    0  503  502  0.00000000000E+00  0.00000000000E+00  0.75647179976E+02  0.75647179976E+02  0.00000000000E+00 0. -1.
         21   -1    0    0  504  503 -0.00000000000E+00 -0.00000000000E+00 -0.20174980182E+03  0.20174980182E+03  0.00000000000E+00 0. -1.
         25    2    1    2    0    0  0.50900037312E+02  0.76533990298E+02 -0.79414678688E+02  0.17430464694E+03  0.12500861285E+03 0.  0.
          5    1    3    3  501    0  0.75130971821E+02  0.47317543825E+02 -0.28359366297E+01  0.88835046108E+02  0.10000000000E+00 0. -1.
         -5    1    3    3    0  501 -0.24230934509E+02  0.29216446473E+02 -0.76578742059E+02  0.85469600835E+02  0.10000000000E+00 0. -1.
         21    1    1    2  504  502 -0.50900037312E+02 -0.76533990298E+02 -0.46687943158E+02  0.10309233485E+03  0.00000000000E+00 0. -1.
<mgrwt>
<rscale>  1 0.15516256E+03</rscale>
<asrwt>0</asrwt>
<pdfrwt beam="1">  1       21 0.11638028E-01 0.15516256E+03</pdfrwt>
<pdfrwt beam="2">  1       21 0.31038431E-01 0.15516256E+03</pdfrwt>
<totfact> 0.62098344E+05</totfact>
</mgrwt>
</event>
<event>
 6    1  0.4202038E-002  0.1394643E+03  0.7546771E-02  0.1214052E+00
         21   -1    0    0  503  502  0.00000000000E+00  0.00000000000E+00  0.66639420188E+02  0.66639420188E+02  0.00000000000E+00 0. -1.
         21   -1    0    0  504  503 -0.00000000000E+00 -0.00000000000E+00 -0.26155568807E+03  0.26155568807E+03  0.00000000000E+00 0. -1.
         25    2    1    2    0    0 -0.52658860132E+02 -0.32421091712E+02 -0.17802307098E+02  0.14059596689E+03  0.12500488402E+03 0.  0.
          5    1    3    3  501    0 -0.39873864301E+01 -0.59631259164E+02  0.30252331372E+02  0.66985072019E+02  0.10000000000E+00 0.  1.
         -5    1    3    3    0  501 -0.48671473702E+02  0.27210167452E+02 -0.48054638470E+02  0.73610894870E+02  0.10000000000E+00 0.  1.
         21    1    1    2  504  502  0.52658860132E+02  0.32421091712E+02 -0.17711396078E+03  0.18759914137E+03  0.00000000000E+00 0. -1.
<mgrwt>
<rscale>  1 0.13946435E+03</rscale>
<asrwt>0</asrwt>
<pdfrwt beam="1">  1       21 0.10252218E-01 0.13946435E+03</pdfrwt>
<pdfrwt beam="2">  1       21 0.40239337E-01 0.13946435E+03</pdfrwt>
<totfact> 0.46583403E+05</totfact>
</mgrwt>
</event>
<event>
 6    1  0.4202038E-002  0.1262886E+03  0.7546771E-02  0.1233069E+00
         21   -1    0    0  503  502  0.00000000000E+00  0.00000000000E+00  0.21235574213E+04  0.21235574213E+04  0.00000000000E+00 0.  1.
         21   -1    0    0  504  503 -0.00000000000E+00 -0.00000000000E+00 -0.91863313098E+01  0.91863313098E+01  0.00000000000E+00 0.  1.
         25    2    1    2    0    0 -0.16669169955E+02  0.65459247148E+01  0.21106852594E+04  0.21144599974E+04  0.12501242227E+03 0.  0.
          5    1    3    3  501    0  0.31124245545E+02 -0.13564236584E+02  0.17216138162E+04  0.17219485618E+04  0.10000000000E+00 0. -1.
         -5    1    3    3    0  501 -0.47793415500E+02  0.20110161299E+02  0.38907144321E+03  0.39251143559E+03  0.10000000000E+00 0. -1.
         21    1    1    2  504  502  0.16669169955E+02 -0.65459247148E+01  0.36858305057E+01  0.18283755191E+02  0.00000000000E+00 0.  1.
<mgrwt>
<rscale>  1 0.12628862E+03</rscale>
<asrwt>0</asrwt>
<pdfrwt beam="1">  1       21 0.32670075E+00 0.12628862E+03</pdfrwt>
<pdfrwt beam="2">  1       21 0.14132834E-02 0.12628862E+03</pdfrwt>
<totfact> 0.55616040E+04</totfact>
</mgrwt>
</event>
<event>
 6    1  0.4202038E-002  0.1265003E+03  0.7546771E-02  0.1232743E+00
         21   -1    0    0  504  502  0.00000000000E+00  0.00000000000E+00  0.77378954086E+01  0.77378954086E+01  0.00000000000E+00 0. -1.
         21   -1    0    0  502  503 -0.00000000000E+00 -0.00000000000E+00 -0.83689692529E+03  0.83689692529E+03  0.00000000000E+00 0. -1.
         25    2    1    2    0    0 -0.38529455437E+01  0.19014912972E+02 -0.53159567364E+03  0.54643964454E+03  0.12500365111E+03 0.  0.
          5    1    3    3  501    0 -0.20045415119E+02  0.69656817586E+02 -0.33733804481E+03  0.34503747243E+03  0.10000000000E+00 0. -1.
         -5    1    3    3    0  501  0.16192469575E+02 -0.50641904614E+02 -0.19425762882E+03  0.20140217211E+03  0.10000000000E+00 0. -1.
         21    1    1    2  504  503  0.38529455437E+01 -0.19014912972E+02 -0.29756335625E+03  0.29819517616E+03  0.00000000000E+00 0.  1.
<mgrwt>
<rscale>  1 0.12650030E+03</rscale>
<asrwt>0</asrwt>
<pdfrwt beam="1">  1       21 0.11904468E-02 0.12650030E+03</pdfrwt>
<pdfrwt beam="2">  1       21 0.12875323E+00 0.12650030E+03</pdfrwt>
<totfact> 0.12668475E+06</totfact>
</mgrwt>
</event>
<event>
 6    1  0.4202038E-002  0.1297910E+03  0.7546771E-02  0.1227766E+00
         21   -1    0    0  504  502  0.00000000000E+00  0.00000000000E+00  0.85353542876E+03  0.85353542876E+03  0.00000000000E+00 0. -1.
         21   -1    0    0  502  503 -0.00000000000E+00 -0.00000000000E+00 -0.92745591071E+01  0.92745591071E+01  0.00000000000E+00 0.  1.
         25    2    1    2    0    0  0.33961158146E+02  0.81901419109E+01  0.76849262245E+03  0.77937578642E+03  0.12500106803E+03 0.  0.
          5    1    3    3  501    0  0.60297416331E+02 -0.17536880032E+02  0.68803400811E+03  0.69089371606E+03  0.10000000000E+00 0. -1.
         -5    1    3    3    0  501 -0.26336258186E+02  0.25727021943E+02  0.80458614347E+02  0.88482070364E+02  0.10000000000E+00 0. -1.
         21    1    1    2  504  503 -0.33961158146E+02 -0.81901419109E+01  0.75768247202E+02  0.83434201447E+02  0.00000000000E+00 0.  1.
<mgrwt>
<rscale>  1 0.12979101E+03</rscale>
<asrwt>0</asrwt>
<pdfrwt beam="1">  1       21 0.13131308E+00 0.12979101E+03</pdfrwt>
<pdfrwt beam="2">  1       21 0.14268559E-02 0.12979101E+03</pdfrwt>
<totfact> 0.90440313E+05</totfact>
</mgrwt>
</event>
<event>
 6    1  0.4202038E-002  0.2055209E+03  0.7546771E-02  0.1145163E+00
         21   -1    0    0  504  502  0.00000000000E+00  0.00000000000E+00  0.75115862717E+03  0.75115862717E+03  0.00000000000E+00 0. -1.
         21   -1    0    0  502  503 -0.00000000000E+00 -0.00000000000E+00 -0.47651923358E+02  0.47651923358E+02  0.00000000000E+00 0. -1.
         25    2    1    2    0    0  0.13714682943E+03  0.88343859881E+02  0.47955902799E+03  0.52174295606E+03  0.12499984185E+03 0.  0.
          5    1    3    3  501    0  0.76050191832E+02  0.76868662499E+02  0.14187350063E+03  0.17838307972E+03  0.10000000000E+00 0.  1.
         -5    1    3    3    0  501  0.61096637601E+02  0.11475197382E+02  0.33768552737E+03  0.34335987633E+03  0.10000000000E+00 0.  1.
         21    1    1    2  504  503 -0.13714682943E+03 -0.88343859881E+02  0.22394767581E+03  0.27706759447E+03  0.00000000000E+00 0. -1.
<mgrwt>
<rscale>  1 0.20552093E+03</rscale>
<asrwt>0</asrwt>
<pdfrwt beam="1">  1       21 0.11556286E+00 0.20552093E+03</pdfrwt>
<pdfrwt beam="2">  1       21 0.73310657E-02 0.20552093E+03</pdfrwt>
<totfact> 0.80411294E+04</totfact>
</mgrwt>
</event>
<event>
 6    1  0.4202038E-002  0.1261232E+03  0.7546771E-02  0.1233324E+00
         21   -1    0    0  503  502  0.00000000000E+00  0.00000000000E+00  0.12093694430E+03  0.12093694430E+03  0.00000000000E+00 0.  1.
         21   -1    0    0  504  503 -0.00000000000E+00 -0.00000000000E+00 -0.26286177912E+03  0.26286177912E+03  0.00000000000E+00 0.  1.
         25    2    1    2    0    0  0.13812297750E+02  0.95501144350E+01  0.87663726245E+02  0.15359687368E+03  0.12500034580E+03 0.  0.
          5    1    3    3  501    0 -0.45365788426E+02  0.36554800656E+02  0.57634289173E+02  0.81951384973E+02  0.10000000000E+00 0. -1.
         -5    1    3    3    0  501  0.59178086175E+02 -0.27004686221E+02  0.30029437072E+02  0.71645488708E+02  0.10000000000E+00 0. -1.
         21    1    1    2  504  502 -0.13812297750E+02 -0.95501144350E+01 -0.22958856106E+03  0.23020184974E+03  0.00000000000E+00 0.  1.
<mgrwt>
<rscale>  1 0.12612324E+03</rscale>
<asrwt>0</asrwt>
<pdfrwt beam="1">  1       21 0.18605684E-01 0.12612324E+03</pdfrwt>
<pdfrwt beam="2">  1       21 0.40440274E-01 0.12612324E+03</pdfrwt>
<totfact> 0.15884282E+05</totfact>
</mgrwt>
</event>
<event>
 6    1  0.4202038E-002  0.1272130E+03  0.7546771E-02  0.1231651E+00
         21   -1    0    0  503  502  0.00000000000E+00  0.00000000000E+00  0.12549036505E+03  0.12549036505E+03  0.00000000000E+00 0. -1.
         21   -1    0    0  504  503 -0.00000000000E+00 -0.00000000000E+00 -0.40342334814E+03  0.40342334814E+03  0.00000000000E+00 0. -1.
         25    2    1    2    0    0 -0.90131520340E+01  0.21848879617E+02  0.92777256142E+02  0.15745080531E+03  0.12499810553E+03 0.  0.
          5    1    3    3  501    0 -0.65362915247E+02  0.13401460445E+02  0.68156856589E+02  0.95379646318E+02  0.10000000000E+00 0. -1.
         -5    1    3    3    0  501  0.56349763213E+02  0.84474191723E+01  0.24620399553E+02  0.62071158995E+02  0.10000000000E+00 0. -1.
         21    1    1    2  504  502  0.90131520340E+01 -0.21848879617E+02 -0.37071023924E+03  0.37146290787E+03  0.00000000000E+00 0. -1.
<mgrwt>
<rscale>  1 0.12721296E+03</rscale>
<asrwt>0</asrwt>
<pdfrwt beam="1">  1       21 0.19306210E-01 0.12721296E+03</pdfrwt>
<pdfrwt beam="2">  1       21 0.62065131E-01 0.12721296E+03</pdfrwt>
<totfact> 0.61263839E+04</totfact>
</mgrwt>
</event>
<event>
 6    1  0.4202038E-002  0.1331979E+03  0.7546771E-02  0.1222786E+00
         21   -1    0    0  504  502  0.00000000000E+00  0.00000000000E+00  0.24831797748E+02  0.24831797748E+02  0.00000000000E+00 0. -1.
         21   -1    0    0  502  503 -0.00000000000E+00 -0.00000000000E+00 -0.57544252998E+03  0.57544252998E+03  0.00000000000E+00 0. -1.
         25    2    1    2    0    0 -0.36291175754E+02 -0.28273367405E+02 -0.16558062426E+03  0.21250556057E+03  0.12500094959E+03 0.  0.
          5    1    3    3  501    0 -0.39632378493E+02 -0.71522754725E+02 -0.14004500804E+03  0.16216918371E+03  0.10000000000E+00 0. -1.
         -5    1    3    3    0  501  0.33412027391E+01  0.43249387320E+02 -0.25535616224E+02  0.50336376858E+02  0.10000000000E+00 0. -1.
         21    1    1    2  504  503  0.36291175754E+02  0.28273367405E+02 -0.38503010797E+03  0.38776876716E+03  0.00000000000E+00 0. -1.
<mgrwt>
<rscale>  1 0.13319786E+03</rscale>
<asrwt>0</asrwt>
<pdfrwt beam="1">  1       21 0.38202767E-02 0.13319786E+03</pdfrwt>
<pdfrwt beam="2">  1       21 0.88529616E-01 0.13319786E+03</pdfrwt>
<totfact> 0.46698427E+05</totfact>
</mgrwt>
</event>
<event>
 6    1  0.4202038E-002  0.1264686E+03  0.7546771E-02  0.1232792E+00
         21   -1    0    0  504  502  0.00000000000E+00  0.00000000000E+00  0.17089166315E+02  0.17089166315E+02  0.00000000000E+00 0.  1.
         21   -1    0    0  502  503 -0.00000000000E+00 -0.00000000000E+00 -0.44674517385E+03  0.44674517385E+03  0.00000000000E+00 0. -1.
         25    2    1    2    0    0  0.86572085790E+00  0.18674882462E+02 -0.22324699869E+03  0.25658043878E+03  0.12507916866E+03 0.  0.
          5    1    3    3  501    0 -0.26770350332E+02 -0.26907719808E+02 -0.19000420036E+03  0.19375831130E+03  0.10000000000E+00 0.  1.
         -5    1    3    3    0  501  0.27636071190E+02  0.45582602270E+02 -0.33242798329E+02  0.62822127481E+02  0.10000000000E+00 0.  1.
         21    1    1    2  504  503 -0.86572085790E+00 -0.18674882462E+02 -0.20640900885E+03  0.20725390139E+03  0.00000000000E+00 0. -1.
<mgrwt>
<rscale>  1 0.12646857E+03</rscale>
<asrwt>0</asrwt>
<pdfrwt beam="1">  1       21 0.26291028E-02 0.12646857E+03</pdfrwt>
<pdfrwt beam="2">  1       21 0.68730019E-01 0.12646857E+03</pdfrwt>
<totfact> 0.15163447E+06</totfact>
</mgrwt>
</event>
<event>
 6    1  0.4202038E-002  0.1263881E+03  0.7546771E-02  0.1232916E+00
         21   -1    0    0  503  502  0.00000000000E+00  0.00000000000E+00  0.24848257057E+03  0.24848257057E+03  0.00000000000E+00 0. -1.
         21   -1    0    0  504  503 -0.00000000000E+00 -0.00000000000E+00 -0.56189466798E+02  0.56189466798E+02  0.00000000000E+00 0. -1.
         25    2    1    2    0    0  0.13512485055E+02 -0.12889937842E+02  0.23008782064E+03  0.26251544391E+03  0.12500086133E+03 0.  0.
          5    1    3    3  501    0 -0.35785067380E+02 -0.37092331417E+02  0.41733626199E+02  0.66318305565E+02  0.10000000000E+00 0. -1.
         -5    1    3    3    0  501  0.49297552435E+02  0.24202393575E+02  0.18835419444E+03  0.19619713834E+03  0.10000000000E+00 0. -1.
         21    1    1    2  504  502 -0.13512485055E+02  0.12889937842E+02 -0.37794716861E+02  0.42156593465E+02  0.00000000000E+00 0. -1.
<mgrwt>
<rscale>  1 0.12638810E+03</rscale>
<asrwt>0</asrwt>
<pdfrwt beam="1">  1       21 0.38228087E-01 0.12638810E+03</pdfrwt>
<pdfrwt beam="2">  1       21 0.86445335E-02 0.12638810E+03</pdfrwt>
<totfact> 0.69527450E+05</totfact>
</mgrwt>
</event>
<event>
 6    1  0.4202038E-002  0.1989054E+03  0.7546771E-02  0.1150666E+00
         21   -1    0    0  503  502  0.00000000000E+00  0.00000000000E+00  0.32955533460E+03  0.32955533460E+03  0.00000000000E+00 0.  1.
         21   -1    0    0  504  503 -0.00000000000E+00 -0.00000000000E+00 -0.95897414412E+02  0.95897414412E+02  0.00000000000E+00 0.  1.
         25    2    1    2    0    0 -0.22871786635E+02  0.15298142483E+03  0.10914588506E+03  0.22688366315E+03  0.12504774053E+03 0.  0.
          5    1    3    3  501    0 -0.11410417267E+02  0.32421846801E+02 -0.27702150726E+02  0.44145134806E+02  0.10000000000E+00 0.  1.
         -5    1    3    3    0  501 -0.11461369368E+02  0.12055957803E+03  0.13684803579E+03  0.18273852835E+03  0.10000000000E+00 0.  1.
         21    1    1    2  504  502  0.22871786635E+02 -0.15298142483E+03  0.12451203513E+03  0.19856908586E+03  0.00000000000E+00 0.  1.
<mgrwt>
<rscale>  1 0.19890544E+03</rscale>
<asrwt>0</asrwt>
<pdfrwt beam="1">  1       21 0.50700820E-01 0.19890544E+03</pdfrwt>
<pdfrwt beam="2">  1       21 0.14753449E-01 0.19890544E+03</pdfrwt>
<totfact> 0.14930863E+05</totfact>
</mgrwt>
</event>
<event>
 6    1  0.4202038E-002  0.1406815E+03  0.7546771E-02  0.1212415E+00
         21   -1    0    0  503  502  0.00000000000E+00  0.00000000000E+00  0.40332170405E+03  0.40332170405E+03  0.00000000000E+00 0.  1.
         21   -1    0    0  504  503 -0.00000000000E+00 -0.00000000000E+00 -0.77118207509E+02  0.77118207509E+02  0.00000000000E+00 0.  1.
         25    2    1    2    0    0 -0.55267546183E+02  0.33327102739E+02  0.37435623877E+03  0.39991734316E+03  0.12500436159E+03 0.  0.
          5    1    3    3  501    0 -0.46842183529E+02 -0.16287239301E+02  0.32724736834E+03  0.33098385822E+03  0.10000000000E+00 0. -1.
         -5    1    3    3    0  501 -0.84253626538E+01  0.49614342040E+02  0.47108870429E+02  0.68933484933E+02  0.10000000000E+00 0. -1.
         21    1    1    2  504  502  0.55267546183E+02 -0.33327102739E+02 -0.48152742225E+02  0.80522568401E+02  0.00000000000E+00 0.  1.
<mgrwt>
<rscale>  1 0.14068151E+03</rscale>
<asrwt>0</asrwt>
<pdfrwt beam="1">  1       21 0.62049492E-01 0.14068151E+03</pdfrwt>
<pdfrwt beam="2">  1       21 0.11864340E-01 0.14068151E+03</pdfrwt>
<totfact> 0.14688058E+05</totfact>
</mgrwt>
</event>
<event>
 6    1  0.4202038E-002  0.1270063E+03  0.7546771E-02  0.1231967E+00
         21   -1    0    0  504  502  0.00000000000E+00  0.00000000000E+00  0.54425849846E+02  0.54425849846E+02  0.00000000000E+00 0.  1.
         21   -1    0    0  502  503 -0.00000000000E+00 -0.00000000000E+00 -0.12796200220E+03  0.12796200220E+03  0.00000000000E+00 0.  1.
         25    2    1    2    0    0 -0.22172142313E+02 -0.69993586257E+00 -0.25590115734E+02  0.12955872909E+03  0.12505405413E+03 0.  0.
          5    1    3    3  501    0 -0.57530072916E+02 -0.32909223392E+02  0.13678523714E+02  0.67674502473E+02  0.10000000000E+00 0. -1.
         -5    1    3    3    0  501  0.35357930603E+02  0.32209287529E+02 -0.39268639449E+02  0.61884226616E+02  0.10000000000E+00 0. -1.
         21    1    1    2  504  503  0.22172142313E+02  0.69993586257E+00 -0.47946036617E+02  0.52829122955E+02  0.00000000000E+00 0.  1.
<mgrwt>
<rscale>  1 0.12700634E+03</rscale>
<asrwt>0</asrwt>
<pdfrwt beam="1">  1       21 0.83732078E-02 0.12700634E+03</pdfrwt>
<pdfrwt beam="2">  1       21 0.19686462E-01 0.12700634E+03</pdfrwt>
<totfact> 0.26110412E+06</totfact>
</mgrwt>
</event>
<event>
 6    1  0.4202038E-002  0.1274832E+03  0.7546771E-02  0.1231239E+00
         21   -1    0    0  504  502  0.00000000000E+00  0.00000000000E+00  0.62348059426E+02  0.62348059426E+02  0.00000000000E+00 0.  1.
         21   -1    0    0  502  503 -0.00000000000E+00 -0.00000000000E+00 -0.94916148478E+02  0.94916148478E+02  0.00000000000E+00 0.  1.
         25    2    1    2    0    0  0.24734986926E+02  0.37717754821E+01 -0.34789393118E+02  0.13214489143E+03  0.12500369830E+03 0.  0.
          5    1    3    3  501    0 -0.34467740541E+02  0.43995628126E+02 -0.16384900005E+02  0.58241869651E+02  0.10000000000E+00 0.  1.
         -5    1    3    3    0  501  0.59202727467E+02 -0.40223852644E+02 -0.18404493113E+02  0.73903021777E+02  0.10000000000E+00 0.  1.
         21    1    1    2  504  503 -0.24734986926E+02 -0.37717754821E+01  0.22213040663E+01  0.25119316477E+02  0.00000000000E+00 0.  1.
<mgrwt>
<rscale>  1 0.12748322E+03</rscale>
<asrwt>0</asrwt>
<pdfrwt beam="1">  1       21 0.95920092E-02 0.12748322E+03</pdfrwt>
<pdfrwt beam="2">  1       21 0.14602484E-01 0.12748322E+03</pdfrwt>
<totfact> 0.35535366E+06</totfact>
</mgrwt>
</event>
<event>
 6    1  0.4202038E-002  0.1386835E+03  0.7546771E-02  0.1215111E+00
         21   -1    0    0  504  502  0.00000000000E+00  0.00000000000E+00  0.18207884115E+04  0.18207884115E+04  0.00000000000E+00 0.  1.
         21   -1    0    0  502  503 -0.00000000000E+00 -0.00000000000E+00 -0.28966992212E+02  0.28966992212E+02  0.00000000000E+00 0.  1.
         25    2    1    2    0    0  0.52539369290E+02  0.29141118457E+02  0.17837531353E+04  0.17891362045E+04  0.12499408125E+03 0.  0.
          5    1    3    3  501    0 -0.38751489878E+01 -0.78035366794E+01  0.13618415573E+04  0.13618694317E+04  0.10000000000E+00 0.  1.
         -5    1    3    3    0  501  0.56414518277E+02  0.36944655136E+02  0.42191157802E+03  0.42726677274E+03  0.10000000000E+00 0.  1.
         21    1    1    2  504  503 -0.52539369290E+02 -0.29141118457E+02  0.80682839892E+01  0.60619199242E+02  0.00000000000E+00 0.  1.
<mgrwt>
<rscale>  1 0.13868349E+03</rscale>
<asrwt>0</asrwt>
<pdfrwt beam="1">  1       21 0.28012121E+00 0.13868349E+03</pdfrwt>
<pdfrwt beam="2">  1       21 0.44564618E-02 0.13868349E+03</pdfrwt>
<totfact> 0.15407967E+04</totfact>
</mgrwt>
</event>
<event>
 6    1  0.4202038E-002  0.1260935E+03  0.7546771E-02  0.1233370E+00
         21   -1    0    0  504  502  0.00000000000E+00  0.00000000000E+00  0.33276999719E+03  0.33276999719E+03  0.00000000000E+00 0.  1.
         21   -1    0    0  502  503 -0.00000000000E+00 -0.00000000000E+00 -0.15521269247E+02  0.15521269247E+02  0.00000000000E+00 0.  1.
         25    2    1    2    0    0  0.14388265664E+02  0.82187995120E+01  0.29234095111E+03  0.31837524730E+03  0.12499998217E+03 0.  0.
          5    1    3    3  501    0 -0.31193484395E+02 -0.44796687164E+01  0.25797993150E+03  0.25989758744E+03  0.10000000000E+00 0.  1.
         -5    1    3    3    0  501  0.45581750059E+02  0.12698468228E+02  0.34361019609E+02  0.58477659857E+02  0.10000000000E+00 0.  1.
         21    1    1    2  504  503 -0.14388265664E+02 -0.82187995120E+01  0.24907776824E+02  0.29916019130E+02  0.00000000000E+00 0.  1.
<mgrwt>
<rscale>  1 0.12609348E+03</rscale>
<asrwt>0</asrwt>
<pdfrwt beam="1">  1       21 0.51195379E-01 0.12609348E+03</pdfrwt>
<pdfrwt beam="2">  1       21 0.23878878E-02 0.12609348E+03</pdfrwt>
<totfact> 0.33098215E+06</totfact>
</mgrwt>
</event>
<event>
 6    1  0.4202038E-002  0.1298708E+03  0.7546771E-02  0.1227648E+00
         21   -1    0    0  503  502  0.00000000000E+00  0.00000000000E+00  0.12519989927E+03  0.12519989927E+03  0.00000000000E+00 0.  1.
         21   -1    0    0  504  503 -0.00000000000E+00 -0.00000000000E+00 -0.11160840423E+03  0.11160840423E+03  0.00000000000E+00 0.  1.
         25    2    1    2    0    0  0.31945278447E+02 -0.14848292032E+02  0.86358809774E+02  0.15596243357E+03  0.12500185625E+03 0.  0.
          5    1    3    3  501    0 -0.87876486234E+01 -0.30293951691E+02  0.10421330650E+03  0.10888236556E+03  0.10000000000E+00 0. -1.
         -5    1    3    3    0  501  0.40732927070E+02  0.15445659658E+02 -0.17854496731E+02  0.47080068006E+02  0.10000000000E+00 0. -1.
         21    1    1    2  504  502 -0.31945278447E+02  0.14848292032E+02 -0.72767314731E+02  0.80845869929E+02  0.00000000000E+00 0.  1.
<mgrwt>
<rscale>  1 0.12987085E+03</rscale>
<asrwt>0</asrwt>
<pdfrwt beam="1">  1       21 0.19261523E-01 0.12987085E+03</pdfrwt>
<pdfrwt beam="2">  1       21 0.17170524E-01 0.12987085E+03</pdfrwt>
<totfact> 0.76120185E+05</totfact>
</mgrwt>
</event>
<event>
 6    1  0.4202038E-002  0.1266341E+03  0.7546771E-02  0.1232537E+00
         21   -1    0    0  503  502  0.00000000000E+00  0.00000000000E+00  0.91272605437E+02  0.91272605437E+02  0.00000000000E+00 0.  1.
         21   -1    0    0  504  503 -0.00000000000E+00 -0.00000000000E+00 -0.10213764353E+03  0.10213764353E+03  0.00000000000E+00 0.  1.
         25    2    1    2    0    0 -0.62975204957E+01 -0.19240480777E+02  0.44684480467E+02  0.13428661683E+03  0.12500535108E+03 0.  0.
          5    1    3    3  501    0 -0.44247867737E+02 -0.27268295424E+02  0.70575806988E+02  0.87649234261E+02  0.10000000000E+00 0. -1.
         -5    1    3    3    0  501  0.37950347241E+02  0.80278146470E+01 -0.25891326521E+02  0.46637382567E+02  0.10000000000E+00 0. -1.
         21    1    1    2  504  502  0.62975204957E+01  0.19240480777E+02 -0.55549518558E+02  0.59123632136E+02  0.00000000000E+00 0.  1.
<mgrwt>
<rscale>  1 0.12663409E+03</rscale>
<asrwt>0</asrwt>
<pdfrwt beam="1">  1       21 0.14041939E-01 0.12663409E+03</pdfrwt>
<pdfrwt beam="2">  1       21 0.15713484E-01 0.12663409E+03</pdfrwt>
<totfact> 0.15871921E+06</totfact>
</mgrwt>
</event>
<event>
 6    1  0.4202038E-002  0.1264434E+03  0.7546771E-02  0.1232831E+00
         21   -1    0    0  503  502  0.00000000000E+00  0.00000000000E+00  0.90767169775E+02  0.90767169775E+02  0.00000000000E+00 0. -1.
         21   -1    0    0  504  503 -0.00000000000E+00 -0.00000000000E+00 -0.10312363320E+03  0.10312363320E+03  0.00000000000E+00 0. -1.
         25    2    1    2    0    0 -0.84257502678E+01  0.17075606743E+02  0.44410281612E+02  0.13401565826E+03  0.12500141572E+03 0.  0.
          5    1    3    3  501    0  0.13550361400E+02  0.67382076944E+02  0.10604222790E+02  0.69544346487E+02  0.10000000000E+00 0. -1.
         -5    1    3    3    0  501 -0.21976111668E+02 -0.50306470201E+02  0.33806058822E+02  0.64471311768E+02  0.10000000000E+00 0. -1.
         21    1    1    2  504  502  0.84257502678E+01 -0.17075606743E+02 -0.56766745035E+02  0.59875144719E+02  0.00000000000E+00 0. -1.
<mgrwt>
<rscale>  1 0.12644336E+03</rscale>
<asrwt>0</asrwt>
<pdfrwt beam="1">  1       21 0.13964180E-01 0.12644336E+03</pdfrwt>
<pdfrwt beam="2">  1       21 0.15865174E-01 0.12644336E+03</pdfrwt>
<totfact> 0.15753878E+06</totfact>
</mgrwt>
</event>
<event>
 6    1  0.4202038E-002  0.1270919E+03  0.7546771E-02  0.1231836E+00
         21   -1    0    0  504  502  0.00000000000E+00  0.00000000000E+00  0.19072156282E+03  0.19072156282E+03  0.00000000000E+00 0.  1.
         21   -1    0    0  502  503 -0.00000000000E+00 -0.00000000000E+00 -0.30928206607E+02  0.30928206607E+02  0.00000000000E+00 0.  1.
         25    2    1    2    0    0  0.82348748386E+01  0.21371191825E+02  0.15036903342E+03  0.19688368649E+03  0.12501119467E+03 0.  0.
          5    1    3    3  501    0  0.37516584124E+02 -0.31192105421E+00 -0.44993598861E+01  0.37786844516E+02  0.10000000000E+00 0. -1.
         -5    1    3    3    0  501 -0.29281709286E+02  0.21683112879E+02  0.15486839330E+03  0.15909684198E+03  0.10000000000E+00 0. -1.
         21    1    1    2  504  503 -0.82348748386E+01 -0.21371191825E+02  0.94243227940E+01  0.24766082931E+02  0.00000000000E+00 0.  1.
<mgrwt>
<rscale>  1 0.12709186E+03</rscale>
<asrwt>0</asrwt>
<pdfrwt beam="1">  1       21 0.29341778E-01 0.12709186E+03</pdfrwt>
<pdfrwt beam="2">  1       21 0.47581858E-02 0.12709186E+03</pdfrwt>
<totfact> 0.32205654E+06</totfact>
</mgrwt>
</event>
<event>
 6    1  0.4202038E-002  0.1285598E+03  0.7546771E-02  0.1229608E+00
         21   -1    0    0  504  502  0.00000000000E+00  0.00000000000E+00  0.20874383638E+02  0.20874383638E+02  0.00000000000E+00 0. -1.
         21   -1    0    0  502  503 -0.00000000000E+00 -0.00000000000E+00 -0.17503246886E+04  0.17503246886E+04  0.00000000000E+00 0. -1.
         25    2    1    2    0    0 -0.19960736670E+02  0.22453584713E+02 -0.17860183421E+03  0.22005962857E+03  0.12500012187E+03 0.  0.
          5    1    3    3  501    0 -0.70063803799E+02 -0.12648519578E+01 -0.75556842662E+02  0.10305039023E+03  0.10000000000E+00 0.  1.
         -5    1    3    3    0  501  0.50103067128E+02  0.23718436671E+02 -0.10304499155E+03  0.11700923834E+03  0.10000000000E+00 0.  1.
         21    1    1    2  504  503  0.19960736670E+02 -0.22453584713E+02 -0.15508484708E+04  0.15511394437E+04  0.00000000000E+00 0. -1.
<mgrwt>
<rscale>  1 0.12855981E+03</rscale>
<asrwt>0</asrwt>
<pdfrwt beam="1">  1       21 0.32114435E-02 0.12855981E+03</pdfrwt>
<pdfrwt beam="2">  1       21 0.26928073E+00 0.12855981E+03</pdfrwt>
<totfact> 0.30927205E+04</totfact>
</mgrwt>
</event>
<event>
 6    1  0.4202038E-002  0.1881248E+03  0.7546771E-02  0.1160164E+00
         21   -1    0    0  504  502  0.00000000000E+00  0.00000000000E+00  0.30380934234E+03  0.30380934234E+03  0.00000000000E+00 0. -1.
         21   -1    0    0  502  503 -0.00000000000E+00 -0.00000000000E+00 -0.15077078039E+03  0.15077078039E+03  0.00000000000E+00 0.  1.
         25    2    1    2    0    0  0.57757471782E+02  0.12816918026E+03  0.22773310578E+03  0.29538672087E+03  0.12501073188E+03 0.  0.
          5    1    3    3  501    0 -0.31207124418E+02  0.19824865467E+02  0.96568466204E+02  0.10340400655E+03  0.10000000000E+00 0.  1.
         -5    1    3    3    0  501  0.88964596200E+02  0.10834431479E+03  0.13116463958E+03  0.19198271433E+03  0.10000000000E+00 0.  1.
         21    1    1    2  504  503 -0.57757471782E+02 -0.12816918026E+03 -0.74694543829E+02  0.15919340185E+03  0.00000000000E+00 0.  1.
<mgrwt>
<rscale>  1 0.18812482E+03</rscale>
<asrwt>0</asrwt>
<pdfrwt beam="1">  1       21 0.46739899E-01 0.18812482E+03</pdfrwt>
<pdfrwt beam="2">  1       21 0.23195505E-01 0.18812482E+03</pdfrwt>
<totfact> 0.76690474E+04</totfact>
</mgrwt>
</event>
<event>
 6    1  0.4202038E-002  0.1262263E+03  0.7546771E-02  0.1233165E+00
         21   -1    0    0  503  502  0.00000000000E+00  0.00000000000E+00  0.98070509219E+01  0.98070509219E+01  0.00000000000E+00 0. -1.
         21   -1    0    0  504  503 -0.00000000000E+00 -0.00000000000E+00 -0.57007548430E+03  0.57007548430E+03  0.00000000000E+00 0. -1.
         25    2    1    2    0    0  0.23865022051E+01  0.17374866573E+02 -0.42104595350E+03  0.43955976343E+03  0.12500203711E+03 0.  0.
          5    1    3    3  501    0  0.30765045612E+02 -0.44746034375E+02 -0.13586080575E+03  0.14631084773E+03  0.10000000000E+00 0. -1.
         -5    1    3    3    0  501 -0.28378543407E+02  0.62120900949E+02 -0.28518514775E+03  0.29324891570E+03  0.10000000000E+00 0. -1.
         21    1    1    2  504  502 -0.23865022051E+01 -0.17374866573E+02 -0.13922247988E+03  0.14032277179E+03  0.00000000000E+00 0.  1.
<mgrwt>
<rscale>  1 0.12622635E+03</rscale>
<asrwt>0</asrwt>
<pdfrwt beam="1">  1       21 0.15087768E-02 0.12622635E+03</pdfrwt>
<pdfrwt beam="2">  1       21 0.87703936E-01 0.12622635E+03</pdfrwt>
<totfact> 0.21608201E+06</totfact>
</mgrwt>
</event>
<event>
 6    1  0.4202038E-002  0.1259975E+03  0.7546771E-02  0.1233519E+00
         21   -1    0    0  504  502  0.00000000000E+00  0.00000000000E+00  0.13141370713E+03  0.13141370713E+03  0.00000000000E+00 0. -1.
         21   -1    0    0  502  503 -0.00000000000E+00 -0.00000000000E+00 -0.41196766983E+02  0.41196766983E+02  0.00000000000E+00 0. -1.
         25    2    1    2    0    0  0.10994846037E+02  0.11432436962E+02  0.92874211117E+02  0.15652792632E+03  0.12499514140E+03 0.  0.
          5    1    3    3  501    0 -0.47847539997E+01 -0.52220889899E+02  0.69157481366E+02  0.86791027426E+02  0.10000000000E+00 0.  1.
         -5    1    3    3    0  501  0.15779600037E+02  0.63653326861E+02  0.23716729751E+02  0.69736898897E+02  0.10000000000E+00 0.  1.
         21    1    1    2  504  503 -0.10994846037E+02 -0.11432436962E+02 -0.26572709738E+01  0.16082547786E+02  0.00000000000E+00 0. -1.
<mgrwt>
<rscale>  1 0.12599751E+03</rscale>
<asrwt>0</asrwt>
<pdfrwt beam="1">  1       21 0.20217493E-01 0.12599751E+03</pdfrwt>
<pdfrwt beam="2">  1       21 0.63379642E-02 0.12599751E+03</pdfrwt>
<totfact> 0.40049258E+06</totfact>
</mgrwt>
</event>
<event>
 6    1  0.4202038E-002  0.1687235E+03  0.7546771E-02  0.1179186E+00
         21   -1    0    0  504  502  0.00000000000E+00  0.00000000000E+00  0.22742868632E+03  0.22742868632E+03  0.00000000000E+00 0. -1.
         21   -1    0    0  502  503 -0.00000000000E+00 -0.00000000000E+00 -0.88585357794E+02  0.88585357794E+02  0.00000000000E+00 0. -1.
         25    2    1    2    0    0  0.20584045503E+02  0.11142833317E+03  0.65258401356E+02  0.18090402277E+03  0.12501052013E+03 0.  0.
          5    1    3    3  501    0 -0.44228349412E+02  0.17016777623E+02 -0.31785244390E+01  0.47495585374E+02  0.10000000000E+00 0. -1.
         -5    1    3    3    0  501  0.64812394915E+02  0.94411555546E+02  0.68436925795E+02  0.13340843739E+03  0.10000000000E+00 0. -1.
         21    1    1    2  504  503 -0.20584045503E+02 -0.11142833317E+03  0.73584927173E+02  0.13511002135E+03  0.00000000000E+00 0. -1.
<mgrwt>
<rscale>  1 0.16872346E+03</rscale>
<asrwt>0</asrwt>
<pdfrwt beam="1">  1       21 0.34989028E-01 0.16872346E+03</pdfrwt>
<pdfrwt beam="2">  1       21 0.13628517E-01 0.16872346E+03</pdfrwt>
<totfact> 0.36940011E+05</totfact>
</mgrwt>
</event>
<event>
 6    1  0.4202038E-002  0.1349121E+03  0.7546771E-02  0.1220344E+00
         21   -1    0    0  504  502  0.00000000000E+00  0.00000000000E+00  0.89266713935E+01  0.89266713935E+01  0.00000000000E+00 0. -1.
         21   -1    0    0  502  503 -0.00000000000E+00 -0.00000000000E+00 -0.11705974438E+04  0.11705974438E+04  0.00000000000E+00 0. -1.
         25    2    1    2    0    0  0.40897121201E+02 -0.30060362376E+02 -0.57295529497E+03  0.58862470473E+03  0.12500029232E+03 0.  0.
          5    1    3    3  501    0  0.54317601461E+01  0.49285802308E+01 -0.50129120786E+03  0.50134487132E+03  0.10000000000E+00 0.  1.
         -5    1    3    3    0  501  0.35465361054E+02 -0.34988942607E+02 -0.71664087114E+02  0.87279833417E+02  0.10000000000E+00 0.  1.
         21    1    1    2  504  503 -0.40897121201E+02  0.30060362376E+02 -0.58871547744E+03  0.59089941047E+03  0.00000000000E+00 0. -1.
<mgrwt>
<rscale>  1 0.13491209E+03</rscale>
<asrwt>0</asrwt>
<pdfrwt beam="1">  1       21 0.13733346E-02 0.13491209E+03</pdfrwt>
<pdfrwt beam="2">  1       21 0.18009184E+00 0.13491209E+03</pdfrwt>
<totfact> 0.41942400E+05</totfact>
</mgrwt>
</event>
<event>
 6    1  0.4202038E-002  0.1267179E+03  0.7546771E-02  0.1232409E+00
         21   -1    0    0  504  502  0.00000000000E+00  0.00000000000E+00  0.17489077356E+03  0.17489077356E+03  0.00000000000E+00 0.  1.
         21   -1    0    0  502  503 -0.00000000000E+00 -0.00000000000E+00 -0.44697824978E+02  0.44697824978E+02  0.00000000000E+00 0.  1.
         25    2    1    2    0    0  0.11189653833E+02  0.17531308791E+02  0.14610530630E+03  0.19340161190E+03  0.12499947127E+03 0.  0.
          5    1    3    3  501    0  0.38205666254E+02  0.23183685942E+02 -0.22777579009E-01  0.44689671588E+02  0.10000000000E+00 0. -1.
         -5    1    3    3    0  501 -0.27016012421E+02 -0.56523771515E+01  0.14612808388E+03  0.14871194032E+03  0.10000000000E+00 0. -1.
         21    1    1    2  504  503 -0.11189653833E+02 -0.17531308791E+02 -0.15912357718E+02  0.26186986634E+02  0.00000000000E+00 0.  1.
<mgrwt>
<rscale>  1 0.12671789E+03</rscale>
<asrwt>0</asrwt>
<pdfrwt beam="1">  1       21 0.26906272E-01 0.12671789E+03</pdfrwt>
<pdfrwt beam="2">  1       21 0.68765886E-02 0.12671789E+03</pdfrwt>
<totfact> 0.20393033E+06</totfact>
</mgrwt>
</event>
<event>
 6    1  0.4202038E-002  0.1259728E+03  0.7546771E-02  0.1233557E+00
         21   -1    0    0  504  502  0.00000000000E+00  0.00000000000E+00  0.14757350540E+04  0.14757350540E+04  0.00000000000E+00 0. -1.
         21   -1    0    0  502  503 -0.00000000000E+00 -0.00000000000E+00 -0.97361573636E+01  0.97361573636E+01  0.00000000000E+00 0. -1.
         25    2    1    2    0    0 -0.13593765738E+02  0.76880678674E+01  0.14643597601E+04  0.14697682300E+04  0.12500098453E+03 0.  0.
          5    1    3    3  501    0 -0.52474886876E+02  0.43864775363E+02  0.62526988474E+03  0.62899934105E+03  0.10000000000E+00 0. -1.
         -5    1    3    3    0  501  0.38881121138E+02 -0.36176707496E+02  0.83908987538E+03  0.84076888900E+03  0.10000000000E+00 0. -1.
         21    1    1    2  504  503  0.13593765738E+02 -0.76880678674E+01  0.16391365405E+01  0.15702981344E+02  0.00000000000E+00 0. -1.
<mgrwt>
<rscale>  1 0.12597279E+03</rscale>
<asrwt>0</asrwt>
<pdfrwt beam="1">  1       21 0.22703598E+00 0.12597279E+03</pdfrwt>
<pdfrwt beam="2">  1       21 0.14978715E-02 0.12597279E+03</pdfrwt>
<totfact> 0.18664341E+05</totfact>
</mgrwt>
</event>
<event>
 6    1  0.4202038E-002  0.1770080E+03  0.7546771E-02  0.1170731E+00
         21   -1    0    0  504  502  0.00000000000E+00  0.00000000000E+00  0.81162726347E+03  0.81162726347E+03  0.00000000000E+00 0.  1.
         21   -1    0    0  502  503 -0.00000000000E+00 -0.00000000000E+00 -0.71121111767E+02  0.71121111767E+02  0.00000000000E+00 0. -1.
         25    2    1    2    0    0 -0.91950554505E+02  0.85161159881E+02  0.73637585321E+03  0.75735145744E+03  0.12499802109E+03 0.  0.
          5    1    3    3  501    0 -0.11768570316E+03  0.45795552960E+02  0.59841190210E+03  0.61159134394E+03  0.10000000000E+00 0. -1.
         -5    1    3    3    0  501  0.25735148658E+02  0.39365606921E+02  0.13796395110E+03  0.14576011350E+03  0.10000000000E+00 0. -1.
         21    1    1    2  504  503  0.91950554505E+02 -0.85161159881E+02  0.41302984912E+01  0.12539691779E+03  0.00000000000E+00 0. -1.
<mgrwt>
<rscale>  1 0.17700800E+03</rscale>
<asrwt>0</asrwt>
<pdfrwt beam="1">  1       21 0.12486573E+00 0.17700800E+03</pdfrwt>
<pdfrwt beam="2">  1       21 0.10941710E-01 0.17700800E+03</pdfrwt>
<totfact> 0.33393333E+04</totfact>
</mgrwt>
</event>
<event>
 6    1  0.4202038E-002  0.1291024E+03  0.7546771E-02  0.1228794E+00
         21   -1    0    0  503  502  0.00000000000E+00  0.00000000000E+00  0.30860691011E+03  0.30860691011E+03  0.00000000000E+00 0. -1.
         21   -1    0    0  504  503 -0.00000000000E+00 -0.00000000000E+00 -0.64092771198E+02  0.64092771198E+02  0.00000000000E+00 0. -1.
         25    2    1    2    0    0  0.32203024075E+02  0.25670780409E+01  0.28969341272E+03  0.31715878258E+03  0.12499518128E+03 0.  0.
          5    1    3    3  501    0 -0.10110620045E+02  0.67434711222E+01 -0.92082829488E+01  0.15248000372E+02  0.10000000000E+00 0.  1.
         -5    1    3    3    0  501  0.42313644120E+02 -0.41763930813E+01  0.29890169567E+03  0.30191078221E+03  0.10000000000E+00 0.  1.
         21    1    1    2  504  502 -0.32203024075E+02 -0.25670780409E+01 -0.45179273812E+02  0.55540898727E+02  0.00000000000E+00 0. -1.
<mgrwt>
<rscale>  1 0.12910236E+03</rscale>
<asrwt>0</asrwt>
<pdfrwt beam="1">  1       21 0.47477985E-01 0.12910236E+03</pdfrwt>
<pdfrwt beam="2">  1       21 0.98604265E-02 0.12910236E+03</pdfrwt>
<totfact> 0.35718705E+05</totfact>
</mgrwt>
</event>
<event>
 6    1  0.4202038E-002  0.1436953E+03  0.7546771E-02  0.1208441E+00
         21   -1    0    0  503  502  0.00000000000E+00  0.00000000000E+00  0.24211266425E+02  0.24211266425E+02  0.00000000000E+00 0.  1.
         21   -1    0    0  504  503 -0.00000000000E+00 -0.00000000000E+00 -0.30007170813E+04  0.30007170813E+04  0.00000000000E+00 0.  1.
         25    2    1    2    0    0  0.61261919052E+01  0.70635522720E+02 -0.19350171998E+03  0.24102125525E+03  0.12498568939E+03 0.  0.
          5    1    3    3  501    0  0.70430606312E+01 -0.27924226398E+02 -0.63339504985E+01  0.29487218450E+02  0.10000000000E+00 0. -1.
         -5    1    3    3    0  501 -0.91686872606E+00  0.98559749119E+02 -0.18716776948E+03  0.21153403680E+03  0.10000000000E+00 0. -1.
         21    1    1    2  504  502 -0.61261919052E+01 -0.70635522720E+02 -0.27830040949E+04  0.27839070925E+04  0.00000000000E+00 0.  1.
<mgrwt>
<rscale>  1 0.14369527E+03</rscale>
<asrwt>0</asrwt>
<pdfrwt beam="1">  1       21 0.37248094E-02 0.14369527E+03</pdfrwt>
<pdfrwt beam="2">  1       21 0.46164889E+00 0.14369527E+03</pdfrwt>
<totfact> 0.16758318E+03</totfact>
</mgrwt>
</event>
<event>
 6    1  0.4202038E-002  0.1272463E+03  0.7546771E-02  0.1231600E+00
         21   -1    0    0  504  502  0.00000000000E+00  0.00000000000E+00  0.19558553563E+02  0.19558553563E+02  0.00000000000E+00 0.  1.
         21   -1    0    0  502  503 -0.00000000000E+00 -0.00000000000E+00 -0.32198710723E+03  0.32198710723E+03  0.00000000000E+00 0.  1.
         25    2    1    2    0    0 -0.13763400564E+02 -0.19421068387E+02 -0.20524493274E+03  0.24148935030E+03  0.12500005921E+03 0.  0.
          5    1    3    3  501    0 -0.44900470497E+02 -0.51857999950E+02 -0.66100773349E+02  0.95260834801E+02  0.10000000000E+00 0. -1.
         -5    1    3    3    0  501  0.31137069933E+02  0.32436931563E+02 -0.13914415939E+03  0.14622851550E+03  0.10000000000E+00 0. -1.
         21    1    1    2  504  503  0.13763400564E+02  0.19421068387E+02 -0.97183620930E+02  0.10005631049E+03  0.00000000000E+00 0.  1.
<mgrwt>
<rscale>  1 0.12724631E+03</rscale>
<asrwt>0</asrwt>
<pdfrwt beam="1">  1       21 0.30090083E-02 0.12724631E+03</pdfrwt>
<pdfrwt beam="2">  1       21 0.49536477E-01 0.12724631E+03</pdfrwt>
<totfact> 0.24301988E+06</totfact>
</mgrwt>
</event>
<event>
 6    1  0.4202038E-002  0.2114714E+03  0.7546771E-02  0.1140406E+00
         21   -1    0    0  504  502  0.00000000000E+00  0.00000000000E+00  0.39225818227E+02  0.39225818227E+02  0.00000000000E+00 0.  1.
         21   -1    0    0  502  503 -0.00000000000E+00 -0.00000000000E+00 -0.11511067642E+04  0.11511067642E+04  0.00000000000E+00 0. -1.
         25    2    1    2    0    0  0.14094929411E+03 -0.96136203037E+02 -0.34461403065E+03  0.40432533539E+03  0.12494508262E+03 0.  0.
          5    1    3    3  501    0 -0.11454945131E+01  0.22523723690E+02 -0.66599748368E+02  0.70314769211E+02  0.10000000000E+00 0.  1.
         -5    1    3    3    0  501  0.14209478862E+03 -0.11865992673E+03 -0.27801428228E+03  0.33401056618E+03  0.10000000000E+00 0.  1.
         21    1    1    2  504  503 -0.14094929411E+03  0.96136203037E+02 -0.76726691527E+03  0.78600724699E+03  0.00000000000E+00 0. -1.
<mgrwt>
<rscale>  1 0.21147139E+03</rscale>
<asrwt>0</asrwt>
<pdfrwt beam="1">  1       21 0.60347416E-02 0.21147139E+03</pdfrwt>
<pdfrwt beam="2">  1       21 0.17709334E+00 0.21147139E+03</pdfrwt>
<totfact> 0.36746707E+04</totfact>
</mgrwt>
</event>
<event>
 6    1  0.4202038E-002  0.1265536E+03  0.7546771E-02  0.1232661E+00
         21   -1    0    0  504  502  0.00000000000E+00  0.00000000000E+00  0.25276910716E+02  0.25276910716E+02  0.00000000000E+00 0.  1.
         21   -1    0    0  502  503 -0.00000000000E+00 -0.00000000000E+00 -0.29210763953E+03  0.29210763953E+03  0.00000000000E+00 0.  1.
         25    2    1    2    0    0  0.19745933464E+02 -0.10993271602E+01 -0.13879044043E+03  0.18782596945E+03  0.12499879214E+03 0.  0.
          5    1    3    3  501    0  0.40982821183E+02  0.53349273540E+02 -0.63453244003E+02  0.92477352870E+02  0.10000000000E+00 0.  1.
         -5    1    3    3    0  501 -0.21236887719E+02 -0.54448600700E+02 -0.75337196429E+02  0.95348616581E+02  0.10000000000E+00 0.  1.
         21    1    1    2  504  503 -0.19745933464E+02  0.10993271602E+01 -0.12804028838E+03  0.12955858079E+03  0.00000000000E+00 0.  1.
<mgrwt>
<rscale>  1 0.12655358E+03</rscale>
<asrwt>0</asrwt>
<pdfrwt beam="1">  1       21 0.38887554E-02 0.12655358E+03</pdfrwt>
<pdfrwt beam="2">  1       21 0.44939638E-01 0.12655358E+03</pdfrwt>
<totfact> 0.19426937E+06</totfact>
</mgrwt>
</event>
<event>
 6    1  0.4202038E-002  0.1262974E+03  0.7546771E-02  0.1233056E+00
         21   -1    0    0  503  502  0.00000000000E+00  0.00000000000E+00  0.10089234046E+04  0.10089234046E+04  0.00000000000E+00 0. -1.
         21   -1    0    0  504  503 -0.00000000000E+00 -0.00000000000E+00 -0.16961245806E+03  0.16961245806E+03  0.00000000000E+00 0. -1.
         25    2    1    2    0    0 -0.17984518393E+02 -0.18626159740E+01  0.10044756299E+04  0.10123844713E+04  0.12499645777E+03 0.  0.
          5    1    3    3  501    0  0.39064422313E+02  0.39692531857E+02  0.43270265694E+03  0.43627184816E+03  0.10000000000E+00 0.  1.
         -5    1    3    3    0  501 -0.57048940706E+02 -0.41555147831E+02  0.57177297294E+03  0.57611262313E+03  0.10000000000E+00 0.  1.
         21    1    1    2  504  502  0.17984518393E+02  0.18626159740E+01 -0.16516468333E+03  0.16615139139E+03  0.00000000000E+00 0. -1.
<mgrwt>
<rscale>  1 0.12629737E+03</rscale>
<asrwt>0</asrwt>
<pdfrwt beam="1">  1       21 0.15521898E+00 0.12629737E+03</pdfrwt>
<pdfrwt beam="2">  1       21 0.26094225E-01 0.12629737E+03</pdfrwt>
<totfact> 0.40761762E+03</totfact>
</mgrwt>
</event>
<event>
 6    1  0.4202038E-002  0.1931813E+03  0.7546771E-02  0.1155623E+00
         21   -1    0    0  503  502  0.00000000000E+00  0.00000000000E+00  0.12550783664E+04  0.12550783664E+04  0.00000000000E+00 0. -1.
         21   -1    0    0  504  503 -0.00000000000E+00 -0.00000000000E+00 -0.14815794016E+03  0.14815794016E+03  0.00000000000E+00 0. -1.
         25    2    1    2    0    0  0.10959102605E+03  0.98406642382E+02  0.12088041526E+04  0.12241431633E+04  0.12499977800E+03 0.  0.
          5    1    3    3  501    0  0.21343665092E+02  0.87681977005E+02  0.83739411767E+03  0.84224260130E+03  0.10000000000E+00 0. -1.
         -5    1    3    3    0  501  0.88247360959E+02  0.10724665376E+02  0.37141003497E+03  0.38190056198E+03  0.10000000000E+00 0. -1.
         21    1    1    2  504  502 -0.10959102605E+03 -0.98406642382E+02 -0.10188372642E+03  0.17909314327E+03  0.00000000000E+00 0. -1.
<mgrwt>
<rscale>  1 0.19318127E+03</rscale>
<asrwt>0</asrwt>
<pdfrwt beam="1">  1       21 0.19308897E+00 0.19318127E+03</pdfrwt>
<pdfrwt beam="2">  1       21 0.22793530E-01 0.19318127E+03</pdfrwt>
<totfact> 0.26861220E+03</totfact>
</mgrwt>
</event>
<event>
 6    1  0.4202038E-002  0.1284692E+03  0.7546771E-02  0.1229745E+00
         21   -1    0    0  504  502  0.00000000000E+00  0.00000000000E+00  0.41911450792E+03  0.41911450792E+03  0.00000000000E+00 0. -1.
         21   -1    0    0  502  503 -0.00000000000E+00 -0.00000000000E+00 -0.24020493007E+02  0.24020493007E+02  0.00000000000E+00 0. -1.
         25    2    1    2    0    0 -0.13780790493E+02 -0.26270936424E+02  0.39292049973E+03  0.41338947260E+03  0.12499705860E+03 0.  0.
          5    1    3    3  501    0  0.28309044403E+02 -0.64445492100E+02  0.18832106558E+03  0.20104590816E+03  0.10000000000E+00 0.  1.
         -5    1    3    3    0  501 -0.42089834896E+02  0.38174555677E+02  0.20459943415E+03  0.21234356444E+03  0.10000000000E+00 0.  1.
         21    1    1    2  504  503  0.13780790493E+02  0.26270936424E+02  0.21735151786E+01  0.29745528326E+02  0.00000000000E+00 0. -1.
<mgrwt>
<rscale>  1 0.12846921E+03</rscale>
<asrwt>0</asrwt>
<pdfrwt beam="1">  1       21 0.64479150E-01 0.12846921E+03</pdfrwt>
<pdfrwt beam="2">  1       21 0.36954608E-02 0.12846921E+03</pdfrwt>
<totfact> 0.99524912E+05</totfact>
</mgrwt>
</event>
<event>
 6    1  0.4202038E-002  0.1288228E+03  0.7546771E-02  0.1229213E+00
         21   -1    0    0  503  502  0.00000000000E+00  0.00000000000E+00  0.66796498160E+02  0.66796498160E+02  0.00000000000E+00 0. -1.
         21   -1    0    0  504  503 -0.00000000000E+00 -0.00000000000E+00 -0.20987508690E+03  0.20987508690E+03  0.00000000000E+00 0. -1.
         25    2    1    2    0    0 -0.23930385947E+02  0.19934282001E+02  0.14441698259E+01  0.12883090489E+03  0.12500110982E+03 0.  0.
          5    1    3    3  501    0  0.56786376492E+01  0.70059373060E+02 -0.37032976682E+01  0.70386696845E+02  0.10000000000E+00 0.  1.
         -5    1    3    3    0  501 -0.29609023596E+02 -0.50125091060E+02  0.51474674941E+01  0.58444208042E+02  0.10000000000E+00 0.  1.
         21    1    1    2  504  502  0.23930385947E+02 -0.19934282001E+02 -0.14452275856E+03  0.14784068017E+03  0.00000000000E+00 0. -1.
<mgrwt>
<rscale>  1 0.12882281E+03</rscale>
<asrwt>0</asrwt>
<pdfrwt beam="1">  1       21 0.10276384E-01 0.12882281E+03</pdfrwt>
<pdfrwt beam="2">  1       21 0.32288475E-01 0.12882281E+03</pdfrwt>
<totfact> 0.71684710E+05</totfact>
</mgrwt>
</event>
<event>
 6    1  0.4202038E-002  0.1303988E+03  0.7546771E-02  0.1226865E+00
         21   -1    0    0  503  502  0.00000000000E+00  0.00000000000E+00  0.37598817640E+03  0.37598817640E+03  0.00000000000E+00 0.  1.
         21   -1    0    0  504  503 -0.00000000000E+00 -0.00000000000E+00 -0.19361217222E+02  0.19361217222E+02  0.00000000000E+00 0.  1.
         25    2    1    2    0    0  0.34318648535E+02 -0.14151211816E+02  0.30551272228E+03  0.33217747227E+03  0.12500329267E+03 0.  0.
          5    1    3    3  501    0 -0.96321305148E+01  0.50301674465E+02  0.14338444070E+03  0.15225683639E+03  0.10000000000E+00 0. -1.
         -5    1    3    3    0  501  0.43950779050E+02 -0.64452886282E+02  0.16212828158E+03  0.17992063589E+03  0.10000000000E+00 0. -1.
         21    1    1    2  504  502 -0.34318648535E+02  0.14151211816E+02  0.51114236895E+02  0.63171921346E+02  0.00000000000E+00 0.  1.
<mgrwt>
<rscale>  1 0.13039881E+03</rscale>
<asrwt>0</asrwt>
<pdfrwt beam="1">  1       21 0.57844329E-01 0.13039881E+03</pdfrwt>
<pdfrwt beam="2">  1       21 0.29786491E-02 0.13039881E+03</pdfrwt>
<totfact> 0.17896102E+06</totfact>
</mgrwt>
</event>
<event>
 6    1  0.4202038E-002  0.1296175E+03  0.7546771E-02  0.1228024E+00
         21   -1    0    0  504  502  0.00000000000E+00  0.00000000000E+00  0.15127093916E+04  0.15127093916E+04  0.00000000000E+00 0. -1.
         21   -1    0    0  502  503 -0.00000000000E+00 -0.00000000000E+00 -0.19226331369E+02  0.19226331369E+02  0.00000000000E+00 0. -1.
         25    2    1    2    0    0  0.22214377519E+01  0.34221986700E+02  0.14919894867E+04  0.14976092037E+04  0.12499847786E+03 0.  0.
          5    1    3    3  501    0  0.59472207274E+01 -0.46805584500E+02  0.44973716379E+03  0.45220532799E+03  0.10000000000E+00 0. -1.
         -5    1    3    3    0  501 -0.37257829755E+01  0.81027571200E+02  0.10422523229E+04  0.10454038757E+04  0.10000000000E+00 0. -1.
         21    1    1    2  504  503 -0.22214377519E+01 -0.34221986700E+02  0.14935734872E+01  0.34326519211E+02  0.00000000000E+00 0. -1.
<mgrwt>
<rscale>  1 0.12961751E+03</rscale>
<asrwt>0</asrwt>
<pdfrwt beam="1">  1       21 0.23272443E+00 0.12961751E+03</pdfrwt>
<pdfrwt beam="2">  1       21 0.29578983E-02 0.12961751E+03</pdfrwt>
<totfact> 0.57336236E+04</totfact>
</mgrwt>
</event>
<event>
 6    1  0.4202038E-002  0.1508378E+03  0.7546771E-02  0.1199447E+00
         21   -1    0    0  503  502  0.00000000000E+00  0.00000000000E+00  0.15084383391E+03  0.15084383391E+03  0.00000000000E+00 0. -1.
         21   -1    0    0  504  503 -0.00000000000E+00 -0.00000000000E+00 -0.15066958064E+03  0.15066958064E+03  0.00000000000E+00 0. -1.
         25    2    1    2    0    0 -0.83625138353E+02  0.11528836142E+02  0.92080260894E+02  0.17672242102E+03  0.12500384721E+03 0.  0.
          5    1    3    3  501    0  0.17556012563E+02  0.72934242738E+01  0.70711733044E+02  0.73222720550E+02  0.10000000000E+00 0.  1.
         -5    1    3    3    0  501 -0.10118115092E+03  0.42354118681E+01  0.21368527850E+02  0.10349970047E+03  0.10000000000E+00 0.  1.
         21    1    1    2  504  502  0.83625138353E+02 -0.11528836142E+02 -0.91906007625E+02  0.12479099352E+03  0.00000000000E+00 0. -1.
<mgrwt>
<rscale>  1 0.15083779E+03</rscale>
<asrwt>0</asrwt>
<pdfrwt beam="1">  1       21 0.23206744E-01 0.15083779E+03</pdfrwt>
<pdfrwt beam="2">  1       21 0.23179936E-01 0.15083779E+03</pdfrwt>
<totfact> 0.30797107E+05</totfact>
</mgrwt>
</event>
<event>
 6    1  0.4202038E-002  0.1269152E+03  0.7546771E-02  0.1232106E+00
         21   -1    0    0  504  502  0.00000000000E+00  0.00000000000E+00  0.20117901635E+04  0.20117901635E+04  0.00000000000E+00 0.  1.
         21   -1    0    0  502  503 -0.00000000000E+00 -0.00000000000E+00 -0.28038294288E+01  0.28038294288E+01  0.00000000000E+00 0.  1.
         25    2    1    2    0    0  0.21893955603E+02 -0.23399467842E+00  0.17983132669E+04  0.18027861997E+04  0.12501230274E+03 0.  0.
          5    1    3    3  501    0  0.60666301819E+02  0.14406453830E+02  0.15319070925E+04  0.15331755595E+04  0.10000000000E+00 0. -1.
         -5    1    3    3    0  501 -0.38772346216E+02 -0.14640448508E+02  0.26640617433E+03  0.26961064015E+03  0.10000000000E+00 0. -1.
         21    1    1    2  504  503 -0.21893955603E+02  0.23399467842E+00  0.21067306718E+03  0.21180779324E+03  0.00000000000E+00 0.  1.
<mgrwt>
<rscale>  1 0.12691523E+03</rscale>
<asrwt>0</asrwt>
<pdfrwt beam="1">  1       21 0.30950503E+00 0.12691523E+03</pdfrwt>
<pdfrwt beam="2">  1       21 0.43135998E-03 0.12691523E+03</pdfrwt>
<totfact> 0.44456982E+05</totfact>
</mgrwt>
</event>
<event>
 6    1  0.4202038E-002  0.1293072E+03  0.7546771E-02  0.1228487E+00
         21   -1    0    0  504  502  0.00000000000E+00  0.00000000000E+00  0.32222977926E+03  0.32222977926E+03  0.00000000000E+00 0. -1.
         21   -1    0    0  502  503 -0.00000000000E+00 -0.00000000000E+00 -0.68716404647E+02  0.68716404647E+02  0.00000000000E+00 0. -1.
         25    2    1    2    0    0 -0.19597104787E+02 -0.26610409051E+02  0.30414059872E+03  0.33048730361E+03  0.12501277404E+03 0.  0.
          5    1    3    3  501    0  0.12071013222E+02  0.13967013074E+02 -0.33123498125E+01  0.18755491881E+02  0.10000000000E+00 0. -1.
         -5    1    3    3    0  501 -0.31668118009E+02 -0.40577422125E+02  0.30745294853E+03  0.31173181173E+03  0.10000000000E+00 0. -1.
         21    1    1    2  504  503  0.19597104787E+02  0.26610409051E+02 -0.50627224106E+02  0.60458880296E+02  0.00000000000E+00 0. -1.
<mgrwt>
<rscale>  1 0.12930721E+03</rscale>
<asrwt>0</asrwt>
<pdfrwt beam="1">  1       21 0.49573811E-01 0.12930721E+03</pdfrwt>
<pdfrwt beam="2">  1       21 0.10571755E-01 0.12930721E+03</pdfrwt>
<totfact> 0.28930129E+05</totfact>
</mgrwt>
</event>
<event>
 6    1  0.4202038E-002  0.1272248E+03  0.7546771E-02  0.1231633E+00
         21   -1    0    0  503  502  0.00000000000E+00  0.00000000000E+00  0.76169173820E+03  0.76169173820E+03  0.00000000000E+00 0. -1.
         21   -1    0    0  504  503 -0.00000000000E+00 -0.00000000000E+00 -0.89482667387E+01  0.89482667387E+01  0.00000000000E+00 0. -1.
         25    2    1    2    0    0 -0.23696159023E+02 -0.11413018992E+01  0.47038211760E+03  0.48728378977E+03  0.12499337858E+03 0.  0.
          5    1    3    3  501    0  0.30694572867E+02 -0.28087470525E+01  0.38370432555E+03  0.38494033993E+03  0.10000000000E+00 0.  1.
         -5    1    3    3    0  501 -0.54390731890E+02  0.16674451533E+01  0.86677792055E+02  0.10234344984E+03  0.10000000000E+00 0.  1.
         21    1    1    2  504  502  0.23696159023E+02  0.11413018992E+01  0.28236135385E+03  0.28335621517E+03  0.00000000000E+00 0. -1.
<mgrwt>
<rscale>  1 0.12722482E+03</rscale>
<asrwt>0</asrwt>
<pdfrwt beam="1">  1       21 0.11718329E+00 0.12722482E+03</pdfrwt>
<pdfrwt beam="2">  1       21 0.13766570E-02 0.12722482E+03</pdfrwt>
<totfact> 0.12672775E+06</totfact>
</mgrwt>
</event>
<event>
 6    1  0.4202038E-002  0.1303041E+03  0.7546771E-02  0.1227005E+00
         21   -1    0    0  503  502  0.00000000000E+00  0.00000000000E+00  0.68088884958E+02  0.68088884958E+02  0.00000000000E+00 0. -1.
         21   -1    0    0  504  503 -0.00000000000E+00 -0.00000000000E+00 -0.19097814194E+03  0.19097814194E+03  0.00000000000E+00 0. -1.
         25    2    1    2    0    0  0.34998943407E+02  0.11307911395E+02  0.50788004561E+00  0.13030504366E+03  0.12500540613E+03 0.  0.
          5    1    3    3  501    0 -0.29931730000E+01 -0.40891045764E+02  0.37783892856E+02  0.55755441596E+02  0.10000000000E+00 0. -1.
         -5    1    3    3    0  501  0.37992116407E+02  0.52198957159E+02 -0.37276012810E+02  0.74549602069E+02  0.10000000000E+00 0. -1.
         21    1    1    2  504  502 -0.34998943407E+02 -0.11307911395E+02 -0.12339713703E+03  0.12876198323E+03  0.00000000000E+00 0. -1.
<mgrwt>
<rscale>  1 0.13030405E+03</rscale>
<asrwt>0</asrwt>
<pdfrwt beam="1">  1       21 0.10475213E-01 0.13030405E+03</pdfrwt>
<pdfrwt beam="2">  1       21 0.29381252E-01 0.13030405E+03</pdfrwt>
<totfact> 0.83202489E+05</totfact>
</mgrwt>
</event>
<event>
 6    1  0.4202038E-002  0.1274534E+03  0.7546771E-02  0.1231284E+00
         21   -1    0    0  503  502  0.00000000000E+00  0.00000000000E+00  0.30301834453E+04  0.30301834453E+04  0.00000000000E+00 0. -1.
         21   -1    0    0  504  503 -0.00000000000E+00 -0.00000000000E+00 -0.51724194431E+02  0.51724194431E+02  0.00000000000E+00 0. -1.
         25    2    1    2    0    0  0.23424086770E+02  0.84108663019E+01  0.30257682383E+04  0.30284513884E+04  0.12499979990E+03 0.  0.
          5    1    3    3  501    0 -0.20604255900E+02 -0.49871528850E+02  0.14128224315E+04  0.14138525163E+04  0.10000000000E+00 0. -1.
         -5    1    3    3    0  501  0.44028342670E+02  0.58282395152E+02  0.16129458067E+04  0.16145988722E+04  0.10000000000E+00 0. -1.
         21    1    1    2  504  502 -0.23424086770E+02 -0.84108663019E+01 -0.47308987396E+02  0.53456251285E+02  0.00000000000E+00 0. -1.
<mgrwt>
<rscale>  1 0.12745344E+03</rscale>
<asrwt>0</asrwt>
<pdfrwt beam="1">  1       21 0.46618193E+00 0.12745344E+03</pdfrwt>
<pdfrwt beam="2">  1       21 0.79575708E-02 0.12745344E+03</pdfrwt>
<totfact> 0.44984957E+02</totfact>
</mgrwt>
</event>
<event>
 6    1  0.4202038E-002  0.1270401E+03  0.7546771E-02  0.1231915E+00
         21   -1    0    0  503  502  0.00000000000E+00  0.00000000000E+00  0.13233280503E+02  0.13233280503E+02  0.00000000000E+00 0. -1.
         21   -1    0    0  504  503 -0.00000000000E+00 -0.00000000000E+00 -0.51263783953E+03  0.51263783953E+03  0.00000000000E+00 0. -1.
         25    2    1    2    0    0 -0.38354852900E+01 -0.22284886575E+02 -0.30852452584E+03  0.33365635945E+03  0.12501142363E+03 0.  0.
          5    1    3    3  501    0 -0.50309113436E+02 -0.36152014351E+01 -0.25661403532E+03  0.26152409009E+03  0.10000000000E+00 0. -1.
         -5    1    3    3    0  501  0.46473628146E+02 -0.18669685140E+02 -0.51910490520E+02  0.72132269355E+02  0.10000000000E+00 0. -1.
         21    1    1    2  504  502  0.38354852900E+01  0.22284886575E+02 -0.19088003319E+03  0.19221476059E+03  0.00000000000E+00 0. -1.
<mgrwt>
<rscale>  1 0.12704008E+03</rscale>
<asrwt>0</asrwt>
<pdfrwt beam="1">  1       21 0.20358898E-02 0.12704008E+03</pdfrwt>
<pdfrwt beam="2">  1       21 0.78867340E-01 0.12704008E+03</pdfrwt>
<totfact> 0.16965354E+06</totfact>
</mgrwt>
</event>
<event>
 6    1  0.4202038E-002  0.1388804E+03  0.7546771E-02  0.1214843E+00
         21   -1    0    0  503  502  0.00000000000E+00  0.00000000000E+00  0.55267195644E+02  0.55267195644E+02  0.00000000000E+00 0. -1.
         21   -1    0    0  504  503 -0.00000000000E+00 -0.00000000000E+00 -0.39365528735E+03  0.39365528735E+03  0.00000000000E+00 0.  1.
         25    2    1    2    0    0  0.49175222082E+02 -0.35237825992E+02 -0.40089159613E+02  0.14455073704E+03  0.12501147152E+03 0.  0.
          5    1    3    3  501    0  0.73852588022E+02 -0.13447300896E+02  0.18529575934E+02  0.77320048133E+02  0.10000000000E+00 0. -1.
         -5    1    3    3    0  501 -0.24677365940E+02 -0.21790525096E+02 -0.58618735548E+02  0.67230688907E+02  0.10000000000E+00 0. -1.
         21    1    1    2  504  502 -0.49175222082E+02  0.35237825992E+02 -0.29829893209E+03  0.30437174595E+03  0.00000000000E+00 0.  1.
<mgrwt>
<rscale>  1 0.13888043E+03</rscale>
<asrwt>0</asrwt>
<pdfrwt beam="1">  1       21 0.85026455E-02 0.13888043E+03</pdfrwt>
<pdfrwt beam="2">  1       21 0.60562352E-01 0.13888043E+03</pdfrwt>
<totfact> 0.27758992E+05</totfact>
</mgrwt>
</event>
<event>
 6    1  0.4202038E-002  0.1299904E+03  0.7546771E-02  0.1227470E+00
         21   -1    0    0  504  502  0.00000000000E+00  0.00000000000E+00  0.37639614791E+02  0.37639614791E+02  0.00000000000E+00 0. -1.
         21   -1    0    0  502  503 -0.00000000000E+00 -0.00000000000E+00 -0.33138763645E+03  0.33138763645E+03  0.00000000000E+00 0.  1.
         25    2    1    2    0    0  0.31184849411E+02 -0.17317251056E+02 -0.80677243019E+02  0.15299128496E+03  0.12500053486E+03 0.  0.
          5    1    3    3  501    0 -0.42948913944E+02  0.18785222530E+02 -0.36732981121E+02  0.59555148363E+02  0.10000000000E+00 0. -1.
         -5    1    3    3    0  501  0.74133763355E+02 -0.36102473586E+02 -0.43944261898E+02  0.93436136596E+02  0.10000000000E+00 0. -1.
         21    1    1    2  504  503 -0.31184849411E+02  0.17317251056E+02 -0.21307077864E+03  0.21603596628E+03  0.00000000000E+00 0.  1.
<mgrwt>
<rscale>  1 0.12999044E+03</rscale>
<asrwt>0</asrwt>
<pdfrwt beam="1">  1       21 0.57907097E-02 0.12999044E+03</pdfrwt>
<pdfrwt beam="2">  1       21 0.50982716E-01 0.12999044E+03</pdfrwt>
<totfact> 0.77016478E+05</totfact>
</mgrwt>
</event>
<event>
 6    1  0.4202038E-002  0.1259377E+03  0.7546771E-02  0.1233611E+00
         21   -1    0    0  503  502  0.00000000000E+00  0.00000000000E+00  0.38420348101E+03  0.38420348101E+03  0.00000000000E+00 0.  1.
         21   -1    0    0  504  503 -0.00000000000E+00 -0.00000000000E+00 -0.44025444808E+02  0.44025444808E+02  0.00000000000E+00 0.  1.
         25    2    1    2    0    0 -0.15372388744E+02 -0.23398968198E+00  0.37208021422E+03  0.39281545310E+03  0.12499571711E+03 0.  0.
          5    1    3    3  501    0 -0.12097216819E+02  0.60377427527E+02  0.23430575207E+03  0.24226219652E+03  0.10000000000E+00 0.  1.
         -5    1    3    3    0  501 -0.32751719256E+01 -0.60611417209E+02  0.13777446215E+03  0.15055325658E+03  0.10000000000E+00 0.  1.
         21    1    1    2  504  502  0.15372388744E+02  0.23398968198E+00 -0.31902178021E+02  0.35413472710E+02  0.00000000000E+00 0.  1.
<mgrwt>
<rscale>  1 0.12593766E+03</rscale>
<asrwt>0</asrwt>
<pdfrwt beam="1">  1       21 0.59108226E-01 0.12593766E+03</pdfrwt>
<pdfrwt beam="2">  1       21 0.67731456E-02 0.12593766E+03</pdfrwt>
<totfact> 0.43314214E+05</totfact>
</mgrwt>
</event>
<event>
 6    1  0.4202038E-002  0.1275562E+03  0.7546771E-02  0.1231128E+00
         21   -1    0    0  503  502  0.00000000000E+00  0.00000000000E+00  0.10616352735E+03  0.10616352735E+03  0.00000000000E+00 0.  1.
         21   -1    0    0  504  503 -0.00000000000E+00 -0.00000000000E+00 -0.55766082034E+02  0.55766082034E+02  0.00000000000E+00 0.  1.
         25    2    1    2    0    0  0.11569158929E+02 -0.22635983766E+02  0.35247965483E+02  0.13233670587E+03  0.12499740577E+03 0.  0.
          5    1    3    3  501    0 -0.21563077310E+02 -0.36291996616E+02 -0.34106393511E+02  0.54270907490E+02  0.10000000000E+00 0. -1.
         -5    1    3    3    0  501  0.33132236239E+02  0.13656012850E+02  0.69354358994E+02  0.78065798379E+02  0.10000000000E+00 0. -1.
         21    1    1    2  504  502 -0.11569158929E+02  0.22635983766E+02  0.15149479836E+02  0.29592903519E+02  0.00000000000E+00 0.  1.
<mgrwt>
<rscale>  1 0.12755620E+03</rscale>
<asrwt>0</asrwt>
<pdfrwt beam="1">  1       21 0.16332850E-01 0.12755620E+03</pdfrwt>
<pdfrwt beam="2">  1       21 0.85793973E-02 0.12755620E+03</pdfrwt>
<totfact> 0.35237352E+06</totfact>
</mgrwt>
</event>
<event>
 6    1  0.4202038E-002  0.1270185E+03  0.7546771E-02  0.1231948E+00
         21   -1    0    0  504  502  0.00000000000E+00  0.00000000000E+00  0.71248244454E+03  0.71248244454E+03  0.00000000000E+00 0.  1.
         21   -1    0    0  502  503 -0.00000000000E+00 -0.00000000000E+00 -0.23935677683E+02  0.23935677683E+02  0.00000000000E+00 0.  1.
         25    2    1    2    0    0 -0.11877216295E+02  0.19131458087E+02  0.69980729593E+03  0.71124113927E+03  0.12500650301E+03 0.  0.
          5    1    3    3  501    0  0.52455729596E+02  0.31080689970E+02  0.37254477267E+03  0.37750129868E+03  0.10000000000E+00 0. -1.
         -5    1    3    3    0  501 -0.64332945892E+02 -0.11949231883E+02  0.32726252326E+03  0.33373984059E+03  0.10000000000E+00 0. -1.
         21    1    1    2  504  503  0.11877216295E+02 -0.19131458087E+02 -0.11260529076E+02  0.25176982951E+02  0.00000000000E+00 0.  1.
<mgrwt>
<rscale>  1 0.12701853E+03</rscale>
<asrwt>0</asrwt>
<pdfrwt beam="1">  1       21 0.10961267E+00 0.12701853E+03</pdfrwt>
<pdfrwt beam="2">  1       21 0.36824125E-02 0.12701853E+03</pdfrwt>
<totfact> 0.30178427E+05</totfact>
</mgrwt>
</event>
<event>
 6    1  0.4202038E-002  0.1365726E+03  0.7546771E-02  0.1218017E+00
         21   -1    0    0  504  502  0.00000000000E+00  0.00000000000E+00  0.68818881244E+02  0.68818881244E+02  0.00000000000E+00 0.  1.
         21   -1    0    0  502  503 -0.00000000000E+00 -0.00000000000E+00 -0.13360490786E+03  0.13360490786E+03  0.00000000000E+00 0.  1.
         25    2    1    2    0    0  0.53189346365E+02 -0.13962867010E+02 -0.50465746401E+02  0.14559827857E+03  0.12501199518E+03 0.  0.
          5    1    3    3  501    0  0.73222324445E+02  0.36759283014E+02 -0.33101474742E+02  0.88365555025E+02  0.10000000000E+00 0.  1.
         -5    1    3    3    0  501 -0.20032978080E+02 -0.50722150024E+02 -0.17364271659E+02  0.57232723542E+02  0.10000000000E+00 0.  1.
         21    1    1    2  504  503 -0.53189346365E+02  0.13962867010E+02 -0.14320280210E+02  0.56825510532E+02  0.00000000000E+00 0.  1.
<mgrwt>
<rscale>  1 0.13657257E+03</rscale>
<asrwt>0</asrwt>
<pdfrwt beam="1">  1       21 0.10587520E-01 0.13657257E+03</pdfrwt>
<pdfrwt beam="2">  1       21 0.20554601E-01 0.13657257E+03</pdfrwt>
<totfact> 0.16044313E+06</totfact>
</mgrwt>
</event>
<event>
 6    1  0.4202038E-002  0.1283733E+03  0.7546771E-02  0.1229890E+00
         21   -1    0    0  504  502  0.00000000000E+00  0.00000000000E+00  0.28013754990E+03  0.28013754990E+03  0.00000000000E+00 0. -1.
         21   -1    0    0  502  503 -0.00000000000E+00 -0.00000000000E+00 -0.28851754231E+02  0.28851754231E+02  0.00000000000E+00 0. -1.
         25    2    1    2    0    0  0.23339493960E+02 -0.17608080546E+02  0.24839967779E+03  0.27961063576E+03  0.12499972490E+03 0.  0.
          5    1    3    3  501    0  0.53372764770E+02 -0.47974855548E+02  0.87639599868E+02  0.11327377565E+03  0.10000000000E+00 0.  1.
         -5    1    3    3    0  501 -0.30033270810E+02  0.30366775002E+02  0.16076007792E+03  0.16633686012E+03  0.10000000000E+00 0.  1.
         21    1    1    2  504  503 -0.23339493960E+02  0.17608080546E+02  0.28861178794E+01  0.29378668370E+02  0.00000000000E+00 0. -1.
<mgrwt>
<rscale>  1 0.12837331E+03</rscale>
<asrwt>0</asrwt>
<pdfrwt beam="1">  1       21 0.43098083E-01 0.12837331E+03</pdfrwt>
<pdfrwt beam="2">  1       21 0.44387316E-02 0.12837331E+03</pdfrwt>
<totfact> 0.16973264E+06</totfact>
</mgrwt>
</event>
<event>
 6    1  0.4202038E-002  0.1275209E+03  0.7546771E-02  0.1231181E+00
         21   -1    0    0  504  502  0.00000000000E+00  0.00000000000E+00  0.33550925064E+03  0.33550925064E+03  0.00000000000E+00 0.  1.
         21   -1    0    0  502  503 -0.00000000000E+00 -0.00000000000E+00 -0.25184714666E+02  0.25184714666E+02  0.00000000000E+00 0. -1.
         25    2    1    2    0    0 -0.25233490297E+02  0.68958601577E+00  0.31026726520E+03  0.33545098922E+03  0.12499754300E+03 0.  0.
          5    1    3    3  501    0 -0.24320969221E+02 -0.53210096764E+02  0.23920297705E+03  0.24625372722E+03  0.10000000000E+00 0. -1.
         -5    1    3    3    0  501 -0.91252107566E+00  0.53899682780E+02  0.71064288147E+02  0.89197262000E+02  0.10000000000E+00 0. -1.
         21    1    1    2  504  503  0.25233490297E+02 -0.68958601577E+00  0.57270773661E-01  0.25242976080E+02  0.00000000000E+00 0. -1.
<mgrwt>
<rscale>  1 0.12752094E+03</rscale>
<asrwt>0</asrwt>
<pdfrwt beam="1">  1       21 0.51616805E-01 0.12752094E+03</pdfrwt>
<pdfrwt beam="2">  1       21 0.38745717E-02 0.12752094E+03</pdfrwt>
<totfact> 0.14713301E+06</totfact>
</mgrwt>
</event>
<event>
 6    1  0.4202038E-002  0.1268598E+03  0.7546771E-02  0.1232191E+00
         21   -1    0    0  503  502  0.00000000000E+00  0.00000000000E+00  0.92922444809E+02  0.92922444809E+02  0.00000000000E+00 0.  1.
         21   -1    0    0  504  503 -0.00000000000E+00 -0.00000000000E+00 -0.15648096679E+04  0.15648096679E+04  0.00000000000E+00 0.  1.
         25    2    1    2    0    0 -0.32042659303E+01 -0.21370870965E+02  0.49511995697E+02  0.13617943062E+03  0.12500567251E+03 0.  0.
          5    1    3    3  501    0 -0.44132084108E+02 -0.12054333338E+02 -0.23899245052E+02  0.51615227540E+02  0.10000000000E+00 0. -1.
         -5    1    3    3    0  501  0.40927818178E+02 -0.93165376270E+01  0.73411240748E+02  0.84564203079E+02  0.10000000000E+00 0. -1.
         21    1    1    2  504  502  0.32042659303E+01  0.21370870965E+02 -0.15213992188E+04  0.15215526821E+04  0.00000000000E+00 0.  1.
<mgrwt>
<rscale>  1 0.12685976E+03</rscale>
<asrwt>0</asrwt>
<pdfrwt beam="1">  1       21 0.14295761E-01 0.12685976E+03</pdfrwt>
<pdfrwt beam="2">  1       21 0.24073994E+00 0.12685976E+03</pdfrwt>
<totfact> 0.35052166E+03</totfact>
</mgrwt>
</event>
<event>
 6    1  0.4202038E-002  0.1391524E+03  0.7546771E-02  0.1214474E+00
         21   -1    0    0  504  502  0.00000000000E+00  0.00000000000E+00  0.17464718691E+03  0.17464718691E+03  0.00000000000E+00 0.  1.
         21   -1    0    0  502  503 -0.00000000000E+00 -0.00000000000E+00 -0.53358383773E+03  0.53358383773E+03  0.00000000000E+00 0. -1.
         25    2    1    2    0    0  0.14666459072E+02  0.59361046955E+02  0.14478391241E+03  0.20081280982E+03  0.12499825750E+03 0.  0.
          5    1    3    3  501    0 -0.84166540127E+01 -0.61779842308E+01 -0.19676910991E+02  0.22275510770E+02  0.10000000000E+00 0. -1.
         -5    1    3    3    0  501  0.23083113085E+02  0.65539031186E+02  0.16446082340E+03  0.17853729905E+03  0.10000000000E+00 0. -1.
         21    1    1    2  504  503 -0.14666459072E+02 -0.59361046955E+02 -0.50372056323E+03  0.50741821482E+03  0.00000000000E+00 0. -1.
<mgrwt>
<rscale>  1 0.13915245E+03</rscale>
<asrwt>0</asrwt>
<pdfrwt beam="1">  1       21 0.26868799E-01 0.13915245E+03</pdfrwt>
<pdfrwt beam="2">  1       21 0.82089819E-01 0.13915245E+03</pdfrwt>
<totfact> 0.17736131E+04</totfact>
</mgrwt>
</event>
<event>
 6    1  0.4202038E-002  0.1323866E+03  0.7546771E-02  0.1223957E+00
         21   -1    0    0  503  502  0.00000000000E+00  0.00000000000E+00  0.18814201341E+03  0.18814201341E+03  0.00000000000E+00 0. -1.
         21   -1    0    0  504  503 -0.00000000000E+00 -0.00000000000E+00 -0.42297742607E+02  0.42297742607E+02  0.00000000000E+00 0. -1.
         25    2    1    2    0    0 -0.40341880978E+02  0.16514232617E+02  0.12518131636E+03  0.18219926549E+03  0.12500409250E+03 0.  0.
          5    1    3    3  501    0 -0.50501582079E+02  0.60738515441E+02  0.10772173688E+03  0.13357978757E+03  0.10000000000E+00 0.  1.
         -5    1    3    3    0  501  0.10159701102E+02 -0.44224282825E+02  0.17459579478E+02  0.48619477922E+02  0.10000000000E+00 0.  1.
         21    1    1    2  504  502  0.40341880978E+02 -0.16514232617E+02  0.20662954442E+02  0.48240490524E+02  0.00000000000E+00 0. -1.
<mgrwt>
<rscale>  1 0.13238659E+03</rscale>
<asrwt>0</asrwt>
<pdfrwt beam="1">  1       21 0.28944925E-01 0.13238659E+03</pdfrwt>
<pdfrwt beam="2">  1       21 0.65073451E-02 0.13238659E+03</pdfrwt>
<totfact> 0.19508094E+06</totfact>
</mgrwt>
</event>
<event>
 6    1  0.4202038E-002  0.1362712E+03  0.7546771E-02  0.1218436E+00
         21   -1    0    0  504  502  0.00000000000E+00  0.00000000000E+00  0.37714650813E+02  0.37714650813E+02  0.00000000000E+00 0.  1.
         21   -1    0    0  502  503 -0.00000000000E+00 -0.00000000000E+00 -0.24338127919E+03  0.24338127919E+03  0.00000000000E+00 0.  1.
         25    2    1    2    0    0 -0.51399444499E+02  0.17354646264E+02 -0.13305164072E+03  0.19045364917E+03  0.12500706677E+03 0.  0.
          5    1    3    3  501    0  0.12181215597E+02  0.43772009109E+02 -0.58454412798E+01  0.45809933188E+02  0.10000000000E+00 0. -1.
         -5    1    3    3    0  501 -0.63580660095E+02 -0.26417362845E+02 -0.12720619944E+03  0.14464371598E+03  0.10000000000E+00 0. -1.
         21    1    1    2  504  503  0.51399444499E+02 -0.17354646264E+02 -0.72614987653E+02  0.90642280828E+02  0.00000000000E+00 0.  1.
<mgrwt>
<rscale>  1 0.13627125E+03</rscale>
<asrwt>0</asrwt>
<pdfrwt beam="1">  1       21 0.58022538E-02 0.13627125E+03</pdfrwt>
<pdfrwt beam="2">  1       21 0.37443275E-01 0.13627125E+03</pdfrwt>
<totfact> 0.14348574E+06</totfact>
</mgrwt>
</event>
<event>
 6    1  0.4202038E-002  0.1314198E+03  0.7546771E-02  0.1225364E+00
         21   -1    0    0  504  502  0.00000000000E+00  0.00000000000E+00  0.44577755898E+02  0.44577755898E+02  0.00000000000E+00 0. -1.
         21   -1    0    0  502  503 -0.00000000000E+00 -0.00000000000E+00 -0.19171532398E+03  0.19171532398E+03  0.00000000000E+00 0. -1.
         25    2    1    2    0    0 -0.39866385316E+02 -0.75824317448E+01 -0.69442969261E+02  0.14863880083E+03  0.12499738071E+03 0.  0.
          5    1    3    3  501    0 -0.78629890310E+02 -0.32642753895E+02 -0.48098338556E+02  0.97783788042E+02  0.10000000000E+00 0.  1.
         -5    1    3    3    0  501  0.38763504994E+02  0.25060322151E+02 -0.21344630705E+02  0.50855012788E+02  0.10000000000E+00 0.  1.
         21    1    1    2  504  503  0.39866385316E+02  0.75824317448E+01 -0.77694598818E+02  0.87654279044E+02  0.00000000000E+00 0. -1.
<mgrwt>
<rscale>  1 0.13141981E+03</rscale>
<asrwt>0</asrwt>
<pdfrwt beam="1">  1       21 0.68581163E-02 0.13141981E+03</pdfrwt>
<pdfrwt beam="2">  1       21 0.29494665E-01 0.13141981E+03</pdfrwt>
<totfact> 0.17198373E+06</totfact>
</mgrwt>
</event>
<event>
 6    1  0.4202038E-002  0.1259051E+03  0.7546771E-02  0.1233661E+00
         21   -1    0    0  503  502  0.00000000000E+00  0.00000000000E+00  0.34273797824E+03  0.34273797824E+03  0.00000000000E+00 0. -1.
         21   -1    0    0  504  503 -0.00000000000E+00 -0.00000000000E+00 -0.16443612005E+02  0.16443612005E+02  0.00000000000E+00 0. -1.
         25    2    1    2    0    0 -0.13721504933E+02 -0.62862419621E+01  0.31786977389E+03  0.34189661724E+03  0.12499722875E+03 0.  0.
          5    1    3    3  501    0 -0.20072032242E+02 -0.25834020115E+02  0.11260224493E+02  0.34598926707E+02  0.10000000000E+00 0. -1.
         -5    1    3    3    0  501  0.63505273091E+01  0.19547778153E+02  0.30660954939E+03  0.30729769053E+03  0.10000000000E+00 0. -1.
         21    1    1    2  504  502  0.13721504933E+02  0.62862419621E+01  0.84245923524E+01  0.17284973010E+02  0.00000000000E+00 0.  1.
<mgrwt>
<rscale>  1 0.12590514E+03</rscale>
<asrwt>0</asrwt>
<pdfrwt beam="1">  1       21 0.52728914E-01 0.12590514E+03</pdfrwt>
<pdfrwt beam="2">  1       21 0.25297867E-02 0.12590514E+03</pdfrwt>
<totfact> 0.28343337E+06</totfact>
</mgrwt>
</event>
<event>
 6    1  0.4202038E-002  0.1271418E+03  0.7546771E-02  0.1231759E+00
         21   -1    0    0  503  502  0.00000000000E+00  0.00000000000E+00  0.40285689024E+03  0.40285689024E+03  0.00000000000E+00 0.  1.
         21   -1    0    0  504  503 -0.00000000000E+00 -0.00000000000E+00 -0.48614244592E+02  0.48614244592E+02  0.00000000000E+00 0.  1.
         25    2    1    2    0    0  0.18482890782E+02  0.14089900131E+02  0.38922936216E+03  0.40946860075E+03  0.12499958439E+03 0.  0.
          5    1    3    3  501    0 -0.28365438917E+02  0.39521955957E+02  0.66656082809E+02  0.82520461117E+02  0.10000000000E+00 0. -1.
         -5    1    3    3    0  501  0.46848329699E+02 -0.25432055826E+02  0.32257327935E+03  0.32694813963E+03  0.10000000000E+00 0. -1.
         21    1    1    2  504  502 -0.18482890782E+02 -0.14089900131E+02 -0.34986716509E+02  0.42002534083E+02  0.00000000000E+00 0.  1.
<mgrwt>
<rscale>  1 0.12714181E+03</rscale>
<asrwt>0</asrwt>
<pdfrwt beam="1">  1       21 0.61977981E-01 0.12714181E+03</pdfrwt>
<pdfrwt beam="2">  1       21 0.74791148E-02 0.12714181E+03</pdfrwt>
<totfact> 0.33043672E+05</totfact>
</mgrwt>
</event>
<event>
 6    1  0.4202038E-002  0.1261146E+03  0.7546771E-02  0.1233338E+00
         21   -1    0    0  504  502  0.00000000000E+00  0.00000000000E+00  0.34078701787E+02  0.34078701787E+02  0.00000000000E+00 0.  1.
         21   -1    0    0  502  503 -0.00000000000E+00 -0.00000000000E+00 -0.16487481951E+03  0.16487481951E+03  0.00000000000E+00 0.  1.
         25    2    1    2    0    0  0.14879467673E+02 -0.77080423585E+01 -0.90248635376E+02  0.15507971590E+03  0.12499635843E+03 0.  0.
          5    1    3    3  501    0  0.55263437017E+02 -0.40135335662E+02 -0.74220867886E+02  0.10086446287E+03  0.10000000000E+00 0.  1.
         -5    1    3    3    0  501 -0.40383969343E+02  0.32427293303E+02 -0.16027767490E+02  0.54215253034E+02  0.10000000000E+00 0.  1.
         21    1    1    2  504  503 -0.14879467673E+02  0.77080423585E+01 -0.40547482347E+02  0.43873805396E+02  0.00000000000E+00 0. -1.
<mgrwt>
<rscale>  1 0.12611464E+03</rscale>
<asrwt>0</asrwt>
<pdfrwt beam="1">  1       21 0.52428773E-02 0.12611464E+03</pdfrwt>
<pdfrwt beam="2">  1       21 0.25365356E-01 0.12611464E+03</pdfrwt>
<totfact> 0.36115205E+06</totfact>
</mgrwt>
</event>
<event>
 6    1  0.4202038E-002  0.1261715E+03  0.7546771E-02  0.1233250E+00
         21   -1    0    0  503  502  0.00000000000E+00  0.00000000000E+00  0.10680131315E+02  0.10680131315E+02  0.00000000000E+00 0.  1.
         21   -1    0    0  504  503 -0.00000000000E+00 -0.00000000000E+00 -0.65917532333E+03  0.65917532333E+03  0.00000000000E+00 0.  1.
         25    2    1    2    0    0 -0.94324639101E+01 -0.14047704901E+02 -0.37144364661E+03  0.39228768238E+03  0.12503173098E+03 0.  0.
          5    1    3    3  501    0 -0.53467719198E+02 -0.40557071840E+02 -0.14065175404E+03  0.15584158298E+03  0.10000000000E+00 0. -1.
         -5    1    3    3    0  501  0.44035255288E+02  0.26509366939E+02 -0.23079189257E+03  0.23644609940E+03  0.10000000000E+00 0. -1.
         21    1    1    2  504  502  0.94324639101E+01  0.14047704901E+02 -0.27705154541E+03  0.27756777227E+03  0.00000000000E+00 0.  1.
<mgrwt>
<rscale>  1 0.12617148E+03</rscale>
<asrwt>0</asrwt>
<pdfrwt beam="1">  1       21 0.16430964E-02 0.12617148E+03</pdfrwt>
<pdfrwt beam="2">  1       21 0.10141164E+00 0.12617148E+03</pdfrwt>
<totfact> 0.13483591E+06</totfact>
</mgrwt>
</event>
<event>
 6    1  0.4202038E-002  0.1845669E+03  0.7546771E-02  0.1163455E+00
         21   -1    0    0  503  502  0.00000000000E+00  0.00000000000E+00  0.19373077002E+02  0.19373077002E+02  0.00000000000E+00 0. -1.
         21   -1    0    0  504  503 -0.00000000000E+00 -0.00000000000E+00 -0.16261590174E+04  0.16261590174E+04  0.00000000000E+00 0. -1.
         25    2    1    2    0    0  0.19923296757E+02  0.13432831170E+03 -0.55195686423E+03  0.58199769768E+03  0.12499562815E+03 0.  0.
          5    1    3    3  501    0  0.42612141140E+02  0.30298133452E+02 -0.34814308258E+03  0.35204742211E+03  0.10000000000E+00 0. -1.
         -5    1    3    3    0  501 -0.22688844384E+02  0.10403017825E+03 -0.20381378165E+03  0.22995027557E+03  0.10000000000E+00 0. -1.
         21    1    1    2  504  502 -0.19923296757E+02 -0.13432831170E+03 -0.10548290762E+04  0.10635343967E+04  0.00000000000E+00 0. -1.
<mgrwt>
<rscale>  1 0.18456690E+03</rscale>
<asrwt>0</asrwt>
<pdfrwt beam="1">  1       21 0.29804724E-02 0.18456690E+03</pdfrwt>
<pdfrwt beam="2">  1       21 0.25017839E+00 0.18456690E+03</pdfrwt>
<totfact> 0.42702429E+04</totfact>
</mgrwt>
</event>
<event>
 6    1  0.4202038E-002  0.1269754E+03  0.7546771E-02  0.1232014E+00
         21   -1    0    0  503  502  0.00000000000E+00  0.00000000000E+00  0.88226061937E+02  0.88226061937E+02  0.00000000000E+00 0.  1.
         21   -1    0    0  504  503 -0.00000000000E+00 -0.00000000000E+00 -0.63360021762E+02  0.63360021762E+02  0.00000000000E+00 0.  1.
         25    2    1    2    0    0  0.17953367426E+02  0.13183965897E+02  0.24450185831E+02  0.12930799371E+03  0.12500642100E+03 0.  0.
          5    1    3    3  501    0  0.60325607144E+02 -0.28294636668E+02  0.46468004183E+01  0.66793473451E+02  0.10000000000E+00 0. -1.
         -5    1    3    3    0  501 -0.42372239718E+02  0.41478602565E+02  0.19803385413E+02  0.62514520259E+02  0.10000000000E+00 0. -1.
         21    1    1    2  504  502 -0.17953367426E+02 -0.13183965897E+02  0.41585434418E+00  0.22278089989E+02  0.00000000000E+00 0.  1.
<mgrwt>
<rscale>  1 0.12697537E+03</rscale>
<asrwt>0</asrwt>
<pdfrwt beam="1">  1       21 0.13573240E-01 0.12697537E+03</pdfrwt>
<pdfrwt beam="2">  1       21 0.97476956E-02 0.12697537E+03</pdfrwt>
<totfact> 0.39382298E+06</totfact>
</mgrwt>
</event>
<event>
 6    1  0.4202038E-002  0.1262278E+03  0.7546771E-02  0.1233163E+00
         21   -1    0    0  503  502  0.00000000000E+00  0.00000000000E+00  0.21398803024E+02  0.21398803024E+02  0.00000000000E+00 0.  1.
         21   -1    0    0  504  503 -0.00000000000E+00 -0.00000000000E+00 -0.25002738435E+03  0.25002738435E+03  0.00000000000E+00 0.  1.
         25    2    1    2    0    0  0.93267161665E+01  0.14898309148E+02 -0.18108825505E+03  0.22074058910E+03  0.12499801722E+03 0.  0.
          5    1    3    3  501    0  0.18808754965E+02  0.52197177756E+01 -0.19806218273E+03  0.19902173988E+03  0.10000000000E+00 0. -1.
         -5    1    3    3    0  501 -0.94820387989E+01  0.96785913728E+01  0.16973927678E+02  0.21718849223E+02  0.10000000000E+00 0. -1.
         21    1    1    2  504  502 -0.93267161665E+01 -0.14898309148E+02 -0.47540326272E+02  0.50685598270E+02  0.00000000000E+00 0.  1.
<mgrwt>
<rscale>  1 0.12622778E+03</rscale>
<asrwt>0</asrwt>
<pdfrwt beam="1">  1       21 0.32921239E-02 0.12622778E+03</pdfrwt>
<pdfrwt beam="2">  1       21 0.38465748E-01 0.12622778E+03</pdfrwt>
<totfact> 0.34958940E+06</totfact>
</mgrwt>
</event>
<event>
 6    1  0.4202038E-002  0.1385347E+03  0.7546771E-02  0.1215314E+00
         21   -1    0    0  504  502  0.00000000000E+00  0.00000000000E+00  0.29463515397E+03  0.29463515397E+03  0.00000000000E+00 0.  1.
         21   -1    0    0  502  503 -0.00000000000E+00 -0.00000000000E+00 -0.51019121911E+02  0.51019121911E+02  0.00000000000E+00 0.  1.
         25    2    1    2    0    0  0.56519668616E+02 -0.19421827290E+02  0.24972697633E+03  0.28557912332E+03  0.12498076913E+03 0.  0.
          5    1    3    3  501    0  0.46396412351E+02 -0.32570418896E+02  0.25996951395E+03  0.26607821679E+03  0.10000000000E+00 0.  1.
         -5    1    3    3    0  501  0.10123256265E+02  0.13148591606E+02 -0.10242537617E+02  0.19500906529E+02  0.10000000000E+00 0.  1.
         21    1    1    2  504  503 -0.56519668616E+02  0.19421827290E+02 -0.61109442724E+01  0.60075152565E+02  0.00000000000E+00 0.  1.
<mgrwt>
<rscale>  1 0.13853474E+03</rscale>
<asrwt>0</asrwt>
<pdfrwt beam="1">  1       21 0.45328484E-01 0.13853474E+03</pdfrwt>
<pdfrwt beam="2">  1       21 0.78490958E-02 0.13853474E+03</pdfrwt>
<totfact> 0.58286283E+05</totfact>
</mgrwt>
</event>
<event>
 6    1  0.4202038E-002  0.1260974E+03  0.7546771E-02  0.1233364E+00
         21   -1    0    0  504  502  0.00000000000E+00  0.00000000000E+00  0.53263171204E+02  0.53263171204E+02  0.00000000000E+00 0.  1.
         21   -1    0    0  502  503 -0.00000000000E+00 -0.00000000000E+00 -0.12625571902E+03  0.12625571902E+03  0.00000000000E+00 0.  1.
         25    2    1    2    0    0 -0.14896251326E+02  0.73846171155E+01 -0.24765526950E+02  0.12850637789E+03  0.12499650779E+03 0.  0.
          5    1    3    3  501    0  0.49774876438E+02  0.28987730170E+02 -0.15852580590E+02  0.59742289345E+02  0.10000000000E+00 0.  1.
         -5    1    3    3    0  501 -0.64671127764E+02 -0.21603113054E+02 -0.89129463596E+01  0.68764088540E+02  0.10000000000E+00 0.  1.
         21    1    1    2  504  503  0.14896251326E+02 -0.73846171155E+01 -0.48227020861E+02  0.51012512334E+02  0.00000000000E+00 0. -1.
<mgrwt>
<rscale>  1 0.12609741E+03</rscale>
<asrwt>0</asrwt>
<pdfrwt beam="1">  1       21 0.81943341E-02 0.12609741E+03</pdfrwt>
<pdfrwt beam="2">  1       21 0.19423957E-01 0.12609741E+03</pdfrwt>
<totfact> 0.27774563E+06</totfact>
</mgrwt>
</event>
<event>
 6    1  0.4202038E-002  0.1308192E+03  0.7546771E-02  0.1226245E+00
         21   -1    0    0  504  502  0.00000000000E+00  0.00000000000E+00  0.10265983613E+03  0.10265983613E+03  0.00000000000E+00 0. -1.
         21   -1    0    0  502  503 -0.00000000000E+00 -0.00000000000E+00 -0.22334920580E+03  0.22334920580E+03  0.00000000000E+00 0.  1.
         25    2    1    2    0    0 -0.85399613048E+01 -0.37593204065E+02  0.58078253298E+02  0.14313191664E+03  0.12500992810E+03 0.  0.
          5    1    3    3  501    0  0.19850694229E+02 -0.91457916699E+01 -0.35273491946E+02  0.41496081751E+02  0.10000000000E+00 0.  1.
         -5    1    3    3    0  501 -0.28390655534E+02 -0.28447412395E+02  0.93351745244E+02  0.10163583489E+03  0.10000000000E+00 0.  1.
         21    1    1    2  504  503  0.85399613048E+01  0.37593204065E+02 -0.17876762297E+03  0.18287712528E+03  0.00000000000E+00 0.  1.
<mgrwt>
<rscale>  1 0.13081920E+03</rscale>
<asrwt>0</asrwt>
<pdfrwt beam="1">  1       21 0.15793821E-01 0.13081920E+03</pdfrwt>
<pdfrwt beam="2">  1       21 0.34361416E-01 0.13081920E+03</pdfrwt>
<totfact> 0.29528596E+05</totfact>
</mgrwt>
</event>
<event>
 6    1  0.4202038E-002  0.1262933E+03  0.7546771E-02  0.1233062E+00
         21   -1    0    0  503  502  0.00000000000E+00  0.00000000000E+00  0.62293814783E+02  0.62293814783E+02  0.00000000000E+00 0. -1.
         21   -1    0    0  504  503 -0.00000000000E+00 -0.00000000000E+00 -0.23528205387E+03  0.23528205387E+03  0.00000000000E+00 0.  1.
         25    2    1    2    0    0 -0.28882888465E+01 -0.17841930054E+02 -0.26908013357E+01  0.12632198115E+03  0.12499330314E+03 0.  0.
          5    1    3    3  501    0 -0.52038017090E+02 -0.30972853127E+02  0.28202192837E+02  0.66803042852E+02  0.10000000000E+00 0.  1.
         -5    1    3    3    0  501  0.49149728243E+02  0.13130923073E+02 -0.30892994172E+02  0.59518938298E+02  0.10000000000E+00 0.  1.
         21    1    1    2  504  502  0.28882888465E+01  0.17841930054E+02 -0.17029743775E+03  0.17125388750E+03  0.00000000000E+00 0.  1.
<mgrwt>
<rscale>  1 0.12629332E+03</rscale>
<asrwt>0</asrwt>
<pdfrwt beam="1">  1       21 0.95836638E-02 0.12629332E+03</pdfrwt>
<pdfrwt beam="2">  1       21 0.36197239E-01 0.12629332E+03</pdfrwt>
<totfact> 0.64748534E+05</totfact>
</mgrwt>
</event>
<event>
 6    1  0.4202038E-002  0.1290088E+03  0.7546771E-02  0.1228934E+00
         21   -1    0    0  504  502  0.00000000000E+00  0.00000000000E+00  0.39693896160E+02  0.39693896160E+02  0.00000000000E+00 0. -1.
         21   -1    0    0  502  503 -0.00000000000E+00 -0.00000000000E+00 -0.23744117088E+03  0.23744117088E+03  0.00000000000E+00 0. -1.
         25    2    1    2    0    0  0.13033438480E+02 -0.29119778330E+02 -0.72701579422E+02  0.14808368998E+03  0.12500171031E+03 0.  0.
          5    1    3    3  501    0  0.19192124452E+02  0.81160115593E+01  0.31211800373E+02  0.37528572677E+02  0.10000000000E+00 0. -1.
         -5    1    3    3    0  501 -0.61586859719E+01 -0.37235789889E+02 -0.10391337980E+03  0.11055511730E+03  0.10000000000E+00 0. -1.
         21    1    1    2  504  503 -0.13033438480E+02  0.29119778330E+02 -0.12504569530E+03  0.12905137706E+03  0.00000000000E+00 0. -1.
<mgrwt>
<rscale>  1 0.12900876E+03</rscale>
<asrwt>0</asrwt>
<pdfrwt beam="1">  1       21 0.61067533E-02 0.12900876E+03</pdfrwt>
<pdfrwt beam="2">  1       21 0.36529410E-01 0.12900876E+03</pdfrwt>
<totfact> 0.13804559E+06</totfact>
</mgrwt>
</event>
<event>
 6    1  0.4202038E-002  0.1401795E+03  0.7546771E-02  0.1213088E+00
         21   -1    0    0  504  502  0.00000000000E+00  0.00000000000E+00  0.20502822042E+03  0.20502822042E+03  0.00000000000E+00 0. -1.
         21   -1    0    0  502  503 -0.00000000000E+00 -0.00000000000E+00 -0.57833317047E+02  0.57833317047E+02  0.00000000000E+00 0. -1.
         25    2    1    2    0    0  0.62591349358E+02 -0.10362206130E+02  0.14147344007E+03  0.19916077238E+03  0.12500090671E+03 0.  0.
          5    1    3    3  501    0  0.26989117019E+02  0.48747609466E+02  0.19523001226E+02  0.59041506104E+02  0.10000000000E+00 0. -1.
         -5    1    3    3    0  501  0.35602232339E+02 -0.59109815596E+02  0.12195043885E+03  0.14011926628E+03  0.10000000000E+00 0. -1.
         21    1    1    2  504  503 -0.62591349358E+02  0.10362206130E+02  0.57214633008E+01  0.63700765087E+02  0.00000000000E+00 0. -1.
<mgrwt>
<rscale>  1 0.14017945E+03</rscale>
<asrwt>0</asrwt>
<pdfrwt beam="1">  1       21 0.31542803E-01 0.14017945E+03</pdfrwt>
<pdfrwt beam="2">  1       21 0.88974335E-02 0.14017945E+03</pdfrwt>
<totfact> 0.96490321E+05</totfact>
</mgrwt>
</event>
<event>
 6    1  0.4202038E-002  0.1263897E+03  0.7546771E-02  0.1232913E+00
         21   -1    0    0  503  502  0.00000000000E+00  0.00000000000E+00  0.28600739589E+01  0.28600739589E+01  0.00000000000E+00 0. -1.
         21   -1    0    0  504  503 -0.00000000000E+00 -0.00000000000E+00 -0.21212859656E+04  0.21212859656E+04  0.00000000000E+00 0. -1.
         25    2    1    2    0    0 -0.18920769366E+02  0.90925445744E-01 -0.14636697864E+04  0.14691166042E+04  0.12496539304E+03 0.  0.
          5    1    3    3  501    0  0.47197751502E+02 -0.18198618557E+02 -0.87540182004E+03  0.87686211800E+03  0.10000000000E+00 0.  1.
         -5    1    3    3    0  501 -0.66118520868E+02  0.18289544003E+02 -0.58826796633E+03  0.59225448620E+03  0.10000000000E+00 0.  1.
         21    1    1    2  504  502  0.18920769366E+02 -0.90925445744E-01 -0.65475610525E+03  0.65502943532E+03  0.00000000000E+00 0.  1.
<mgrwt>
<rscale>  1 0.12638969E+03</rscale>
<asrwt>0</asrwt>
<pdfrwt beam="1">  1       21 0.44001066E-03 0.12638969E+03</pdfrwt>
<pdfrwt beam="2">  1       21 0.32635222E+00 0.12638969E+03</pdfrwt>
<totfact> 0.34667020E+05</totfact>
</mgrwt>
</event>
<event>
 6    1  0.4202038E-002  0.2076844E+03  0.7546771E-02  0.1143413E+00
         21   -1    0    0  504  502  0.00000000000E+00  0.00000000000E+00  0.37644594441E+03  0.37644594441E+03  0.00000000000E+00 0.  1.
         21   -1    0    0  502  503 -0.00000000000E+00 -0.00000000000E+00 -0.16565884803E+03  0.16565884803E+03  0.00000000000E+00 0.  1.
         25    2    1    2    0    0 -0.93309167406E+02 -0.13712069768E+03  0.29128678176E+03  0.35774404336E+03  0.12499649946E+03 0.  0.
          5    1    3    3  501    0  0.63348893921E+00 -0.84222416177E+02  0.62674946300E+02  0.10498559705E+03  0.10000000000E+00 0.  1.
         -5    1    3    3    0  501 -0.93942656345E+02 -0.52898281501E+02  0.22861183546E+03  0.25275844631E+03  0.10000000000E+00 0.  1.
         21    1    1    2  504  503  0.93309167406E+02  0.13712069768E+03 -0.80499685383E+02  0.18436074908E+03  0.00000000000E+00 0.  1.
<mgrwt>
<rscale>  1 0.20768440E+03</rscale>
<asrwt>0</asrwt>
<pdfrwt beam="1">  1       21 0.57914760E-01 0.20768440E+03</pdfrwt>
<pdfrwt beam="2">  1       21 0.25485977E-01 0.20768440E+03</pdfrwt>
<totfact> 0.40493393E+04</totfact>
</mgrwt>
</event>
<event>
 6    1  0.4202038E-002  0.1261087E+03  0.7546771E-02  0.1233347E+00
         21   -1    0    0  504  502  0.00000000000E+00  0.00000000000E+00  0.79333967148E+03  0.79333967148E+03  0.00000000000E+00 0. -1.
         21   -1    0    0  502  503 -0.00000000000E+00 -0.00000000000E+00 -0.73547914754E+01  0.73547914754E+01  0.00000000000E+00 0. -1.
         25    2    1    2    0    0  0.43376931157E+01 -0.15985141492E+02  0.75593770808E+03  0.76638451001E+03  0.12501623240E+03 0.  0.
          5    1    3    3  501    0  0.20089023955E+02  0.72378285271E+01  0.72214198887E+03  0.72245762307E+03  0.10000000000E+00 0. -1.
         -5    1    3    3    0  501 -0.15751330839E+02 -0.23222970019E+02  0.33795719213E+02  0.43926886947E+02  0.10000000000E+00 0. -1.
         21    1    1    2  504  503 -0.43376931157E+01  0.15985141492E+02  0.30047171925E+02  0.34309952940E+02  0.00000000000E+00 0. -1.
<mgrwt>
<rscale>  1 0.12610868E+03</rscale>
<asrwt>0</asrwt>
<pdfrwt beam="1">  1       21 0.12205219E+00 0.12610868E+03</pdfrwt>
<pdfrwt beam="2">  1       21 0.11315070E-02 0.12610868E+03</pdfrwt>
<totfact> 0.15663025E+06</totfact>
</mgrwt>
</event>
<event>
 6    1  0.4202038E-002  0.1260325E+03  0.7546771E-02  0.1233464E+00
         21   -1    0    0  503  502  0.00000000000E+00  0.00000000000E+00  0.11471030767E+02  0.11471030767E+02  0.00000000000E+00 0. -1.
         21   -1    0    0  504  503 -0.00000000000E+00 -0.00000000000E+00 -0.44688082564E+03  0.44688082564E+03  0.00000000000E+00 0. -1.
         25    2    1    2    0    0 -0.54550243563E+01 -0.15163673994E+02 -0.40132625022E+03  0.42065063208E+03  0.12499800340E+03 0.  0.
          5    1    3    3  501    0  0.94303588622E+00 -0.22245939180E+02 -0.32992995117E+01  0.22509253741E+02  0.10000000000E+00 0.  1.
         -5    1    3    3    0  501 -0.63980602425E+01  0.70822651863E+01 -0.39802695071E+03  0.39814137834E+03  0.10000000000E+00 0.  1.
         21    1    1    2  504  502  0.54550243563E+01  0.15163673994E+02 -0.34083544656E+02  0.37701224331E+02  0.00000000000E+00 0. -1.
<mgrwt>
<rscale>  1 0.12603252E+03</rscale>
<asrwt>0</asrwt>
<pdfrwt beam="1">  1       21 0.17647739E-02 0.12603252E+03</pdfrwt>
<pdfrwt beam="2">  1       21 0.68750900E-01 0.12603252E+03</pdfrwt>
<totfact> 0.28872680E+06</totfact>
</mgrwt>
</event>
<event>
 6    1  0.4202038E-002  0.1410138E+03  0.7546771E-02  0.1211971E+00
         21   -1    0    0  504  502  0.00000000000E+00  0.00000000000E+00  0.77394955208E+02  0.77394955208E+02  0.00000000000E+00 0.  1.
         21   -1    0    0  502  503 -0.00000000000E+00 -0.00000000000E+00 -0.14533154218E+03  0.14533154218E+03  0.00000000000E+00 0.  1.
         25    2    1    2    0    0 -0.34812015262E+02  0.55214540433E+02 -0.69977036253E+02  0.15742193924E+03  0.12499743785E+03 0.  0.
          5    1    3    3  501    0 -0.29758584518E+02 -0.17244132136E+02  0.21541140115E+02  0.40582806250E+02  0.10000000000E+00 0.  1.
         -5    1    3    3    0  501 -0.50534307432E+01  0.72458672569E+02 -0.91518176368E+02  0.11683913299E+03  0.10000000000E+00 0.  1.
         21    1    1    2  504  503  0.34812015262E+02 -0.55214540433E+02  0.20404492768E+01  0.65304558150E+02  0.00000000000E+00 0.  1.
<mgrwt>
<rscale>  1 0.14101376E+03</rscale>
<asrwt>0</asrwt>
<pdfrwt beam="1">  1       21 0.11906916E-01 0.14101376E+03</pdfrwt>
<pdfrwt beam="2">  1       21 0.22358699E-01 0.14101376E+03</pdfrwt>
<totfact> 0.11149768E+06</totfact>
</mgrwt>
</event>
<event>
 6    1  0.4202038E-002  0.1288884E+03  0.7546771E-02  0.1229114E+00
         21   -1    0    0  503  502  0.00000000000E+00  0.00000000000E+00  0.11891091669E+03  0.11891091669E+03  0.00000000000E+00 0. -1.
         21   -1    0    0  504  503 -0.00000000000E+00 -0.00000000000E+00 -0.76820539166E+02  0.76820539166E+02  0.00000000000E+00 0.  1.
         25    2    1    2    0    0 -0.30556628967E+02  0.73107189665E+01  0.75900548424E+02  0.14957647951E+03  0.12500030314E+03 0.  0.
          5    1    3    3  501    0  0.15441570822E+01  0.63785872854E+02  0.40875782111E+02  0.75775072155E+02  0.10000000000E+00 0. -1.
         -5    1    3    3    0  501 -0.32100786050E+02 -0.56475153888E+02  0.35024766313E+02  0.73801407351E+02  0.10000000000E+00 0. -1.
         21    1    1    2  504  502  0.30556628967E+02 -0.73107189665E+01 -0.33810170900E+02  0.46154976351E+02  0.00000000000E+00 0.  1.
<mgrwt>
<rscale>  1 0.12888844E+03</rscale>
<asrwt>0</asrwt>
<pdfrwt beam="1">  1       21 0.18293987E-01 0.12888844E+03</pdfrwt>
<pdfrwt beam="2">  1       21 0.11818544E-01 0.12888844E+03</pdfrwt>
<totfact> 0.16364323E+06</totfact>
</mgrwt>
</event>
<event>
 6    1  0.4202038E-002  0.1687309E+03  0.7546771E-02  0.1179178E+00
         21   -1    0    0  503  502  0.00000000000E+00  0.00000000000E+00  0.36888315129E+03  0.36888315129E+03  0.00000000000E+00 0. -1.
         21   -1    0    0  504  503 -0.00000000000E+00 -0.00000000000E+00 -0.10912693799E+03  0.10912693799E+03  0.00000000000E+00 0. -1.
         25    2    1    2    0    0  0.11328299421E+03 -0.17148451877E+00  0.31088560444E+03  0.35372299896E+03  0.12504812978E+03 0.  0.
          5    1    3    3  501    0  0.56631618603E+02 -0.53529381549E+02  0.87502484980E+02  0.11717179606E+03  0.10000000000E+00 0. -1.
         -5    1    3    3    0  501  0.56651375605E+02  0.53357897031E+02  0.22338311946E+03  0.23655120290E+03  0.10000000000E+00 0. -1.
         21    1    1    2  504  502 -0.11328299421E+03  0.17148451877E+00 -0.51129391136E+02  0.12428709033E+03  0.00000000000E+00 0. -1.
<mgrwt>
<rscale>  1 0.16873085E+03</rscale>
<asrwt>0</asrwt>
<pdfrwt beam="1">  1       21 0.56751254E-01 0.16873085E+03</pdfrwt>
<pdfrwt beam="2">  1       21 0.16788760E-01 0.16873085E+03</pdfrwt>
<totfact> 0.94062533E+04</totfact>
</mgrwt>
</event>
<event>
 6    1  0.4202038E-002  0.1333741E+03  0.7546771E-02  0.1222533E+00
         21   -1    0    0  503  502  0.00000000000E+00  0.00000000000E+00  0.56087350231E+03  0.56087350231E+03  0.00000000000E+00 0. -1.
         21   -1    0    0  504  503 -0.00000000000E+00 -0.00000000000E+00 -0.15789615129E+02  0.15789615129E+02  0.00000000000E+00 0. -1.
         25    2    1    2    0    0 -0.20012261755E+02  0.42174559210E+02  0.46716145929E+03  0.48582761318E+03  0.12493781101E+03 0.  0.
          5    1    3    3  501    0  0.98895347123E+01  0.76024324707E+02  0.38002901256E+03  0.38768487361E+03  0.10000000000E+00 0.  1.
         -5    1    3    3    0  501 -0.29901796467E+02 -0.33849765498E+02  0.87132446734E+02  0.98142739569E+02  0.10000000000E+00 0.  1.
         21    1    1    2  504  502  0.20012261755E+02 -0.42174559210E+02  0.77922427888E+02  0.90835504253E+02  0.00000000000E+00 0. -1.
<mgrwt>
<rscale>  1 0.13337406E+03</rscale>
<asrwt>0</asrwt>
<pdfrwt beam="1">  1       21 0.86288216E-01 0.13337406E+03</pdfrwt>
<pdfrwt beam="2">  1       21 0.24291720E-02 0.13337406E+03</pdfrwt>
<totfact> 0.10414021E+06</totfact>
</mgrwt>
</event>
<event>
 6    1  0.4202038E-002  0.1315986E+03  0.7546771E-02  0.1225103E+00
         21   -1    0    0  504  502  0.00000000000E+00  0.00000000000E+00  0.95174692562E+02  0.95174692562E+02  0.00000000000E+00 0. -1.
         21   -1    0    0  502  503 -0.00000000000E+00 -0.00000000000E+00 -0.89975449382E+02  0.89975449382E+02  0.00000000000E+00 0. -1.
         25    2    1    2    0    0 -0.33897427469E+02  0.23334950405E+02  0.32767404825E+02  0.13561672862E+03  0.12499855504E+03 0.  0.
          5    1    3    3  501    0  0.25355801040E+02  0.44708869471E+02 -0.18265822845E+02  0.54547685010E+02  0.10000000000E+00 0. -1.
         -5    1    3    3    0  501 -0.59253228508E+02 -0.21373919066E+02  0.51033227670E+02  0.81069043607E+02  0.10000000000E+00 0. -1.
         21    1    1    2  504  503  0.33897427469E+02 -0.23334950405E+02 -0.27568161646E+02  0.49533413328E+02  0.00000000000E+00 0. -1.
<mgrwt>
<rscale>  1 0.13159861E+03</rscale>
<asrwt>0</asrwt>
<pdfrwt beam="1">  1       21 0.14642260E-01 0.13159861E+03</pdfrwt>
<pdfrwt beam="2">  1       21 0.13842377E-01 0.13159861E+03</pdfrwt>
<totfact> 0.18514709E+06</totfact>
</mgrwt>
</event>
<event>
 6    1  0.4202038E-002  0.1283971E+03  0.7546771E-02  0.1229854E+00
         21   -1    0    0  503  502  0.00000000000E+00  0.00000000000E+00  0.71931399634E+02  0.71931399634E+02  0.00000000000E+00 0.  1.
         21   -1    0    0  504  503 -0.00000000000E+00 -0.00000000000E+00 -0.93074068280E+02  0.93074068280E+02  0.00000000000E+00 0.  1.
         25    2    1    2    0    0  0.19584577455E+02  0.21776538905E+02  0.81660380291E+00  0.12839969013E+03  0.12501216046E+03 0.  0.
          5    1    3    3  501    0 -0.88645182339E+01  0.54230552451E+02 -0.40803026285E+02  0.68442891937E+02  0.10000000000E+00 0.  1.
         -5    1    3    3    0  501  0.28449095689E+02 -0.32454013546E+02  0.41619630088E+02  0.59956798192E+02  0.10000000000E+00 0.  1.
         21    1    1    2  504  502 -0.19584577455E+02 -0.21776538905E+02 -0.21959272449E+02  0.36605777785E+02  0.00000000000E+00 0.  1.
<mgrwt>
<rscale>  1 0.12839709E+03</rscale>
<asrwt>0</asrwt>
<pdfrwt beam="1">  1       21 0.11066369E-01 0.12839709E+03</pdfrwt>
<pdfrwt beam="2">  1       21 0.14319087E-01 0.12839709E+03</pdfrwt>
<totfact> 0.28658890E+06</totfact>
</mgrwt>
</event>
<event>
 6    1  0.4202038E-002  0.1262973E+03  0.7546771E-02  0.1233056E+00
         21   -1    0    0  503  502  0.00000000000E+00  0.00000000000E+00  0.15234069823E+03  0.15234069823E+03  0.00000000000E+00 0.  1.
         21   -1    0    0  504  503 -0.00000000000E+00 -0.00000000000E+00 -0.41885742273E+02  0.41885742273E+02  0.00000000000E+00 0.  1.
         25    2    1    2    0    0  0.11910319770E+02 -0.13605782238E+02  0.11962010768E+03  0.17395397067E+03  0.12499616284E+03 0.  0.
          5    1    3    3  501    0 -0.33282374479E+01 -0.61899151828E+02  0.10379793692E+03  0.12089914751E+03  0.10000000000E+00 0. -1.
         -5    1    3    3    0  501  0.15238557218E+02  0.48293369590E+02  0.15822170759E+02  0.53054823155E+02  0.10000000000E+00 0. -1.
         21    1    1    2  504  502 -0.11910319770E+02  0.13605782238E+02 -0.91651517149E+01  0.20272469837E+02  0.00000000000E+00 0.  1.
<mgrwt>
<rscale>  1 0.12629732E+03</rscale>
<asrwt>0</asrwt>
<pdfrwt beam="1">  1       21 0.23437030E-01 0.12629732E+03</pdfrwt>
<pdfrwt beam="2">  1       21 0.64439604E-02 0.12629732E+03</pdfrwt>
<totfact> 0.29569074E+06</totfact>
</mgrwt>
</event>
<event>
 6    1  0.4202038E-002  0.1292496E+03  0.7546771E-02  0.1228574E+00
         21   -1    0    0  503  502  0.00000000000E+00  0.00000000000E+00  0.25089063123E+03  0.25089063123E+03  0.00000000000E+00 0. -1.
         21   -1    0    0  504  503 -0.00000000000E+00 -0.00000000000E+00 -0.26906896161E+02  0.26906896161E+02  0.00000000000E+00 0. -1.
         25    2    1    2    0    0 -0.24879155028E+02 -0.21499055084E+02  0.15846797222E+03  0.20449338763E+03  0.12499706253E+03 0.  0.
          5    1    3    3  501    0 -0.73979219305E+02  0.34536207693E+01  0.86636098917E+02  0.11397664682E+03  0.10000000000E+00 0. -1.
         -5    1    3    3    0  501  0.49100064277E+02 -0.24952675853E+02  0.71831873306E+02  0.90516740810E+02  0.10000000000E+00 0. -1.
         21    1    1    2  504  502  0.24879155028E+02  0.21499055084E+02  0.65515762847E+02  0.73304139759E+02  0.00000000000E+00 0. -1.
<mgrwt>
<rscale>  1 0.12924955E+03</rscale>
<asrwt>0</asrwt>
<pdfrwt beam="1">  1       21 0.38598557E-01 0.12924955E+03</pdfrwt>
<pdfrwt beam="2">  1       21 0.41395227E-02 0.12924955E+03</pdfrwt>
<totfact> 0.23787284E+06</totfact>
</mgrwt>
</event>
<event>
 6    1  0.4202038E-002  0.1594054E+03  0.7546771E-02  0.1189370E+00
         21   -1    0    0  503  502  0.00000000000E+00  0.00000000000E+00  0.50791223054E+02  0.50791223054E+02  0.00000000000E+00 0. -1.
         21   -1    0    0  504  503 -0.00000000000E+00 -0.00000000000E+00 -0.33142228215E+03  0.33142228215E+03  0.00000000000E+00 0. -1.
         25    2    1    2    0    0 -0.93766767218E+02 -0.31483954154E+02 -0.15525168246E+03  0.22251555879E+03  0.12500657180E+03 0.  0.
          5    1    3    3  501    0 -0.20890048103E+02 -0.59182672555E+02 -0.19067368365E+02  0.65593882160E+02  0.10000000000E+00 0. -1.
         -5    1    3    3    0  501 -0.72876719114E+02  0.27698718401E+02 -0.13618431410E+03  0.15692167663E+03  0.10000000000E+00 0. -1.
         21    1    1    2  504  502  0.93766767218E+02  0.31483954154E+02 -0.12537937663E+03  0.15969794641E+03  0.00000000000E+00 0. -1.
<mgrwt>
<rscale>  1 0.15940542E+03</rscale>
<asrwt>0</asrwt>
<pdfrwt beam="1">  1       21 0.78140340E-02 0.15940542E+03</pdfrwt>
<pdfrwt beam="2">  1       21 0.50988045E-01 0.15940542E+03</pdfrwt>
<totfact> 0.46014674E+05</totfact>
</mgrwt>
</event>
<event>
 6    1  0.4202038E-002  0.1292960E+03  0.7546771E-02  0.1228504E+00
         21   -1    0    0  503  502  0.00000000000E+00  0.00000000000E+00  0.31410257407E+03  0.31410257407E+03  0.00000000000E+00 0.  1.
         21   -1    0    0  504  503 -0.00000000000E+00 -0.00000000000E+00 -0.10909563964E+03  0.10909563964E+03  0.00000000000E+00 0. -1.
         25    2    1    2    0    0  0.32994396517E+02  0.18729894193E+01  0.29782086374E+03  0.32467631887E+03  0.12500122746E+03 0.  0.
          5    1    3    3  501    0 -0.27537947756E+02  0.46165004401E+02  0.13908779290E+03  0.14911395082E+03  0.10000000000E+00 0.  1.
         -5    1    3    3    0  501  0.60532344273E+02 -0.44292014981E+02  0.15873307084E+03  0.17556236804E+03  0.10000000000E+00 0.  1.
         21    1    1    2  504  502 -0.32994396517E+02 -0.18729894193E+01 -0.92813929303E+02  0.98521894843E+02  0.00000000000E+00 0. -1.
<mgrwt>
<rscale>  1 0.12929596E+03</rscale>
<asrwt>0</asrwt>
<pdfrwt beam="1">  1       21 0.48323473E-01 0.12929596E+03</pdfrwt>
<pdfrwt beam="2">  1       21 0.16783945E-01 0.12929596E+03</pdfrwt>
<totfact> 0.13351574E+05</totfact>
</mgrwt>
</event>
<event>
 6    1  0.4202038E-002  0.1406594E+03  0.7546771E-02  0.1212444E+00
         21   -1    0    0  503  502  0.00000000000E+00  0.00000000000E+00  0.13874514408E+03  0.13874514408E+03  0.00000000000E+00 0.  1.
         21   -1    0    0  504  503 -0.00000000000E+00 -0.00000000000E+00 -0.19805886378E+03  0.19805886378E+03  0.00000000000E+00 0.  1.
         25    2    1    2    0    0 -0.59831173459E+02  0.24080103526E+02  0.94878138306E+02  0.16966708860E+03  0.12500175648E+03 0.  0.
          5    1    3    3  501    0 -0.64768835049E+01  0.39777363449E+02  0.10559857490E+03  0.11302768548E+03  0.10000000000E+00 0.  1.
         -5    1    3    3    0  501 -0.53354289954E+02 -0.15697259923E+02 -0.10720436595E+02  0.56639403125E+02  0.10000000000E+00 0.  1.
         21    1    1    2  504  502  0.59831173459E+02 -0.24080103526E+02 -0.15419185800E+03  0.16713691926E+03  0.00000000000E+00 0.  1.
<mgrwt>
<rscale>  1 0.14065938E+03</rscale>
<asrwt>0</asrwt>
<pdfrwt beam="1">  1       21 0.21345407E-01 0.14065938E+03</pdfrwt>
<pdfrwt beam="2">  1       21 0.30470594E-01 0.14065938E+03</pdfrwt>
<totfact> 0.21414928E+05</totfact>
</mgrwt>
</event>
<event>
 6    1  0.4202038E-002  0.1838537E+03  0.7546771E-02  0.1164125E+00
         21   -1    0    0  503  502  0.00000000000E+00  0.00000000000E+00  0.54179207269E+02  0.54179207269E+02  0.00000000000E+00 0.  1.
         21   -1    0    0  504  503 -0.00000000000E+00 -0.00000000000E+00 -0.94144178809E+03  0.94144178809E+03  0.00000000000E+00 0.  1.
         25    2    1    2    0    0  0.56406036236E+01  0.13469986329E+03 -0.12689334108E+03  0.22339224018E+03  0.12500521342E+03 0.  0.
          5    1    3    3  501    0 -0.24448751329E+02  0.61928749572E+02  0.81392525024E+01  0.67075844359E+02  0.10000000000E+00 0.  1.
         -5    1    3    3    0  501  0.30089354953E+02  0.72771113717E+02 -0.13503259358E+03  0.15631639582E+03  0.10000000000E+00 0.  1.
         21    1    1    2  504  502 -0.56406036236E+01 -0.13469986329E+03 -0.76036923974E+03  0.77222875518E+03  0.00000000000E+00 0.  1.
<mgrwt>
<rscale>  1 0.18385367E+03</rscale>
<asrwt>0</asrwt>
<pdfrwt beam="1">  1       21 0.83352623E-02 0.18385367E+03</pdfrwt>
<pdfrwt beam="2">  1       21 0.14483721E+00 0.18385367E+03</pdfrwt>
<totfact> 0.36790957E+04</totfact>
</mgrwt>
</event>
<event>
 6    1  0.4202038E-002  0.1312873E+03  0.7546771E-02  0.1225558E+00
         21   -1    0    0  504  502  0.00000000000E+00  0.00000000000E+00  0.27657784536E+02  0.27657784536E+02  0.00000000000E+00 0.  1.
         21   -1    0    0  502  503 -0.00000000000E+00 -0.00000000000E+00 -0.28919847217E+03  0.28919847217E+03  0.00000000000E+00 0.  1.
         25    2    1    2    0    0  0.27477802125E+02  0.29283882219E+02 -0.15575812755E+03  0.20370801153E+03  0.12499513710E+03 0.  0.
          5    1    3    3  501    0  0.74390975397E+02  0.38221305333E+01 -0.67277940509E+02  0.10037408621E+03  0.10000000000E+00 0.  1.
         -5    1    3    3    0  501 -0.46913173272E+02  0.25461751686E+02 -0.88480187039E+02  0.10333392533E+03  0.10000000000E+00 0.  1.
         21    1    1    2  504  503 -0.27477802125E+02 -0.29283882219E+02 -0.10578256009E+03  0.11314824518E+03  0.00000000000E+00 0.  1.
<mgrwt>
<rscale>  1 0.13128732E+03</rscale>
<asrwt>0</asrwt>
<pdfrwt beam="1">  1       21 0.42550439E-02 0.13128732E+03</pdfrwt>
<pdfrwt beam="2">  1       21 0.44492072E-01 0.13128732E+03</pdfrwt>
<totfact> 0.17084487E+06</totfact>
</mgrwt>
</event>
<event>
 6    1  0.4202038E-002  0.1303709E+03  0.7546771E-02  0.1226906E+00
         21   -1    0    0  503  502  0.00000000000E+00  0.00000000000E+00  0.29148613497E+03  0.29148613497E+03  0.00000000000E+00 0. -1.
         21   -1    0    0  504  503 -0.00000000000E+00 -0.00000000000E+00 -0.56204755991E+02  0.56204755991E+02  0.00000000000E+00 0. -1.
         25    2    1    2    0    0  0.37023393704E+02  0.93111486656E+00  0.26815709696E+03  0.29816906255E+03  0.12499985021E+03 0.  0.
          5    1    3    3  501    0  0.67155973385E+02 -0.35795190141E+02  0.11571413454E+03  0.13849545599E+03  0.10000000000E+00 0. -1.
         -5    1    3    3    0  501 -0.30132579682E+02  0.36726305008E+02  0.15244296242E+03  0.15967360655E+03  0.10000000000E+00 0. -1.
         21    1    1    2  504  502 -0.37023393704E+02 -0.93111486656E+00 -0.32875717985E+02  0.49521828412E+02  0.00000000000E+00 0. -1.
<mgrwt>
<rscale>  1 0.13037086E+03</rscale>
<asrwt>0</asrwt>
<pdfrwt beam="1">  1       21 0.44844020E-01 0.13037086E+03</pdfrwt>
<pdfrwt beam="2">  1       21 0.86468857E-02 0.13037086E+03</pdfrwt>
<totfact> 0.50426216E+05</totfact>
</mgrwt>
</event>
<event>
 6    1  0.4202038E-002  0.1292171E+03  0.7546771E-02  0.1228622E+00
         21   -1    0    0  504  502  0.00000000000E+00  0.00000000000E+00  0.20739046236E+02  0.20739046236E+02  0.00000000000E+00 0.  1.
         21   -1    0    0  502  503 -0.00000000000E+00 -0.00000000000E+00 -0.36721855271E+03  0.36721855271E+03  0.00000000000E+00 0.  1.
         25    2    1    2    0    0  0.14341398997E+00 -0.32765441197E+02 -0.20188345420E+03  0.23969562460E+03  0.12499387452E+03 0.  0.
          5    1    3    3  501    0 -0.55916244521E+02  0.11822730119E+02 -0.79907134162E+02  0.98242370893E+02  0.10000000000E+00 0. -1.
         -5    1    3    3    0  501  0.56059658511E+02 -0.44588171316E+02 -0.12197632004E+03  0.14145325370E+03  0.10000000000E+00 0. -1.
         21    1    1    2  504  503 -0.14341398997E+00  0.32765441197E+02 -0.14459605228E+03  0.14826197435E+03  0.00000000000E+00 0.  1.
<mgrwt>
<rscale>  1 0.12921712E+03</rscale>
<asrwt>0</asrwt>
<pdfrwt beam="1">  1       21 0.31906225E-02 0.12921712E+03</pdfrwt>
<pdfrwt beam="2">  1       21 0.56495163E-01 0.12921712E+03</pdfrwt>
<totfact> 0.16797466E+06</totfact>
</mgrwt>
</event>
<event>
 6    1  0.4202038E-002  0.1284296E+03  0.7546771E-02  0.1229805E+00
         21   -1    0    0  504  502  0.00000000000E+00  0.00000000000E+00  0.72549536698E+02  0.72549536698E+02  0.00000000000E+00 0.  1.
         21   -1    0    0  502  503 -0.00000000000E+00 -0.00000000000E+00 -0.11271345537E+03  0.11271345537E+03  0.00000000000E+00 0.  1.
         25    2    1    2    0    0 -0.96008633497E+01 -0.27867251817E+02  0.81281950880E+01  0.12868659635E+03  0.12500164889E+03 0.  0.
          5    1    3    3  501    0 -0.17771496168E+02  0.18591311839E+02 -0.48553055621E+02  0.54944264142E+02  0.10000000000E+00 0. -1.
         -5    1    3    3    0  501  0.81706328187E+01 -0.46458563657E+02  0.56681250709E+02  0.73742332209E+02  0.10000000000E+00 0. -1.
         21    1    1    2  504  503  0.96008633497E+01  0.27867251817E+02 -0.48292113759E+02  0.56576395717E+02  0.00000000000E+00 0.  1.
<mgrwt>
<rscale>  1 0.12842964E+03</rscale>
<asrwt>0</asrwt>
<pdfrwt beam="1">  1       21 0.11161467E-01 0.12842964E+03</pdfrwt>
<pdfrwt beam="2">  1       21 0.17340532E-01 0.12842964E+03</pdfrwt>
<totfact> 0.19963352E+06</totfact>
</mgrwt>
</event>
<event>
 6    1  0.4202038E-002  0.1266574E+03  0.7546771E-02  0.1232502E+00
         21   -1    0    0  504  502  0.00000000000E+00  0.00000000000E+00  0.14922509060E+02  0.14922509060E+02  0.00000000000E+00 0.  1.
         21   -1    0    0  502  503 -0.00000000000E+00 -0.00000000000E+00 -0.70469654873E+03  0.70469654873E+03  0.00000000000E+00 0.  1.
         25    2    1    2    0    0  0.20135302189E+02 -0.32119013113E+01 -0.25848410090E+03  0.28784740751E+03  0.12500541143E+03 0.  0.
          5    1    3    3  501    0  0.38817818381E+02  0.29677721847E+01 -0.26443778136E+03  0.26728819821E+03  0.10000000000E+00 0. -1.
         -5    1    3    3    0  501 -0.18682516192E+02 -0.61796734960E+01  0.59536804563E+01  0.20559209293E+02  0.10000000000E+00 0. -1.
         21    1    1    2  504  503 -0.20135302189E+02  0.32119013113E+01 -0.43128993877E+03  0.43177165028E+03  0.00000000000E+00 0.  1.
<mgrwt>
<rscale>  1 0.12665741E+03</rscale>
<asrwt>0</asrwt>
<pdfrwt beam="1">  1       21 0.22957697E-02 0.12665741E+03</pdfrwt>
<pdfrwt beam="2">  1       21 0.10841490E+00 0.12665741E+03</pdfrwt>
<totfact> 0.67157447E+05</totfact>
</mgrwt>
</event>
<event>
 6    1  0.4202038E-002  0.1284348E+03  0.7546771E-02  0.1229797E+00
         21   -1    0    0  504  502  0.00000000000E+00  0.00000000000E+00  0.16644703323E+02  0.16644703323E+02  0.00000000000E+00 0.  1.
         21   -1    0    0  502  503 -0.00000000000E+00 -0.00000000000E+00 -0.50779156638E+03  0.50779156638E+03  0.00000000000E+00 0.  1.
         25    2    1    2    0    0 -0.25999575589E+02  0.13923736116E+02 -0.24588538267E+03  0.27740784599E+03  0.12500257297E+03 0.  0.
          5    1    3    3  501    0  0.26891262343E+02  0.37620370600E+02 -0.19459710592E+03  0.20001618911E+03  0.10000000000E+00 0.  1.
         -5    1    3    3    0  501 -0.52890837933E+02 -0.23696634484E+02 -0.51288276752E+02  0.77391656884E+02  0.10000000000E+00 0.  1.
         21    1    1    2  504  503  0.25999575589E+02 -0.13923736116E+02 -0.24526148039E+03  0.24702842371E+03  0.00000000000E+00 0.  1.
<mgrwt>
<rscale>  1 0.12843478E+03</rscale>
<asrwt>0</asrwt>
<pdfrwt beam="1">  1       21 0.25607240E-02 0.12843478E+03</pdfrwt>
<pdfrwt beam="2">  1       21 0.78121768E-01 0.12843478E+03</pdfrwt>
<totfact> 0.11947449E+06</totfact>
</mgrwt>
</event>
<event>
 6    1  0.4202038E-002  0.1289802E+03  0.7546771E-02  0.1228977E+00
         21   -1    0    0  503  502  0.00000000000E+00  0.00000000000E+00  0.62712768136E+01  0.62712768136E+01  0.00000000000E+00 0. -1.
         21   -1    0    0  504  503 -0.00000000000E+00 -0.00000000000E+00 -0.24750747416E+04  0.24750747416E+04  0.00000000000E+00 0. -1.
         25    2    1    2    0    0  0.22488751950E+02  0.22567246845E+02 -0.67232805611E+03  0.68458812750E+03  0.12498345763E+03 0.  0.
          5    1    3    3  501    0  0.73933743142E+02  0.15239480508E+02 -0.44839526393E+03  0.45470513837E+03  0.10000000000E+00 0. -1.
         -5    1    3    3    0  501 -0.51444991192E+02  0.73277663374E+01 -0.22393279218E+03  0.22988298913E+03  0.10000000000E+00 0. -1.
         21    1    1    2  504  502 -0.22488751950E+02 -0.22567246845E+02 -0.17964754086E+04  0.17967578909E+04  0.00000000000E+00 0. -1.
<mgrwt>
<rscale>  1 0.12898019E+03</rscale>
<asrwt>0</asrwt>
<pdfrwt beam="1">  1       21 0.96481081E-03 0.12898019E+03</pdfrwt>
<pdfrwt beam="2">  1       21 0.38078113E+00 0.12898019E+03</pdfrwt>
<totfact> 0.49256292E+04</totfact>
</mgrwt>
</event>
<event>
 6    1  0.4202038E-002  0.1336404E+03  0.7546771E-02  0.1222152E+00
         21   -1    0    0  503  502  0.00000000000E+00  0.00000000000E+00  0.30032572820E+03  0.30032572820E+03  0.00000000000E+00 0.  1.
         21   -1    0    0  504  503 -0.00000000000E+00 -0.00000000000E+00 -0.32315696941E+02  0.32315696941E+02  0.00000000000E+00 0.  1.
         25    2    1    2    0    0  0.45486083484E+02  0.12877198873E+02  0.24715446114E+03  0.28097169661E+03  0.12499984237E+03 0.  0.
          5    1    3    3  501    0  0.16104765828E+02  0.51182026654E+02  0.21815290447E+03  0.22465454160E+03  0.10000000000E+00 0.  1.
         -5    1    3    3    0  501  0.29381317655E+02 -0.38304827781E+02  0.29001556673E+02  0.56317155006E+02  0.10000000000E+00 0.  1.
         21    1    1    2  504  502 -0.45486083484E+02 -0.12877198873E+02  0.20855570114E+02  0.51669728529E+02  0.00000000000E+00 0.  1.
<mgrwt>
<rscale>  1 0.13364044E+03</rscale>
<asrwt>0</asrwt>
<pdfrwt beam="1">  1       21 0.46203956E-01 0.13364044E+03</pdfrwt>
<pdfrwt beam="2">  1       21 0.49716459E-02 0.13364044E+03</pdfrwt>
<totfact> 0.12195422E+06</totfact>
</mgrwt>
</event>
<event>
 6    1  0.4202038E-002  0.1271403E+03  0.7546771E-02  0.1231762E+00
         21   -1    0    0  504  502  0.00000000000E+00  0.00000000000E+00  0.35480720520E+03  0.35480720520E+03  0.00000000000E+00 0. -1.
         21   -1    0    0  502  503 -0.00000000000E+00 -0.00000000000E+00 -0.35293530965E+02  0.35293530965E+02  0.00000000000E+00 0. -1.
         25    2    1    2    0    0  0.20532713826E+02  0.10015904812E+02  0.33773842355E+03  0.36087656511E+03  0.12507094713E+03 0.  0.
          5    1    3    3  501    0  0.32901196787E+01  0.67071519270E+02  0.16487854325E+03  0.17802909203E+03  0.10000000000E+00 0.  1.
         -5    1    3    3    0  501  0.17242594147E+02 -0.57055614458E+02  0.17285988030E+03  0.18284747308E+03  0.10000000000E+00 0.  1.
         21    1    1    2  504  503 -0.20532713826E+02 -0.10015904812E+02 -0.18224749316E+02  0.29224171055E+02  0.00000000000E+00 0. -1.
<mgrwt>
<rscale>  1 0.12714029E+03</rscale>
<asrwt>0</asrwt>
<pdfrwt beam="1">  1       21 0.54585721E-01 0.12714029E+03</pdfrwt>
<pdfrwt beam="2">  1       21 0.54297742E-02 0.12714029E+03</pdfrwt>
<totfact> 0.74495758E+05</totfact>
</mgrwt>
</event>
<event>
 6    1  0.4202038E-002  0.1262457E+03  0.7546771E-02  0.1233135E+00
         21   -1    0    0  503  502  0.00000000000E+00  0.00000000000E+00  0.48980667871E+02  0.48980667871E+02  0.00000000000E+00 0. -1.
         21   -1    0    0  504  503 -0.00000000000E+00 -0.00000000000E+00 -0.10689476764E+03  0.10689476764E+03  0.00000000000E+00 0. -1.
         25    2    1    2    0    0 -0.13346267974E+01 -0.17641704715E+02 -0.45218376385E+02  0.13409947707E+03  0.12499982885E+03 0.  0.
          5    1    3    3  501    0  0.31299443631E+02  0.45225824700E+02 -0.14411509394E+02  0.56857119118E+02  0.10000000000E+00 0.  1.
         -5    1    3    3    0  501 -0.32634070428E+02 -0.62867529415E+02 -0.30806866991E+02  0.77242357947E+02  0.10000000000E+00 0.  1.
         21    1    1    2  504  502  0.13346267974E+01  0.17641704715E+02 -0.12695723380E+02  0.21775958442E+02  0.00000000000E+00 0.  1.
<mgrwt>
<rscale>  1 0.12624567E+03</rscale>
<asrwt>0</asrwt>
<pdfrwt beam="1">  1       21 0.75354874E-02 0.12624567E+03</pdfrwt>
<pdfrwt beam="2">  1       21 0.16445349E-01 0.12624567E+03</pdfrwt>
<totfact> 0.43503019E+06</totfact>
</mgrwt>
</event>
<event>
 6    1  0.4202038E-002  0.1263332E+03  0.7546771E-02  0.1233000E+00
         21   -1    0    0  503  502  0.00000000000E+00  0.00000000000E+00  0.26527052084E+03  0.26527052084E+03  0.00000000000E+00 0. -1.
         21   -1    0    0  504  503 -0.00000000000E+00 -0.00000000000E+00 -0.35086636804E+02  0.35086636804E+02  0.00000000000E+00 0. -1.
         25    2    1    2    0    0 -0.14323450317E+02  0.11434237852E+02  0.24574383193E+03  0.27631521507E+03  0.12499665646E+03 0.  0.
          5    1    3    3  501    0 -0.33751724569E+02 -0.48566060681E+02  0.15417044051E+03  0.16512533388E+03  0.10000000000E+00 0. -1.
         -5    1    3    3    0  501  0.19428274253E+02  0.60000298532E+02  0.91573391411E+02  0.11118988119E+03  0.10000000000E+00 0. -1.
         21    1    1    2  504  502  0.14323450317E+02 -0.11434237852E+02 -0.15559947891E+02  0.24041942571E+02  0.00000000000E+00 0.  1.
<mgrwt>
<rscale>  1 0.12633316E+03</rscale>
<asrwt>0</asrwt>
<pdfrwt beam="1">  1       21 0.40810848E-01 0.12633316E+03</pdfrwt>
<pdfrwt beam="2">  1       21 0.53979443E-02 0.12633316E+03</pdfrwt>
<totfact> 0.13638171E+06</totfact>
</mgrwt>
</event>
<event>
 6    1  0.4202038E-002  0.1287911E+03  0.7546771E-02  0.1229261E+00
         21   -1    0    0  504  502  0.00000000000E+00  0.00000000000E+00  0.89227068875E+03  0.89227068875E+03  0.00000000000E+00 0. -1.
         21   -1    0    0  502  503 -0.00000000000E+00 -0.00000000000E+00 -0.75993564976E+02  0.75993564976E+02  0.00000000000E+00 0. -1.
         25    2    1    2    0    0  0.68549378943E+01  0.30250986791E+02  0.88423348513E+03  0.89356365518E+03  0.12500014905E+03 0.  0.
          5    1    3    3  501    0  0.51189333191E+02  0.54918544821E+02  0.61757583497E+03  0.62212242874E+03  0.10000000000E+00 0. -1.
         -5    1    3    3    0  501 -0.44334395297E+02 -0.24667558029E+02  0.26665765016E+03  0.27144122645E+03  0.10000000000E+00 0. -1.
         21    1    1    2  504  503 -0.68549378943E+01 -0.30250986791E+02 -0.67956361351E+02  0.74700598548E+02  0.00000000000E+00 0. -1.
<mgrwt>
<rscale>  1 0.12879111E+03</rscale>
<asrwt>0</asrwt>
<pdfrwt beam="1">  1       21 0.13727241E+00 0.12879111E+03</pdfrwt>
<pdfrwt beam="2">  1       21 0.11691318E-01 0.12879111E+03</pdfrwt>
<totfact> 0.24192504E+04</totfact>
</mgrwt>
</event>
<event>
 6    1  0.4202038E-002  0.1274579E+03  0.7546771E-02  0.1231277E+00
         21   -1    0    0  503  502  0.00000000000E+00  0.00000000000E+00  0.82487609996E+02  0.82487609996E+02  0.00000000000E+00 0. -1.
         21   -1    0    0  504  503 -0.00000000000E+00 -0.00000000000E+00 -0.18332119895E+03  0.18332119895E+03  0.00000000000E+00 0.  1.
         25    2    1    2    0    0  0.17253534729E+02 -0.18096320221E+02  0.31370033519E+02  0.13126157166E+03  0.12498143833E+03 0.  0.
          5    1    3    3  501    0  0.34392384568E+02 -0.18640711333E+02  0.74886434760E+02  0.84488462800E+02  0.10000000000E+00 0. -1.
         -5    1    3    3    0  501 -0.17138849839E+02  0.54439111155E+00 -0.43516401242E+02  0.46773108861E+02  0.10000000000E+00 0. -1.
         21    1    1    2  504  502 -0.17253534729E+02  0.18096320221E+02 -0.13220362247E+03  0.13454723728E+03  0.00000000000E+00 0.  1.
<mgrwt>
<rscale>  1 0.12745792E+03</rscale>
<asrwt>0</asrwt>
<pdfrwt beam="1">  1       21 0.12690402E-01 0.12745792E+03</pdfrwt>
<pdfrwt beam="2">  1       21 0.28203261E-01 0.12745792E+03</pdfrwt>
<totfact> 0.64130790E+05</totfact>
</mgrwt>
</event>
<event>
 6    1  0.4202038E-002  0.1283767E+03  0.7546771E-02  0.1229884E+00
         21   -1    0    0  504  502  0.00000000000E+00  0.00000000000E+00  0.12175524267E+03  0.12175524267E+03  0.00000000000E+00 0.  1.
         21   -1    0    0  502  503 -0.00000000000E+00 -0.00000000000E+00 -0.51025295455E+02  0.51025295455E+02  0.00000000000E+00 0.  1.
         25    2    1    2    0    0 -0.28615140188E+02  0.60158399600E+01  0.56462359162E+02  0.14024470177E+03  0.12500224716E+03 0.  0.
          5    1    3    3  501    0 -0.73752284249E+02  0.17155456255E+02  0.13446991619E+02  0.76906051093E+02  0.10000000000E+00 0.  1.
         -5    1    3    3    0  501  0.45137144061E+02 -0.11139616294E+02  0.43015367543E+02  0.63338650681E+02  0.10000000000E+00 0.  1.
         21    1    1    2  504  503  0.28615140188E+02 -0.60158399600E+01  0.14267588058E+02  0.32535836356E+02  0.00000000000E+00 0.  1.
<mgrwt>
<rscale>  1 0.12837670E+03</rscale>
<asrwt>0</asrwt>
<pdfrwt beam="1">  1       21 0.18731576E-01 0.12837670E+03</pdfrwt>
<pdfrwt beam="2">  1       21 0.78500455E-02 0.12837670E+03</pdfrwt>
<totfact> 0.31995659E+06</totfact>
</mgrwt>
</event>
<event>
 6    1  0.4202038E-002  0.1292953E+03  0.7546771E-02  0.1228505E+00
         21   -1    0    0  503  502  0.00000000000E+00  0.00000000000E+00  0.59411024790E+02  0.59411024790E+02  0.00000000000E+00 0.  1.
         21   -1    0    0  504  503 -0.00000000000E+00 -0.00000000000E+00 -0.11372903819E+03  0.11372903819E+03  0.00000000000E+00 0.  1.
         25    2    1    2    0    0 -0.44455881507E+01 -0.32683705787E+02 -0.31636327217E+02  0.13310949009E+03  0.12501716391E+03 0.  0.
          5    1    3    3  501    0  0.31891291029E+02 -0.31297930873E+02 -0.68204920976E+02  0.81538556314E+02  0.10000000000E+00 0. -1.
         -5    1    3    3    0  501 -0.36336879180E+02 -0.13857749132E+01  0.36568593759E+02  0.51570933772E+02  0.10000000000E+00 0. -1.
         21    1    1    2  504  502  0.44455881507E+01  0.32683705787E+02 -0.22681686179E+02  0.40030572890E+02  0.00000000000E+00 0.  1.
<mgrwt>
<rscale>  1 0.12929532E+03</rscale>
<asrwt>0</asrwt>
<pdfrwt beam="1">  1       21 0.91401576E-02 0.12929532E+03</pdfrwt>
<pdfrwt beam="2">  1       21 0.17496775E-01 0.12929532E+03</pdfrwt>
<totfact> 0.27868470E+06</totfact>
</mgrwt>
</event>
<event>
 6    1  0.4202038E-002  0.1259925E+03  0.7546771E-02  0.1233526E+00
         21   -1    0    0  503  502  0.00000000000E+00  0.00000000000E+00  0.20707157427E+04  0.20707157427E+04  0.00000000000E+00 0.  1.
         21   -1    0    0  504  503 -0.00000000000E+00 -0.00000000000E+00 -0.26506104923E+01  0.26506104923E+01  0.00000000000E+00 0.  1.
         25    2    1    2    0    0  0.43370966929E+01 -0.15207153255E+02  0.19708810419E+04  0.19749040998E+04  0.12499621794E+03 0.  0.
          5    1    3    3  501    0  0.14302945089E+02  0.30177478077E+02  0.16802632399E+04  0.16805950790E+04  0.10000000000E+00 0. -1.
         -5    1    3    3    0  501 -0.99658483958E+01 -0.45384631332E+02  0.29061780200E+03  0.29430902081E+03  0.10000000000E+00 0. -1.
         21    1    1    2  504  502 -0.43370966929E+01  0.15207153255E+02  0.97184090377E+02  0.98462253378E+02  0.00000000000E+00 0.  1.
<mgrwt>
<rscale>  1 0.12599255E+03</rscale>
<asrwt>0</asrwt>
<pdfrwt beam="1">  1       21 0.31857036E+00 0.12599255E+03</pdfrwt>
<pdfrwt beam="2">  1       21 0.40778789E-03 0.12599255E+03</pdfrwt>
<totfact> 0.43133476E+05</totfact>
</mgrwt>
</event>
<event>
 6    1  0.4202038E-002  0.1264211E+03  0.7546771E-02  0.1232865E+00
         21   -1    0    0  504  502  0.00000000000E+00  0.00000000000E+00  0.50789751627E+02  0.50789751627E+02  0.00000000000E+00 0. -1.
         21   -1    0    0  502  503 -0.00000000000E+00 -0.00000000000E+00 -0.11108956371E+03  0.11108956371E+03  0.00000000000E+00 0. -1.
         25    2    1    2    0    0 -0.40134541112E+01  0.18434178418E+02 -0.36650036173E+02  0.13162640393E+03  0.12500543313E+03 0.  0.
          5    1    3    3  501    0  0.35985140432E+02 -0.22237071312E+02 -0.57069412005E+02  0.71037634104E+02  0.10000000000E+00 0.  1.
         -5    1    3    3    0  501 -0.39998594543E+02  0.40671249730E+02  0.20419375832E+02  0.60588769829E+02  0.10000000000E+00 0.  1.
         21    1    1    2  504  503  0.40134541112E+01 -0.18434178418E+02 -0.23649775910E+02  0.30252911404E+02  0.00000000000E+00 0. -1.
<mgrwt>
<rscale>  1 0.12642106E+03</rscale>
<asrwt>0</asrwt>
<pdfrwt beam="1">  1       21 0.78138080E-02 0.12642106E+03</pdfrwt>
<pdfrwt beam="2">  1       21 0.17090702E-01 0.12642106E+03</pdfrwt>
<totfact> 0.38113401E+06</totfact>
</mgrwt>
</event>
<event>
 6    1  0.4202038E-002  0.1263164E+03  0.7546771E-02  0.1233026E+00
         21   -1    0    0  504  502  0.00000000000E+00  0.00000000000E+00  0.72384403159E+02  0.72384403159E+02  0.00000000000E+00 0. -1.
         21   -1    0    0  502  503 -0.00000000000E+00 -0.00000000000E+00 -0.20728547521E+03  0.20728547521E+03  0.00000000000E+00 0. -1.
         25    2    1    2    0    0  0.12975964985E+02  0.13075864499E+02  0.16288378277E+02  0.12736228240E+03  0.12496593861E+03 0.  0.
          5    1    3    3  501    0  0.46725788610E+02  0.42022625032E+02  0.42390642711E+02  0.75803541641E+02  0.10000000000E+00 0.  1.
         -5    1    3    3    0  501 -0.33749823625E+02 -0.28946760533E+02 -0.26102264434E+02  0.51558740759E+02  0.10000000000E+00 0.  1.
         21    1    1    2  504  503 -0.12975964985E+02 -0.13075864499E+02 -0.15118945033E+03  0.15230759597E+03  0.00000000000E+00 0. -1.
<mgrwt>
<rscale>  1 0.12631643E+03</rscale>
<asrwt>0</asrwt>
<pdfrwt beam="1">  1       21 0.11136062E-01 0.12631643E+03</pdfrwt>
<pdfrwt beam="2">  1       21 0.31890073E-01 0.12631643E+03</pdfrwt>
<totfact> 0.63769511E+05</totfact>
</mgrwt>
</event>
<event>
 6    1  0.4202038E-002  0.1265995E+03  0.7546771E-02  0.1232590E+00
         21   -1    0    0  503  502  0.00000000000E+00  0.00000000000E+00  0.64605502018E+02  0.64605502018E+02  0.00000000000E+00 0.  1.
         21   -1    0    0  504  503 -0.00000000000E+00 -0.00000000000E+00 -0.10666215997E+03  0.10666215997E+03  0.00000000000E+00 0.  1.
         25    2    1    2    0    0  0.63930200594E+01 -0.18922109352E+02 -0.21224917453E+01  0.12661730299E+03  0.12501407728E+03 0.  0.
          5    1    3    3  501    0 -0.15895598293E+02  0.50762245187E+02  0.29888434332E+01  0.53276812655E+02  0.10000000000E+00 0.  1.
         -5    1    3    3    0  501  0.22288618352E+02 -0.69684354540E+02 -0.51113351785E+01  0.73340490338E+02  0.10000000000E+00 0.  1.
         21    1    1    2  504  502 -0.63930200594E+01  0.18922109352E+02 -0.39934166202E+02  0.44650358992E+02  0.00000000000E+00 0.  1.
<mgrwt>
<rscale>  1 0.12659951E+03</rscale>
<asrwt>0</asrwt>
<pdfrwt beam="1">  1       21 0.99393081E-02 0.12659951E+03</pdfrwt>
<pdfrwt beam="2">  1       21 0.16409563E-01 0.12659951E+03</pdfrwt>
<totfact> 0.27041336E+06</totfact>
</mgrwt>
</event>
<event>
 6    1  0.4202038E-002  0.1332598E+03  0.7546771E-02  0.1222697E+00
         21   -1    0    0  504  502  0.00000000000E+00  0.00000000000E+00  0.51018763512E+03  0.51018763512E+03  0.00000000000E+00 0.  1.
         21   -1    0    0  502  503 -0.00000000000E+00 -0.00000000000E+00 -0.22309941743E+02  0.22309941743E+02  0.00000000000E+00 0.  1.
         25    2    1    2    0    0  0.21988821022E+02 -0.40614102086E+02  0.45917361621E+03  0.47811984627E+03  0.12500065616E+03 0.  0.
          5    1    3    3  501    0  0.45926534019E+02 -0.29838805897E+02  0.44486214788E+03  0.44822086239E+03  0.10000000000E+00 0. -1.
         -5    1    3    3    0  501 -0.23937712997E+02 -0.10775296189E+02  0.14311468327E+02  0.29898983882E+02  0.10000000000E+00 0. -1.
         21    1    1    2  504  503 -0.21988821022E+02  0.40614102086E+02  0.28704077172E+02  0.54377730594E+02  0.00000000000E+00 0.  1.
<mgrwt>
<rscale>  1 0.13325981E+03</rscale>
<asrwt>0</asrwt>
<pdfrwt beam="1">  1       21 0.78490397E-01 0.13325981E+03</pdfrwt>
<pdfrwt beam="2">  1       21 0.34322991E-02 0.13325981E+03</pdfrwt>
<totfact> 0.73132007E+05</totfact>
</mgrwt>
</event>
<event>
 6    1  0.4202038E-002  0.1484531E+03  0.7546771E-02  0.1202387E+00
         21   -1    0    0  503  502  0.00000000000E+00  0.00000000000E+00  0.73413786114E+02  0.73413786114E+02  0.00000000000E+00 0.  1.
         21   -1    0    0  504  503 -0.00000000000E+00 -0.00000000000E+00 -0.24391100153E+03  0.24391100153E+03  0.00000000000E+00 0. -1.
         25    2    1    2    0    0  0.77538419520E+02 -0.20025896671E+02 -0.24018005237E+02  0.15038347444E+03  0.12500032708E+03 0.  0.
          5    1    3    3  501    0  0.16407192184E+02 -0.46160501017E+02 -0.57833864352E+02  0.75794153306E+02  0.10000000000E+00 0. -1.
         -5    1    3    3    0  501  0.61131227335E+02  0.26134604346E+02  0.33815859115E+02  0.74589321136E+02  0.10000000000E+00 0. -1.
         21    1    1    2  504  502 -0.77538419520E+02  0.20025896671E+02 -0.14647921018E+03  0.16694131321E+03  0.00000000000E+00 0. -1.
<mgrwt>
<rscale>  1 0.14845311E+03</rscale>
<asrwt>0</asrwt>
<pdfrwt beam="1">  1       21 0.11294429E-01 0.14845311E+03</pdfrwt>
<pdfrwt beam="2">  1       21 0.37524769E-01 0.14845311E+03</pdfrwt>
<totfact> 0.45108525E+05</totfact>
</mgrwt>
</event>
<event>
 6    1  0.4202038E-002  0.1269031E+03  0.7546771E-02  0.1232125E+00
         21   -1    0    0  503  502  0.00000000000E+00  0.00000000000E+00  0.73706102217E+01  0.73706102217E+01  0.00000000000E+00 0. -1.
         21   -1    0    0  504  503 -0.00000000000E+00 -0.00000000000E+00 -0.76927464858E+03  0.76927464858E+03  0.00000000000E+00 0. -1.
         25    2    1    2    0    0 -0.16252198021E+02  0.14785498050E+02 -0.68537805752E+03  0.69702760601E+03  0.12498662694E+03 0.  0.
          5    1    3    3  501    0 -0.58422735845E+02 -0.10839443629E+01 -0.17156673662E+03  0.18124443747E+03  0.10000000000E+00 0. -1.
         -5    1    3    3    0  501  0.42170537824E+02  0.15869442413E+02 -0.51381132091E+03  0.51578316855E+03  0.10000000000E+00 0. -1.
         21    1    1    2  504  502  0.16252198021E+02 -0.14785498050E+02 -0.76525980837E+02  0.79617652792E+02  0.00000000000E+00 0. -1.
<mgrwt>
<rscale>  1 0.12690312E+03</rscale>
<asrwt>0</asrwt>
<pdfrwt beam="1">  1       21 0.11339408E-02 0.12690312E+03</pdfrwt>
<pdfrwt beam="2">  1       21 0.11834986E+00 0.12690312E+03</pdfrwt>
<totfact> 0.16831272E+06</totfact>
</mgrwt>
</event>
<event>
 6    1  0.4202038E-002  0.1776910E+03  0.7546771E-02  0.1170057E+00
         21   -1    0    0  503  502  0.00000000000E+00  0.00000000000E+00  0.28684555117E+03  0.28684555117E+03  0.00000000000E+00 0. -1.
         21   -1    0    0  504  503 -0.00000000000E+00 -0.00000000000E+00 -0.82252246712E+02  0.82252246712E+02  0.00000000000E+00 0. -1.
         25    2    1    2    0    0  0.83138651282E+02  0.95053258607E+02  0.92913340097E+02  0.20051674394E+03  0.12500767386E+03 0.  0.
          5    1    3    3  501    0  0.75395626756E+02  0.12244074637E+03  0.94410438520E+02  0.17201621379E+03  0.10000000000E+00 0. -1.
         -5    1    3    3    0  501  0.77430245256E+01 -0.27387487766E+02 -0.14970984229E+01  0.28500530146E+02  0.10000000000E+00 0. -1.
         21    1    1    2  504  502 -0.83138651282E+02 -0.95053258607E+02  0.11167996436E+03  0.16858105395E+03  0.00000000000E+00 0. -1.
<mgrwt>
<rscale>  1 0.17769096E+03</rscale>
<asrwt>0</asrwt>
<pdfrwt beam="1">  1       21 0.44130084E-01 0.17769096E+03</pdfrwt>
<pdfrwt beam="2">  1       21 0.12654192E-01 0.17769096E+03</pdfrwt>
<totfact> 0.26414942E+05</totfact>
</mgrwt>
</event>
<event>
 6    1  0.4202038E-002  0.1265880E+03  0.7546771E-02  0.1232608E+00
         21   -1    0    0  503  502  0.00000000000E+00  0.00000000000E+00  0.12870550266E+04  0.12870550266E+04  0.00000000000E+00 0. -1.
         21   -1    0    0  504  503 -0.00000000000E+00 -0.00000000000E+00 -0.15606162113E+02  0.15606162113E+02  0.00000000000E+00 0. -1.
         25    2    1    2    0    0 -0.16357473688E+02  0.11504801024E+02  0.12759076802E+04  0.12821719616E+04  0.12499841311E+03 0.  0.
          5    1    3    3  501    0  0.36351723832E+02  0.50539028221E+00  0.12966319195E+03  0.13466349391E+03  0.10000000000E+00 0.  1.
         -5    1    3    3    0  501 -0.52709197520E+02  0.10999410742E+02  0.11462444882E+04  0.11475084677E+04  0.10000000000E+00 0.  1.
         21    1    1    2  504  502  0.16357473688E+02 -0.11504801024E+02 -0.44588156894E+01  0.20489227155E+02  0.00000000000E+00 0. -1.
<mgrwt>
<rscale>  1 0.12658804E+03</rscale>
<asrwt>0</asrwt>
<pdfrwt beam="1">  1       21 0.19800838E+00 0.12658804E+03</pdfrwt>
<pdfrwt beam="2">  1       21 0.24009490E-02 0.12658804E+03</pdfrwt>
<totfact> 0.13119979E+05</totfact>
</mgrwt>
</event>
<event>
 6    1  0.4202038E-002  0.1307684E+03  0.7546771E-02  0.1226320E+00
         21   -1    0    0  504  502  0.00000000000E+00  0.00000000000E+00  0.16004734891E+03  0.16004734891E+03  0.00000000000E+00 0. -1.
         21   -1    0    0  502  503 -0.00000000000E+00 -0.00000000000E+00 -0.66943968773E+02  0.66943968773E+02  0.00000000000E+00 0. -1.
         25    2    1    2    0    0 -0.33063210930E+02  0.19587803836E+02  0.12205268515E+03  0.17887769968E+03  0.12499406192E+03 0.  0.
          5    1    3    3  501    0  0.25113465124E+01 -0.32321651672E+02 -0.88746809360E+01  0.33611991756E+02  0.10000000000E+00 0. -1.
         -5    1    3    3    0  501 -0.35574557442E+02  0.51909455508E+02  0.13092736608E+03  0.14526570792E+03  0.10000000000E+00 0. -1.
         21    1    1    2  504  503  0.33063210930E+02 -0.19587803836E+02 -0.28949305017E+02  0.48113618000E+02  0.00000000000E+00 0. -1.
<mgrwt>
<rscale>  1 0.13076840E+03</rscale>
<asrwt>0</asrwt>
<pdfrwt beam="1">  1       21 0.24622669E-01 0.13076840E+03</pdfrwt>
<pdfrwt beam="2">  1       21 0.10299072E-01 0.13076840E+03</pdfrwt>
<totfact> 0.12003492E+06</totfact>
</mgrwt>
</event>
<event>
 6    1  0.4202038E-002  0.1275129E+03  0.7546771E-02  0.1231194E+00
         21   -1    0    0  503  502  0.00000000000E+00  0.00000000000E+00  0.43993269638E+02  0.43993269638E+02  0.00000000000E+00 0.  1.
         21   -1    0    0  504  503 -0.00000000000E+00 -0.00000000000E+00 -0.12907898617E+04  0.12907898617E+04  0.00000000000E+00 0. -1.
         25    2    1    2    0    0 -0.54374005743E+01 -0.24594260314E+02 -0.48815840497E+02  0.13653761222E+03  0.12500036121E+03 0.  0.
          5    1    3    3  501    0  0.19844391717E+02 -0.71481152049E+02 -0.30466002217E+02  0.80196896898E+02  0.10000000000E+00 0. -1.
         -5    1    3    3    0  501 -0.25281792291E+02  0.46886891736E+02 -0.18349838280E+02  0.56340715322E+02  0.10000000000E+00 0. -1.
         21    1    1    2  504  502  0.54374005743E+01  0.24594260314E+02 -0.11979807515E+04  0.11982455191E+04  0.00000000000E+00 0. -1.
<mgrwt>
<rscale>  1 0.12751287E+03</rscale>
<asrwt>0</asrwt>
<pdfrwt beam="1">  1       21 0.67681959E-02 0.12751287E+03</pdfrwt>
<pdfrwt beam="2">  1       21 0.19858304E+00 0.12751287E+03</pdfrwt>
<totfact> 0.23207958E+04</totfact>
</mgrwt>
</event>
<event>
 6    1  0.4202038E-002  0.1262723E+03  0.7546771E-02  0.1233094E+00
         21   -1    0    0  503  502  0.00000000000E+00  0.00000000000E+00  0.11691590950E+03  0.11691590950E+03  0.00000000000E+00 0.  1.
         21   -1    0    0  504  503 -0.00000000000E+00 -0.00000000000E+00 -0.12469985694E+03  0.12469985694E+03  0.00000000000E+00 0.  1.
         25    2    1    2    0    0 -0.17475240742E+02 -0.38545364669E+01  0.81675012741E+02  0.15038448317E+03  0.12499777431E+03 0.  0.
          5    1    3    3  501    0 -0.50455357112E+02 -0.40940050054E+02  0.14007699706E+02  0.66468461775E+02  0.10000000000E+00 0.  1.
         -5    1    3    3    0  501  0.32980116369E+02  0.37085513587E+02  0.67667313034E+02  0.83916021397E+02  0.10000000000E+00 0.  1.
         21    1    1    2  504  502  0.17475240742E+02  0.38545364669E+01 -0.89458960180E+02  0.91231283269E+02  0.00000000000E+00 0.  1.
<mgrwt>
<rscale>  1 0.12627227E+03</rscale>
<asrwt>0</asrwt>
<pdfrwt beam="1">  1       21 0.17987063E-01 0.12627227E+03</pdfrwt>
<pdfrwt beam="2">  1       21 0.19184593E-01 0.12627227E+03</pdfrwt>
<totfact> 0.70441189E+05</totfact>
</mgrwt>
</event>
<event>
 6    1  0.4202038E-002  0.1727814E+03  0.7546771E-02  0.1174978E+00
         21   -1    0    0  504  502  0.00000000000E+00  0.00000000000E+00  0.52288477981E+03  0.52288477981E+03  0.00000000000E+00 0.  1.
         21   -1    0    0  502  503 -0.00000000000E+00 -0.00000000000E+00 -0.53353440339E+02  0.53353440339E+02  0.00000000000E+00 0.  1.
         25    2    1    2    0    0  0.50559322013E+02 -0.10802069796E+03  0.12958288658E+03  0.21597489028E+03  0.12501484913E+03 0.  0.
          5    1    3    3  501    0  0.55831173674E+02 -0.13393851899E+03  0.99647874190E+02  0.17602941702E+03  0.10000000000E+00 0.  1.
         -5    1    3    3    0  501 -0.52718516611E+01  0.25917821032E+02  0.29935012395E+02  0.39945473261E+02  0.10000000000E+00 0.  1.
         21    1    1    2  504  503 -0.50559322013E+02  0.10802069796E+03  0.33994845288E+03  0.36026332987E+03  0.00000000000E+00 0.  1.
<mgrwt>
<rscale>  1 0.17278145E+03</rscale>
<asrwt>0</asrwt>
<pdfrwt beam="1">  1       21 0.80443809E-01 0.17278145E+03</pdfrwt>
<pdfrwt beam="2">  1       21 0.82082219E-02 0.17278145E+03</pdfrwt>
<totfact> 0.15692071E+05</totfact>
</mgrwt>
</event>
<event>
 6    1  0.4202038E-002  0.1267650E+03  0.7546771E-02  0.1232336E+00
         21   -1    0    0  504  502  0.00000000000E+00  0.00000000000E+00  0.65227802100E+02  0.65227802100E+02  0.00000000000E+00 0.  1.
         21   -1    0    0  502  503 -0.00000000000E+00 -0.00000000000E+00 -0.83931549498E+02  0.83931549498E+02  0.00000000000E+00 0.  1.
         25    2    1    2    0    0 -0.16216073842E+02 -0.13487733553E+02 -0.13880167552E+02  0.12752264830E+03  0.12499794706E+03 0.  0.
          5    1    3    3  501    0  0.48180388139E+02 -0.28254011341E+02 -0.23802022874E+02  0.60713962570E+02  0.10000000000E+00 0.  1.
         -5    1    3    3    0  501 -0.64396461981E+02  0.14766277788E+02  0.99218553220E+01  0.66808685726E+02  0.10000000000E+00 0.  1.
         21    1    1    2  504  503  0.16216073842E+02  0.13487733553E+02 -0.48235798465E+01  0.21636703302E+02  0.00000000000E+00 0.  1.
<mgrwt>
<rscale>  1 0.12676501E+03</rscale>
<asrwt>0</asrwt>
<pdfrwt beam="1">  1       21 0.10035046E-01 0.12676501E+03</pdfrwt>
<pdfrwt beam="2">  1       21 0.12912546E-01 0.12676501E+03</pdfrwt>
<totfact> 0.40916009E+06</totfact>
</mgrwt>
</event>
<event>
 6    1  0.4202038E-002  0.1333175E+03  0.7546771E-02  0.1222615E+00
         21   -1    0    0  503  502  0.00000000000E+00  0.00000000000E+00  0.29774673283E+03  0.29774673283E+03  0.00000000000E+00 0.  1.
         21   -1    0    0  504  503 -0.00000000000E+00 -0.00000000000E+00 -0.27183526694E+02  0.27183526694E+02  0.00000000000E+00 0.  1.
         25    2    1    2    0    0  0.27586950403E+02 -0.37268309604E+02  0.20799928264E+03  0.24705721376E+03  0.12499439411E+03 0.  0.
          5    1    3    3  501    0 -0.55018168127E+01 -0.27269135505E+02  0.21056564376E+03  0.21239532968E+03  0.10000000000E+00 0.  1.
         -5    1    3    3    0  501  0.33088767216E+02 -0.99991740984E+01 -0.25663611182E+01  0.34661884079E+02  0.10000000000E+00 0.  1.
         21    1    1    2  504  502 -0.27586950403E+02  0.37268309604E+02  0.62563923497E+02  0.77873045764E+02  0.00000000000E+00 0.  1.
<mgrwt>
<rscale>  1 0.13331754E+03</rscale>
<asrwt>0</asrwt>
<pdfrwt beam="1">  1       21 0.45807188E-01 0.13331754E+03</pdfrwt>
<pdfrwt beam="2">  1       21 0.41820812E-02 0.13331754E+03</pdfrwt>
<totfact> 0.16577061E+06</totfact>
</mgrwt>
</event>
<event>
 6    1  0.4202038E-002  0.1265382E+03  0.7546771E-02  0.1232685E+00
         21   -1    0    0  503  502  0.00000000000E+00  0.00000000000E+00  0.26668979710E+03  0.26668979710E+03  0.00000000000E+00 0. -1.
         21   -1    0    0  504  503 -0.00000000000E+00 -0.00000000000E+00 -0.19972351153E+02  0.19972351153E+02  0.00000000000E+00 0. -1.
         25    2    1    2    0    0 -0.19204396752E+02 -0.29079817790E+01  0.21324459565E+03  0.24796205885E+03  0.12503863341E+03 0.  0.
          5    1    3    3  501    0 -0.62457902711E+02  0.32521432395E+02  0.12589901716E+03  0.14425396250E+03  0.10000000000E+00 0. -1.
         -5    1    3    3    0  501  0.43253505960E+02 -0.35429414174E+02  0.87345578490E+02  0.10370809635E+03  0.10000000000E+00 0. -1.
         21    1    1    2  504  502  0.19204396752E+02  0.29079817790E+01  0.33472850296E+02  0.38700089400E+02  0.00000000000E+00 0.  1.
<mgrwt>
<rscale>  1 0.12653824E+03</rscale>
<asrwt>0</asrwt>
<pdfrwt beam="1">  1       21 0.41029197E-01 0.12653824E+03</pdfrwt>
<pdfrwt beam="2">  1       21 0.30726696E-02 0.12653824E+03</pdfrwt>
<totfact> 0.34428022E+06</totfact>
</mgrwt>
</event>
<event>
 6    1  0.4202038E-002  0.1304192E+03  0.7546771E-02  0.1226835E+00
         21   -1    0    0  503  502  0.00000000000E+00  0.00000000000E+00  0.20741138909E+03  0.20741138909E+03  0.00000000000E+00 0. -1.
         21   -1    0    0  504  503 -0.00000000000E+00 -0.00000000000E+00 -0.46110889082E+02  0.46110889082E+02  0.00000000000E+00 0. -1.
         25    2    1    2    0    0  0.36861318959E+02  0.47870396588E+01  0.56145872819E+02  0.14199125915E+03  0.12500994383E+03 0.  0.
          5    1    3    3  501    0  0.63990609072E+02  0.18905282546E+02  0.79295931660E+02  0.10363427298E+03  0.10000000000E+00 0. -1.
         -5    1    3    3    0  501 -0.27129290113E+02 -0.14118242887E+02 -0.23150058841E+02  0.38356986177E+02  0.10000000000E+00 0. -1.
         21    1    1    2  504  502 -0.36861318959E+02 -0.47870396588E+01  0.10515462719E+03  0.11153101902E+03  0.00000000000E+00 0. -1.
<mgrwt>
<rscale>  1 0.13041917E+03</rscale>
<asrwt>0</asrwt>
<pdfrwt beam="1">  1       21 0.31909444E-01 0.13041917E+03</pdfrwt>
<pdfrwt beam="2">  1       21 0.70939831E-02 0.13041917E+03</pdfrwt>
<totfact> 0.13937140E+06</totfact>
</mgrwt>
</event>
<event>
 6    1  0.4202038E-002  0.1605890E+03  0.7546771E-02  0.1188033E+00
         21   -1    0    0  504  502  0.00000000000E+00  0.00000000000E+00  0.21313162390E+03  0.21313162390E+03  0.00000000000E+00 0.  1.
         21   -1    0    0  502  503 -0.00000000000E+00 -0.00000000000E+00 -0.90259291956E+02  0.90259291956E+02  0.00000000000E+00 0.  1.
         25    2    1    2    0    0  0.35791170245E+02 -0.94247884737E+02  0.12348049331E+03  0.20257404472E+03  0.12500055888E+03 0.  0.
          5    1    3    3  501    0  0.18458745814E+02 -0.90891496979E+02  0.14660583968E+03  0.17347988860E+03  0.10000000000E+00 0.  1.
         -5    1    3    3    0  501  0.17332424432E+02 -0.33563877577E+01 -0.23125346372E+02  0.29094156119E+02  0.10000000000E+00 0.  1.
         21    1    1    2  504  503 -0.35791170245E+02  0.94247884737E+02 -0.60816136814E+00  0.10081687113E+03  0.00000000000E+00 0.  1.
<mgrwt>
<rscale>  1 0.16058895E+03</rscale>
<asrwt>0</asrwt>
<pdfrwt beam="1">  1       21 0.32789481E-01 0.16058895E+03</pdfrwt>
<pdfrwt beam="2">  1       21 0.13886045E-01 0.16058895E+03</pdfrwt>
<totfact> 0.40657039E+05</totfact>
</mgrwt>
</event>
<event>
 6    1  0.4202038E-002  0.1402170E+03  0.7546771E-02  0.1213037E+00
         21   -1    0    0  503  502  0.00000000000E+00  0.00000000000E+00  0.33960401108E+03  0.33960401108E+03  0.00000000000E+00 0.  1.
         21   -1    0    0  504  503 -0.00000000000E+00 -0.00000000000E+00 -0.11801704710E+03  0.11801704710E+03  0.00000000000E+00 0.  1.
         25    2    1    2    0    0 -0.58044153992E+01  0.63262177147E+02  0.31491654904E+03  0.34472196277E+03  0.12500001786E+03 0.  0.
          5    1    3    3  501    0  0.35488546732E+02 -0.19926109464E+01  0.21762498443E+03  0.22050861955E+03  0.10000000000E+00 0. -1.
         -5    1    3    3    0  501 -0.41292962131E+02  0.65254788094E+02  0.97291564609E+02  0.12421334322E+03  0.10000000000E+00 0. -1.
         21    1    1    2  504  502  0.58044153992E+01 -0.63262177147E+02 -0.93329585061E+02  0.11289909540E+03  0.00000000000E+00 0.  1.
<mgrwt>
<rscale>  1 0.14021697E+03</rscale>
<asrwt>0</asrwt>
<pdfrwt beam="1">  1       21 0.52246770E-01 0.14021697E+03</pdfrwt>
<pdfrwt beam="2">  1       21 0.18156469E-01 0.14021697E+03</pdfrwt>
<totfact> 0.98016128E+04</totfact>
</mgrwt>
</event>
<event>
 6    1  0.4202038E-002  0.1315110E+03  0.7546771E-02  0.1225231E+00
         21   -1    0    0  503  502  0.00000000000E+00  0.00000000000E+00  0.16453925345E+03  0.16453925345E+03  0.00000000000E+00 0. -1.
         21   -1    0    0  504  503 -0.00000000000E+00 -0.00000000000E+00 -0.83592894182E+02  0.83592894182E+02  0.00000000000E+00 0.  1.
         25    2    1    2    0    0  0.39333480474E+02 -0.11067327655E+02  0.12957147243E+03  0.18461829042E+03  0.12500215303E+03 0.  0.
          5    1    3    3  501    0  0.73042843614E+02  0.21038341770E+02  0.11092576920E+03  0.13447083364E+03  0.10000000000E+00 0.  1.
         -5    1    3    3    0  501 -0.33709363140E+02 -0.32105669425E+02  0.18645703230E+02  0.50147456780E+02  0.10000000000E+00 0.  1.
         21    1    1    2  504  502 -0.39333480474E+02  0.11067327655E+02 -0.48625113162E+02  0.63513857210E+02  0.00000000000E+00 0.  1.
<mgrwt>
<rscale>  1 0.13151101E+03</rscale>
<asrwt>0</asrwt>
<pdfrwt beam="1">  1       21 0.25313731E-01 0.13151101E+03</pdfrwt>
<pdfrwt beam="2">  1       21 0.12860445E-01 0.13151101E+03</pdfrwt>
<totfact> 0.76940261E+05</totfact>
</mgrwt>
</event>
<event>
 6    1  0.4202038E-002  0.1454039E+03  0.7546771E-02  0.1206237E+00
         21   -1    0    0  504  502  0.00000000000E+00  0.00000000000E+00  0.10398348901E+04  0.10398348901E+04  0.00000000000E+00 0. -1.
         21   -1    0    0  502  503 -0.00000000000E+00 -0.00000000000E+00 -0.52050503145E+02  0.52050503145E+02  0.00000000000E+00 0. -1.
         25    2    1    2    0    0  0.61515810460E+02  0.41634182897E+02  0.10051412991E+04  0.10156039242E+04  0.12499879802E+03 0.  0.
          5    1    3    3  501    0  0.38388483768E+02  0.86587816888E+02  0.63432122793E+03  0.64135369019E+03  0.10000000000E+00 0.  1.
         -5    1    3    3    0  501  0.23127326692E+02 -0.44953633990E+02  0.37082007117E+03  0.37425023398E+03  0.10000000000E+00 0.  1.
         21    1    1    2  504  503 -0.61515810460E+02 -0.41634182897E+02 -0.17356912163E+02  0.76281469060E+02  0.00000000000E+00 0. -1.
<mgrwt>
<rscale>  1 0.14540392E+03</rscale>
<asrwt>0</asrwt>
<pdfrwt beam="1">  1       21 0.15997458E+00 0.14540392E+03</pdfrwt>
<pdfrwt beam="2">  1       21 0.80077704E-02 0.14540392E+03</pdfrwt>
<totfact> 0.31142800E+04</totfact>
</mgrwt>
</event>
<event>
 6    1  0.4202038E-002  0.1266400E+03  0.7546771E-02  0.1232528E+00
         21   -1    0    0  504  502  0.00000000000E+00  0.00000000000E+00  0.22743072255E+02  0.22743072255E+02  0.00000000000E+00 0. -1.
         21   -1    0    0  502  503 -0.00000000000E+00 -0.00000000000E+00 -0.10447380295E+04  0.10447380295E+04  0.00000000000E+00 0. -1.
         25    2    1    2    0    0  0.12811342214E+01  0.20294031217E+02 -0.15459661406E+03  0.19984444119E+03  0.12499679430E+03 0.  0.
          5    1    3    3  501    0  0.31206060983E+02  0.40233935603E+02 -0.15575446254E+03  0.16386595259E+03  0.10000000000E+00 0. -1.
         -5    1    3    3    0  501 -0.29924926761E+02 -0.19939904385E+02  0.11578484797E+01  0.35978488596E+02  0.10000000000E+00 0. -1.
         21    1    1    2  504  503 -0.12811342214E+01 -0.20294031217E+02 -0.86739834323E+03  0.86763666061E+03  0.00000000000E+00 0. -1.
<mgrwt>
<rscale>  1 0.12663999E+03</rscale>
<asrwt>0</asrwt>
<pdfrwt beam="1">  1       21 0.34989352E-02 0.12663999E+03</pdfrwt>
<pdfrwt beam="2">  1       21 0.16072888E+00 0.12663999E+03</pdfrwt>
<totfact> 0.12586781E+05</totfact>
</mgrwt>
</event>
<event>
 6    1  0.4202038E-002  0.1326796E+03  0.7546771E-02  0.1223533E+00
         21   -1    0    0  504  502  0.00000000000E+00  0.00000000000E+00  0.71802706858E+02  0.71802706858E+02  0.00000000000E+00 0. -1.
         21   -1    0    0  502  503 -0.00000000000E+00 -0.00000000000E+00 -0.14453783863E+03  0.14453783863E+03  0.00000000000E+00 0. -1.
         25    2    1    2    0    0  0.43867335507E+02  0.73442190773E+01 -0.18929120045E+01  0.13269306627E+03  0.12500234414E+03 0.  0.
          5    1    3    3  501    0  0.58938661726E+02  0.54053351936E+02  0.13822557659E+02  0.81157894267E+02  0.10000000000E+00 0.  1.
         -5    1    3    3    0  501 -0.15071326219E+02 -0.46709132859E+02 -0.15715469664E+02  0.51535172001E+02  0.10000000000E+00 0.  1.
         21    1    1    2  504  503 -0.43867335507E+02 -0.73442190773E+01 -0.70842219765E+02  0.83647479218E+02  0.00000000000E+00 0. -1.
<mgrwt>
<rscale>  1 0.13267956E+03</rscale>
<asrwt>0</asrwt>
<pdfrwt beam="1">  1       21 0.11046570E-01 0.13267956E+03</pdfrwt>
<pdfrwt beam="2">  1       21 0.22236590E-01 0.13267956E+03</pdfrwt>
<totfact> 0.12854488E+06</totfact>
</mgrwt>
</event>
<event>
 6    1  0.4202038E-002  0.1264153E+03  0.7546771E-02  0.1232874E+00
         21   -1    0    0  503  502  0.00000000000E+00  0.00000000000E+00  0.26904558149E+03  0.26904558149E+03  0.00000000000E+00 0.  1.
         21   -1    0    0  504  503 -0.00000000000E+00 -0.00000000000E+00 -0.27750165955E+02  0.27750165955E+02  0.00000000000E+00 0.  1.
         25    2    1    2    0    0 -0.17045740352E+01 -0.18743567920E+02  0.24670930101E+03  0.27721164504E+03  0.12500635997E+03 0.  0.
          5    1    3    3  501    0  0.45697155316E+02 -0.24429893154E+01  0.21039304150E+03  0.21531242443E+03  0.10000000000E+00 0.  1.
         -5    1    3    3    0  501 -0.47401729352E+02 -0.16300578605E+02  0.36316259506E+02  0.61899220616E+02  0.10000000000E+00 0.  1.
         21    1    1    2  504  502  0.17045740352E+01  0.18743567920E+02 -0.54138854702E+01  0.19584102402E+02  0.00000000000E+00 0.  1.
<mgrwt>
<rscale>  1 0.12641526E+03</rscale>
<asrwt>0</asrwt>
<pdfrwt beam="1">  1       21 0.41391626E-01 0.12641526E+03</pdfrwt>
<pdfrwt beam="2">  1       21 0.42692565E-02 0.12641526E+03</pdfrwt>
<totfact> 0.19639733E+06</totfact>
</mgrwt>
</event>
<event>
 6    1  0.4202038E-002  0.1421345E+03  0.7546771E-02  0.1210485E+00
         21   -1    0    0  503  502  0.00000000000E+00  0.00000000000E+00  0.21477491539E+03  0.21477491539E+03  0.00000000000E+00 0. -1.
         21   -1    0    0  504  503 -0.00000000000E+00 -0.00000000000E+00 -0.94517873882E+02  0.94517873882E+02  0.00000000000E+00 0. -1.
         25    2    1    2    0    0  0.53656936112E+02 -0.41203404982E+02  0.17271898573E+03  0.22368295942E+03  0.12500172371E+03 0.  0.
          5    1    3    3  501    0  0.22212886332E+02  0.35433538627E+02  0.11594764490E+03  0.12325913490E+03  0.10000000000E+00 0.  1.
         -5    1    3    3    0  501  0.31444049780E+02 -0.76636943608E+02  0.56771340827E+02  0.10042382452E+03  0.10000000000E+00 0.  1.
         21    1    1    2  504  502 -0.53656936112E+02  0.41203404982E+02 -0.52461944221E+02  0.85609829847E+02  0.00000000000E+00 0. -1.
<mgrwt>
<rscale>  1 0.14213451E+03</rscale>
<asrwt>0</asrwt>
<pdfrwt beam="1">  1       21 0.33042295E-01 0.14213451E+03</pdfrwt>
<pdfrwt beam="2">  1       21 0.14541211E-01 0.14213451E+03</pdfrwt>
<totfact> 0.36945415E+05</totfact>
</mgrwt>
</event>
<event>
 6    1  0.4202038E-002  0.1317736E+03  0.7546771E-02  0.1224848E+00
         21   -1    0    0  503  502  0.00000000000E+00  0.00000000000E+00  0.26858204807E+02  0.26858204807E+02  0.00000000000E+00 0.  1.
         21   -1    0    0  504  503 -0.00000000000E+00 -0.00000000000E+00 -0.29800357637E+03  0.29800357637E+03  0.00000000000E+00 0.  1.
         25    2    1    2    0    0 -0.39574047784E+02 -0.13102968102E+02 -0.16731534610E+03  0.21297582487E+03  0.12500593549E+03 0.  0.
          5    1    3    3  501    0 -0.63717719515E+02  0.38410443089E+02 -0.10376187081E+03  0.12767868166E+03  0.10000000000E+00 0. -1.
         -5    1    3    3    0  501  0.24143671730E+02 -0.51513411191E+02 -0.63553475298E+02  0.85297143209E+02  0.10000000000E+00 0. -1.
         21    1    1    2  504  502  0.39574047784E+02  0.13102968102E+02 -0.10383002546E+03  0.11188595630E+03  0.00000000000E+00 0.  1.
<mgrwt>
<rscale>  1 0.13177358E+03</rscale>
<asrwt>0</asrwt>
<pdfrwt beam="1">  1       21 0.41320313E-02 0.13177358E+03</pdfrwt>
<pdfrwt beam="2">  1       21 0.45846707E-01 0.13177358E+03</pdfrwt>
<totfact> 0.16879491E+06</totfact>
</mgrwt>
</event>
<event>
 6    1  0.4202038E-002  0.1272783E+03  0.7546771E-02  0.1231551E+00
         21   -1    0    0  503  502  0.00000000000E+00  0.00000000000E+00  0.80392781751E+02  0.80392781751E+02  0.00000000000E+00 0. -1.
         21   -1    0    0  504  503 -0.00000000000E+00 -0.00000000000E+00 -0.29929273179E+03  0.29929273179E+03  0.00000000000E+00 0.  1.
         25    2    1    2    0    0 -0.16486386000E+02 -0.17420382601E+02  0.29071976427E+02  0.13055633627E+03  0.12499802588E+03 0.  0.
          5    1    3    3  501    0 -0.61701216852E+02  0.23518223678E+02  0.19213430018E+02  0.68769999993E+02  0.10000000000E+00 0. -1.
         -5    1    3    3    0  501  0.45214830852E+02 -0.40938606279E+02  0.98585464096E+01  0.61786336276E+02  0.10000000000E+00 0. -1.
         21    1    1    2  504  502  0.16486386000E+02  0.17420382601E+02 -0.24797192647E+03  0.24912917728E+03  0.00000000000E+00 0.  1.
<mgrwt>
<rscale>  1 0.12727835E+03</rscale>
<asrwt>0</asrwt>
<pdfrwt beam="1">  1       21 0.12368120E-01 0.12727835E+03</pdfrwt>
<pdfrwt beam="2">  1       21 0.46045036E-01 0.12727835E+03</pdfrwt>
<totfact> 0.25522761E+05</totfact>
</mgrwt>
</event>
<event>
 6    1  0.4202038E-002  0.1400612E+03  0.7546771E-02  0.1213247E+00
         21   -1    0    0  504  502  0.00000000000E+00  0.00000000000E+00  0.60226435450E+03  0.60226435450E+03  0.00000000000E+00 0. -1.
         21   -1    0    0  502  503 -0.00000000000E+00 -0.00000000000E+00 -0.26135742092E+02  0.26135742092E+02  0.00000000000E+00 0. -1.
         25    2    1    2    0    0 -0.23325201028E+02 -0.58738108295E+02  0.53491920013E+03  0.55295179622E+03  0.12499163132E+03 0.  0.
          5    1    3    3  501    0  0.51490519795E+02 -0.21586349273E+02  0.18783363727E+03  0.19595593737E+03  0.10000000000E+00 0. -1.
         -5    1    3    3    0  501 -0.74815720822E+02 -0.37151759022E+02  0.34708556287E+03  0.35699585885E+03  0.10000000000E+00 0. -1.
         21    1    1    2  504  503  0.23325201028E+02  0.58738108295E+02  0.41209412272E+02  0.75448300371E+02  0.00000000000E+00 0. -1.
<mgrwt>
<rscale>  1 0.14006119E+03</rscale>
<asrwt>0</asrwt>
<pdfrwt beam="1">  1       21 0.92656044E-01 0.14006119E+03</pdfrwt>
<pdfrwt beam="2">  1       21 0.40208839E-02 0.14006119E+03</pdfrwt>
<totfact> 0.38590628E+05</totfact>
</mgrwt>
</event>
<event>
 6    1  0.4202038E-002  0.1261903E+03  0.7546771E-02  0.1233221E+00
         21   -1    0    0  503  502  0.00000000000E+00  0.00000000000E+00  0.38715878514E+03  0.38715878514E+03  0.00000000000E+00 0. -1.
         21   -1    0    0  504  503 -0.00000000000E+00 -0.00000000000E+00 -0.19493731922E+02  0.19493731922E+02  0.00000000000E+00 0. -1.
         25    2    1    2    0    0  0.17226476224E+02 -0.11423823371E+01  0.36835895304E+03  0.38937426433E+03  0.12500377163E+03 0.  0.
          5    1    3    3  501    0  0.10517950390E+01  0.48924305274E+01  0.37174713322E+03  0.37178082684E+03  0.10000000000E+00 0.  1.
         -5    1    3    3    0  501  0.16174681185E+02 -0.60348128645E+01 -0.33881801849E+01  0.17593437490E+02  0.10000000000E+00 0.  1.
         21    1    1    2  504  502 -0.17226476224E+02  0.11423823371E+01 -0.69389981632E+00  0.17278252732E+02  0.00000000000E+00 0. -1.
<mgrwt>
<rscale>  1 0.12619033E+03</rscale>
<asrwt>0</asrwt>
<pdfrwt beam="1">  1       21 0.59562884E-01 0.12619033E+03</pdfrwt>
<pdfrwt beam="2">  1       21 0.29990360E-02 0.12619033E+03</pdfrwt>
<totfact> 0.16623732E+06</totfact>
</mgrwt>
</event>
<event>
 6    1  0.4202038E-002  0.1260604E+03  0.7546771E-02  0.1233421E+00
         21   -1    0    0  504  502  0.00000000000E+00  0.00000000000E+00  0.11402384009E+03  0.11402384009E+03  0.00000000000E+00 0.  1.
         21   -1    0    0  502  503 -0.00000000000E+00 -0.00000000000E+00 -0.44665265999E+02  0.44665265999E+02  0.00000000000E+00 0.  1.
         25    2    1    2    0    0 -0.10110985340E+02 -0.12900975083E+02  0.64440409722E+02  0.14157608405E+03  0.12499021556E+03 0.  0.
          5    1    3    3  501    0 -0.51021205070E+02  0.15215846325E+02 -0.79172881662E+01  0.53827305321E+02  0.10000000000E+00 0.  1.
         -5    1    3    3    0  501  0.40910219730E+02 -0.28116821408E+02  0.72357697888E+02  0.87748778727E+02  0.10000000000E+00 0.  1.
         21    1    1    2  504  503  0.10110985340E+02  0.12900975083E+02  0.49181643710E+01  0.17113022043E+02  0.00000000000E+00 0. -1.
<mgrwt>
<rscale>  1 0.12606039E+03</rscale>
<asrwt>0</asrwt>
<pdfrwt beam="1">  1       21 0.17542129E-01 0.12606039E+03</pdfrwt>
<pdfrwt beam="2">  1       21 0.68715794E-02 0.12606039E+03</pdfrwt>
<totfact> 0.45294140E+06</totfact>
</mgrwt>
</event>
<event>
 6    1  0.4202038E-002  0.1456010E+03  0.7546771E-02  0.1205985E+00
         21   -1    0    0  504  502  0.00000000000E+00  0.00000000000E+00  0.25798294266E+03  0.25798294266E+03  0.00000000000E+00 0. -1.
         21   -1    0    0  502  503 -0.00000000000E+00 -0.00000000000E+00 -0.16093178590E+03  0.16093178590E+03  0.00000000000E+00 0. -1.
         25    2    1    2    0    0  0.46442752147E+02  0.58440959273E+02  0.22663064563E+03  0.26937169500E+03  0.12500954197E+03 0.  0.
          5    1    3    3  501    0  0.56869261136E+02 -0.83793973018E+01  0.17525509723E+03  0.18444155244E+03  0.10000000000E+00 0. -1.
         -5    1    3    3    0  501 -0.10426508989E+02  0.66820356575E+02  0.51375548399E+02  0.84930142563E+02  0.10000000000E+00 0. -1.
         21    1    1    2  504  503 -0.46442752147E+02 -0.58440959273E+02 -0.12957948887E+03  0.14954303355E+03  0.00000000000E+00 0. -1.
<mgrwt>
<rscale>  1 0.14560103E+03</rscale>
<asrwt>0</asrwt>
<pdfrwt beam="1">  1       21 0.39689684E-01 0.14560103E+03</pdfrwt>
<pdfrwt beam="2">  1       21 0.24758736E-01 0.14560103E+03</pdfrwt>
<totfact> 0.96159403E+04</totfact>
</mgrwt>
</event>
<event>
 6    1  0.4202038E-002  0.1262140E+03  0.7546771E-02  0.1233184E+00
         21   -1    0    0  504  502  0.00000000000E+00  0.00000000000E+00  0.12317295114E+03  0.12317295114E+03  0.00000000000E+00 0.  1.
         21   -1    0    0  502  503 -0.00000000000E+00 -0.00000000000E+00 -0.48388652126E+03  0.48388652126E+03  0.00000000000E+00 0.  1.
         25    2    1    2    0    0 -0.61362407651E+01  0.16550581261E+02  0.90622568646E+02  0.15537829573E+03  0.12497355579E+03 0.  0.
          5    1    3    3  501    0 -0.58380469746E+01  0.63219546748E+02  0.88162348399E+02  0.10864346993E+03  0.10000000000E+00 0.  1.
         -5    1    3    3    0  501 -0.29819379049E+00 -0.46668965486E+02  0.24602202466E+01  0.46734825802E+02  0.10000000000E+00 0.  1.
         21    1    1    2  504  503  0.61362407651E+01 -0.16550581261E+02 -0.45133613877E+03  0.45168117666E+03  0.00000000000E+00 0.  1.
<mgrwt>
<rscale>  1 0.12621396E+03</rscale>
<asrwt>0</asrwt>
<pdfrwt beam="1">  1       21 0.18949685E-01 0.12621396E+03</pdfrwt>
<pdfrwt beam="2">  1       21 0.74444080E-01 0.12621396E+03</pdfrwt>
<totfact> 0.42765055E+04</totfact>
</mgrwt>
</event>
<event>
 6    1  0.4202038E-002  0.1263194E+03  0.7546771E-02  0.1233022E+00
         21   -1    0    0  504  502  0.00000000000E+00  0.00000000000E+00  0.18329423418E+02  0.18329423418E+02  0.00000000000E+00 0.  1.
         21   -1    0    0  502  503 -0.00000000000E+00 -0.00000000000E+00 -0.34553164488E+03  0.34553164488E+03  0.00000000000E+00 0.  1.
         25    2    1    2    0    0  0.65678941866E+01 -0.16965929869E+02 -0.20855642739E+03  0.24382855412E+03  0.12500240152E+03 0.  0.
          5    1    3    3  501    0  0.36035927757E+02 -0.55573722735E+02 -0.16788925559E+03  0.18048223982E+03  0.10000000000E+00 0. -1.
         -5    1    3    3    0  501 -0.29468033570E+02  0.38607792866E+02 -0.40667171800E+02  0.63346314295E+02  0.10000000000E+00 0. -1.
         21    1    1    2  504  503 -0.65678941866E+01  0.16965929869E+02 -0.11864579407E+03  0.12003251418E+03  0.00000000000E+00 0.  1.
<mgrwt>
<rscale>  1 0.12631936E+03</rscale>
<asrwt>0</asrwt>
<pdfrwt beam="1">  1       21 0.28199114E-02 0.12631936E+03</pdfrwt>
<pdfrwt beam="2">  1       21 0.53158713E-01 0.12631936E+03</pdfrwt>
<totfact> 0.23348461E+06</totfact>
</mgrwt>
</event>
<event>
 6    1  0.4202038E-002  0.1370499E+03  0.7546771E-02  0.1217355E+00
         21   -1    0    0  504  502  0.00000000000E+00  0.00000000000E+00  0.32564063845E+03  0.32564063845E+03  0.00000000000E+00 0.  1.
         21   -1    0    0  502  503 -0.00000000000E+00 -0.00000000000E+00 -0.32373929769E+03  0.32373929769E+03  0.00000000000E+00 0. -1.
         25    2    1    2    0    0 -0.14101011929E+02 -0.54375400935E+02  0.30855567585E+03  0.33762297313E+03  0.12500857619E+03 0.  0.
          5    1    3    3  501    0 -0.39637453026E+02 -0.74595477974E+02  0.28545225375E+03  0.29768878412E+03  0.10000000000E+00 0.  1.
         -5    1    3    3    0  501  0.25536441097E+02  0.20220077039E+02  0.23103422092E+02  0.39934189008E+02  0.10000000000E+00 0.  1.
         21    1    1    2  504  503  0.14101011929E+02  0.54375400935E+02 -0.30665433509E+03  0.31175696302E+03  0.00000000000E+00 0. -1.
<mgrwt>
<rscale>  1 0.13704987E+03</rscale>
<asrwt>0</asrwt>
<pdfrwt beam="1">  1       21 0.50098560E-01 0.13704987E+03</pdfrwt>
<pdfrwt beam="2">  1       21 0.49806046E-01 0.13704987E+03</pdfrwt>
<totfact> 0.15143221E+04</totfact>
</mgrwt>
</event>
<event>
 6    1  0.4202038E-002  0.1259555E+03  0.7546771E-02  0.1233583E+00
         21   -1    0    0  504  502  0.00000000000E+00  0.00000000000E+00  0.12188647267E+03  0.12188647267E+03  0.00000000000E+00 0. -1.
         21   -1    0    0  502  503 -0.00000000000E+00 -0.00000000000E+00 -0.43915851758E+02  0.43915851758E+02  0.00000000000E+00 0. -1.
         25    2    1    2    0    0  0.13610742018E+02 -0.73435525376E+01  0.81389508142E+02  0.14996348445E+03  0.12500245825E+03 0.  0.
          5    1    3    3  501    0  0.27030735952E+02 -0.49326167535E+02  0.88952409931E+02  0.10524387261E+03  0.10000000000E+00 0.  1.
         -5    1    3    3    0  501 -0.13419993934E+02  0.41982614997E+02 -0.75629017883E+01  0.44719611835E+02  0.10000000000E+00 0.  1.
         21    1    1    2  504  503 -0.13610742018E+02  0.73435525376E+01 -0.34188872286E+01  0.15838839984E+02  0.00000000000E+00 0. -1.
<mgrwt>
<rscale>  1 0.12595553E+03</rscale>
<asrwt>0</asrwt>
<pdfrwt beam="1">  1       21 0.18751765E-01 0.12595553E+03</pdfrwt>
<pdfrwt beam="2">  1       21 0.67562849E-02 0.12595553E+03</pdfrwt>
<totfact> 0.41262786E+06</totfact>
</mgrwt>
</event>
<event>
 6    1  0.4202038E-002  0.1265254E+03  0.7546771E-02  0.1232704E+00
         21   -1    0    0  504  502  0.00000000000E+00  0.00000000000E+00  0.45694419868E+03  0.45694419868E+03  0.00000000000E+00 0.  1.
         21   -1    0    0  502  503 -0.00000000000E+00 -0.00000000000E+00 -0.13578493293E+02  0.13578493293E+02  0.00000000000E+00 0.  1.
         25    2    1    2    0    0 -0.87290319413E+01 -0.17634056761E+02  0.42561290419E+03  0.44402141074E+03  0.12498605133E+03 0.  0.
          5    1    3    3  501    0 -0.29699221239E+02  0.10764262328E+02  0.39787161506E+03  0.39912372162E+03  0.10000000000E+00 0. -1.
         -5    1    3    3    0  501  0.20970189298E+02 -0.28398319089E+02  0.27741289130E+02  0.44897689126E+02  0.10000000000E+00 0. -1.
         21    1    1    2  504  503  0.87290319413E+01  0.17634056761E+02  0.17752801193E+02  0.26501281227E+02  0.00000000000E+00 0.  1.
<mgrwt>
<rscale>  1 0.12652537E+03</rscale>
<asrwt>0</asrwt>
<pdfrwt beam="1">  1       21 0.70299096E-01 0.12652537E+03</pdfrwt>
<pdfrwt beam="2">  1       21 0.20889993E-02 0.12652537E+03</pdfrwt>
<totfact> 0.20966817E+06</totfact>
</mgrwt>
</event>
<event>
 6    1  0.4202038E-002  0.1260625E+03  0.7546771E-02  0.1233418E+00
         21   -1    0    0  503  502  0.00000000000E+00  0.00000000000E+00  0.40395138948E+02  0.40395138948E+02  0.00000000000E+00 0. -1.
         21   -1    0    0  504  503 -0.00000000000E+00 -0.00000000000E+00 -0.43946469860E+03  0.43946469860E+03  0.00000000000E+00 0. -1.
         25    2    1    2    0    0  0.16281140755E+02 -0.21187751567E+01 -0.58638747249E+02  0.13903333801E+03  0.12498880609E+03 0.  0.
          5    1    3    3  501    0 -0.70434101941E+01  0.96809157079E+01 -0.94167048121E+02  0.94925089981E+02  0.10000000000E+00 0.  1.
         -5    1    3    3    0  501  0.23324550950E+02 -0.11799690865E+02  0.35528300872E+02  0.44108248031E+02  0.10000000000E+00 0.  1.
         21    1    1    2  504  502 -0.16281140755E+02  0.21187751567E+01 -0.34043081240E+03  0.34082649953E+03  0.00000000000E+00 0. -1.
<mgrwt>
<rscale>  1 0.12606255E+03</rscale>
<asrwt>0</asrwt>
<pdfrwt beam="1">  1       21 0.62146369E-02 0.12606255E+03</pdfrwt>
<pdfrwt beam="2">  1       21 0.67609952E-01 0.12606255E+03</pdfrwt>
<totfact> 0.37608683E+05</totfact>
</mgrwt>
</event>
<event>
 6    1  0.4202038E-002  0.1259016E+03  0.7546771E-02  0.1233667E+00
         21   -1    0    0  504  502  0.00000000000E+00  0.00000000000E+00  0.14553179952E+04  0.14553179952E+04  0.00000000000E+00 0. -1.
         21   -1    0    0  502  503 -0.00000000000E+00 -0.00000000000E+00 -0.42477971992E+02  0.42477971992E+02  0.00000000000E+00 0.  1.
         25    2    1    2    0    0  0.10921972046E+02 -0.10342162356E+02  0.14511694758E+04  0.14566207715E+04  0.12499989883E+03 0.  0.
          5    1    3    3  501    0 -0.18304149682E+02  0.29944145069E+02  0.13426343768E+03  0.13877454528E+03  0.10000000000E+00 0.  1.
         -5    1    3    3    0  501  0.29226121728E+02 -0.40286307425E+02  0.13169060382E+04  0.13178462263E+04  0.10000000000E+00 0.  1.
         21    1    1    2  504  503 -0.10921972046E+02  0.10342162356E+02 -0.38329452641E+02  0.41175195632E+02  0.00000000000E+00 0.  1.
<mgrwt>
<rscale>  1 0.12590165E+03</rscale>
<asrwt>0</asrwt>
<pdfrwt beam="1">  1       21 0.22389504E+00 0.12590165E+03</pdfrwt>
<pdfrwt beam="2">  1       21 0.65350737E-02 0.12590165E+03</pdfrwt>
<totfact> 0.17282020E+04</totfact>
</mgrwt>
</event>
<event>
 6    1  0.4202038E-002  0.1397153E+03  0.7546771E-02  0.1213713E+00
         21   -1    0    0  504  502  0.00000000000E+00  0.00000000000E+00  0.52381774909E+03  0.52381774909E+03  0.00000000000E+00 0. -1.
         21   -1    0    0  502  503 -0.00000000000E+00 -0.00000000000E+00 -0.19822430297E+02  0.19822430297E+02  0.00000000000E+00 0. -1.
         25    2    1    2    0    0  0.43549366534E+02 -0.44718278608E+02  0.31473951716E+03  0.34435638622E+03  0.12499634115E+03 0.  0.
          5    1    3    3  501    0  0.51851299666E+02  0.32193326902E+02  0.11566768867E+03  0.13078223036E+03  0.10000000000E+00 0.  1.
         -5    1    3    3    0  501 -0.83019331322E+01 -0.76911605510E+02  0.19907182849E+03  0.21357415587E+03  0.10000000000E+00 0.  1.
         21    1    1    2  504  503 -0.43549366534E+02  0.44718278608E+02  0.18925580162E+03  0.19928379316E+03  0.00000000000E+00 0. -1.
<mgrwt>
<rscale>  1 0.13971527E+03</rscale>
<asrwt>0</asrwt>
<pdfrwt beam="1">  1       21 0.80587335E-01 0.13971527E+03</pdfrwt>
<pdfrwt beam="2">  1       21 0.30496051E-02 0.13971527E+03</pdfrwt>
<totfact> 0.83745722E+05</totfact>
</mgrwt>
</event>
<event>
 6    1  0.4202038E-002  0.1325814E+03  0.7546771E-02  0.1223675E+00
         21   -1    0    0  503  502  0.00000000000E+00  0.00000000000E+00  0.60910609915E+02  0.60910609915E+02  0.00000000000E+00 0.  1.
         21   -1    0    0  504  503 -0.00000000000E+00 -0.00000000000E+00 -0.52364295932E+03  0.52364295932E+03  0.00000000000E+00 0.  1.
         25    2    1    2    0    0 -0.19592457375E+02  0.39603043116E+02 -0.13626960323E+02  0.13327990956E+03  0.12500229932E+03 0.  0.
          5    1    3    3  501    0 -0.72714714541E+01  0.84856643241E+02 -0.31664240509E+01  0.85226524278E+02  0.10000000000E+00 0. -1.
         -5    1    3    3    0  501 -0.12320985921E+02 -0.45253600125E+02 -0.10460536272E+02  0.48053385286E+02  0.10000000000E+00 0. -1.
         21    1    1    2  504  502  0.19592457375E+02 -0.39603043116E+02 -0.44910538908E+03  0.45127365967E+03  0.00000000000E+00 0.  1.
<mgrwt>
<rscale>  1 0.13258145E+03</rscale>
<asrwt>0</asrwt>
<pdfrwt beam="1">  1       21 0.93708633E-02 0.13258145E+03</pdfrwt>
<pdfrwt beam="2">  1       21 0.80560453E-01 0.13258145E+03</pdfrwt>
<totfact> 0.12595824E+05</totfact>
</mgrwt>
</event>
<event>
 6    1  0.4202038E-002  0.1448723E+03  0.7546771E-02  0.1206919E+00
         21   -1    0    0  503  502  0.00000000000E+00  0.00000000000E+00  0.67178109355E+03  0.67178109355E+03  0.00000000000E+00 0.  1.
         21   -1    0    0  504  503 -0.00000000000E+00 -0.00000000000E+00 -0.38022740490E+02  0.38022740490E+02  0.00000000000E+00 0.  1.
         25    2    1    2    0    0 -0.40904341988E+02  0.60725243713E+02  0.61820508630E+03  0.63495315252E+03  0.12500902666E+03 0.  0.
          5    1    3    3  501    0 -0.18417589571E+02 -0.36069505821E+02  0.11227314465E+03  0.11935445474E+03  0.10000000000E+00 0.  1.
         -5    1    3    3    0  501 -0.22486752417E+02  0.96794749535E+02  0.50593194165E+03  0.51559869778E+03  0.10000000000E+00 0.  1.
         21    1    1    2  504  502  0.40904341988E+02 -0.60725243713E+02  0.15553266761E+02  0.74850681523E+02  0.00000000000E+00 0.  1.
<mgrwt>
<rscale>  1 0.14487228E+03</rscale>
<asrwt>0</asrwt>
<pdfrwt beam="1">  1       21 0.10335093E+00 0.14487228E+03</pdfrwt>
<pdfrwt beam="2">  1       21 0.58496529E-02 0.14487228E+03</pdfrwt>
<totfact> 0.15897743E+05</totfact>
</mgrwt>
</event>
<event>
 6    1  0.4202038E-002  0.1281696E+03  0.7546771E-02  0.1230197E+00
         21   -1    0    0  503  502  0.00000000000E+00  0.00000000000E+00  0.42036793421E+02  0.42036793421E+02  0.00000000000E+00 0. -1.
         21   -1    0    0  504  503 -0.00000000000E+00 -0.00000000000E+00 -0.22117465842E+03  0.22117465842E+03  0.00000000000E+00 0. -1.
         25    2    1    2    0    0 -0.29881769327E+00  0.28337468449E+02 -0.61412085750E+02  0.14212280452E+03  0.12499738349E+03 0.  0.
          5    1    3    3  501    0  0.15255887874E+02 -0.63103194487E+01  0.34891722590E+02  0.38600577090E+02  0.10000000000E+00 0.  1.
         -5    1    3    3    0  501 -0.15554705567E+02  0.34647787898E+02 -0.96303808340E+02  0.10352222743E+03  0.10000000000E+00 0.  1.
         21    1    1    2  504  502  0.29881769327E+00 -0.28337468449E+02 -0.11772577925E+03  0.12108864732E+03  0.00000000000E+00 0. -1.
<mgrwt>
<rscale>  1 0.12816960E+03</rscale>
<asrwt>0</asrwt>
<pdfrwt beam="1">  1       21 0.64671991E-02 0.12816960E+03</pdfrwt>
<pdfrwt beam="2">  1       21 0.34026870E-01 0.12816960E+03</pdfrwt>
<totfact> 0.14395296E+06</totfact>
</mgrwt>
</event>
<event>
 6    1  0.4202038E-002  0.1273086E+03  0.7546771E-02  0.1231505E+00
         21   -1    0    0  504  502  0.00000000000E+00  0.00000000000E+00  0.16497266459E+02  0.16497266459E+02  0.00000000000E+00 0. -1.
         21   -1    0    0  502  503 -0.00000000000E+00 -0.00000000000E+00 -0.15339228057E+04  0.15339228057E+04  0.00000000000E+00 0.  1.
         25    2    1    2    0    0  0.11518448463E+02 -0.21184000365E+02 -0.23091783057E+03  0.26368640858E+03  0.12500416420E+03 0.  0.
          5    1    3    3  501    0 -0.35442948255E+02 -0.27773836955E+02 -0.23257914853E+02  0.50680659067E+02  0.10000000000E+00 0. -1.
         -5    1    3    3    0  501  0.46961396718E+02  0.65898365899E+01 -0.20765991572E+03  0.21300574951E+03  0.10000000000E+00 0. -1.
         21    1    1    2  504  503 -0.11518448463E+02  0.21184000365E+02 -0.12865077086E+04  0.12867336635E+04  0.00000000000E+00 0.  1.
<mgrwt>
<rscale>  1 0.12730859E+03</rscale>
<asrwt>0</asrwt>
<pdfrwt beam="1">  1       21 0.25380411E-02 0.12730859E+03</pdfrwt>
<pdfrwt beam="2">  1       21 0.23598811E+00 0.12730859E+03</pdfrwt>
<totfact> 0.70608114E+04</totfact>
</mgrwt>
</event>
<event>
 6    1  0.4202038E-002  0.1663830E+03  0.7546771E-02  0.1181673E+00
         21   -1    0    0  504  502  0.00000000000E+00  0.00000000000E+00  0.55739667912E+03  0.55739667912E+03  0.00000000000E+00 0.  1.
         21   -1    0    0  502  503 -0.00000000000E+00 -0.00000000000E+00 -0.62940021710E+02  0.62940021710E+02  0.00000000000E+00 0. -1.
         25    2    1    2    0    0  0.43299432584E+02  0.10091350096E+03  0.48189507256E+03  0.50980992149E+03  0.12499967822E+03 0.  0.
          5    1    3    3  501    0  0.36642368822E+02 -0.21222481286E+02  0.94265595835E+02  0.10333958323E+03  0.10000000000E+00 0.  1.
         -5    1    3    3    0  501  0.66570637627E+01  0.12213598224E+03  0.38762947673E+03  0.40647033826E+03  0.10000000000E+00 0.  1.
         21    1    1    2  504  503 -0.43299432584E+02 -0.10091350096E+03  0.12561584851E+02  0.11052677934E+03  0.00000000000E+00 0. -1.
<mgrwt>
<rscale>  1 0.16638298E+03</rscale>
<asrwt>0</asrwt>
<pdfrwt beam="1">  1       21 0.85753332E-01 0.16638298E+03</pdfrwt>
<pdfrwt beam="2">  1       21 0.96830806E-02 0.16638298E+03</pdfrwt>
<totfact> 0.10194687E+05</totfact>
</mgrwt>
</event>
<event>
 6    1  0.4202038E-002  0.1398155E+03  0.7546771E-02  0.1213577E+00
         21   -1    0    0  504  502  0.00000000000E+00  0.00000000000E+00  0.29233731831E+03  0.29233731831E+03  0.00000000000E+00 0. -1.
         21   -1    0    0  502  503 -0.00000000000E+00 -0.00000000000E+00 -0.55001101931E+02  0.55001101931E+02  0.00000000000E+00 0. -1.
         25    2    1    2    0    0  0.56479560347E+02  0.27096746681E+02  0.24712490338E+03  0.28393500699E+03  0.12499678359E+03 0.  0.
          5    1    3    3  501    0  0.65126931062E+02  0.81613815282E+01  0.42368475481E+02  0.78123127258E+02  0.10000000000E+00 0.  1.
         -5    1    3    3    0  501 -0.86473707153E+01  0.18935365153E+02  0.20475642790E+03  0.20581187974E+03  0.10000000000E+00 0.  1.
         21    1    1    2  504  503 -0.56479560347E+02 -0.27096746681E+02 -0.97886870054E+01  0.63403413244E+02  0.00000000000E+00 0. -1.
<mgrwt>
<rscale>  1 0.13981549E+03</rscale>
<asrwt>0</asrwt>
<pdfrwt beam="1">  1       21 0.44974971E-01 0.13981549E+03</pdfrwt>
<pdfrwt beam="2">  1       21 0.84617082E-02 0.13981549E+03</pdfrwt>
<totfact> 0.52000563E+05</totfact>
</mgrwt>
</event>
<event>
 6    1  0.4202038E-002  0.1348740E+03  0.7546771E-02  0.1220398E+00
         21   -1    0    0  503  502  0.00000000000E+00  0.00000000000E+00  0.13438209677E+04  0.13438209677E+04  0.00000000000E+00 0. -1.
         21   -1    0    0  504  503 -0.00000000000E+00 -0.00000000000E+00 -0.48371894483E+02  0.48371894483E+02  0.00000000000E+00 0.  1.
         25    2    1    2    0    0  0.49874394366E+02  0.88595793132E+01  0.13261297680E+04  0.13329708021E+04  0.12500020127E+03 0.  0.
          5    1    3    3  501    0  0.50777203007E+02 -0.51725090350E+02  0.61266717368E+03  0.61693993632E+03  0.10000000000E+00 0.  1.
         -5    1    3    3    0  501 -0.90280864074E+00  0.60584669663E+02  0.71346259433E+03  0.71603086579E+03  0.10000000000E+00 0.  1.
         21    1    1    2  504  502 -0.49874394366E+02 -0.88595793132E+01 -0.30680694834E+02  0.59222060033E+02  0.00000000000E+00 0.  1.
<mgrwt>
<rscale>  1 0.13487401E+03</rscale>
<asrwt>0</asrwt>
<pdfrwt beam="1">  1       21 0.20674166E+00 0.13487401E+03</pdfrwt>
<pdfrwt beam="2">  1       21 0.74418310E-02 0.13487401E+03</pdfrwt>
<totfact> 0.17414048E+04</totfact>
</mgrwt>
</event>
<event>
 6    1  0.4202038E-002  0.1263691E+03  0.7546771E-02  0.1232945E+00
         21   -1    0    0  503  502  0.00000000000E+00  0.00000000000E+00  0.69394363048E+02  0.69394363048E+02  0.00000000000E+00 0. -1.
         21   -1    0    0  504  503 -0.00000000000E+00 -0.00000000000E+00 -0.87472771815E+02  0.87472771815E+02  0.00000000000E+00 0. -1.
         25    2    1    2    0    0  0.96943928093E+01  0.15796949509E+02  0.59641581591E+01  0.12650976525E+03  0.12500249859E+03 0.  0.
          5    1    3    3  501    0  0.50124124840E+02 -0.19340492323E+02  0.36405683893E+02  0.64898893319E+02  0.10000000000E+00 0.  1.
         -5    1    3    3    0  501 -0.40429732031E+02  0.35137441832E+02 -0.30441525734E+02  0.61610871927E+02  0.10000000000E+00 0.  1.
         21    1    1    2  504  502 -0.96943928093E+01 -0.15796949509E+02 -0.24042566925E+02  0.30357369618E+02  0.00000000000E+00 0. -1.
<mgrwt>
<rscale>  1 0.12636910E+03</rscale>
<asrwt>0</asrwt>
<pdfrwt beam="1">  1       21 0.10676056E-01 0.12636910E+03</pdfrwt>
<pdfrwt beam="2">  1       21 0.13457350E-01 0.12636910E+03</pdfrwt>
<totfact> 0.34094785E+06</totfact>
</mgrwt>
</event>
<event>
 6    1  0.4202038E-002  0.1373420E+03  0.7546771E-02  0.1216951E+00
         21   -1    0    0  504  502  0.00000000000E+00  0.00000000000E+00  0.28689914767E+02  0.28689914767E+02  0.00000000000E+00 0.  1.
         21   -1    0    0  502  503 -0.00000000000E+00 -0.00000000000E+00 -0.36794622452E+03  0.36794622452E+03  0.00000000000E+00 0.  1.
         25    2    1    2    0    0  0.56496345767E+02 -0.68308659181E+01 -0.17286932531E+03  0.22078641252E+03  0.12499735399E+03 0.  0.
          5    1    3    3  501    0  0.37851265988E+02 -0.18740374443E+02 -0.18883632178E+03  0.19350216121E+03  0.10000000000E+00 0. -1.
         -5    1    3    3    0  501  0.18645079779E+02  0.11909508524E+02  0.15966996464E+02  0.27284251306E+02  0.10000000000E+00 0. -1.
         21    1    1    2  504  503 -0.56496345767E+02  0.68308659181E+01 -0.16638698444E+03  0.17584972677E+03  0.00000000000E+00 0.  1.
<mgrwt>
<rscale>  1 0.13734204E+03</rscale>
<asrwt>0</asrwt>
<pdfrwt beam="1">  1       21 0.44138336E-02 0.13734204E+03</pdfrwt>
<pdfrwt beam="2">  1       21 0.56607105E-01 0.13734204E+03</pdfrwt>
<totfact> 0.97735878E+05</totfact>
</mgrwt>
</event>
<event>
 6    1  0.4202038E-002  0.1259070E+03  0.7546771E-02  0.1233659E+00
         21   -1    0    0  504  502  0.00000000000E+00  0.00000000000E+00  0.30949560831E+01  0.30949560831E+01  0.00000000000E+00 0.  1.
         21   -1    0    0  502  503 -0.00000000000E+00 -0.00000000000E+00 -0.21118531439E+04  0.21118531439E+04  0.00000000000E+00 0.  1.
         25    2    1    2    0    0  0.22862233061E+01  0.14944340912E+02 -0.13076990851E+04  0.13137463487E+04  0.12499604604E+03 0.  0.
          5    1    3    3  501    0 -0.10210578025E+02  0.59413898833E+02 -0.10641035066E+04  0.10658098095E+04  0.10000000000E+00 0. -1.
         -5    1    3    3    0  501  0.12496801331E+02 -0.44469557921E+02 -0.24359557848E+03  0.24793653922E+03  0.10000000000E+00 0. -1.
         21    1    1    2  504  503 -0.22862233061E+01 -0.14944340912E+02 -0.80105910269E+03  0.80120175121E+03  0.00000000000E+00 0.  1.
<mgrwt>
<rscale>  1 0.12590700E+03</rscale>
<asrwt>0</asrwt>
<pdfrwt beam="1">  1       21 0.47614569E-03 0.12590700E+03</pdfrwt>
<pdfrwt beam="2">  1       21 0.32490144E+00 0.12590700E+03</pdfrwt>
<totfact> 0.31300787E+05</totfact>
</mgrwt>
</event>
<event>
 6    1  0.4202038E-002  0.1279058E+03  0.7546771E-02  0.1230597E+00
         21   -1    0    0  504  502  0.00000000000E+00  0.00000000000E+00  0.56186745438E+01  0.56186745438E+01  0.00000000000E+00 0. -1.
         21   -1    0    0  502  503 -0.00000000000E+00 -0.00000000000E+00 -0.11628830624E+04  0.11628830624E+04  0.00000000000E+00 0. -1.
         25    2    1    2    0    0 -0.19782770440E+02 -0.18530080911E+02 -0.79487998299E+03  0.80510501325E+03  0.12500069235E+03 0.  0.
          5    1    3    3  501    0  0.35946655275E+02  0.82415799424E+01 -0.58871713417E+03  0.58987113824E+03  0.10000000000E+00 0.  1.
         -5    1    3    3    0  501 -0.55729425715E+02 -0.26771660854E+02 -0.20616284883E+03  0.21523387501E+03  0.10000000000E+00 0.  1.
         21    1    1    2  504  503  0.19782770440E+02  0.18530080911E+02 -0.36238440488E+03  0.36339672371E+03  0.00000000000E+00 0.  1.
<mgrwt>
<rscale>  1 0.12790581E+03</rscale>
<asrwt>0</asrwt>
<pdfrwt beam="1">  1       21 0.86441155E-03 0.12790581E+03</pdfrwt>
<pdfrwt beam="2">  1       21 0.17890507E+00 0.12790581E+03</pdfrwt>
<totfact> 0.88993817E+05</totfact>
</mgrwt>
</event>
<event>
 6    1  0.4202038E-002  0.1263156E+03  0.7546771E-02  0.1233027E+00
         21   -1    0    0  503  502  0.00000000000E+00  0.00000000000E+00  0.66939670160E+02  0.66939670160E+02  0.00000000000E+00 0.  1.
         21   -1    0    0  504  503 -0.00000000000E+00 -0.00000000000E+00 -0.10462589488E+03  0.10462589488E+03  0.00000000000E+00 0.  1.
         25    2    1    2    0    0  0.10466363130E+02 -0.14880989947E+02  0.36865707935E+01  0.12636936135E+03  0.12499854425E+03 0.  0.
          5    1    3    3  501    0 -0.50824882403E+02 -0.29683860418E+02 -0.14744747378E+02  0.60677160578E+02  0.10000000000E+00 0. -1.
         -5    1    3    3    0  501  0.61291245533E+02  0.14802870471E+02  0.18431318172E+02  0.65692200776E+02  0.10000000000E+00 0. -1.
         21    1    1    2  504  502 -0.10466363130E+02  0.14880989947E+02 -0.41372795511E+02  0.45196203683E+02  0.00000000000E+00 0.  1.
<mgrwt>
<rscale>  1 0.12631558E+03</rscale>
<asrwt>0</asrwt>
<pdfrwt beam="1">  1       21 0.10298411E-01 0.12631558E+03</pdfrwt>
<pdfrwt beam="2">  1       21 0.16096291E-01 0.12631558E+03</pdfrwt>
<totfact> 0.26314946E+06</totfact>
</mgrwt>
</event>
<event>
 6    1  0.4202038E-002  0.1280375E+03  0.7546771E-02  0.1230397E+00
         21   -1    0    0  504  502  0.00000000000E+00  0.00000000000E+00  0.15711640287E+03  0.15711640287E+03  0.00000000000E+00 0.  1.
         21   -1    0    0  502  503 -0.00000000000E+00 -0.00000000000E+00 -0.10337808859E+04  0.10337808859E+04  0.00000000000E+00 0. -1.
         25    2    1    2    0    0  0.79471245079E+01  0.26476173795E+02  0.13081017449E+03  0.18304346498E+03  0.12501785375E+03 0.  0.
          5    1    3    3  501    0  0.17417118677E+02  0.64398991829E+02  0.12739670826E+03  0.14380722321E+03  0.10000000000E+00 0. -1.
         -5    1    3    3    0  501 -0.94699941688E+01 -0.37922818035E+02  0.34134662338E+01  0.39236241779E+02  0.10000000000E+00 0. -1.
         21    1    1    2  504  503 -0.79471245079E+01 -0.26476173795E+02 -0.10074746575E+04  0.10078538238E+04  0.00000000000E+00 0. -1.
<mgrwt>
<rscale>  1 0.12803753E+03</rscale>
<asrwt>0</asrwt>
<pdfrwt beam="1">  1       21 0.24171755E-01 0.12803753E+03</pdfrwt>
<pdfrwt beam="2">  1       21 0.15904321E+00 0.12803753E+03</pdfrwt>
<totfact> 0.44085919E+03</totfact>
</mgrwt>
</event>
<event>
 6    1  0.4202038E-002  0.1476516E+03  0.7546771E-02  0.1203389E+00
         21   -1    0    0  504  502  0.00000000000E+00  0.00000000000E+00  0.67934428955E+03  0.67934428955E+03  0.00000000000E+00 0.  1.
         21   -1    0    0  502  503 -0.00000000000E+00 -0.00000000000E+00 -0.19034992655E+02  0.19034992655E+02  0.00000000000E+00 0.  1.
         25    2    1    2    0    0  0.12685595506E+02  0.77588068212E+02  0.46344521810E+03  0.48639744765E+03  0.12498069546E+03 0.  0.
          5    1    3    3  501    0  0.17735832963E+02 -0.32049723229E+02  0.90322451341E+02  0.97467429155E+02  0.10000000000E+00 0.  1.
         -5    1    3    3    0  501 -0.50502374576E+01  0.10963779144E+03  0.37312276676E+03  0.38893001850E+03  0.10000000000E+00 0.  1.
         21    1    1    2  504  503 -0.12685595506E+02 -0.77588068212E+02  0.19686407879E+03  0.21198183455E+03  0.00000000000E+00 0.  1.
<mgrwt>
<rscale>  1 0.14765164E+03</rscale>
<asrwt>0</asrwt>
<pdfrwt beam="1">  1       21 0.10451449E+00 0.14765164E+03</pdfrwt>
<pdfrwt beam="2">  1       21 0.29284609E-02 0.14765164E+03</pdfrwt>
<totfact> 0.49110349E+05</totfact>
</mgrwt>
</event>
<event>
 6    1  0.4202038E-002  0.1259767E+03  0.7546771E-02  0.1233551E+00
         21   -1    0    0  504  502  0.00000000000E+00  0.00000000000E+00  0.11815583904E+02  0.11815583904E+02  0.00000000000E+00 0. -1.
         21   -1    0    0  502  503 -0.00000000000E+00 -0.00000000000E+00 -0.14209869199E+04  0.14209869199E+04  0.00000000000E+00 0. -1.
         25    2    1    2    0    0 -0.21184540557E+01  0.15695440330E+02 -0.32568325416E+03  0.34919867483E+03  0.12497718898E+03 0.  0.
          5    1    3    3  501    0 -0.57881290227E+00  0.61394020034E+02 -0.27123772357E+03  0.27809975442E+03  0.10000000000E+00 0. -1.
         -5    1    3    3    0  501 -0.15396411534E+01 -0.45698579704E+02 -0.54445530587E+02  0.71098920404E+02  0.10000000000E+00 0. -1.
         21    1    1    2  504  503  0.21184540557E+01 -0.15695440330E+02 -0.10834880818E+04  0.10836038290E+04  0.00000000000E+00 0. -1.
<mgrwt>
<rscale>  1 0.12597671E+03</rscale>
<asrwt>0</asrwt>
<pdfrwt beam="1">  1       21 0.18177828E-02 0.12597671E+03</pdfrwt>
<pdfrwt beam="2">  1       21 0.21861329E+00 0.12597671E+03</pdfrwt>
<totfact> 0.15366148E+05</totfact>
</mgrwt>
</event>
<event>
 6    1  0.4202038E-002  0.1279851E+03  0.7546771E-02  0.1230476E+00
         21   -1    0    0  503  502  0.00000000000E+00  0.00000000000E+00  0.67228048119E+02  0.67228048119E+02  0.00000000000E+00 0.  1.
         21   -1    0    0  504  503 -0.00000000000E+00 -0.00000000000E+00 -0.15477572764E+03  0.15477572764E+03  0.00000000000E+00 0.  1.
         25    2    1    2    0    0 -0.11882615597E+02 -0.24793465101E+02  0.23388172437E+01  0.12800646321E+03  0.12499708834E+03 0.  0.
          5    1    3    3  501    0 -0.24134177138E+02 -0.70376913089E+02 -0.18099803958E+02  0.76570107127E+02  0.10000000000E+00 0. -1.
         -5    1    3    3    0  501  0.12251561541E+02  0.45583447988E+02  0.20438621202E+02  0.51436356085E+02  0.10000000000E+00 0. -1.
         21    1    1    2  504  502  0.11882615597E+02  0.24793465101E+02 -0.89886496764E+02  0.93997312545E+02  0.00000000000E+00 0.  1.
<mgrwt>
<rscale>  1 0.12798510E+03</rscale>
<asrwt>0</asrwt>
<pdfrwt beam="1">  1       21 0.10342777E-01 0.12798510E+03</pdfrwt>
<pdfrwt beam="2">  1       21 0.23811650E-01 0.12798510E+03</pdfrwt>
<totfact> 0.12686362E+06</totfact>
</mgrwt>
</event>
<event>
 6    1  0.4202038E-002  0.1261010E+03  0.7546771E-02  0.1233358E+00
         21   -1    0    0  503  502  0.00000000000E+00  0.00000000000E+00  0.16175394665E+02  0.16175394665E+02  0.00000000000E+00 0.  1.
         21   -1    0    0  504  503 -0.00000000000E+00 -0.00000000000E+00 -0.54933704917E+03  0.54933704917E+03  0.00000000000E+00 0.  1.
         25    2    1    2    0    0  0.39772240918E+01  0.16160715897E+02 -0.23337951868E+03  0.26526868285E+03  0.12499794924E+03 0.  0.
          5    1    3    3  501    0  0.40529528943E+01  0.53812171765E+02 -0.21802880979E+03  0.22460798774E+03  0.10000000000E+00 0. -1.
         -5    1    3    3    0  501 -0.75728802488E-01 -0.37651455869E+02 -0.15350708894E+02  0.40660695117E+02  0.10000000000E+00 0. -1.
         21    1    1    2  504  502 -0.39772240918E+01 -0.16160715897E+02 -0.29978213583E+03  0.30024376098E+03  0.00000000000E+00 0.  1.
<mgrwt>
<rscale>  1 0.12610105E+03</rscale>
<asrwt>0</asrwt>
<pdfrwt beam="1">  1       21 0.24885223E-02 0.12610105E+03</pdfrwt>
<pdfrwt beam="2">  1       21 0.84513390E-01 0.12610105E+03</pdfrwt>
<totfact> 0.10494333E+06</totfact>
</mgrwt>
</event>
<event>
 6    1  0.4202038E-002  0.1322695E+03  0.7546771E-02  0.1224127E+00
         21   -1    0    0  503  502  0.00000000000E+00  0.00000000000E+00  0.21595674581E+03  0.21595674581E+03  0.00000000000E+00 0. -1.
         21   -1    0    0  504  503 -0.00000000000E+00 -0.00000000000E+00 -0.38978390015E+02  0.38978390015E+02  0.00000000000E+00 0. -1.
         25    2    1    2    0    0 -0.42663917142E+02  0.71848232833E+01  0.16202637331E+03  0.20915966978E+03  0.12499356105E+03 0.  0.
          5    1    3    3  501    0 -0.56464240428E+02  0.12542448376E+02  0.17812990150E+03  0.18728533116E+03  0.10000000000E+00 0. -1.
         -5    1    3    3    0  501  0.13800323286E+02 -0.53576250925E+01 -0.16103528198E+02  0.21874338615E+02  0.10000000000E+00 0. -1.
         21    1    1    2  504  502  0.42663917142E+02 -0.71848232833E+01  0.14951982488E+02  0.45775466047E+02  0.00000000000E+00 0. -1.
<mgrwt>
<rscale>  1 0.13226950E+03</rscale>
<asrwt>0</asrwt>
<pdfrwt beam="1">  1       21 0.33224114E-01 0.13226950E+03</pdfrwt>
<pdfrwt beam="2">  1       21 0.59966755E-02 0.13226950E+03</pdfrwt>
<totfact> 0.17160750E+06</totfact>
</mgrwt>
</event>
<event>
 6    1  0.4202038E-002  0.1259401E+03  0.7546771E-02  0.1233607E+00
         21   -1    0    0  503  502  0.00000000000E+00  0.00000000000E+00  0.71963321501E+02  0.71963321501E+02  0.00000000000E+00 0.  1.
         21   -1    0    0  504  503 -0.00000000000E+00 -0.00000000000E+00 -0.74270335631E+02  0.74270335631E+02  0.00000000000E+00 0.  1.
         25    2    1    2    0    0 -0.94265292019E+01  0.12083829104E+02  0.10339369911E+02  0.12636384566E+03  0.12500416210E+03 0.  0.
          5    1    3    3  501    0  0.18209718735E+02 -0.37873900269E+02  0.43382025519E+02  0.60398976118E+02  0.10000000000E+00 0. -1.
         -5    1    3    3    0  501 -0.27636247936E+02  0.49957729372E+02 -0.33042655609E+02  0.65964869542E+02  0.10000000000E+00 0. -1.
         21    1    1    2  504  502  0.94265292019E+01 -0.12083829104E+02 -0.12646384041E+02  0.19869811472E+02  0.00000000000E+00 0. -1.
<mgrwt>
<rscale>  1 0.12594014E+03</rscale>
<asrwt>0</asrwt>
<pdfrwt beam="1">  1       21 0.11071280E-01 0.12594014E+03</pdfrwt>
<pdfrwt beam="2">  1       21 0.11426206E-01 0.12594014E+03</pdfrwt>
<totfact> 0.42755171E+06</totfact>
</mgrwt>
</event>
<event>
 6    1  0.4202038E-002  0.1552944E+03  0.7546771E-02  0.1194114E+00
         21   -1    0    0  503  502  0.00000000000E+00  0.00000000000E+00  0.85403017141E+02  0.85403017141E+02  0.00000000000E+00 0.  1.
         21   -1    0    0  504  503 -0.00000000000E+00 -0.00000000000E+00 -0.49161550791E+03  0.49161550791E+03  0.00000000000E+00 0. -1.
         25    2    1    2    0    0  0.69195719016E+02 -0.60875652300E+02  0.52278215019E+01  0.15538239859E+03  0.12498986800E+03 0.  0.
          5    1    3    3  501    0  0.18819999487E+01 -0.47887876283E+02  0.53280579161E+02  0.71663245353E+02  0.10000000000E+00 0.  1.
         -5    1    3    3    0  501  0.67313719067E+02 -0.12987776018E+02 -0.48052757660E+02  0.83719153240E+02  0.10000000000E+00 0.  1.
         21    1    1    2  504  502 -0.69195719016E+02  0.60875652300E+02 -0.41144031227E+03  0.42163612646E+03  0.00000000000E+00 0. -1.
<mgrwt>
<rscale>  1 0.15529443E+03</rscale>
<asrwt>0</asrwt>
<pdfrwt beam="1">  1       21 0.13138926E-01 0.15529443E+03</pdfrwt>
<pdfrwt beam="2">  1       21 0.75633156E-01 0.15529443E+03</pdfrwt>
<totfact> 0.79090576E+04</totfact>
</mgrwt>
</event>
<event>
 6    1  0.4202038E-002  0.1298994E+03  0.7546771E-02  0.1227605E+00
         21   -1    0    0  504  502  0.00000000000E+00  0.00000000000E+00  0.12853282434E+03  0.12853282434E+03  0.00000000000E+00 0.  1.
         21   -1    0    0  502  503 -0.00000000000E+00 -0.00000000000E+00 -0.77477908301E+02  0.77477908301E+02  0.00000000000E+00 0.  1.
         25    2    1    2    0    0  0.13192880392E+02 -0.32833347509E+02  0.86390616503E+02  0.15600380784E+03  0.12498707388E+03 0.  0.
          5    1    3    3  501    0  0.49952576501E+02 -0.63743528072E+02  0.62878605775E+02  0.10252914871E+03  0.10000000000E+00 0.  1.
         -5    1    3    3    0  501 -0.36759696109E+02  0.30910180563E+02  0.23512010728E+02  0.53474659129E+02  0.10000000000E+00 0.  1.
         21    1    1    2  504  503 -0.13192880392E+02  0.32833347509E+02 -0.35335700461E+02  0.50006924808E+02  0.00000000000E+00 0.  1.
<mgrwt>
<rscale>  1 0.12989938E+03</rscale>
<asrwt>0</asrwt>
<pdfrwt beam="1">  1       21 0.19774281E-01 0.12989938E+03</pdfrwt>
<pdfrwt beam="2">  1       21 0.11919678E-01 0.12989938E+03</pdfrwt>
<totfact> 0.13971103E+06</totfact>
</mgrwt>
</event>
<event>
 6    1  0.4202038E-002  0.1286077E+03  0.7546771E-02  0.1229536E+00
         21   -1    0    0  504  502  0.00000000000E+00  0.00000000000E+00  0.92485565435E+03  0.92485565435E+03  0.00000000000E+00 0. -1.
         21   -1    0    0  502  503 -0.00000000000E+00 -0.00000000000E+00 -0.54324130394E+02  0.54324130394E+02  0.00000000000E+00 0. -1.
         25    2    1    2    0    0 -0.20173756386E+02 -0.22557414617E+02  0.91576774927E+03  0.92475429915E+03  0.12499650315E+03 0.  0.
          5    1    3    3  501    0  0.24887834363E+02  0.42518737645E+02  0.37579598231E+03  0.37901171179E+03  0.10000000000E+00 0. -1.
         -5    1    3    3    0  501 -0.45061590749E+02 -0.65076152262E+02  0.53997176696E+03  0.54574258737E+03  0.10000000000E+00 0. -1.
         21    1    1    2  504  503  0.20173756386E+02  0.22557414617E+02 -0.45236225315E+02  0.54425485590E+02  0.00000000000E+00 0. -1.
<mgrwt>
<rscale>  1 0.12860771E+03</rscale>
<asrwt>0</asrwt>
<pdfrwt beam="1">  1       21 0.14228547E+00 0.12860771E+03</pdfrwt>
<pdfrwt beam="2">  1       21 0.83575592E-02 0.12860771E+03</pdfrwt>
<totfact> 0.39715852E+04</totfact>
</mgrwt>
</event>
<event>
 6    1  0.4202038E-002  0.1284946E+03  0.7546771E-02  0.1229707E+00
         21   -1    0    0  503  502  0.00000000000E+00  0.00000000000E+00  0.19257213383E+02  0.19257213383E+02  0.00000000000E+00 0.  1.
         21   -1    0    0  504  503 -0.00000000000E+00 -0.00000000000E+00 -0.40619082725E+03  0.40619082725E+03  0.00000000000E+00 0.  1.
         25    2    1    2    0    0 -0.26207829512E+02  0.14205439930E+02 -0.21130008606E+03  0.24730264794E+03  0.12498891332E+03 0.  0.
          5    1    3    3  501    0 -0.63908699960E+02  0.45774050304E+02 -0.14237036994E+03  0.16263123269E+03  0.10000000000E+00 0.  1.
         -5    1    3    3    0  501  0.37700870448E+02 -0.31568610374E+02 -0.68929716129E+02  0.84671415242E+02  0.10000000000E+00 0.  1.
         21    1    1    2  504  502  0.26207829512E+02 -0.14205439930E+02 -0.17563352781E+03  0.17814539270E+03  0.00000000000E+00 0.  1.
<mgrwt>
<rscale>  1 0.12849464E+03</rscale>
<asrwt>0</asrwt>
<pdfrwt beam="1">  1       21 0.29626483E-02 0.12849464E+03</pdfrwt>
<pdfrwt beam="2">  1       21 0.62490894E-01 0.12849464E+03</pdfrwt>
<totfact> 0.15317207E+06</totfact>
</mgrwt>
</event>
<event>
 6    1  0.4202038E-002  0.1283993E+03  0.7546771E-02  0.1229850E+00
         21   -1    0    0  504  502  0.00000000000E+00  0.00000000000E+00  0.13490704704E+02  0.13490704704E+02  0.00000000000E+00 0. -1.
         21   -1    0    0  502  503 -0.00000000000E+00 -0.00000000000E+00 -0.69784170452E+03  0.69784170452E+03  0.00000000000E+00 0. -1.
         25    2    1    2    0    0  0.27873756299E+02  0.92210143121E+01 -0.30603889569E+03  0.33188277946E+03  0.12499760092E+03 0.  0.
          5    1    3    3  501    0  0.11801805529E+02  0.34649189816E+02 -0.29867924251E+03  0.30091385623E+03  0.10000000000E+00 0. -1.
         -5    1    3    3    0  501  0.16071950769E+02 -0.25428175504E+02 -0.73596531788E+01  0.30968923228E+02  0.10000000000E+00 0. -1.
         21    1    1    2  504  503 -0.27873756299E+02 -0.92210143121E+01 -0.37831210413E+03  0.37944962976E+03  0.00000000000E+00 0. -1.
<mgrwt>
<rscale>  1 0.12839927E+03</rscale>
<asrwt>0</asrwt>
<pdfrwt beam="1">  1       21 0.20754925E-02 0.12839927E+03</pdfrwt>
<pdfrwt beam="2">  1       21 0.10736029E+00 0.12839927E+03</pdfrwt>
<totfact> 0.80916971E+05</totfact>
</mgrwt>
</event>
<event>
 6    1  0.4202038E-002  0.1876230E+03  0.7546771E-02  0.1160623E+00
         21   -1    0    0  503  502  0.00000000000E+00  0.00000000000E+00  0.13944006416E+03  0.13944006416E+03  0.00000000000E+00 0.  1.
         21   -1    0    0  504  503 -0.00000000000E+00 -0.00000000000E+00 -0.19643397377E+03  0.19643397377E+03  0.00000000000E+00 0.  1.
         25    2    1    2    0    0  0.11747019095E+03 -0.76009492423E+02 -0.56538370001E+02  0.19595657577E+03  0.12500281438E+03 0.  0.
          5    1    3    3  501    0  0.29576842691E+02 -0.51830334491E+02  0.32989166014E+02  0.68187009550E+02  0.10000000000E+00 0. -1.
         -5    1    3    3    0  501  0.87893348262E+02 -0.24179157932E+02 -0.89527536015E+02  0.12776956622E+03  0.10000000000E+00 0. -1.
         21    1    1    2  504  502 -0.11747019095E+03  0.76009492423E+02 -0.45553960418E+00  0.13991746216E+03  0.00000000000E+00 0.  1.
<mgrwt>
<rscale>  1 0.18762301E+03</rscale>
<asrwt>0</asrwt>
<pdfrwt beam="1">  1       21 0.21452318E-01 0.18762301E+03</pdfrwt>
<pdfrwt beam="2">  1       21 0.30220611E-01 0.18762301E+03</pdfrwt>
<totfact> 0.21293139E+05</totfact>
</mgrwt>
</event>
<event>
 6    1  0.4202038E-002  0.1263218E+03  0.7546771E-02  0.1233018E+00
         21   -1    0    0  503  502  0.00000000000E+00  0.00000000000E+00  0.46989436345E+03  0.46989436345E+03  0.00000000000E+00 0. -1.
         21   -1    0    0  504  503 -0.00000000000E+00 -0.00000000000E+00 -0.42573836722E+03  0.42573836722E+03  0.00000000000E+00 0. -1.
         25    2    1    2    0    0  0.29531276646E+01  0.18027116638E+02  0.46120102606E+03  0.47818781838E+03  0.12499402109E+03 0.  0.
          5    1    3    3  501    0 -0.87585239499E+00  0.57371657921E+02  0.10376576528E+03  0.11857326129E+03  0.10000000000E+00 0.  1.
         -5    1    3    3    0  501  0.38289800596E+01 -0.39344541283E+02  0.35743526078E+03  0.35961455708E+03  0.10000000000E+00 0.  1.
         21    1    1    2  504  502 -0.29531276646E+01 -0.18027116638E+02 -0.41704502983E+03  0.41744491230E+03  0.00000000000E+00 0. -1.
<mgrwt>
<rscale>  1 0.12632182E+03</rscale>
<asrwt>0</asrwt>
<pdfrwt beam="1">  1       21 0.72291441E-01 0.12632182E+03</pdfrwt>
<pdfrwt beam="2">  1       21 0.65498210E-01 0.12632182E+03</pdfrwt>
<totfact> 0.39361965E+03</totfact>
</mgrwt>
</event>
<event>
 6    1  0.4202038E-002  0.1327612E+03  0.7546771E-02  0.1223415E+00
         21   -1    0    0  503  502  0.00000000000E+00  0.00000000000E+00  0.12026746463E+03  0.12026746463E+03  0.00000000000E+00 0. -1.
         21   -1    0    0  504  503 -0.00000000000E+00 -0.00000000000E+00 -0.28096473732E+03  0.28096473732E+03  0.00000000000E+00 0. -1.
         25    2    1    2    0    0  0.79583087920E+01  0.44033344354E+02  0.80938512483E+02  0.15548818316E+03  0.12499304863E+03 0.  0.
          5    1    3    3  501    0 -0.48923696477E+02 -0.13393055023E+02  0.41567390317E+02  0.65580179456E+02  0.10000000000E+00 0.  1.
         -5    1    3    3    0  501  0.56882005269E+02  0.57426399378E+02  0.39371122166E+02  0.89908003701E+02  0.10000000000E+00 0.  1.
         21    1    1    2  504  502 -0.79583087920E+01 -0.44033344354E+02 -0.24163578518E+03  0.24574401879E+03  0.00000000000E+00 0. -1.
<mgrwt>
<rscale>  1 0.13276119E+03</rscale>
<asrwt>0</asrwt>
<pdfrwt beam="1">  1       21 0.18502687E-01 0.13276119E+03</pdfrwt>
<pdfrwt beam="2">  1       21 0.43225344E-01 0.13276119E+03</pdfrwt>
<totfact> 0.14005187E+05</totfact>
</mgrwt>
</event>
<event>
 6    1  0.4202038E-002  0.1259453E+03  0.7546771E-02  0.1233599E+00
         21   -1    0    0  504  502  0.00000000000E+00  0.00000000000E+00  0.42311465832E+02  0.42311465832E+02  0.00000000000E+00 0. -1.
         21   -1    0    0  502  503 -0.00000000000E+00 -0.00000000000E+00 -0.13394448739E+03  0.13394448739E+03  0.00000000000E+00 0. -1.
         25    2    1    2    0    0  0.15354690009E+02 -0.11517679344E+01 -0.56779270318E+02  0.13815244879E+03  0.12500048197E+03 0.  0.
          5    1    3    3  501    0 -0.31525752949E+02  0.18887634828E+02  0.23086528552E+02  0.43400618072E+02  0.10000000000E+00 0.  1.
         -5    1    3    3    0  501  0.46880442958E+02 -0.20039402763E+02 -0.79865798870E+02  0.94751830717E+02  0.10000000000E+00 0.  1.
         21    1    1    2  504  503 -0.15354690009E+02  0.11517679344E+01 -0.34853751244E+02  0.38103504438E+02  0.00000000000E+00 0. -1.
<mgrwt>
<rscale>  1 0.12594528E+03</rscale>
<asrwt>0</asrwt>
<pdfrwt beam="1">  1       21 0.65094564E-02 0.12594528E+03</pdfrwt>
<pdfrwt beam="2">  1       21 0.20606844E-01 0.12594528E+03</pdfrwt>
<totfact> 0.36942113E+06</totfact>
</mgrwt>
</event>
<event>
 6    1  0.4202038E-002  0.1311858E+03  0.7546771E-02  0.1225707E+00
         21   -1    0    0  503  502  0.00000000000E+00  0.00000000000E+00  0.11368962480E+03  0.11368962480E+03  0.00000000000E+00 0.  1.
         21   -1    0    0  504  503 -0.00000000000E+00 -0.00000000000E+00 -0.64622283105E+02  0.64622283105E+02  0.00000000000E+00 0.  1.
         25    2    1    2    0    0  0.13934284794E+02  0.37300772201E+02  0.32277306359E+02  0.13509828522E+03  0.12499684101E+03 0.  0.
          5    1    3    3  501    0 -0.30784498544E+02  0.23902029057E+02 -0.35554104566E+02  0.52755063218E+02  0.10000000000E+00 0. -1.
         -5    1    3    3    0  501  0.44718783338E+02  0.13398743144E+02  0.67831410925E+02  0.82343221999E+02  0.10000000000E+00 0. -1.
         21    1    1    2  504  502 -0.13934284794E+02 -0.37300772201E+02  0.16790035341E+02  0.43213622693E+02  0.00000000000E+00 0.  1.
<mgrwt>
<rscale>  1 0.13118583E+03</rscale>
<asrwt>0</asrwt>
<pdfrwt beam="1">  1       21 0.17490711E-01 0.13118583E+03</pdfrwt>
<pdfrwt beam="2">  1       21 0.99418897E-02 0.13118583E+03</pdfrwt>
<totfact> 0.24094429E+06</totfact>
</mgrwt>
</event>
<event>
 6    1  0.4202038E-002  0.2337249E+03  0.7546771E-02  0.1124045E+00
         21   -1    0    0  503  502  0.00000000000E+00  0.00000000000E+00  0.65800948261E+03  0.65800948261E+03  0.00000000000E+00 0. -1.
         21   -1    0    0  504  503 -0.00000000000E+00 -0.00000000000E+00 -0.12505190058E+03  0.12505190058E+03  0.00000000000E+00 0. -1.
         25    2    1    2    0    0 -0.90791638954E+02 -0.17538534120E+03  0.53686021102E+03  0.58553070172E+03  0.12499670741E+03 0.  0.
          5    1    3    3  501    0 -0.87397653996E+01 -0.14102832857E+02 -0.23588870711E+01  0.16758512525E+02  0.10000000000E+00 0.  1.
         -5    1    3    3    0  501 -0.82051873554E+02 -0.16128250834E+03  0.53921909809E+03  0.56877218919E+03  0.10000000000E+00 0.  1.
         21    1    1    2  504  502  0.90791638954E+02  0.17538534120E+03 -0.39026289953E+01  0.19753068148E+03  0.00000000000E+00 0. -1.
<mgrwt>
<rscale>  1 0.23372487E+03</rscale>
<asrwt>0</asrwt>
<pdfrwt beam="1">  1       21 0.10123223E+00 0.23372487E+03</pdfrwt>
<pdfrwt beam="2">  1       21 0.19238754E-01 0.23372487E+03</pdfrwt>
<totfact> 0.19313128E+04</totfact>
</mgrwt>
</event>
<event>
 6    1  0.4202038E-002  0.1614697E+03  0.7546771E-02  0.1187047E+00
         21   -1    0    0  503  502  0.00000000000E+00  0.00000000000E+00  0.63262650181E+03  0.63262650181E+03  0.00000000000E+00 0. -1.
         21   -1    0    0  504  503 -0.00000000000E+00 -0.00000000000E+00 -0.46713667853E+02  0.46713667853E+02  0.00000000000E+00 0.  1.
         25    2    1    2    0    0 -0.93517789428E+02  0.41253088578E+02  0.54639509318E+03  0.56975437637E+03  0.12500022912E+03 0.  0.
          5    1    3    3  501    0 -0.95538803272E+02 -0.14973104824E+02  0.24970759397E+03  0.26777929212E+03  0.10000000000E+00 0.  1.
         -5    1    3    3    0  501  0.20210138439E+01  0.56226193402E+02  0.29668749921E+03  0.30197508425E+03  0.10000000000E+00 0.  1.
         21    1    1    2  504  502  0.93517789428E+02 -0.41253088578E+02  0.39517740780E+02  0.10958579330E+03  0.00000000000E+00 0.  1.
<mgrwt>
<rscale>  1 0.16146966E+03</rscale>
<asrwt>0</asrwt>
<pdfrwt beam="1">  1       21 0.97327148E-01 0.16146966E+03</pdfrwt>
<pdfrwt beam="2">  1       21 0.71867186E-02 0.16146966E+03</pdfrwt>
<totfact> 0.12805834E+05</totfact>
</mgrwt>
</event>
<event>
 6    1  0.4202038E-002  0.1352385E+03  0.7546771E-02  0.1219883E+00
         21   -1    0    0  504  502  0.00000000000E+00  0.00000000000E+00  0.56988662005E+03  0.56988662005E+03  0.00000000000E+00 0.  1.
         21   -1    0    0  502  503 -0.00000000000E+00 -0.00000000000E+00 -0.18146451000E+02  0.18146451000E+02  0.00000000000E+00 0.  1.
         25    2    1    2    0    0 -0.51541177277E+02 -0.12413293491E+01  0.48612631130E+03  0.50458720726E+03  0.12502569874E+03 0.  0.
          5    1    3    3  501    0 -0.66502621541E+02  0.47496132369E+02  0.24993627141E+03  0.26295747000E+03  0.10000000000E+00 0. -1.
         -5    1    3    3    0  501  0.14961444264E+02 -0.48737461718E+02  0.23619003989E+03  0.24162973727E+03  0.10000000000E+00 0. -1.
         21    1    1    2  504  503  0.51541177277E+02  0.12413293491E+01  0.65613857753E+02  0.83445863786E+02  0.00000000000E+00 0.  1.
<mgrwt>
<rscale>  1 0.13523853E+03</rscale>
<asrwt>0</asrwt>
<pdfrwt beam="1">  1       21 0.87674851E-01 0.13523853E+03</pdfrwt>
<pdfrwt beam="2">  1       21 0.27917621E-02 0.13523853E+03</pdfrwt>
<totfact> 0.80031097E+05</totfact>
</mgrwt>
</event>
<event>
 6    1  0.4202038E-002  0.1282054E+03  0.7546771E-02  0.1230143E+00
         21   -1    0    0  503  502  0.00000000000E+00  0.00000000000E+00  0.15455661221E+04  0.15455661221E+04  0.00000000000E+00 0.  1.
         21   -1    0    0  504  503 -0.00000000000E+00 -0.00000000000E+00 -0.55806776674E+01  0.55806776674E+01  0.00000000000E+00 0.  1.
         25    2    1    2    0    0 -0.22244504457E+02  0.17799071947E+02  0.14700698087E+04  0.14756496405E+04  0.12499997623E+03 0.  0.
          5    1    3    3  501    0 -0.55557980486E+02  0.53881280713E+02  0.77818618153E+03  0.78202533509E+03  0.10000000000E+00 0.  1.
         -5    1    3    3    0  501  0.33313476029E+02 -0.36082208766E+02  0.69188362718E+03  0.69362430540E+03  0.10000000000E+00 0.  1.
         21    1    1    2  504  502  0.22244504457E+02 -0.17799071947E+02  0.69915635749E+02  0.75497159303E+02  0.00000000000E+00 0.  1.
<mgrwt>
<rscale>  1 0.12820538E+03</rscale>
<asrwt>0</asrwt>
<pdfrwt beam="1">  1       21 0.23777906E+00 0.12820538E+03</pdfrwt>
<pdfrwt beam="2">  1       21 0.85856702E-03 0.12820538E+03</pdfrwt>
<totfact> 0.38871158E+05</totfact>
</mgrwt>
</event>
<event>
 6    1  0.4202038E-002  0.1276197E+03  0.7546771E-02  0.1231031E+00
         21   -1    0    0  504  502  0.00000000000E+00  0.00000000000E+00  0.52409483747E+03  0.52409483747E+03  0.00000000000E+00 0.  1.
         21   -1    0    0  502  503 -0.00000000000E+00 -0.00000000000E+00 -0.11430679362E+02  0.11430679362E+02  0.00000000000E+00 0.  1.
         25    2    1    2    0    0  0.25262966815E+02 -0.47385087887E+01  0.39571225118E+03  0.41578237719E+03  0.12500451387E+03 0.  0.
          5    1    3    3  501    0  0.40844203023E+02 -0.58501484000E+02  0.23566816411E+03  0.24623193563E+03  0.10000000000E+00 0.  1.
         -5    1    3    3    0  501 -0.15581236208E+02  0.53762975212E+02  0.16004408707E+03  0.16955044156E+03  0.10000000000E+00 0.  1.
         21    1    1    2  504  503 -0.25262966815E+02  0.47385087887E+01  0.11695190692E+03  0.11974313964E+03  0.00000000000E+00 0.  1.
<mgrwt>
<rscale>  1 0.12761975E+03</rscale>
<asrwt>0</asrwt>
<pdfrwt beam="1">  1       21 0.80629957E-01 0.12761975E+03</pdfrwt>
<pdfrwt beam="2">  1       21 0.17585665E-02 0.12761975E+03</pdfrwt>
<totfact> 0.20442616E+06</totfact>
</mgrwt>
</event>
<event>
 6    1  0.4202038E-002  0.1526901E+03  0.7546771E-02  0.1197206E+00
         21   -1    0    0  503  502  0.00000000000E+00  0.00000000000E+00  0.30024272647E+03  0.30024272647E+03  0.00000000000E+00 0.  1.
         21   -1    0    0  504  503 -0.00000000000E+00 -0.00000000000E+00 -0.80903545846E+02  0.80903545846E+02  0.00000000000E+00 0. -1.
         25    2    1    2    0    0  0.77891419904E+01 -0.87302246655E+02  0.86294415239E+01  0.15293376794E+03  0.12502766538E+03 0.  0.
          5    1    3    3  501    0 -0.33134634482E+02  0.52104396997E+01 -0.29655129266E+02  0.44771524163E+02  0.10000000000E+00 0. -1.
         -5    1    3    3    0  501  0.40923776472E+02 -0.92512686355E+02  0.38284570790E+02  0.10816224377E+03  0.10000000000E+00 0. -1.
         21    1    1    2  504  502 -0.77891419904E+01  0.87302246655E+02  0.21070973910E+03  0.22821250438E+03  0.00000000000E+00 0.  1.
<mgrwt>
<rscale>  1 0.15269011E+03</rscale>
<asrwt>0</asrwt>
<pdfrwt beam="1">  1       21 0.46191188E-01 0.15269011E+03</pdfrwt>
<pdfrwt beam="2">  1       21 0.12446699E-01 0.15269011E+03</pdfrwt>
<totfact> 0.24936973E+05</totfact>
</mgrwt>
</event>
<event>
 6    1  0.4202038E-002  0.1306125E+03  0.7546771E-02  0.1226550E+00
         21   -1    0    0  504  502  0.00000000000E+00  0.00000000000E+00  0.24104797753E+03  0.24104797753E+03  0.00000000000E+00 0. -1.
         21   -1    0    0  502  503 -0.00000000000E+00 -0.00000000000E+00 -0.35290729030E+02  0.35290729030E+02  0.00000000000E+00 0. -1.
         25    2    1    2    0    0 -0.30186575884E+02  0.22981275332E+02  0.19864587433E+03  0.23773896534E+03  0.12498105406E+03 0.  0.
          5    1    3    3  501    0 -0.40233425636E+02 -0.45595780334E+02  0.82571173144E+02  0.10254614745E+03  0.10000000000E+00 0.  1.
         -5    1    3    3    0  501  0.10046849753E+02  0.68577055666E+02  0.11607470118E+03  0.13519281789E+03  0.10000000000E+00 0.  1.
         21    1    1    2  504  503  0.30186575884E+02 -0.22981275332E+02  0.71113741693E+01  0.38599741217E+02  0.00000000000E+00 0. -1.
<mgrwt>
<rscale>  1 0.13061253E+03</rscale>
<asrwt>0</asrwt>
<pdfrwt beam="1">  1       21 0.37084303E-01 0.13061253E+03</pdfrwt>
<pdfrwt beam="2">  1       21 0.54293431E-02 0.13061253E+03</pdfrwt>
<totfact> 0.16352315E+06</totfact>
</mgrwt>
</event>
<event>
 6    1  0.4202038E-002  0.1265202E+03  0.7546771E-02  0.1232712E+00
         21   -1    0    0  503  502  0.00000000000E+00  0.00000000000E+00  0.12544224037E+02  0.12544224037E+02  0.00000000000E+00 0.  1.
         21   -1    0    0  504  503 -0.00000000000E+00 -0.00000000000E+00 -0.45161028888E+03  0.45161028888E+03  0.00000000000E+00 0.  1.
         25    2    1    2    0    0  0.16831214832E+02  0.99586264142E+01 -0.33146484498E+03  0.35479050353E+03  0.12499957562E+03 0.  0.
          5    1    3    3  501    0  0.66516028819E+02 -0.30530401747E+01 -0.12060096264E+03  0.13776177022E+03  0.10000000000E+00 0.  1.
         -5    1    3    3    0  501 -0.49684813987E+02  0.13011666589E+02 -0.21086388234E+03  0.21702873331E+03  0.10000000000E+00 0.  1.
         21    1    1    2  504  502 -0.16831214832E+02 -0.99586264142E+01 -0.10760121987E+03  0.10936400939E+03  0.00000000000E+00 0. -1.
<mgrwt>
<rscale>  1 0.12652019E+03</rscale>
<asrwt>0</asrwt>
<pdfrwt beam="1">  1       21 0.19298810E-02 0.12652019E+03</pdfrwt>
<pdfrwt beam="2">  1       21 0.69478491E-01 0.12652019E+03</pdfrwt>
<totfact> 0.24442333E+06</totfact>
</mgrwt>
</event>
<event>
 6    1  0.4202038E-002  0.1265684E+03  0.7546771E-02  0.1232638E+00
         21   -1    0    0  503  502  0.00000000000E+00  0.00000000000E+00  0.43642402269E+03  0.43642402269E+03  0.00000000000E+00 0. -1.
         21   -1    0    0  504  503 -0.00000000000E+00 -0.00000000000E+00 -0.14036877642E+02  0.14036877642E+02  0.00000000000E+00 0. -1.
         25    2    1    2    0    0  0.11248147199E+02 -0.16402329036E+02  0.40404649974E+03  0.42340657566E+03  0.12499598852E+03 0.  0.
          5    1    3    3  501    0  0.57015079311E+02 -0.36105490886E+02  0.14946044201E+03  0.16399012003E+03  0.10000000000E+00 0. -1.
         -5    1    3    3    0  501 -0.45766932112E+02  0.19703161850E+02  0.25458605773E+03  0.25941645563E+03  0.10000000000E+00 0. -1.
         21    1    1    2  504  502 -0.11248147199E+02  0.16402329036E+02  0.18340645306E+02  0.27054324671E+02  0.00000000000E+00 0. -1.
<mgrwt>
<rscale>  1 0.12656838E+03</rscale>
<asrwt>0</asrwt>
<pdfrwt beam="1">  1       21 0.67142147E-01 0.12656838E+03</pdfrwt>
<pdfrwt beam="2">  1       21 0.21595200E-02 0.12656838E+03</pdfrwt>
<totfact> 0.21956591E+06</totfact>
</mgrwt>
</event>
<event>
 6    1  0.4202038E-002  0.1406036E+03  0.7546771E-02  0.1212519E+00
         21   -1    0    0  504  502  0.00000000000E+00  0.00000000000E+00  0.37754453682E+03  0.37754453682E+03  0.00000000000E+00 0. -1.
         21   -1    0    0  502  503 -0.00000000000E+00 -0.00000000000E+00 -0.50837901004E+02  0.50837901004E+02  0.00000000000E+00 0. -1.
         25    2    1    2    0    0 -0.10419336419E+02  0.63530158757E+02  0.33515341042E+03  0.36345176985E+03  0.12499894737E+03 0.  0.
          5    1    3    3  501    0 -0.47181015158E+02 -0.77873720568E+01  0.20541610757E+03  0.21090869732E+03  0.10000000000E+00 0.  1.
         -5    1    3    3    0  501  0.36761678739E+02  0.71317530814E+02  0.12973730286E+03  0.15254307253E+03  0.10000000000E+00 0.  1.
         21    1    1    2  504  503  0.10419336419E+02 -0.63530158757E+02 -0.84467746055E+01  0.64930667980E+02  0.00000000000E+00 0. -1.
<mgrwt>
<rscale>  1 0.14060363E+03</rscale>
<asrwt>0</asrwt>
<pdfrwt beam="1">  1       21 0.58083773E-01 0.14060363E+03</pdfrwt>
<pdfrwt beam="2">  1       21 0.78212158E-02 0.14060363E+03</pdfrwt>
<totfact> 0.35040079E+05</totfact>
</mgrwt>
</event>
<event>
 6    1  0.4202038E-002  0.1259709E+03  0.7546771E-02  0.1233560E+00
         21   -1    0    0  504  502  0.00000000000E+00  0.00000000000E+00  0.78537432842E+01  0.78537432842E+01  0.00000000000E+00 0. -1.
         21   -1    0    0  502  503 -0.00000000000E+00 -0.00000000000E+00 -0.64582266282E+03  0.64582266282E+03  0.00000000000E+00 0. -1.
         25    2    1    2    0    0  0.13970875196E+02  0.69379611359E+01 -0.54187884077E+03  0.55632845340E+03  0.12500139731E+03 0.  0.
          5    1    3    3  501    0 -0.19008380526E+02 -0.46083748471E+02 -0.37223086959E+03  0.37555407158E+03  0.10000000000E+00 0. -1.
         -5    1    3    3    0  501  0.32979255722E+02  0.53021709607E+02 -0.16964797118E+03  0.18077438183E+03  0.10000000000E+00 0. -1.
         21    1    1    2  504  503 -0.13970875196E+02 -0.69379611359E+01 -0.96090078759E+02  0.97347952698E+02  0.00000000000E+00 0. -1.
<mgrwt>
<rscale>  1 0.12597091E+03</rscale>
<asrwt>0</asrwt>
<pdfrwt beam="1">  1       21 0.12082677E-02 0.12597091E+03</pdfrwt>
<pdfrwt beam="2">  1       21 0.99357370E-01 0.12597091E+03</pdfrwt>
<totfact> 0.23081632E+06</totfact>
</mgrwt>
</event>
<event>
 6    1  0.4202038E-002  0.1406052E+03  0.7546771E-02  0.1212517E+00
         21   -1    0    0  504  502  0.00000000000E+00  0.00000000000E+00  0.35192137278E+02  0.35192137278E+02  0.00000000000E+00 0. -1.
         21   -1    0    0  502  503 -0.00000000000E+00 -0.00000000000E+00 -0.43396256716E+03  0.43396256716E+03  0.00000000000E+00 0. -1.
         25    2    1    2    0    0 -0.38029886677E+02  0.51954264929E+02 -0.12571486546E+03  0.18861084123E+03  0.12499721639E+03 0.  0.
          5    1    3    3  501    0  0.36560035461E+02 -0.15805863010E+02 -0.35144755705E+02  0.53118973559E+02  0.10000000000E+00 0.  1.
         -5    1    3    3    0  501 -0.74589922138E+02  0.67760127939E+02 -0.90570109760E+02  0.13549186767E+03  0.10000000000E+00 0.  1.
         21    1    1    2  504  503  0.38029886677E+02 -0.51954264929E+02 -0.27305556441E+03  0.28054386321E+03  0.00000000000E+00 0. -1.
<mgrwt>
<rscale>  1 0.14060520E+03</rscale>
<asrwt>0</asrwt>
<pdfrwt beam="1">  1       21 0.54141750E-02 0.14060520E+03</pdfrwt>
<pdfrwt beam="2">  1       21 0.66763472E-01 0.14060520E+03</pdfrwt>
<totfact> 0.48720089E+05</totfact>
</mgrwt>
</event>
<event>
 6    1  0.4202038E-002  0.1331440E+03  0.7546771E-02  0.1222864E+00
         21   -1    0    0  503  502  0.00000000000E+00  0.00000000000E+00  0.61369674688E+03  0.61369674688E+03  0.00000000000E+00 0.  1.
         21   -1    0    0  504  503 -0.00000000000E+00 -0.00000000000E+00 -0.36078722634E+02  0.36078722634E+02  0.00000000000E+00 0.  1.
         25    2    1    2    0    0 -0.25750641757E+02  0.37946795622E+02  0.58789127388E+03  0.60277978347E+03  0.12499705041E+03 0.  0.
          5    1    3    3  501    0 -0.31316674772E+02  0.77924664305E+02  0.48567629206E+03  0.49288381805E+03  0.10000000000E+00 0.  1.
         -5    1    3    3    0  501  0.55660330157E+01 -0.39977868683E+02  0.10221498182E+03  0.10989596542E+03  0.10000000000E+00 0.  1.
         21    1    1    2  504  502  0.25750641757E+02 -0.37946795622E+02 -0.10273249630E+02  0.46995686045E+02  0.00000000000E+00 0.  1.
<mgrwt>
<rscale>  1 0.13314397E+03</rscale>
<asrwt>0</asrwt>
<pdfrwt beam="1">  1       21 0.94414876E-01 0.13314397E+03</pdfrwt>
<pdfrwt beam="2">  1       21 0.55505732E-02 0.13314397E+03</pdfrwt>
<totfact> 0.21553363E+05</totfact>
</mgrwt>
</event>
<event>
 6    1  0.4202038E-002  0.1264323E+03  0.7546771E-02  0.1232848E+00
         21   -1    0    0  503  502  0.00000000000E+00  0.00000000000E+00  0.34200780433E+03  0.34200780433E+03  0.00000000000E+00 0. -1.
         21   -1    0    0  504  503 -0.00000000000E+00 -0.00000000000E+00 -0.15855229941E+02  0.15855229941E+02  0.00000000000E+00 0. -1.
         25    2    1    2    0    0 -0.52948221555E+01  0.18248885575E+02  0.29984578835E+03  0.32541147101E+03  0.12499628677E+03 0.  0.
          5    1    3    3  501    0 -0.41159803708E+02  0.24108724507E+02  0.27994238859E+03  0.28397730713E+03  0.10000000000E+00 0. -1.
         -5    1    3    3    0  501  0.35864981552E+02 -0.58598389320E+01  0.19903399762E+02  0.41434163876E+02  0.10000000000E+00 0. -1.
         21    1    1    2  504  502  0.52948221555E+01 -0.18248885575E+02  0.26306786038E+02  0.32451563260E+02  0.00000000000E+00 0. -1.
<mgrwt>
<rscale>  1 0.12643231E+03</rscale>
<asrwt>0</asrwt>
<pdfrwt beam="1">  1       21 0.52616580E-01 0.12643231E+03</pdfrwt>
<pdfrwt beam="2">  1       21 0.24392664E-02 0.12643231E+03</pdfrwt>
<totfact> 0.30211385E+06</totfact>
</mgrwt>
</event>
<event>
 6    1  0.4202038E-002  0.1352079E+03  0.7546771E-02  0.1219927E+00
         21   -1    0    0  503  502  0.00000000000E+00  0.00000000000E+00  0.11096025624E+03  0.11096025624E+03  0.00000000000E+00 0. -1.
         21   -1    0    0  504  503 -0.00000000000E+00 -0.00000000000E+00 -0.14480565473E+03  0.14480565473E+03  0.00000000000E+00 0. -1.
         25    2    1    2    0    0  0.17697872286E+01 -0.51514073789E+02  0.60602557099E+02  0.14816828896E+03  0.12499735990E+03 0.  0.
          5    1    3    3  501    0  0.44123653059E+02 -0.26658202443E+02  0.80162161522E+02  0.95307600203E+02  0.10000000000E+00 0.  1.
         -5    1    3    3    0  501 -0.42353865830E+02 -0.24855871346E+02 -0.19559604423E+02  0.52860688761E+02  0.10000000000E+00 0.  1.
         21    1    1    2  504  502 -0.17697872286E+01  0.51514073789E+02 -0.94447955596E+02  0.10759762201E+03  0.00000000000E+00 0. -1.
<mgrwt>
<rscale>  1 0.13520788E+03</rscale>
<asrwt>0</asrwt>
<pdfrwt beam="1">  1       21 0.17070809E-01 0.13520788E+03</pdfrwt>
<pdfrwt beam="2">  1       21 0.22277793E-01 0.13520788E+03</pdfrwt>
<totfact> 0.58718396E+05</totfact>
</mgrwt>
</event>
<event>
 6    1  0.4202038E-002  0.1783236E+03  0.7546771E-02  0.1169435E+00
         21   -1    0    0  504  502  0.00000000000E+00  0.00000000000E+00  0.69971311412E+03  0.69971311412E+03  0.00000000000E+00 0.  1.
         21   -1    0    0  502  503 -0.00000000000E+00 -0.00000000000E+00 -0.65891302371E+02  0.65891302371E+02  0.00000000000E+00 0. -1.
         25    2    1    2    0    0 -0.11967870374E+03  0.43040768344E+02  0.61087162253E+03  0.63636738212E+03  0.12499522371E+03 0.  0.
          5    1    3    3  501    0 -0.12823457138E+03  0.19961515571E+02  0.33281126226E+03  0.35721969947E+03  0.10000000000E+00 0.  1.
         -5    1    3    3    0  501  0.85558676374E+01  0.23079252773E+02  0.27806036026E+03  0.27914768265E+03  0.10000000000E+00 0.  1.
         21    1    1    2  504  503  0.11967870374E+03 -0.43040768344E+02  0.22950189225E+02  0.12923703437E+03  0.00000000000E+00 0. -1.
<mgrwt>
<rscale>  1 0.17832360E+03</rscale>
<asrwt>0</asrwt>
<pdfrwt beam="1">  1       21 0.10764817E+00 0.17832360E+03</pdfrwt>
<pdfrwt beam="2">  1       21 0.10137124E-01 0.17832360E+03</pdfrwt>
<totfact> 0.54897912E+04</totfact>
</mgrwt>
</event>
<event>
 6    1  0.4202038E-002  0.1657330E+03  0.7546771E-02  0.1182372E+00
         21   -1    0    0  503  502  0.00000000000E+00  0.00000000000E+00  0.14872121553E+03  0.14872121553E+03  0.00000000000E+00 0. -1.
         21   -1    0    0  504  503 -0.00000000000E+00 -0.00000000000E+00 -0.14359252800E+03  0.14359252800E+03  0.00000000000E+00 0. -1.
         25    2    1    2    0    0  0.70507679979E+02  0.82885536278E+02  0.52188594897E+02  0.17375582544E+03  0.12500436943E+03 0.  0.
          5    1    3    3  501    0  0.40049992741E+00  0.80439096943E+02 -0.86438768659E+01  0.80903246687E+02  0.10000000000E+00 0.  1.
         -5    1    3    3    0  501  0.70107180051E+02  0.24464393353E+01  0.60832471763E+02  0.92852578752E+02  0.10000000000E+00 0.  1.
         21    1    1    2  504  502 -0.70507679979E+02 -0.82885536278E+02 -0.47059907371E+02  0.11855791809E+03  0.00000000000E+00 0. -1.
<mgrwt>
<rscale>  1 0.16573303E+03</rscale>
<asrwt>0</asrwt>
<pdfrwt beam="1">  1       21 0.22880187E-01 0.16573303E+03</pdfrwt>
<pdfrwt beam="2">  1       21 0.22091158E-01 0.16573303E+03</pdfrwt>
<totfact> 0.34530803E+05</totfact>
</mgrwt>
</event>
<event>
 6    1  0.4202038E-002  0.1259429E+03  0.7546771E-02  0.1233603E+00
         21   -1    0    0  503  502  0.00000000000E+00  0.00000000000E+00  0.23752300577E+02  0.23752300577E+02  0.00000000000E+00 0.  1.
         21   -1    0    0  504  503 -0.00000000000E+00 -0.00000000000E+00 -0.24906360797E+03  0.24906360797E+03  0.00000000000E+00 0.  1.
         25    2    1    2    0    0 -0.15330098609E+02 -0.88349593755E+00 -0.14956233433E+03  0.19552619767E+03  0.12500323849E+03 0.  0.
          5    1    3    3  501    0 -0.44270387778E+02  0.39401730599E+02 -0.12874718532E+03  0.14173288727E+03  0.10000000000E+00 0. -1.
         -5    1    3    3    0  501  0.28940289170E+02 -0.40285226537E+02 -0.20815149017E+02  0.53793310392E+02  0.10000000000E+00 0. -1.
         21    1    1    2  504  502  0.15330098609E+02  0.88349593755E+00 -0.75748973063E+02  0.77289710884E+02  0.00000000000E+00 0.  1.
<mgrwt>
<rscale>  1 0.12594285E+03</rscale>
<asrwt>0</asrwt>
<pdfrwt beam="1">  1       21 0.36542000E-02 0.12594285E+03</pdfrwt>
<pdfrwt beam="2">  1       21 0.38317479E-01 0.12594285E+03</pdfrwt>
<totfact> 0.29655270E+06</totfact>
</mgrwt>
</event>
<event>
 6    1  0.4202038E-002  0.1264338E+03  0.7546771E-02  0.1232845E+00
         21   -1    0    0  503  502  0.00000000000E+00  0.00000000000E+00  0.10322889754E+03  0.10322889754E+03  0.00000000000E+00 0.  1.
         21   -1    0    0  504  503 -0.00000000000E+00 -0.00000000000E+00 -0.62266874090E+02  0.62266874090E+02  0.00000000000E+00 0.  1.
         25    2    1    2    0    0 -0.13002628821E+02  0.13833856184E+02  0.58806470219E+02  0.13944067205E+03  0.12500022460E+03 0.  0.
          5    1    3    3  501    0  0.59026724010E+01 -0.53258317599E+02  0.41073558173E+02  0.67515458348E+02  0.10000000000E+00 0.  1.
         -5    1    3    3    0  501 -0.18905301222E+02  0.67092173783E+02  0.17732912046E+02  0.71925213707E+02  0.10000000000E+00 0.  1.
         21    1    1    2  504  502  0.13002628821E+02 -0.13833856184E+02 -0.17844446771E+02  0.26055099572E+02  0.00000000000E+00 0.  1.
<mgrwt>
<rscale>  1 0.12643378E+03</rscale>
<asrwt>0</asrwt>
<pdfrwt beam="1">  1       21 0.15881369E-01 0.12643378E+03</pdfrwt>
<pdfrwt beam="2">  1       21 0.95795191E-02 0.12643378E+03</pdfrwt>
<totfact> 0.30599502E+06</totfact>
</mgrwt>
</event>
<event>
 6    1  0.4202038E-002  0.1323080E+03  0.7546771E-02  0.1224071E+00
         21   -1    0    0  504  502  0.00000000000E+00  0.00000000000E+00  0.22425782979E+02  0.22425782979E+02  0.00000000000E+00 0.  1.
         21   -1    0    0  502  503 -0.00000000000E+00 -0.00000000000E+00 -0.37577234501E+03  0.37577234501E+03  0.00000000000E+00 0.  1.
         25    2    1    2    0    0 -0.11719374237E+02 -0.41764974435E+02 -0.20798177170E+03  0.24649915274E+03  0.12499503239E+03 0.  0.
          5    1    3    3  501    0 -0.66365057857E+02 -0.37695893091E+02 -0.13701302839E+03  0.15683711681E+03  0.10000000000E+00 0.  1.
         -5    1    3    3    0  501  0.54645683620E+02 -0.40690813446E+01 -0.70968743312E+02  0.89662035938E+02  0.10000000000E+00 0.  1.
         21    1    1    2  504  503  0.11719374237E+02  0.41764974435E+02 -0.14536479033E+03  0.15169897524E+03  0.00000000000E+00 0.  1.
<mgrwt>
<rscale>  1 0.13230803E+03</rscale>
<asrwt>0</asrwt>
<pdfrwt beam="1">  1       21 0.34501204E-02 0.13230803E+03</pdfrwt>
<pdfrwt beam="2">  1       21 0.57811131E-01 0.13230803E+03</pdfrwt>
<totfact> 0.14072788E+06</totfact>
</mgrwt>
</event>
<event>
 6    1  0.4202038E-002  0.1332048E+03  0.7546771E-02  0.1222776E+00
         21   -1    0    0  503  502  0.00000000000E+00  0.00000000000E+00  0.48393963737E+03  0.48393963737E+03  0.00000000000E+00 0.  1.
         21   -1    0    0  504  503 -0.00000000000E+00 -0.00000000000E+00 -0.27902287291E+02  0.27902287291E+02  0.00000000000E+00 0.  1.
         25    2    1    2    0    0  0.25635820912E+00  0.46017816221E+02  0.44501294306E+03  0.46452128773E+03  0.12500320849E+03 0.  0.
          5    1    3    3  501    0  0.58656896883E+02  0.43888139676E+02  0.21236076970E+03  0.22464173002E+03  0.10000000000E+00 0.  1.
         -5    1    3    3    0  501 -0.58400538673E+02  0.21296765444E+01  0.23265217336E+03  0.23987955771E+03  0.10000000000E+00 0.  1.
         21    1    1    2  504  502 -0.25635820912E+00 -0.46017816221E+02  0.11024407014E+02  0.47320636928E+02  0.00000000000E+00 0.  1.
<mgrwt>
<rscale>  1 0.13320476E+03</rscale>
<asrwt>0</asrwt>
<pdfrwt beam="1">  1       21 0.74452246E-01 0.13320476E+03</pdfrwt>
<pdfrwt beam="2">  1       21 0.42926599E-02 0.13320476E+03</pdfrwt>
<totfact> 0.56726886E+05</totfact>
</mgrwt>
</event>
<event>
 6    1  0.4202038E-002  0.1270354E+03  0.7546771E-02  0.1231922E+00
         21   -1    0    0  503  502  0.00000000000E+00  0.00000000000E+00  0.14414565955E+04  0.14414565955E+04  0.00000000000E+00 0. -1.
         21   -1    0    0  504  503 -0.00000000000E+00 -0.00000000000E+00 -0.10660920056E+02  0.10660920056E+02  0.00000000000E+00 0. -1.
         25    2    1    2    0    0  0.10873015285E+02  0.19894368542E+02  0.14222134910E+04  0.14278757695E+04  0.12499596345E+03 0.  0.
          5    1    3    3  501    0 -0.43962544791E+02 -0.18045434694E+02  0.92380284562E+03  0.92502435138E+03  0.10000000000E+00 0. -1.
         -5    1    3    3    0  501  0.54835560075E+02  0.37939803235E+02  0.49841064537E+03  0.50285141815E+03  0.10000000000E+00 0. -1.
         21    1    1    2  504  502 -0.10873015285E+02 -0.19894368542E+02  0.85821844671E+01  0.24241746044E+02  0.00000000000E+00 0. -1.
<mgrwt>
<rscale>  1 0.12703543E+03</rscale>
<asrwt>0</asrwt>
<pdfrwt beam="1">  1       21 0.22176240E+00 0.12703543E+03</pdfrwt>
<pdfrwt beam="2">  1       21 0.16401427E-02 0.12703543E+03</pdfrwt>
<totfact> 0.17338559E+05</totfact>
</mgrwt>
</event>
<event>
 6    1  0.4202038E-002  0.1264334E+03  0.7546771E-02  0.1232846E+00
         21   -1    0    0  504  502  0.00000000000E+00  0.00000000000E+00  0.46808798629E+02  0.46808798629E+02  0.00000000000E+00 0.  1.
         21   -1    0    0  502  503 -0.00000000000E+00 -0.00000000000E+00 -0.11886709863E+03  0.11886709863E+03  0.00000000000E+00 0.  1.
         25    2    1    2    0    0  0.98784952730E+01 -0.16192393602E+02 -0.48466533124E+02  0.13540462798E+03  0.12500252064E+03 0.  0.
          5    1    3    3  501    0 -0.27476937158E+02  0.44109261886E+02 -0.49901301196E+01  0.52206517393E+02  0.10000000000E+00 0.  1.
         -5    1    3    3    0  501  0.37355432431E+02 -0.60301655489E+02 -0.43476403005E+02  0.83198110586E+02  0.10000000000E+00 0.  1.
         21    1    1    2  504  503 -0.98784952730E+01  0.16192393602E+02 -0.23591766872E+02  0.30271269276E+02  0.00000000000E+00 0. -1.
<mgrwt>
<rscale>  1 0.12643342E+03</rscale>
<asrwt>0</asrwt>
<pdfrwt beam="1">  1       21 0.72013537E-02 0.12643342E+03</pdfrwt>
<pdfrwt beam="2">  1       21 0.18287246E-01 0.12643342E+03</pdfrwt>
<totfact> 0.38748307E+06</totfact>
</mgrwt>
</event>
<event>
 6    1  0.4202038E-002  0.1344347E+03  0.7546771E-02  0.1221020E+00
         21   -1    0    0  504  502  0.00000000000E+00  0.00000000000E+00  0.25871312798E+02  0.25871312798E+02  0.00000000000E+00 0. -1.
         21   -1    0    0  502  503 -0.00000000000E+00 -0.00000000000E+00 -0.36448772073E+03  0.36448772073E+03  0.00000000000E+00 0. -1.
         25    2    1    2    0    0  0.21478199225E+02  0.44548262517E+02 -0.18299319703E+03  0.22706652143E+03  0.12500733683E+03 0.  0.
          5    1    3    3  501    0 -0.43384081534E+02 -0.15264617235E+02 -0.68851033930E+02  0.82798924770E+02  0.10000000000E+00 0.  1.
         -5    1    3    3    0  501  0.64862280759E+02  0.59812879752E+02 -0.11414216310E+03  0.14426759666E+03  0.10000000000E+00 0.  1.
         21    1    1    2  504  503 -0.21478199225E+02 -0.44548262517E+02 -0.15562321090E+03  0.16329251210E+03  0.00000000000E+00 0. -1.
<mgrwt>
<rscale>  1 0.13443472E+03</rscale>
<asrwt>0</asrwt>
<pdfrwt beam="1">  1       21 0.39802020E-02 0.13443472E+03</pdfrwt>
<pdfrwt beam="2">  1       21 0.56075034E-01 0.13443472E+03</pdfrwt>
<totfact> 0.11844390E+06</totfact>
</mgrwt>
</event>
<event>
 6    1  0.4202038E-002  0.1260271E+03  0.7546771E-02  0.1233473E+00
         21   -1    0    0  503  502  0.00000000000E+00  0.00000000000E+00  0.16074935669E+02  0.16074935669E+02  0.00000000000E+00 0. -1.
         21   -1    0    0  504  503 -0.00000000000E+00 -0.00000000000E+00 -0.31406264503E+03  0.31406264503E+03  0.00000000000E+00 0. -1.
         25    2    1    2    0    0 -0.70114097234E+01 -0.14467115627E+02 -0.26365842505E+03  0.29223036421E+03  0.12499745343E+03 0.  0.
          5    1    3    3  501    0 -0.44799365756E+02 -0.52043362117E+02 -0.18394023516E+03  0.19634030361E+03  0.10000000000E+00 0. -1.
         -5    1    3    3    0  501  0.37787956033E+02  0.37576246490E+02 -0.79718189898E+02  0.95890060601E+02  0.10000000000E+00 0. -1.
         21    1    1    2  504  502  0.70114097234E+01  0.14467115627E+02 -0.34329284304E+02  0.37907216486E+02  0.00000000000E+00 0. -1.
<mgrwt>
<rscale>  1 0.12602706E+03</rscale>
<asrwt>0</asrwt>
<pdfrwt beam="1">  1       21 0.24730671E-02 0.12602706E+03</pdfrwt>
<pdfrwt beam="2">  1       21 0.48317329E-01 0.12602706E+03</pdfrwt>
<totfact> 0.35223110E+06</totfact>
</mgrwt>
</event>
<event>
 6    1  0.4202038E-002  0.1270381E+03  0.7546771E-02  0.1231918E+00
         21   -1    0    0  503  502  0.00000000000E+00  0.00000000000E+00  0.48933521649E+01  0.48933521649E+01  0.00000000000E+00 0. -1.
         21   -1    0    0  504  503 -0.00000000000E+00 -0.00000000000E+00 -0.11521979287E+04  0.11521979287E+04  0.00000000000E+00 0. -1.
         25    2    1    2    0    0  0.62068364998E+01 -0.21769974387E+02 -0.93725111849E+03  0.94582152004E+03  0.12500492809E+03 0.  0.
          5    1    3    3  501    0  0.12087788039E+02 -0.73725243674E+02 -0.53944175757E+03  0.54459062238E+03  0.10000000000E+00 0.  1.
         -5    1    3    3    0  501 -0.58809515389E+01  0.51955269287E+02 -0.39780936092E+03  0.40123089765E+03  0.10000000000E+00 0.  1.
         21    1    1    2  504  502 -0.62068364998E+01  0.21769974387E+02 -0.21005345808E+03  0.21126976086E+03  0.00000000000E+00 0.  1.
<mgrwt>
<rscale>  1 0.12703814E+03</rscale>
<asrwt>0</asrwt>
<pdfrwt beam="1">  1       21 0.75282363E-03 0.12703814E+03</pdfrwt>
<pdfrwt beam="2">  1       21 0.17726117E+00 0.12703814E+03</pdfrwt>
<totfact> 0.11335428E+06</totfact>
</mgrwt>
</event>
<event>
 6    1  0.4202038E-002  0.1309220E+03  0.7546771E-02  0.1226094E+00
         21   -1    0    0  504  502  0.00000000000E+00  0.00000000000E+00  0.97935897739E+02  0.97935897739E+02  0.00000000000E+00 0.  1.
         21   -1    0    0  502  503 -0.00000000000E+00 -0.00000000000E+00 -0.74414291436E+02  0.74414291436E+02  0.00000000000E+00 0.  1.
         25    2    1    2    0    0  0.13988995575E+01 -0.38906454454E+02  0.10686662715E+02  0.13135744719E+03  0.12499962022E+03 0.  0.
          5    1    3    3  501    0 -0.12496558269E+02  0.20105422346E+01 -0.52946694094E+02  0.54438668831E+02  0.10000000000E+00 0. -1.
         -5    1    3    3    0  501  0.13895457826E+02 -0.40916996688E+02  0.63633356809E+02  0.76918778364E+02  0.10000000000E+00 0. -1.
         21    1    1    2  504  503 -0.13988995575E+01  0.38906454454E+02  0.12834943588E+02  0.40992741980E+02  0.00000000000E+00 0.  1.
<mgrwt>
<rscale>  1 0.13092202E+03</rscale>
<asrwt>0</asrwt>
<pdfrwt beam="1">  1       21 0.15067061E-01 0.13092202E+03</pdfrwt>
<pdfrwt beam="2">  1       21 0.11448352E-01 0.13092202E+03</pdfrwt>
<totfact> 0.24647274E+06</totfact>
</mgrwt>
</event>
<event>
 6    1  0.4202038E-002  0.1263869E+03  0.7546771E-02  0.1232918E+00
         21   -1    0    0  503  502  0.00000000000E+00  0.00000000000E+00  0.18645617485E+03  0.18645617485E+03  0.00000000000E+00 0. -1.
         21   -1    0    0  504  503 -0.00000000000E+00 -0.00000000000E+00 -0.30821419306E+03  0.30821419306E+03  0.00000000000E+00 0.  1.
         25    2    1    2    0    0  0.23109267061E+01 -0.18464649688E+02  0.16470212530E+03  0.20760644211E+03  0.12500944387E+03 0.  0.
          5    1    3    3  501    0  0.11798953541E+02  0.18542270302E+02  0.16784086544E+03  0.16927373454E+03  0.10000000000E+00 0.  1.
         -5    1    3    3    0  501 -0.94880268348E+01 -0.37006919989E+02 -0.31387401361E+01  0.38332707574E+02  0.10000000000E+00 0.  1.
         21    1    1    2  504  502 -0.23109267061E+01  0.18464649688E+02 -0.28646014351E+03  0.28706392579E+03  0.00000000000E+00 0.  1.
<mgrwt>
<rscale>  1 0.12638689E+03</rscale>
<asrwt>0</asrwt>
<pdfrwt beam="1">  1       21 0.28685566E-01 0.12638689E+03</pdfrwt>
<pdfrwt beam="2">  1       21 0.47417568E-01 0.12638689E+03</pdfrwt>
<totfact> 0.51120710E+04</totfact>
</mgrwt>
</event>
<event>
 6    1  0.4202038E-002  0.1275746E+03  0.7546771E-02  0.1231100E+00
         21   -1    0    0  504  502  0.00000000000E+00  0.00000000000E+00  0.90416197332E+02  0.90416197332E+02  0.00000000000E+00 0. -1.
         21   -1    0    0  502  503 -0.00000000000E+00 -0.00000000000E+00 -0.67690875612E+02  0.67690875612E+02  0.00000000000E+00 0. -1.
         25    2    1    2    0    0  0.63913167064E+01  0.24661673353E+02  0.31061475241E+02  0.13130150417E+03  0.12500489067E+03 0.  0.
          5    1    3    3  501    0 -0.29077377867E+02 -0.27050869889E+02  0.51783067870E+02  0.65259019173E+02  0.10000000000E+00 0. -1.
         -5    1    3    3    0  501  0.35468694574E+02  0.51712543242E+02 -0.20721592628E+02  0.66042484996E+02  0.10000000000E+00 0. -1.
         21    1    1    2  504  503 -0.63913167064E+01 -0.24661673353E+02 -0.83361535212E+01  0.26805568775E+02  0.00000000000E+00 0. -1.
<mgrwt>
<rscale>  1 0.12757457E+03</rscale>
<asrwt>0</asrwt>
<pdfrwt beam="1">  1       21 0.13910184E-01 0.12757457E+03</pdfrwt>
<pdfrwt beam="2">  1       21 0.10413981E-01 0.12757457E+03</pdfrwt>
<totfact> 0.33580814E+06</totfact>
</mgrwt>
</event>
<event>
 6    1  0.4202038E-002  0.1260606E+03  0.7546771E-02  0.1233421E+00
         21   -1    0    0  503  502  0.00000000000E+00  0.00000000000E+00  0.74914836438E+02  0.74914836438E+02  0.00000000000E+00 0. -1.
         21   -1    0    0  504  503 -0.00000000000E+00 -0.00000000000E+00 -0.75611013193E+02  0.75611013193E+02  0.00000000000E+00 0. -1.
         25    2    1    2    0    0  0.11864747304E+02 -0.11205880118E+02  0.16126239729E+02  0.12708789592E+03  0.12499973482E+03 0.  0.
          5    1    3    3  501    0  0.33790721346E+02 -0.23620082062E+02  0.62171702591E+02  0.74599274318E+02  0.10000000000E+00 0.  1.
         -5    1    3    3    0  501 -0.21925974042E+02  0.12414201944E+02 -0.46045462862E+02  0.52488621603E+02  0.10000000000E+00 0.  1.
         21    1    1    2  504  502 -0.11864747304E+02  0.11205880118E+02 -0.16822416484E+02  0.23437953711E+02  0.00000000000E+00 0.  1.
<mgrwt>
<rscale>  1 0.12606061E+03</rscale>
<asrwt>0</asrwt>
<pdfrwt beam="1">  1       21 0.11525360E-01 0.12606061E+03</pdfrwt>
<pdfrwt beam="2">  1       21 0.11632463E-01 0.12606061E+03</pdfrwt>
<totfact> 0.38593893E+06</totfact>
</mgrwt>
</event>
<event>
 6    1  0.4202038E-002  0.1267201E+03  0.7546771E-02  0.1232405E+00
         21   -1    0    0  503  502  0.00000000000E+00  0.00000000000E+00  0.33178797153E+01  0.33178797153E+01  0.00000000000E+00 0.  1.
         21   -1    0    0  504  503 -0.00000000000E+00 -0.00000000000E+00 -0.16426808437E+04  0.16426808437E+04  0.00000000000E+00 0.  1.
         25    2    1    2    0    0  0.18899134451E+02 -0.86393453500E+01 -0.13812886851E+04  0.13870891852E+04  0.12500464178E+03 0.  0.
          5    1    3    3  501    0 -0.35167246997E+02  0.26581349027E+02 -0.24252881219E+03  0.24650261281E+03  0.10000000000E+00 0.  1.
         -5    1    3    3    0  501  0.54066381448E+02 -0.35220694377E+02 -0.11387598730E+04  0.11405865724E+04  0.10000000000E+00 0.  1.
         21    1    1    2  504  502 -0.18899134451E+02  0.86393453500E+01 -0.25807427882E+03  0.25890953817E+03  0.00000000000E+00 0.  1.
<mgrwt>
<rscale>  1 0.12672007E+03</rscale>
<asrwt>0</asrwt>
<pdfrwt beam="1">  1       21 0.51044292E-03 0.12672007E+03</pdfrwt>
<pdfrwt beam="2">  1       21 0.25272019E+00 0.12672007E+03</pdfrwt>
<totfact> 0.71667074E+05</totfact>
</mgrwt>
</event>
<event>
 6    1  0.4202038E-002  0.1262400E+03  0.7546771E-02  0.1233144E+00
         21   -1    0    0  504  502  0.00000000000E+00  0.00000000000E+00  0.75640178014E+02  0.75640178014E+02  0.00000000000E+00 0. -1.
         21   -1    0    0  502  503 -0.00000000000E+00 -0.00000000000E+00 -0.73654722354E+02  0.73654722354E+02  0.00000000000E+00 0. -1.
         25    2    1    2    0    0 -0.14903567092E+02  0.93855029596E+01 -0.11994317056E+02  0.12680850397E+03  0.12500531612E+03 0.  0.
          5    1    3    3  501    0 -0.51991620712E+02 -0.38779051957E+02 -0.12306709399E+02  0.66018244382E+02  0.10000000000E+00 0. -1.
         -5    1    3    3    0  501  0.37088053620E+02  0.48164554917E+02  0.31239234286E+00  0.60790259587E+02  0.10000000000E+00 0. -1.
         21    1    1    2  504  503  0.14903567092E+02 -0.93855029596E+01  0.13979772716E+02  0.22486396400E+02  0.00000000000E+00 0. -1.
<mgrwt>
<rscale>  1 0.12623998E+03</rscale>
<asrwt>0</asrwt>
<pdfrwt beam="1">  1       21 0.11636950E-01 0.12623998E+03</pdfrwt>
<pdfrwt beam="2">  1       21 0.11331496E-01 0.12623998E+03</pdfrwt>
<totfact> 0.39741995E+06</totfact>
</mgrwt>
</event>
<event>
 6    1  0.4202038E-002  0.1271041E+03  0.7546771E-02  0.1231817E+00
         21   -1    0    0  503  502  0.00000000000E+00  0.00000000000E+00  0.31466427295E+02  0.31466427295E+02  0.00000000000E+00 0.  1.
         21   -1    0    0  504  503 -0.00000000000E+00 -0.00000000000E+00 -0.20187871334E+03  0.20187871334E+03  0.00000000000E+00 0.  1.
         25    2    1    2    0    0 -0.18325218604E+02 -0.13939694431E+02 -0.16730714999E+03  0.21011217725E+03  0.12500126348E+03 0.  0.
          5    1    3    3  501    0 -0.34516481567E+02  0.42237681172E+02 -0.12941879811E+03  0.14044445349E+03  0.10000000000E+00 0.  1.
         -5    1    3    3    0  501  0.16191262963E+02 -0.56177375602E+02 -0.37888351879E+02  0.69667723761E+02  0.10000000000E+00 0.  1.
         21    1    1    2  504  502  0.18325218604E+02  0.13939694431E+02 -0.31051360497E+01  0.23232963384E+02  0.00000000000E+00 0. -1.
<mgrwt>
<rscale>  1 0.12710407E+03</rscale>
<asrwt>0</asrwt>
<pdfrwt beam="1">  1       21 0.48409889E-02 0.12710407E+03</pdfrwt>
<pdfrwt beam="2">  1       21 0.31058263E-01 0.12710407E+03</pdfrwt>
<totfact> 0.28037405E+06</totfact>
</mgrwt>
</event>
<event>
 6    1  0.4202038E-002  0.1335462E+03  0.7546771E-02  0.1222287E+00
         21   -1    0    0  503  502  0.00000000000E+00  0.00000000000E+00  0.58105419269E+02  0.58105419269E+02  0.00000000000E+00 0.  1.
         21   -1    0    0  504  503 -0.00000000000E+00 -0.00000000000E+00 -0.14031523838E+03  0.14031523838E+03  0.00000000000E+00 0.  1.
         25    2    1    2    0    0  0.45502089234E+02  0.11774062649E+02 -0.58925274251E+02  0.14596840598E+03  0.12500207567E+03 0.  0.
          5    1    3    3  501    0  0.37369680594E+02 -0.54864774193E+02 -0.30852125349E+02  0.73201776710E+02  0.10000000000E+00 0.  1.
         -5    1    3    3    0  501  0.81324086400E+01  0.66638836842E+02 -0.28073148902E+02  0.72766629269E+02  0.10000000000E+00 0.  1.
         21    1    1    2  504  502 -0.45502089234E+02 -0.11774062649E+02 -0.23284544859E+02  0.52452251670E+02  0.00000000000E+00 0.  1.
<mgrwt>
<rscale>  1 0.13354620E+03</rscale>
<asrwt>0</asrwt>
<pdfrwt beam="1">  1       21 0.89392954E-02 0.13354620E+03</pdfrwt>
<pdfrwt beam="2">  1       21 0.21586959E-01 0.13354620E+03</pdfrwt>
<totfact> 0.19679769E+06</totfact>
</mgrwt>
</event>
<event>
 6    1  0.4202038E-002  0.1485402E+03  0.7546771E-02  0.1202278E+00
         21   -1    0    0  504  502  0.00000000000E+00  0.00000000000E+00  0.43755180100E+02  0.43755180100E+02  0.00000000000E+00 0.  1.
         21   -1    0    0  502  503 -0.00000000000E+00 -0.00000000000E+00 -0.29888782650E+03  0.29888782650E+03  0.00000000000E+00 0.  1.
         25    2    1    2    0    0  0.74921939146E+02  0.28413526522E+02 -0.16907102576E+03  0.22505377239E+03  0.12507423100E+03 0.  0.
          5    1    3    3  501    0  0.87150082716E+01  0.11920768688E+01 -0.15095658263E+03  0.15121267227E+03  0.10000000000E+00 0. -1.
         -5    1    3    3    0  501  0.66206930875E+02  0.27221449653E+02 -0.18114443135E+02  0.73841100122E+02  0.10000000000E+00 0. -1.
         21    1    1    2  504  503 -0.74921939146E+02 -0.28413526522E+02 -0.86061620638E+02  0.11758923421E+03  0.00000000000E+00 0.  1.
<mgrwt>
<rscale>  1 0.14854019E+03</rscale>
<asrwt>0</asrwt>
<pdfrwt beam="1">  1       21 0.67315661E-02 0.14854019E+03</pdfrwt>
<pdfrwt beam="2">  1       21 0.45982743E-01 0.14854019E+03</pdfrwt>
<totfact> 0.73671260E+05</totfact>
</mgrwt>
</event>
<event>
 6    1  0.4202038E-002  0.1288094E+03  0.7546771E-02  0.1229233E+00
         21   -1    0    0  503  502  0.00000000000E+00  0.00000000000E+00  0.10712677744E+03  0.10712677744E+03  0.00000000000E+00 0.  1.
         21   -1    0    0  504  503 -0.00000000000E+00 -0.00000000000E+00 -0.11170676132E+03  0.11170676132E+03  0.00000000000E+00 0.  1.
         25    2    1    2    0    0  0.15567250952E+01 -0.31013451997E+02  0.63792028684E+02  0.14374033201E+03  0.12501040966E+03 0.  0.
          5    1    3    3  501    0  0.19282132706E+01 -0.20802759139E+02 -0.36968227090E+02  0.42463308966E+02  0.10000000000E+00 0. -1.
         -5    1    3    3    0  501 -0.37148817541E+00 -0.10210692858E+02  0.10076025577E+03  0.10127702304E+03  0.10000000000E+00 0. -1.
         21    1    1    2  504  502 -0.15567250952E+01  0.31013451997E+02 -0.68372012564E+02  0.75093206748E+02  0.00000000000E+00 0.  1.
<mgrwt>
<rscale>  1 0.12880939E+03</rscale>
<asrwt>0</asrwt>
<pdfrwt beam="1">  1       21 0.16481043E-01 0.12880939E+03</pdfrwt>
<pdfrwt beam="2">  1       21 0.17185656E-01 0.12880939E+03</pdfrwt>
<totfact> 0.10107027E+06</totfact>
</mgrwt>
</event>
<event>
 6    1  0.4202038E-002  0.1284917E+03  0.7546771E-02  0.1229711E+00
         21   -1    0    0  503  502  0.00000000000E+00  0.00000000000E+00  0.27706270129E+02  0.27706270129E+02  0.00000000000E+00 0. -1.
         21   -1    0    0  504  503 -0.00000000000E+00 -0.00000000000E+00 -0.62349745516E+03  0.62349745516E+03  0.00000000000E+00 0. -1.
         25    2    1    2    0    0  0.23245360433E+02 -0.18612735759E+02 -0.12430730634E+03  0.17878036792E+03  0.12499333115E+03 0.  0.
          5    1    3    3  501    0 -0.28282891022E+02  0.40556083615E+02 -0.56492914619E+02  0.75074477986E+02  0.10000000000E+00 0.  1.
         -5    1    3    3    0  501  0.51528251455E+02 -0.59168819373E+02 -0.67814391717E+02  0.10370588994E+03  0.10000000000E+00 0.  1.
         21    1    1    2  504  502 -0.23245360433E+02  0.18612735759E+02 -0.47148387869E+03  0.47242335736E+03  0.00000000000E+00 0. -1.
<mgrwt>
<rscale>  1 0.12849169E+03</rscale>
<asrwt>0</asrwt>
<pdfrwt beam="1">  1       21 0.42625034E-02 0.12849169E+03</pdfrwt>
<pdfrwt beam="2">  1       21 0.95922678E-01 0.12849169E+03</pdfrwt>
<totfact> 0.32398262E+05</totfact>
</mgrwt>
</event>
<event>
 6    1  0.4202038E-002  0.1335376E+03  0.7546771E-02  0.1222299E+00
         21   -1    0    0  503  502  0.00000000000E+00  0.00000000000E+00  0.49564981362E+03  0.49564981362E+03  0.00000000000E+00 0.  1.
         21   -1    0    0  504  503 -0.00000000000E+00 -0.00000000000E+00 -0.16460529500E+02  0.16460529500E+02  0.00000000000E+00 0.  1.
         25    2    1    2    0    0 -0.15773442682E+02 -0.44255916437E+02  0.36283875162E+03  0.38663192248E+03  0.12499958467E+03 0.  0.
          5    1    3    3  501    0 -0.10916296077E+02 -0.62683442514E+01 -0.72768162735E+01  0.14540279047E+02  0.10000000000E+00 0.  1.
         -5    1    3    3    0  501 -0.48571466051E+01 -0.37987572186E+02  0.37011556790E+03  0.37209164343E+03  0.10000000000E+00 0.  1.
         21    1    1    2  504  502  0.15773442682E+02  0.44255916437E+02  0.11635053250E+03  0.12547842064E+03  0.00000000000E+00 0.  1.
<mgrwt>
<rscale>  1 0.13353757E+03</rscale>
<asrwt>0</asrwt>
<pdfrwt beam="1">  1       21 0.76253806E-01 0.13353757E+03</pdfrwt>
<pdfrwt beam="2">  1       21 0.25323895E-02 0.13353757E+03</pdfrwt>
<totfact> 0.12840984E+06</totfact>
</mgrwt>
</event>
<event>
 6    1  0.4202038E-002  0.1268253E+03  0.7546771E-02  0.1232244E+00
         21   -1    0    0  504  502  0.00000000000E+00  0.00000000000E+00  0.50654767182E+02  0.50654767182E+02  0.00000000000E+00 0. -1.
         21   -1    0    0  502  503 -0.00000000000E+00 -0.00000000000E+00 -0.11137105063E+03  0.11137105063E+03  0.00000000000E+00 0. -1.
         25    2    1    2    0    0  0.16369550890E+02  0.13890000424E+02 -0.60593896830E+02  0.14055701983E+03  0.12499504464E+03 0.  0.
          5    1    3    3  501    0 -0.22466072046E+02 -0.59967447838E+01 -0.86664733775E+02  0.89729991761E+02  0.10000000000E+00 0.  1.
         -5    1    3    3    0  501  0.38835622935E+02  0.19886745208E+02  0.26070836945E+02  0.50827028073E+02  0.10000000000E+00 0.  1.
         21    1    1    2  504  503 -0.16369550890E+02 -0.13890000424E+02 -0.12238661718E+00  0.21468797978E+02  0.00000000000E+00 0. -1.
<mgrwt>
<rscale>  1 0.12682530E+03</rscale>
<asrwt>0</asrwt>
<pdfrwt beam="1">  1       21 0.77930411E-02 0.12682530E+03</pdfrwt>
<pdfrwt beam="2">  1       21 0.17134008E-01 0.12682530E+03</pdfrwt>
<totfact> 0.38117756E+06</totfact>
</mgrwt>
</event>
<event>
 6    1  0.4202038E-002  0.1336540E+03  0.7546771E-02  0.1222132E+00
         21   -1    0    0  503  502  0.00000000000E+00  0.00000000000E+00  0.94999027091E+03  0.94999027091E+03  0.00000000000E+00 0.  1.
         21   -1    0    0  504  503 -0.00000000000E+00 -0.00000000000E+00 -0.11732323762E+02  0.11732323762E+02  0.00000000000E+00 0.  1.
         25    2    1    2    0    0 -0.41902475246E+02  0.21960776086E+02  0.85964125260E+03  0.86996924171E+03  0.12500122092E+03 0.  0.
          5    1    3    3  501    0  0.33765505120E+02 -0.21756202682E+02  0.40639638469E+03  0.40837663153E+03  0.10000000000E+00 0.  1.
         -5    1    3    3    0  501 -0.75667980366E+02  0.43716978768E+02  0.45324486791E+03  0.46159261018E+03  0.10000000000E+00 0.  1.
         21    1    1    2  504  502  0.41902475246E+02 -0.21960776086E+02  0.78616694541E+02  0.91753352956E+02  0.00000000000E+00 0.  1.
<mgrwt>
<rscale>  1 0.13365402E+03</rscale>
<asrwt>0</asrwt>
<pdfrwt beam="1">  1       21 0.14615229E+00 0.13365402E+03</pdfrwt>
<pdfrwt beam="2">  1       21 0.18049736E-02 0.13365402E+03</pdfrwt>
<totfact> 0.47283619E+05</totfact>
</mgrwt>
</event>
<event>
 6    1  0.4202038E-002  0.1336922E+03  0.7546771E-02  0.1222078E+00
         21   -1    0    0  504  502  0.00000000000E+00  0.00000000000E+00  0.21099546671E+03  0.21099546671E+03  0.00000000000E+00 0. -1.
         21   -1    0    0  502  503 -0.00000000000E+00 -0.00000000000E+00 -0.82963238174E+02  0.82963238174E+02  0.00000000000E+00 0.  1.
         25    2    1    2    0    0  0.10771372560E+02 -0.46135140711E+02  0.17962305413E+03  0.22391524009E+03  0.12501647688E+03 0.  0.
          5    1    3    3  501    0 -0.51399400256E+02 -0.19608452010E+02  0.12650099340E+03  0.13794528288E+03  0.10000000000E+00 0.  1.
         -5    1    3    3    0  501  0.62170772817E+02 -0.26526688702E+02  0.53122060734E+02  0.85969957210E+02  0.10000000000E+00 0.  1.
         21    1    1    2  504  503 -0.10771372560E+02  0.46135140711E+02 -0.51590825597E+02  0.70043464799E+02  0.00000000000E+00 0.  1.
<mgrwt>
<rscale>  1 0.13369216E+03</rscale>
<asrwt>0</asrwt>
<pdfrwt beam="1">  1       21 0.32460841E-01 0.13369216E+03</pdfrwt>
<pdfrwt beam="2">  1       21 0.12763575E-01 0.13369216E+03</pdfrwt>
<totfact> 0.48367354E+05</totfact>
</mgrwt>
</event>
<event>
 6    1  0.4202038E-002  0.1329490E+03  0.7546771E-02  0.1223144E+00
         21   -1    0    0  504  502  0.00000000000E+00  0.00000000000E+00  0.65997660073E+02  0.65997660073E+02  0.00000000000E+00 0.  1.
         21   -1    0    0  502  503 -0.00000000000E+00 -0.00000000000E+00 -0.19711561074E+03  0.19711561074E+03  0.00000000000E+00 0.  1.
         25    2    1    2    0    0 -0.40096668161E+02  0.21072361191E+02 -0.94471002437E+01  0.13328421765E+03  0.12499459095E+03 0.  0.
          5    1    3    3  501    0  0.50803626167E+01 -0.23808984206E+02  0.43907936567E+02  0.50205524664E+02  0.10000000000E+00 0.  1.
         -5    1    3    3    0  501 -0.45177030777E+02  0.44881345397E+02 -0.53355036810E+02  0.83078692982E+02  0.10000000000E+00 0.  1.
         21    1    1    2  504  503  0.40096668161E+02 -0.21072361191E+02 -0.12167085042E+03  0.12982905317E+03  0.00000000000E+00 0.  1.
<mgrwt>
<rscale>  1 0.13294899E+03</rscale>
<asrwt>0</asrwt>
<pdfrwt beam="1">  1       21 0.10153486E-01 0.13294899E+03</pdfrwt>
<pdfrwt beam="2">  1       21 0.30325478E-01 0.13294899E+03</pdfrwt>
<totfact> 0.82686747E+05</totfact>
</mgrwt>
</event>
<event>
 6    1  0.4202038E-002  0.1288710E+03  0.7546771E-02  0.1229141E+00
         21   -1    0    0  504  502  0.00000000000E+00  0.00000000000E+00  0.10260932977E+03  0.10260932977E+03  0.00000000000E+00 0. -1.
         21   -1    0    0  502  503 -0.00000000000E+00 -0.00000000000E+00 -0.65234131376E+02  0.65234131376E+02  0.00000000000E+00 0. -1.
         25    2    1    2    0    0 -0.17453150172E+02 -0.26027570913E+02  0.43299760002E+02  0.13595071387E+03  0.12500272192E+03 0.  0.
          5    1    3    3  501    0  0.87597970484E+01  0.23647560968E+02 -0.32796267298E+02  0.41370839159E+02  0.10000000000E+00 0. -1.
         -5    1    3    3    0  501 -0.26212947220E+02 -0.49675131881E+02  0.76096027299E+02  0.94579874710E+02  0.10000000000E+00 0. -1.
         21    1    1    2  504  503  0.17453150172E+02  0.26027570913E+02 -0.59245616095E+01  0.31892747276E+02  0.00000000000E+00 0.  1.
<mgrwt>
<rscale>  1 0.12887097E+03</rscale>
<asrwt>0</asrwt>
<pdfrwt beam="1">  1       21 0.15786051E-01 0.12887097E+03</pdfrwt>
<pdfrwt beam="2">  1       21 0.10036020E-01 0.12887097E+03</pdfrwt>
<totfact> 0.28540167E+06</totfact>
</mgrwt>
</event>
<event>
 6    1  0.4202038E-002  0.1262970E+03  0.7546771E-02  0.1233056E+00
         21   -1    0    0  503  502  0.00000000000E+00  0.00000000000E+00  0.57447930853E+02  0.57447930853E+02  0.00000000000E+00 0. -1.
         21   -1    0    0  504  503 -0.00000000000E+00 -0.00000000000E+00 -0.16545848641E+03  0.16545848641E+03  0.00000000000E+00 0. -1.
         25    2    1    2    0    0  0.16361179355E+02  0.77151808729E+01 -0.13884483045E+02  0.12705794449E+03  0.12499492063E+03 0.  0.
          5    1    3    3  501    0  0.46160178676E+02  0.57829675446E+01 -0.57647625335E+02  0.74077415693E+02  0.10000000000E+00 0. -1.
         -5    1    3    3    0  501 -0.29798999321E+02  0.19322133282E+01  0.43763142290E+02  0.52980528800E+02  0.10000000000E+00 0. -1.
         21    1    1    2  504  502 -0.16361179355E+02 -0.77151808729E+01 -0.94126072513E+02  0.95848472771E+02  0.00000000000E+00 0. -1.
<mgrwt>
<rscale>  1 0.12629704E+03</rscale>
<asrwt>0</asrwt>
<pdfrwt beam="1">  1       21 0.88381434E-02 0.12629704E+03</pdfrwt>
<pdfrwt beam="2">  1       21 0.25455151E-01 0.12629704E+03</pdfrwt>
<totfact> 0.14709847E+06</totfact>
</mgrwt>
</event>
<event>
 6    1  0.4202038E-002  0.1260142E+03  0.7546771E-02  0.1233493E+00
         21   -1    0    0  504  502  0.00000000000E+00  0.00000000000E+00  0.11098601715E+02  0.11098601715E+02  0.00000000000E+00 0. -1.
         21   -1    0    0  502  503 -0.00000000000E+00 -0.00000000000E+00 -0.50994810904E+03  0.50994810904E+03  0.00000000000E+00 0. -1.
         25    2    1    2    0    0 -0.10632313849E+02 -0.11934595508E+02 -0.36280492644E+03  0.38406638861E+03  0.12499638211E+03 0.  0.
          5    1    3    3  501    0  0.16256716516E+02  0.17208574250E+02 -0.51589426074E+01  0.24228919671E+02  0.10000000000E+00 0. -1.
         -5    1    3    3    0  501 -0.26889030366E+02 -0.29143169758E+02 -0.35764598383E+03  0.35983746894E+03  0.10000000000E+00 0. -1.
         21    1    1    2  504  503  0.10632313849E+02  0.11934595508E+02 -0.13604458089E+03  0.13698032215E+03  0.00000000000E+00 0. -1.
<mgrwt>
<rscale>  1 0.12601419E+03</rscale>
<asrwt>0</asrwt>
<pdfrwt beam="1">  1       21 0.17074774E-02 0.12601419E+03</pdfrwt>
<pdfrwt beam="2">  1       21 0.78453544E-01 0.12601419E+03</pdfrwt>
<totfact> 0.22775889E+06</totfact>
</mgrwt>
</event>
<event>
 6    1  0.4202038E-002  0.1282865E+03  0.7546771E-02  0.1230021E+00
         21   -1    0    0  504  502  0.00000000000E+00  0.00000000000E+00  0.47714616064E+02  0.47714616064E+02  0.00000000000E+00 0.  1.
         21   -1    0    0  502  503 -0.00000000000E+00 -0.00000000000E+00 -0.15458599545E+03  0.15458599545E+03  0.00000000000E+00 0.  1.
         25    2    1    2    0    0 -0.10958946939E+02 -0.26711151152E+02 -0.48443340061E+02  0.13712837898E+03  0.12499540396E+03 0.  0.
          5    1    3    3  501    0 -0.10014143739E+02 -0.68880400814E+02  0.41285559766E+01  0.69726950784E+02  0.10000000000E+00 0.  1.
         -5    1    3    3    0  501 -0.94480319970E+00  0.42169249663E+02 -0.52571896038E+02  0.67401428198E+02  0.10000000000E+00 0.  1.
         21    1    1    2  504  503  0.10958946939E+02  0.26711151152E+02 -0.58428039328E+02  0.65172232534E+02  0.00000000000E+00 0.  1.
<mgrwt>
<rscale>  1 0.12828654E+03</rscale>
<asrwt>0</asrwt>
<pdfrwt beam="1">  1       21 0.73407100E-02 0.12828654E+03</pdfrwt>
<pdfrwt beam="2">  1       21 0.23782461E-01 0.12828654E+03</pdfrwt>
<totfact> 0.23039308E+06</totfact>
</mgrwt>
</event>
<event>
 6    1  0.4202038E-002  0.1504527E+03  0.7546771E-02  0.1199918E+00
         21   -1    0    0  504  502  0.00000000000E+00  0.00000000000E+00  0.16027094813E+03  0.16027094813E+03  0.00000000000E+00 0.  1.
         21   -1    0    0  502  503 -0.00000000000E+00 -0.00000000000E+00 -0.15979235250E+03  0.15979235250E+03  0.00000000000E+00 0.  1.
         25    2    1    2    0    0  0.21733448064E+02  0.80869366133E+02  0.10696091754E+03  0.18459861142E+03  0.12499524916E+03 0.  0.
          5    1    3    3  501    0 -0.79401866947E+01 -0.31931826475E+02  0.32314120364E+02  0.46118331297E+02  0.10000000000E+00 0. -1.
         -5    1    3    3    0  501  0.29673634758E+02  0.11280119261E+03  0.74646797176E+02  0.13848028012E+03  0.10000000000E+00 0. -1.
         21    1    1    2  504  503 -0.21733448064E+02 -0.80869366133E+02 -0.10648232191E+03  0.13546468921E+03  0.00000000000E+00 0.  1.
<mgrwt>
<rscale>  1 0.15045268E+03</rscale>
<asrwt>0</asrwt>
<pdfrwt beam="1">  1       21 0.24657069E-01 0.15045268E+03</pdfrwt>
<pdfrwt beam="2">  1       21 0.24583439E-01 0.15045268E+03</pdfrwt>
<totfact> 0.24580907E+05</totfact>
</mgrwt>
</event>
<event>
 6    1  0.4202038E-002  0.1281782E+03  0.7546771E-02  0.1230184E+00
         21   -1    0    0  504  502  0.00000000000E+00  0.00000000000E+00  0.24843637496E+02  0.24843637496E+02  0.00000000000E+00 0.  1.
         21   -1    0    0  502  503 -0.00000000000E+00 -0.00000000000E+00 -0.25026102258E+03  0.25026102258E+03  0.00000000000E+00 0.  1.
         25    2    1    2    0    0 -0.13435819245E+02  0.24993149160E+02 -0.17069657753E+03  0.21346420645E+03  0.12499786843E+03 0.  0.
          5    1    3    3  501    0 -0.36110011331E+02  0.61318285307E+02 -0.14974264686E+03  0.16579124018E+03  0.10000000000E+00 0. -1.
         -5    1    3    3    0  501  0.22674192086E+02 -0.36325136147E+02 -0.20953930675E+02  0.47672966277E+02  0.10000000000E+00 0. -1.
         21    1    1    2  504  503  0.13435819245E+02 -0.24993149160E+02 -0.54720807553E+02  0.61640453624E+02  0.00000000000E+00 0. -1.
<mgrwt>
<rscale>  1 0.12817818E+03</rscale>
<asrwt>0</asrwt>
<pdfrwt beam="1">  1       21 0.38220981E-02 0.12817818E+03</pdfrwt>
<pdfrwt beam="2">  1       21 0.38501696E-01 0.12817818E+03</pdfrwt>
<totfact> 0.27285610E+06</totfact>
</mgrwt>
</event>
<event>
 6    1  0.4202038E-002  0.1260509E+03  0.7546771E-02  0.1233436E+00
         21   -1    0    0  504  502  0.00000000000E+00  0.00000000000E+00  0.24939563045E+03  0.24939563045E+03  0.00000000000E+00 0. -1.
         21   -1    0    0  502  503 -0.00000000000E+00 -0.00000000000E+00 -0.23611452006E+02  0.23611452006E+02  0.00000000000E+00 0. -1.
         25    2    1    2    0    0  0.10603120115E+02  0.12379442320E+02  0.22343573292E+03  0.25653917595E+03  0.12499258100E+03 0.  0.
          5    1    3    3  501    0 -0.47708987707E+02  0.30766995277E+01  0.35506165260E+02  0.59550914011E+02  0.10000000000E+00 0.  1.
         -5    1    3    3    0  501  0.58312107822E+02  0.93027427927E+01  0.18792956766E+03  0.19698826194E+03  0.10000000000E+00 0.  1.
         21    1    1    2  504  503 -0.10603120115E+02 -0.12379442320E+02  0.23484455293E+01  0.16467906507E+02  0.00000000000E+00 0. -1.
<mgrwt>
<rscale>  1 0.12605087E+03</rscale>
<asrwt>0</asrwt>
<pdfrwt beam="1">  1       21 0.38368557E-01 0.12605087E+03</pdfrwt>
<pdfrwt beam="2">  1       21 0.36325313E-02 0.12605087E+03</pdfrwt>
<totfact> 0.29870066E+06</totfact>
</mgrwt>
</event>
<event>
 6    1  0.4202038E-002  0.1273565E+03  0.7546771E-02  0.1231432E+00
         21   -1    0    0  504  502  0.00000000000E+00  0.00000000000E+00  0.10727725148E+03  0.10727725148E+03  0.00000000000E+00 0. -1.
         21   -1    0    0  502  503 -0.00000000000E+00 -0.00000000000E+00 -0.11964534478E+03  0.11964534478E+03  0.00000000000E+00 0. -1.
         25    2    1    2    0    0  0.88073572832E+01 -0.22760287397E+02  0.66987362770E+02  0.14389917406E+03  0.12499626115E+03 0.  0.
          5    1    3    3  501    0  0.50138407416E+02  0.26703423819E+02  0.96313912071E+01  0.57616893690E+02  0.10000000000E+00 0.  1.
         -5    1    3    3    0  501 -0.41331050133E+02 -0.49463711216E+02  0.57355971563E+02  0.86282280373E+02  0.10000000000E+00 0.  1.
         21    1    1    2  504  503 -0.88073572832E+01  0.22760287397E+02 -0.79355456073E+02  0.83023422196E+02  0.00000000000E+00 0. -1.
<mgrwt>
<rscale>  1 0.12735645E+03</rscale>
<asrwt>0</asrwt>
<pdfrwt beam="1">  1       21 0.16504193E-01 0.12735645E+03</pdfrwt>
<pdfrwt beam="2">  1       21 0.18406976E-01 0.12735645E+03</pdfrwt>
<totfact> 0.88912511E+05</totfact>
</mgrwt>
</event>
<event>
 6    1  0.4202038E-002  0.1276125E+03  0.7546771E-02  0.1231042E+00
         21   -1    0    0  503  502  0.00000000000E+00  0.00000000000E+00  0.84835918933E+02  0.84835918933E+02  0.00000000000E+00 0. -1.
         21   -1    0    0  504  503 -0.00000000000E+00 -0.00000000000E+00 -0.14563223067E+03  0.14563223067E+03  0.00000000000E+00 0. -1.
         25    2    1    2    0    0 -0.25447853971E+02 -0.35178260075E+01  0.34153978552E+02  0.13210389798E+03  0.12499990895E+03 0.  0.
          5    1    3    3  501    0 -0.60715468683E+02  0.11864984405E+02 -0.20581544786E+02  0.65197821881E+02  0.10000000000E+00 0.  1.
         -5    1    3    3    0  501  0.35267614712E+02 -0.15382810412E+02  0.54735523338E+02  0.66906076097E+02  0.10000000000E+00 0.  1.
         21    1    1    2  504  502  0.25447853971E+02  0.35178260075E+01 -0.94950290289E+02  0.98364251624E+02  0.00000000000E+00 0. -1.
<mgrwt>
<rscale>  1 0.12761248E+03</rscale>
<asrwt>0</asrwt>
<pdfrwt beam="1">  1       21 0.13051680E-01 0.12761248E+03</pdfrwt>
<pdfrwt beam="2">  1       21 0.22404958E-01 0.12761248E+03</pdfrwt>
<totfact> 0.94264618E+05</totfact>
</mgrwt>
</event>
<event>
 6    1  0.4202038E-002  0.1265810E+03  0.7546771E-02  0.1232619E+00
         21   -1    0    0  504  502  0.00000000000E+00  0.00000000000E+00  0.67701915109E+02  0.67701915109E+02  0.00000000000E+00 0.  1.
         21   -1    0    0  502  503 -0.00000000000E+00 -0.00000000000E+00 -0.79309390257E+02  0.79309390257E+02  0.00000000000E+00 0.  1.
         25    2    1    2    0    0  0.11115663295E+01  0.19686480972E+02 -0.70712130177E+01  0.12677839191E+03  0.12503585681E+03 0.  0.
          5    1    3    3  501    0 -0.50808958463E+01  0.22755868110E+02  0.57391023744E+02  0.61946627370E+02  0.10000000000E+00 0. -1.
         -5    1    3    3    0  501  0.61924621758E+01 -0.30693871384E+01 -0.64462236762E+02  0.64831764541E+02  0.10000000000E+00 0. -1.
         21    1    1    2  504  503 -0.11115663295E+01 -0.19686480972E+02 -0.45362621299E+01  0.20232913455E+02  0.00000000000E+00 0.  1.
<mgrwt>
<rscale>  1 0.12658104E+03</rscale>
<asrwt>0</asrwt>
<pdfrwt beam="1">  1       21 0.10415679E-01 0.12658104E+03</pdfrwt>
<pdfrwt beam="2">  1       21 0.12201445E-01 0.12658104E+03</pdfrwt>
<totfact> 0.42388880E+06</totfact>
</mgrwt>
</event>
<event>
 6    1  0.4202038E-002  0.1303670E+03  0.7546771E-02  0.1226912E+00
         21   -1    0    0  504  502  0.00000000000E+00  0.00000000000E+00  0.12131781002E+02  0.12131781002E+02  0.00000000000E+00 0.  1.
         21   -1    0    0  502  503 -0.00000000000E+00 -0.00000000000E+00 -0.67098460881E+03  0.67098460881E+03  0.00000000000E+00 0.  1.
         25    2    1    2    0    0  0.86342180516E+01 -0.36034472674E+02 -0.37842872763E+03  0.40025474712E+03  0.12499011065E+03 0.  0.
          5    1    3    3  501    0  0.46231104659E+02 -0.16250354049E+02 -0.33824620871E+03  0.34177755448E+03  0.10000000000E+00 0.  1.
         -5    1    3    3    0  501 -0.37596886607E+02 -0.19784118625E+02 -0.40182518921E+02  0.58477192641E+02  0.10000000000E+00 0.  1.
         21    1    1    2  504  503 -0.86342180516E+01  0.36034472674E+02 -0.28042410018E+03  0.28286164269E+03  0.00000000000E+00 0.  1.
<mgrwt>
<rscale>  1 0.13036702E+03</rscale>
<asrwt>0</asrwt>
<pdfrwt beam="1">  1       21 0.18664276E-02 0.13036702E+03</pdfrwt>
<pdfrwt beam="2">  1       21 0.10322841E+00 0.13036702E+03</pdfrwt>
<totfact> 0.10538463E+06</totfact>
</mgrwt>
</event>
<event>
 6    1  0.4202038E-002  0.1343219E+03  0.7546771E-02  0.1221180E+00
         21   -1    0    0  504  502  0.00000000000E+00  0.00000000000E+00  0.95076845276E+02  0.95076845276E+02  0.00000000000E+00 0. -1.
         21   -1    0    0  502  503 -0.00000000000E+00 -0.00000000000E+00 -0.68909901513E+03  0.68909901513E+03  0.00000000000E+00 0. -1.
         25    2    1    2    0    0 -0.46022650011E+02 -0.17279645741E+02  0.46218172937E+02  0.14205097613E+03  0.12500275932E+03 0.  0.
          5    1    3    3  501    0 -0.57301736534E+02 -0.40039003265E+02  0.75764572919E+02  0.10308681439E+03  0.10000000000E+00 0.  1.
         -5    1    3    3    0  501  0.11279086523E+02  0.22759357524E+02 -0.29546399982E+02  0.38964161734E+02  0.10000000000E+00 0.  1.
         21    1    1    2  504  503  0.46022650011E+02  0.17279645741E+02 -0.64024034279E+03  0.64212488428E+03  0.00000000000E+00 0. -1.
<mgrwt>
<rscale>  1 0.13432185E+03</rscale>
<asrwt>0</asrwt>
<pdfrwt beam="1">  1       21 0.14627207E-01 0.13432185E+03</pdfrwt>
<pdfrwt beam="2">  1       21 0.10601523E+00 0.13432185E+03</pdfrwt>
<totfact> 0.30379362E+04</totfact>
</mgrwt>
</event>
<event>
 6    1  0.4202038E-002  0.1291487E+03  0.7546771E-02  0.1228724E+00
         21   -1    0    0  503  502  0.00000000000E+00  0.00000000000E+00  0.14764634765E+03  0.14764634765E+03  0.00000000000E+00 0.  1.
         21   -1    0    0  504  503 -0.00000000000E+00 -0.00000000000E+00 -0.94025563979E+02  0.94025563979E+02  0.00000000000E+00 0. -1.
         25    2    1    2    0    0  0.31817297607E+00  0.32465312631E+02  0.11455154779E+03  0.17263093992E+03  0.12500114623E+03 0.  0.
          5    1    3    3  501    0 -0.39461298961E+02 -0.10897133848E+02 -0.31292496971E+01  0.41057811016E+02  0.10000000000E+00 0.  1.
         -5    1    3    3    0  501  0.39779471937E+02  0.43362446479E+02  0.11768079749E+03  0.13157312890E+03  0.10000000000E+00 0.  1.
         21    1    1    2  504  502 -0.31817297607E+00 -0.32465312631E+02 -0.60930764120E+02  0.69040971709E+02  0.00000000000E+00 0. -1.
<mgrwt>
<rscale>  1 0.12914869E+03</rscale>
<asrwt>0</asrwt>
<pdfrwt beam="1">  1       21 0.22714823E-01 0.12914869E+03</pdfrwt>
<pdfrwt beam="2">  1       21 0.14465471E-01 0.12914869E+03</pdfrwt>
<totfact> 0.76429989E+05</totfact>
</mgrwt>
</event>
<event>
 6    1  0.4202038E-002  0.1263066E+03  0.7546771E-02  0.1233041E+00
         21   -1    0    0  504  502  0.00000000000E+00  0.00000000000E+00  0.81290980493E+01  0.81290980493E+01  0.00000000000E+00 0. -1.
         21   -1    0    0  502  503 -0.00000000000E+00 -0.00000000000E+00 -0.64271954297E+03  0.64271954297E+03  0.00000000000E+00 0. -1.
         25    2    1    2    0    0  0.17831007282E+02 -0.32853006603E+01 -0.54547245971E+03  0.55990495895E+03  0.12499848291E+03 0.  0.
          5    1    3    3  501    0  0.89348842195E+01 -0.46141630797E+02 -0.47235720458E+03  0.47468960487E+03  0.10000000000E+00 0. -1.
         -5    1    3    3    0  501  0.88961230625E+01  0.42856330136E+02 -0.73115255132E+02  0.85215354082E+02  0.10000000000E+00 0. -1.
         21    1    1    2  504  503 -0.17831007282E+02  0.32853006603E+01 -0.89117985207E+02  0.90943682070E+02  0.00000000000E+00 0. -1.
<mgrwt>
<rscale>  1 0.12630661E+03</rscale>
<asrwt>0</asrwt>
<pdfrwt beam="1">  1       21 0.12506310E-02 0.12630661E+03</pdfrwt>
<pdfrwt beam="2">  1       21 0.98879888E-01 0.12630661E+03</pdfrwt>
<totfact> 0.22102318E+06</totfact>
</mgrwt>
</event>
<event>
 6    1  0.4202038E-002  0.1298726E+03  0.7546771E-02  0.1227645E+00
         21   -1    0    0  504  502  0.00000000000E+00  0.00000000000E+00  0.38220267870E+03  0.38220267870E+03  0.00000000000E+00 0.  1.
         21   -1    0    0  502  503 -0.00000000000E+00 -0.00000000000E+00 -0.26447790244E+02  0.26447790244E+02  0.00000000000E+00 0.  1.
         25    2    1    2    0    0 -0.29774286801E+02 -0.18785332883E+02  0.34955770307E+03  0.37290411259E+03  0.12500996970E+03 0.  0.
          5    1    3    3  501    0  0.21173133412E+02 -0.60448123492E+02  0.17011057446E+03  0.18176879478E+03  0.10000000000E+00 0. -1.
         -5    1    3    3    0  501 -0.50947420213E+02  0.41662790609E+02  0.17944712861E+03  0.19113531781E+03  0.10000000000E+00 0. -1.
         21    1    1    2  504  503  0.29774286801E+02  0.18785332883E+02  0.61971853866E+01  0.35746356356E+02  0.00000000000E+00 0.  1.
<mgrwt>
<rscale>  1 0.12987259E+03</rscale>
<asrwt>0</asrwt>
<pdfrwt beam="1">  1       21 0.58800408E-01 0.12987259E+03</pdfrwt>
<pdfrwt beam="2">  1       21 0.40688911E-02 0.12987259E+03</pdfrwt>
<totfact> 0.10328106E+06</totfact>
</mgrwt>
</event>
<event>
 6    1  0.4202038E-002  0.1264960E+03  0.7546771E-02  0.1232750E+00
         21   -1    0    0  504  502  0.00000000000E+00  0.00000000000E+00  0.41984882067E+02  0.41984882067E+02  0.00000000000E+00 0.  1.
         21   -1    0    0  502  503 -0.00000000000E+00 -0.00000000000E+00 -0.13270182316E+03  0.13270182316E+03  0.00000000000E+00 0.  1.
         25    2    1    2    0    0 -0.18676834437E+02 -0.51667803167E+01 -0.64232374011E+02  0.14186975752E+03  0.12500284182E+03 0.  0.
          5    1    3    3  501    0  0.92903876328E+01  0.40671645914E+02 -0.76183938086E+02  0.86859061162E+02  0.10000000000E+00 0.  1.
         -5    1    3    3    0  501 -0.27967222070E+02 -0.45838426231E+02  0.11951564074E+02  0.55010696355E+02  0.10000000000E+00 0.  1.
         21    1    1    2  504  503  0.18676834437E+02  0.51667803167E+01 -0.26484567078E+02  0.32816947706E+02  0.00000000000E+00 0.  1.
<mgrwt>
<rscale>  1 0.12649597E+03</rscale>
<asrwt>0</asrwt>
<pdfrwt beam="1">  1       21 0.64592126E-02 0.12649597E+03</pdfrwt>
<pdfrwt beam="2">  1       21 0.20415665E-01 0.12649597E+03</pdfrwt>
<totfact> 0.38091907E+06</totfact>
</mgrwt>
</event>
<event>
 6    1  0.4202038E-002  0.1515548E+03  0.7546771E-02  0.1198575E+00
         21   -1    0    0  503  502  0.00000000000E+00  0.00000000000E+00  0.26174598785E+02  0.26174598785E+02  0.00000000000E+00 0.  1.
         21   -1    0    0  504  503 -0.00000000000E+00 -0.00000000000E+00 -0.60269609433E+03  0.60269609433E+03  0.00000000000E+00 0.  1.
         25    2    1    2    0    0 -0.32188697116E+02  0.79400036270E+02 -0.25988180071E+03  0.30084451378E+03  0.12501357187E+03 0.  0.
          5    1    3    3  501    0 -0.69978237437E+02  0.76063721617E+01 -0.11762939827E+03  0.13708207742E+03  0.10000000000E+00 0.  1.
         -5    1    3    3    0  501  0.37789540321E+02  0.71793664108E+02 -0.14225240244E+03  0.16376243636E+03  0.10000000000E+00 0.  1.
         21    1    1    2  504  502  0.32188697116E+02 -0.79400036270E+02 -0.31663969483E+03  0.32802617933E+03  0.00000000000E+00 0.  1.
<mgrwt>
<rscale>  1 0.15155485E+03</rscale>
<asrwt>0</asrwt>
<pdfrwt beam="1">  1       21 0.40268613E-02 0.15155485E+03</pdfrwt>
<pdfrwt beam="2">  1       21 0.92722476E-01 0.15155485E+03</pdfrwt>
<totfact> 0.38350955E+05</totfact>
</mgrwt>
</event>
<event>
 6    1  0.4202038E-002  0.1260832E+03  0.7546771E-02  0.1233386E+00
         21   -1    0    0  504  502  0.00000000000E+00  0.00000000000E+00  0.31013735975E+02  0.31013735975E+02  0.00000000000E+00 0. -1.
         21   -1    0    0  502  503 -0.00000000000E+00 -0.00000000000E+00 -0.29824033235E+03  0.29824033235E+03  0.00000000000E+00 0. -1.
         25    2    1    2    0    0 -0.14872653893E+02  0.71140940388E+01 -0.99223472761E+02  0.16044395100E+03  0.12500063079E+03 0.  0.
          5    1    3    3  501    0 -0.67233043156E+02  0.23266145921E+02 -0.59825821123E+02  0.92955551266E+02  0.10000000000E+00 0. -1.
         -5    1    3    3    0  501  0.52360389264E+02 -0.16152051882E+02 -0.39397651638E+02  0.67488399732E+02  0.10000000000E+00 0. -1.
         21    1    1    2  504  503  0.14872653893E+02 -0.71140940388E+01 -0.16800312362E+03  0.16881011733E+03  0.00000000000E+00 0.  1.
<mgrwt>
<rscale>  1 0.12608316E+03</rscale>
<asrwt>0</asrwt>
<pdfrwt beam="1">  1       21 0.47713440E-02 0.12608316E+03</pdfrwt>
<pdfrwt beam="2">  1       21 0.45883128E-01 0.12608316E+03</pdfrwt>
<totfact> 0.13243515E+06</totfact>
</mgrwt>
</event>
<event>
 6    1  0.4202038E-002  0.1266059E+03  0.7546771E-02  0.1232581E+00
         21   -1    0    0  503  502  0.00000000000E+00  0.00000000000E+00  0.15620638344E+02  0.15620638344E+02  0.00000000000E+00 0. -1.
         21   -1    0    0  504  503 -0.00000000000E+00 -0.00000000000E+00 -0.42035641421E+03  0.42035641421E+03  0.00000000000E+00 0. -1.
         25    2    1    2    0    0  0.26228432870E+01 -0.19929076052E+02 -0.25294150484E+03  0.28285766092E+03  0.12500001636E+03 0.  0.
          5    1    3    3  501    0  0.60197490772E+02 -0.90931766686E+01 -0.17544931170E+03  0.18571185943E+03  0.10000000000E+00 0. -1.
         -5    1    3    3    0  501 -0.57574647486E+02 -0.10835899383E+02 -0.77492193136E+02  0.97145801482E+02  0.10000000000E+00 0. -1.
         21    1    1    2  504  502 -0.26228432870E+01  0.19929076052E+02 -0.15179427102E+03  0.15311939163E+03  0.00000000000E+00 0. -1.
<mgrwt>
<rscale>  1 0.12660589E+03</rscale>
<asrwt>0</asrwt>
<pdfrwt beam="1">  1       21 0.24031750E-02 0.12660589E+03</pdfrwt>
<pdfrwt beam="2">  1       21 0.64670220E-01 0.12660589E+03</pdfrwt>
<totfact> 0.20018688E+06</totfact>
</mgrwt>
</event>
<event>
 6    1  0.4202038E-002  0.1358960E+03  0.7546771E-02  0.1218960E+00
         21   -1    0    0  504  502  0.00000000000E+00  0.00000000000E+00  0.17921161712E+03  0.17921161712E+03  0.00000000000E+00 0.  1.
         21   -1    0    0  502  503 -0.00000000000E+00 -0.00000000000E+00 -0.55865406342E+02  0.55865406342E+02  0.00000000000E+00 0. -1.
         25    2    1    2    0    0  0.47443721625E+02  0.24453989970E+02  0.12050023513E+03  0.18162607469E+03  0.12497527753E+03 0.  0.
          5    1    3    3  501    0  0.85530842180E+02  0.65785353314E+01  0.49346822467E+02  0.98964240909E+02  0.10000000000E+00 0.  1.
         -5    1    3    3    0  501 -0.38087120555E+02  0.17875454639E+02  0.71153412663E+02  0.82661833783E+02  0.10000000000E+00 0.  1.
         21    1    1    2  504  503 -0.47443721625E+02 -0.24453989970E+02  0.28459756493E+01  0.53450948771E+02  0.00000000000E+00 0. -1.
<mgrwt>
<rscale>  1 0.13589601E+03</rscale>
<asrwt>0</asrwt>
<pdfrwt beam="1">  1       21 0.27571018E-01 0.13589601E+03</pdfrwt>
<pdfrwt beam="2">  1       21 0.85946780E-02 0.13589601E+03</pdfrwt>
<totfact> 0.13280457E+06</totfact>
</mgrwt>
</event>
<event>
 6    1  0.4202038E-002  0.1282471E+03  0.7546771E-02  0.1230080E+00
         21   -1    0    0  504  502  0.00000000000E+00  0.00000000000E+00  0.19969658181E+03  0.19969658181E+03  0.00000000000E+00 0.  1.
         21   -1    0    0  502  503 -0.00000000000E+00 -0.00000000000E+00 -0.73955362594E+02  0.73955362594E+02  0.00000000000E+00 0.  1.
         25    2    1    2    0    0  0.22639705079E+02 -0.17613482546E+02  0.17481346870E+03  0.21681114319E+03  0.12499812782E+03 0.  0.
          5    1    3    3  501    0  0.44500810141E+02 -0.42750449585E+02  0.17274221121E+03  0.18343337912E+03  0.10000000000E+00 0.  1.
         -5    1    3    3    0  501 -0.21861105062E+02  0.25136967039E+02  0.20712574873E+01  0.33377764066E+02  0.10000000000E+00 0.  1.
         21    1    1    2  504  503 -0.22639705079E+02  0.17613482546E+02 -0.49072249482E+02  0.56840801214E+02  0.00000000000E+00 0.  1.
<mgrwt>
<rscale>  1 0.12824712E+03</rscale>
<asrwt>0</asrwt>
<pdfrwt beam="1">  1       21 0.30722551E-01 0.12824712E+03</pdfrwt>
<pdfrwt beam="2">  1       21 0.11377748E-01 0.12824712E+03</pdfrwt>
<totfact> 0.66001007E+05</totfact>
</mgrwt>
</event>
<event>
 6    1  0.4202038E-002  0.1265542E+03  0.7546771E-02  0.1232660E+00
         21   -1    0    0  503  502  0.00000000000E+00  0.00000000000E+00  0.12293808013E+03  0.12293808013E+03  0.00000000000E+00 0.  1.
         21   -1    0    0  504  503 -0.00000000000E+00 -0.00000000000E+00 -0.22401096823E+03  0.22401096823E+03  0.00000000000E+00 0.  1.
         25    2    1    2    0    0  0.19700399597E+02  0.17222071910E+01  0.89721912808E+02  0.15513213619E+03  0.12499954519E+03 0.  0.
          5    1    3    3  501    0  0.42008676370E+01  0.50721778252E+02  0.90391493134E+02  0.10373513440E+03  0.10000000000E+00 0. -1.
         -5    1    3    3    0  501  0.15499531960E+02 -0.48999571061E+02 -0.66958032640E+00  0.51397001789E+02  0.10000000000E+00 0. -1.
         21    1    1    2  504  502 -0.19700399597E+02 -0.17222071910E+01 -0.19079480090E+03  0.19181691217E+03  0.00000000000E+00 0.  1.
<mgrwt>
<rscale>  1 0.12655417E+03</rscale>
<asrwt>0</asrwt>
<pdfrwt beam="1">  1       21 0.18913551E-01 0.12655417E+03</pdfrwt>
<pdfrwt beam="2">  1       21 0.34463226E-01 0.12655417E+03</pdfrwt>
<totfact> 0.21150349E+05</totfact>
</mgrwt>
</event>
<event>
 6    1  0.4202038E-002  0.1280207E+03  0.7546771E-02  0.1230423E+00
         21   -1    0    0  503  502  0.00000000000E+00  0.00000000000E+00  0.19966477768E+03  0.19966477768E+03  0.00000000000E+00 0.  1.
         21   -1    0    0  504  503 -0.00000000000E+00 -0.00000000000E+00 -0.19069606018E+03  0.19069606018E+03  0.00000000000E+00 0.  1.
         25    2    1    2    0    0 -0.13583255175E+02  0.24059509636E+02  0.17790557380E+03  0.21917957066E+03  0.12500370466E+03 0.  0.
          5    1    3    3  501    0 -0.58309838054E+02  0.96806578103E+01  0.34872693406E+02  0.68628471460E+02  0.10000000000E+00 0. -1.
         -5    1    3    3    0  501  0.44726582879E+02  0.14378851826E+02  0.14303288039E+03  0.15055109920E+03  0.10000000000E+00 0. -1.
         21    1    1    2  504  502  0.13583255175E+02 -0.24059509636E+02 -0.16893685630E+03  0.17118126721E+03  0.00000000000E+00 0.  1.
<mgrwt>
<rscale>  1 0.12802067E+03</rscale>
<asrwt>0</asrwt>
<pdfrwt beam="1">  1       21 0.30717658E-01 0.12802067E+03</pdfrwt>
<pdfrwt beam="2">  1       21 0.29337856E-01 0.12802067E+03</pdfrwt>
<totfact> 0.11592517E+05</totfact>
</mgrwt>
</event>
<event>
 6    1  0.4202038E-002  0.1264215E+03  0.7546771E-02  0.1232864E+00
         21   -1    0    0  503  502  0.00000000000E+00  0.00000000000E+00  0.17289426447E+02  0.17289426447E+02  0.00000000000E+00 0.  1.
         21   -1    0    0  504  503 -0.00000000000E+00 -0.00000000000E+00 -0.30610357598E+03  0.30610357598E+03  0.00000000000E+00 0.  1.
         25    2    1    2    0    0  0.16253822111E+02  0.97552923856E+01 -0.25538888603E+03  0.28496643997E+03  0.12499214509E+03 0.  0.
          5    1    3    3  501    0 -0.47508901727E+01  0.63174073619E+02 -0.17557854075E+03  0.18665842737E+03  0.10000000000E+00 0.  1.
         -5    1    3    3    0  501  0.21004712283E+02 -0.53418781234E+02 -0.79810345281E+02  0.98308012595E+02  0.10000000000E+00 0.  1.
         21    1    1    2  504  502 -0.16253822111E+02 -0.97552923856E+01 -0.33425263501E+02  0.38426562465E+02  0.00000000000E+00 0. -1.
<mgrwt>
<rscale>  1 0.12642147E+03</rscale>
<asrwt>0</asrwt>
<pdfrwt beam="1">  1       21 0.26599121E-02 0.12642147E+03</pdfrwt>
<pdfrwt beam="2">  1       21 0.47092853E-01 0.12642147E+03</pdfrwt>
<totfact> 0.32975936E+06</totfact>
</mgrwt>
</event>
<event>
 6    1  0.4202038E-002  0.1266224E+03  0.7546771E-02  0.1232555E+00
         21   -1    0    0  504  502  0.00000000000E+00  0.00000000000E+00  0.64678800014E+02  0.64678800014E+02  0.00000000000E+00 0. -1.
         21   -1    0    0  502  503 -0.00000000000E+00 -0.00000000000E+00 -0.84015175045E+02  0.84015175045E+02  0.00000000000E+00 0. -1.
         25    2    1    2    0    0  0.18198293643E+02  0.86800139358E+01 -0.11807261518E+02  0.12717170558E+03  0.12500684278E+03 0.  0.
          5    1    3    3  501    0  0.67991468196E+02 -0.12827723634E+02  0.75039116580E+01  0.69596759489E+02  0.10000000000E+00 0. -1.
         -5    1    3    3    0  501 -0.49793174553E+02  0.21507737570E+02 -0.19311173176E+02  0.57574946087E+02  0.10000000000E+00 0. -1.
         21    1    1    2  504  503 -0.18198293643E+02 -0.86800139358E+01 -0.75291135138E+01  0.21522269484E+02  0.00000000000E+00 0. -1.
<mgrwt>
<rscale>  1 0.12662240E+03</rscale>
<asrwt>0</asrwt>
<pdfrwt beam="1">  1       21 0.99505846E-02 0.12662240E+03</pdfrwt>
<pdfrwt beam="2">  1       21 0.12925412E-01 0.12662240E+03</pdfrwt>
<totfact> 0.41449377E+06</totfact>
</mgrwt>
</event>
<event>
 6    1  0.4202038E-002  0.1700812E+03  0.7546771E-02  0.1177763E+00
         21   -1    0    0  504  502  0.00000000000E+00  0.00000000000E+00  0.99343787676E+02  0.99343787676E+02  0.00000000000E+00 0.  1.
         21   -1    0    0  502  503 -0.00000000000E+00 -0.00000000000E+00 -0.39853409774E+03  0.39853409774E+03  0.00000000000E+00 0.  1.
         25    2    1    2    0    0  0.11458531388E+03 -0.13112029530E+02  0.74714791802E+01  0.17024520625E+03  0.12500355105E+03 0.  0.
          5    1    3    3  501    0 -0.42342573995E+01  0.38600642388E+02 -0.82831404862E+01  0.39705905667E+02  0.10000000000E+00 0. -1.
         -5    1    3    3    0  501  0.11881957128E+03 -0.51712671918E+02  0.15754619666E+02  0.13053930058E+03  0.10000000000E+00 0. -1.
         21    1    1    2  504  503 -0.11458531388E+03  0.13112029530E+02 -0.30666178924E+03  0.32763267917E+03  0.00000000000E+00 0.  1.
<mgrwt>
<rscale>  1 0.17008118E+03</rscale>
<asrwt>0</asrwt>
<pdfrwt beam="1">  1       21 0.15283659E-01 0.17008118E+03</pdfrwt>
<pdfrwt beam="2">  1       21 0.61312940E-01 0.17008118E+03</pdfrwt>
<totfact> 0.94616173E+04</totfact>
</mgrwt>
</event>
<event>
 6    1  0.4202038E-002  0.1296626E+03  0.7546771E-02  0.1227957E+00
         21   -1    0    0  503  502  0.00000000000E+00  0.00000000000E+00  0.20510772528E+03  0.20510772528E+03  0.00000000000E+00 0. -1.
         21   -1    0    0  504  503 -0.00000000000E+00 -0.00000000000E+00 -0.35295928580E+02  0.35295928580E+02  0.00000000000E+00 0. -1.
         25    2    1    2    0    0  0.83759040647E+01 -0.33416011415E+02  0.15706606543E+03  0.20367166163E+03  0.12500244498E+03 0.  0.
          5    1    3    3  501    0  0.41413011516E+02  0.26359137290E+02  0.25227916121E+02  0.55193291199E+02  0.10000000000E+00 0.  1.
         -5    1    3    3    0  501 -0.33037107452E+02 -0.59775148705E+02  0.13183814931E+03  0.14847837043E+03  0.10000000000E+00 0.  1.
         21    1    1    2  504  502 -0.83759040647E+01  0.33416011415E+02  0.12745731267E+02  0.36731992232E+02  0.00000000000E+00 0. -1.
<mgrwt>
<rscale>  1 0.12966263E+03</rscale>
<asrwt>0</asrwt>
<pdfrwt beam="1">  1       21 0.31555034E-01 0.12966263E+03</pdfrwt>
<pdfrwt beam="2">  1       21 0.54301430E-02 0.12966263E+03</pdfrwt>
<totfact> 0.22428254E+06</totfact>
</mgrwt>
</event>
<event>
 6    1  0.4202038E-002  0.1260379E+03  0.7546771E-02  0.1233456E+00
         21   -1    0    0  504  502  0.00000000000E+00  0.00000000000E+00  0.37059373093E+02  0.37059373093E+02  0.00000000000E+00 0. -1.
         21   -1    0    0  502  503 -0.00000000000E+00 -0.00000000000E+00 -0.14109287805E+03  0.14109287805E+03  0.00000000000E+00 0. -1.
         25    2    1    2    0    0  0.13796372357E+02  0.83869550876E+01 -0.80289405915E+02  0.14943878487E+03  0.12499952327E+03 0.  0.
          5    1    3    3  501    0 -0.13638561209E+01 -0.15711004602E+02  0.30884182839E+02  0.34677637157E+02  0.10000000000E+00 0. -1.
         -5    1    3    3    0  501  0.15160228478E+02  0.24097959690E+02 -0.11117358875E+03  0.11476114772E+03  0.10000000000E+00 0. -1.
         21    1    1    2  504  503 -0.13796372357E+02 -0.83869550876E+01 -0.23744099041E+02  0.28713466268E+02  0.00000000000E+00 0.  1.
<mgrwt>
<rscale>  1 0.12603794E+03</rscale>
<asrwt>0</asrwt>
<pdfrwt beam="1">  1       21 0.57014420E-02 0.12603794E+03</pdfrwt>
<pdfrwt beam="2">  1       21 0.21706597E-01 0.12603794E+03</pdfrwt>
<totfact> 0.41997426E+06</totfact>
</mgrwt>
</event>
<event>
 6    1  0.4202038E-002  0.1276102E+03  0.7546771E-02  0.1231046E+00
         21   -1    0    0  504  502  0.00000000000E+00  0.00000000000E+00  0.26207522221E+02  0.26207522221E+02  0.00000000000E+00 0. -1.
         21   -1    0    0  502  503 -0.00000000000E+00 -0.00000000000E+00 -0.13418549768E+04  0.13418549768E+04  0.00000000000E+00 0. -1.
         25    2    1    2    0    0  0.20997865276E+02 -0.14779536425E+02 -0.13010037271E+03  0.18223737347E+03  0.12500003308E+03 0.  0.
          5    1    3    3  501    0  0.15649661346E+02  0.33000188368E+02  0.67905652701E+01  0.37148971846E+02  0.10000000000E+00 0. -1.
         -5    1    3    3    0  501  0.53482039302E+01 -0.47779724793E+02 -0.13689093798E+03  0.14508840163E+03  0.10000000000E+00 0. -1.
         21    1    1    2  504  503 -0.20997865276E+02  0.14779536425E+02 -0.11855470819E+04  0.11858251256E+04  0.00000000000E+00 0. -1.
<mgrwt>
<rscale>  1 0.12761016E+03</rscale>
<asrwt>0</asrwt>
<pdfrwt beam="1">  1       21 0.40319266E-02 0.12761016E+03</pdfrwt>
<pdfrwt beam="2">  1       21 0.20643922E+00 0.12761016E+03</pdfrwt>
<totfact> 0.49572255E+04</totfact>
</mgrwt>
</event>
<event>
 6    1  0.4202038E-002  0.1300442E+03  0.7546771E-02  0.1227390E+00
         21   -1    0    0  504  502  0.00000000000E+00  0.00000000000E+00  0.16934120152E+02  0.16934120152E+02  0.00000000000E+00 0. -1.
         21   -1    0    0  502  503 -0.00000000000E+00 -0.00000000000E+00 -0.40642830021E+03  0.40642830021E+03  0.00000000000E+00 0. -1.
         25    2    1    2    0    0 -0.30694636281E+02  0.18549661096E+02 -0.30308338965E+03  0.32980454885E+03  0.12500099494E+03 0.  0.
          5    1    3    3  501    0  0.71435523321E+00  0.69771010374E+02 -0.15405250009E+03  0.16911737633E+03  0.10000000000E+00 0. -1.
         -5    1    3    3    0  501 -0.31408991514E+02 -0.51221349278E+02 -0.14903088956E+03  0.16068717252E+03  0.10000000000E+00 0. -1.
         21    1    1    2  504  503  0.30694636281E+02 -0.18549661096E+02 -0.86410790407E+02  0.93557871512E+02  0.00000000000E+00 0.  1.
<mgrwt>
<rscale>  1 0.13004422E+03</rscale>
<asrwt>0</asrwt>
<pdfrwt beam="1">  1       21 0.26052493E-02 0.13004422E+03</pdfrwt>
<pdfrwt beam="2">  1       21 0.62527429E-01 0.13004422E+03</pdfrwt>
<totfact> 0.18879502E+06</totfact>
</mgrwt>
</event>
<event>
 6    1  0.4202038E-002  0.1275173E+03  0.7546771E-02  0.1231187E+00
         21   -1    0    0  503  502  0.00000000000E+00  0.00000000000E+00  0.10091821713E+03  0.10091821713E+03  0.00000000000E+00 0. -1.
         21   -1    0    0  504  503 -0.00000000000E+00 -0.00000000000E+00 -0.11337096591E+03  0.11337096591E+03  0.00000000000E+00 0.  1.
         25    2    1    2    0    0 -0.19899037980E+02 -0.14849770264E+02  0.57632101774E+02  0.13993614903E+03  0.12507669352E+03 0.  0.
          5    1    3    3  501    0 -0.31284502689E+02  0.15798146989E+02  0.88367010737E+02  0.95063348054E+02  0.10000000000E+00 0.  1.
         -5    1    3    3    0  501  0.11385464709E+02 -0.30647917253E+02 -0.30734908963E+02  0.44872800977E+02  0.10000000000E+00 0.  1.
         21    1    1    2  504  502  0.19899037980E+02  0.14849770264E+02 -0.70084850556E+02  0.74353034013E+02  0.00000000000E+00 0.  1.
<mgrwt>
<rscale>  1 0.12751732E+03</rscale>
<asrwt>0</asrwt>
<pdfrwt beam="1">  1       21 0.15525879E-01 0.12751732E+03</pdfrwt>
<pdfrwt beam="2">  1       21 0.17441687E-01 0.12751732E+03</pdfrwt>
<totfact> 0.10960653E+06</totfact>
</mgrwt>
</event>
<event>
 6    1  0.4202038E-002  0.1482711E+03  0.7546771E-02  0.1202614E+00
         21   -1    0    0  503  502  0.00000000000E+00  0.00000000000E+00  0.57495499063E+03  0.57495499063E+03  0.00000000000E+00 0.  1.
         21   -1    0    0  504  503 -0.00000000000E+00 -0.00000000000E+00 -0.26434239268E+02  0.26434239268E+02  0.00000000000E+00 0.  1.
         25    2    1    2    0    0  0.62226114133E+02 -0.49869485301E+02  0.45466651188E+03  0.47823212246E+03  0.12500108432E+03 0.  0.
          5    1    3    3  501    0  0.19470662286E+02  0.11811024956E+02  0.34260283968E+03  0.34335888332E+03  0.10000000000E+00 0.  1.
         -5    1    3    3    0  501  0.42755451847E+02 -0.61680510256E+02  0.11206367221E+03  0.13487323914E+03  0.10000000000E+00 0.  1.
         21    1    1    2  504  502 -0.62226114133E+02  0.49869485301E+02  0.93854239483E+02  0.12315710744E+03  0.00000000000E+00 0.  1.
<mgrwt>
<rscale>  1 0.14827112E+03</rscale>
<asrwt>0</asrwt>
<pdfrwt beam="1">  1       21 0.88454605E-01 0.14827112E+03</pdfrwt>
<pdfrwt beam="2">  1       21 0.40668065E-02 0.14827112E+03</pdfrwt>
<totfact> 0.42066953E+05</totfact>
</mgrwt>
</event>
<event>
 6    1  0.4202038E-002  0.1492320E+03  0.7546771E-02  0.1201420E+00
         21   -1    0    0  503  502  0.00000000000E+00  0.00000000000E+00  0.59848243597E+03  0.59848243597E+03  0.00000000000E+00 0.  1.
         21   -1    0    0  504  503 -0.00000000000E+00 -0.00000000000E+00 -0.25604897127E+02  0.25604897127E+02  0.00000000000E+00 0.  1.
         25    2    1    2    0    0  0.74877235307E+02  0.32246688183E+02  0.46820165987E+03  0.49140919283E+03  0.12499500481E+03 0.  0.
          5    1    3    3  501    0  0.64565789178E+02  0.36438474737E+02  0.10778651322E+03  0.13082219233E+03  0.10000000000E+00 0. -1.
         -5    1    3    3    0  501  0.10311446129E+02 -0.41917865534E+01  0.36041514665E+03  0.36058700051E+03  0.10000000000E+00 0. -1.
         21    1    1    2  504  502 -0.74877235307E+02 -0.32246688183E+02  0.10467587897E+03  0.13267814027E+03  0.00000000000E+00 0.  1.
<mgrwt>
<rscale>  1 0.14923204E+03</rscale>
<asrwt>0</asrwt>
<pdfrwt beam="1">  1       21 0.92074211E-01 0.14923204E+03</pdfrwt>
<pdfrwt beam="2">  1       21 0.39392154E-02 0.14923204E+03</pdfrwt>
<totfact> 0.40450170E+05</totfact>
</mgrwt>
</event>
<event>
 6    1  0.4202038E-002  0.1268204E+03  0.7546771E-02  0.1232251E+00
         21   -1    0    0  503  502  0.00000000000E+00  0.00000000000E+00  0.27625481536E+03  0.27625481536E+03  0.00000000000E+00 0.  1.
         21   -1    0    0  504  503 -0.00000000000E+00 -0.00000000000E+00 -0.37763474883E+02  0.37763474883E+02  0.00000000000E+00 0.  1.
         25    2    1    2    0    0 -0.18897511063E+02 -0.10034739124E+02  0.25644323228E+03  0.28608833620E+03  0.12500237124E+03 0.  0.
          5    1    3    3  501    0 -0.30997604313E+02  0.47886112263E+02  0.68993614192E+02  0.89521282497E+02  0.10000000000E+00 0.  1.
         -5    1    3    3    0  501  0.12100093249E+02 -0.57920851387E+02  0.18744961809E+03  0.19656705371E+03  0.10000000000E+00 0.  1.
         21    1    1    2  504  502  0.18897511063E+02  0.10034739124E+02 -0.17951891798E+02  0.27929954042E+02  0.00000000000E+00 0.  1.
<mgrwt>
<rscale>  1 0.12682036E+03</rscale>
<asrwt>0</asrwt>
<pdfrwt beam="1">  1       21 0.42500740E-01 0.12682036E+03</pdfrwt>
<pdfrwt beam="2">  1       21 0.58097655E-02 0.12682036E+03</pdfrwt>
<totfact> 0.11103473E+06</totfact>
</mgrwt>
</event>
<event>
 6    1  0.4202038E-002  0.1386928E+03  0.7546771E-02  0.1215099E+00
         21   -1    0    0  503  502  0.00000000000E+00  0.00000000000E+00  0.24981309821E+03  0.24981309821E+03  0.00000000000E+00 0.  1.
         21   -1    0    0  504  503 -0.00000000000E+00 -0.00000000000E+00 -0.10505569685E+03  0.10505569685E+03  0.00000000000E+00 0. -1.
         25    2    1    2    0    0  0.60081048077E+02 -0.26116888465E+00  0.21908481983E+03  0.25929491953E+03  0.12500358583E+03 0.  0.
          5    1    3    3  501    0  0.50712604744E+02 -0.59624401511E+02  0.11513069461E+03  0.13921897995E+03  0.10000000000E+00 0. -1.
         -5    1    3    3    0  501  0.93684433326E+01  0.59363232627E+02  0.10395412521E+03  0.12007593958E+03  0.10000000000E+00 0. -1.
         21    1    1    2  504  502 -0.60081048077E+02  0.26116888465E+00 -0.74327418471E+02  0.95573875530E+02  0.00000000000E+00 0. -1.
<mgrwt>
<rscale>  1 0.13869282E+03</rscale>
<asrwt>0</asrwt>
<pdfrwt beam="1">  1       21 0.38432784E-01 0.13869282E+03</pdfrwt>
<pdfrwt beam="2">  1       21 0.16162415E-01 0.13869282E+03</pdfrwt>
<totfact> 0.22659382E+05</totfact>
</mgrwt>
</event>
<event>
 6    1  0.4202038E-002  0.1304101E+03  0.7546771E-02  0.1226848E+00
         21   -1    0    0  504  502  0.00000000000E+00  0.00000000000E+00  0.74772016920E+01  0.74772016920E+01  0.00000000000E+00 0. -1.
         21   -1    0    0  502  503 -0.00000000000E+00 -0.00000000000E+00 -0.98518268190E+03  0.98518268190E+03  0.00000000000E+00 0. -1.
         25    2    1    2    0    0  0.13146578656E+01 -0.37176248097E+02 -0.65809142428E+03  0.67088830856E+03  0.12499199219E+03 0.  0.
          5    1    3    3  501    0 -0.19975953240E+02  0.67999607218E+00 -0.58860767526E+03  0.58894694708E+03  0.10000000000E+00 0.  1.
         -5    1    3    3    0  501  0.21290611106E+02 -0.37856244169E+02 -0.69483749015E+02  0.81941361479E+02  0.10000000000E+00 0.  1.
         21    1    1    2  504  503 -0.13146578656E+01  0.37176248097E+02 -0.31961405593E+03  0.32177157503E+03  0.00000000000E+00 0. -1.
<mgrwt>
<rscale>  1 0.13041012E+03</rscale>
<asrwt>0</asrwt>
<pdfrwt beam="1">  1       21 0.11503383E-02 0.13041012E+03</pdfrwt>
<pdfrwt beam="2">  1       21 0.15156663E+00 0.13041012E+03</pdfrwt>
<totfact> 0.88374225E+05</totfact>
</mgrwt>
</event>
<event>
 6    1  0.4202038E-002  0.1272534E+03  0.7546771E-02  0.1231589E+00
         21   -1    0    0  504  502  0.00000000000E+00  0.00000000000E+00  0.23822815640E+03  0.23822815640E+03  0.00000000000E+00 0. -1.
         21   -1    0    0  502  503 -0.00000000000E+00 -0.00000000000E+00 -0.30140057379E+02  0.30140057379E+02  0.00000000000E+00 0. -1.
         25    2    1    2    0    0  0.68369510879E+01 -0.22847146135E+02  0.20878608669E+03  0.24450981539E+03  0.12499873535E+03 0.  0.
          5    1    3    3  501    0  0.16748478816E+01 -0.44710896557E+02  0.21625549841E+03  0.22083550434E+03  0.10000000000E+00 0.  1.
         -5    1    3    3    0  501  0.51621032064E+01  0.21863750422E+02 -0.74694117187E+01  0.23674311045E+02  0.10000000000E+00 0.  1.
         21    1    1    2  504  503 -0.68369510879E+01  0.22847146135E+02 -0.69798767448E+00  0.23858398385E+02  0.00000000000E+00 0. -1.
<mgrwt>
<rscale>  1 0.12725337E+03</rscale>
<asrwt>0</asrwt>
<pdfrwt beam="1">  1       21 0.36650484E-01 0.12725337E+03</pdfrwt>
<pdfrwt beam="2">  1       21 0.46369321E-02 0.12725337E+03</pdfrwt>
<totfact> 0.21802270E+06</totfact>
</mgrwt>
</event>
<event>
 6    1  0.4202038E-002  0.1267215E+03  0.7546771E-02  0.1232403E+00
         21   -1    0    0  503  502  0.00000000000E+00  0.00000000000E+00  0.41990220705E+03  0.41990220705E+03  0.00000000000E+00 0.  1.
         21   -1    0    0  504  503 -0.00000000000E+00 -0.00000000000E+00 -0.53010741136E+02  0.53010741136E+02  0.00000000000E+00 0.  1.
         25    2    1    2    0    0 -0.16168278889E+02  0.12990510121E+02  0.40780638254E+03  0.42704142109E+03  0.12501265174E+03 0.  0.
          5    1    3    3  501    0  0.46535720741E+02 -0.21283603170E+02  0.22542471638E+03  0.23115985340E+03  0.10000000000E+00 0. -1.
         -5    1    3    3    0  501 -0.62703999630E+02  0.34274113291E+02  0.18238166616E+03  0.19588156769E+03  0.10000000000E+00 0. -1.
         21    1    1    2  504  502  0.16168278889E+02 -0.12990510121E+02 -0.40914916625E+02  0.45871527093E+02  0.00000000000E+00 0.  1.
<mgrwt>
<rscale>  1 0.12672146E+03</rscale>
<asrwt>0</asrwt>
<pdfrwt beam="1">  1       21 0.64600337E-01 0.12672146E+03</pdfrwt>
<pdfrwt beam="2">  1       21 0.81554989E-02 0.12672146E+03</pdfrwt>
<totfact> 0.26053910E+05</totfact>
</mgrwt>
</event>
<event>
 6    1  0.4202038E-002  0.1268800E+03  0.7546771E-02  0.1232160E+00
         21   -1    0    0  503  502  0.00000000000E+00  0.00000000000E+00  0.66879551737E+02  0.66879551737E+02  0.00000000000E+00 0. -1.
         21   -1    0    0  504  503 -0.00000000000E+00 -0.00000000000E+00 -0.85314256530E+03  0.85314256530E+03  0.00000000000E+00 0. -1.
         25    2    1    2    0    0  0.61871744598E+01  0.20822396465E+02  0.64192339348E+01  0.12704229458E+03  0.12500673872E+03 0.  0.
          5    1    3    3  501    0 -0.63806614999E+01 -0.51287730122E+02 -0.83962394678E+01  0.52360776727E+02  0.10000000000E+00 0.  1.
         -5    1    3    3    0  501  0.12567835960E+02  0.72110126586E+02  0.14815473403E+02  0.74681517855E+02  0.10000000000E+00 0.  1.
         21    1    1    2  504  502 -0.61871744598E+01 -0.20822396465E+02 -0.79268224749E+03  0.79297982245E+03  0.00000000000E+00 0. -1.
<mgrwt>
<rscale>  1 0.12688001E+03</rscale>
<asrwt>0</asrwt>
<pdfrwt beam="1">  1       21 0.10289163E-01 0.12688001E+03</pdfrwt>
<pdfrwt beam="2">  1       21 0.13125269E+00 0.12688001E+03</pdfrwt>
<totfact> 0.33941200E+04</totfact>
</mgrwt>
</event>
<event>
 6    1  0.4202038E-002  0.1470272E+03  0.7546771E-02  0.1204174E+00
         21   -1    0    0  503  502  0.00000000000E+00  0.00000000000E+00  0.14272304966E+03  0.14272304966E+03  0.00000000000E+00 0.  1.
         21   -1    0    0  504  503 -0.00000000000E+00 -0.00000000000E+00 -0.11006964696E+03  0.11006964696E+03  0.00000000000E+00 0. -1.
         25    2    1    2    0    0  0.55410231863E+01 -0.77210569982E+02  0.74469521822E+02  0.16481109131E+03  0.12499924433E+03 0.  0.
          5    1    3    3  501    0 -0.41436379654E+02 -0.69501812729E+02  0.83590508953E+02  0.11633941172E+03  0.10000000000E+00 0.  1.
         -5    1    3    3    0  501  0.46977402840E+02 -0.77087572529E+01 -0.91209871315E+01  0.48471679590E+02  0.10000000000E+00 0.  1.
         21    1    1    2  504  502 -0.55410231863E+01  0.77210569982E+02 -0.41816119122E+02  0.87981605312E+02  0.00000000000E+00 0. -1.
<mgrwt>
<rscale>  1 0.14702716E+03</rscale>
<asrwt>0</asrwt>
<pdfrwt beam="1">  1       21 0.21957392E-01 0.14702716E+03</pdfrwt>
<pdfrwt beam="2">  1       21 0.16933792E-01 0.14702716E+03</pdfrwt>
<totfact> 0.61187047E+05</totfact>
</mgrwt>
</event>
<event>
 6    1  0.4202038E-002  0.1269185E+03  0.7546771E-02  0.1232101E+00
         21   -1    0    0  504  502  0.00000000000E+00  0.00000000000E+00  0.57807582601E+02  0.57807582601E+02  0.00000000000E+00 0.  1.
         21   -1    0    0  502  503 -0.00000000000E+00 -0.00000000000E+00 -0.15529835961E+03  0.15529835961E+03  0.00000000000E+00 0.  1.
         25    2    1    2    0    0  0.16404333826E+02 -0.14514360748E+02 -0.15053176276E+02  0.12780807090E+03  0.12501414334E+03 0.  0.
          5    1    3    3  501    0  0.41639231406E+02 -0.37397959519E+02 -0.52813250147E+02  0.76952468183E+02  0.10000000000E+00 0.  1.
         -5    1    3    3    0  501 -0.25234897581E+02  0.22883598771E+02  0.37760073871E+02  0.50855602714E+02  0.10000000000E+00 0.  1.
         21    1    1    2  504  503 -0.16404333826E+02  0.14514360748E+02 -0.82437600729E+02  0.85297871311E+02  0.00000000000E+00 0.  1.
<mgrwt>
<rscale>  1 0.12691850E+03</rscale>
<asrwt>0</asrwt>
<pdfrwt beam="1">  1       21 0.88934741E-02 0.12691850E+03</pdfrwt>
<pdfrwt beam="2">  1       21 0.23892056E-01 0.12691850E+03</pdfrwt>
<totfact> 0.16400769E+06</totfact>
</mgrwt>
</event>
<event>
 6    1  0.4202038E-002  0.1422942E+03  0.7546771E-02  0.1210275E+00
         21   -1    0    0  504  502  0.00000000000E+00  0.00000000000E+00  0.10856417129E+04  0.10856417129E+04  0.00000000000E+00 0.  1.
         21   -1    0    0  502  503 -0.00000000000E+00 -0.00000000000E+00 -0.63877218623E+02  0.63877218623E+02  0.00000000000E+00 0. -1.
         25    2    1    2    0    0  0.44249418308E+02 -0.51620140922E+02  0.10613489208E+04  0.10708450680E+04  0.12499991259E+03 0.  0.
          5    1    3    3  501    0  0.40280728387E+02 -0.23812297052E+02  0.11604642864E+03  0.12512532186E+03  0.10000000000E+00 0. -1.
         -5    1    3    3    0  501  0.39686899204E+01 -0.27807843871E+02  0.94530249211E+03  0.94571974616E+03  0.10000000000E+00 0. -1.
         21    1    1    2  504  503 -0.44249418308E+02  0.51620140922E+02 -0.39584426518E+02  0.78673863462E+02  0.00000000000E+00 0. -1.
<mgrwt>
<rscale>  1 0.14229416E+03</rscale>
<asrwt>0</asrwt>
<pdfrwt beam="1">  1       21 0.16702179E+00 0.14229416E+03</pdfrwt>
<pdfrwt beam="2">  1       21 0.98272652E-02 0.14229416E+03</pdfrwt>
<totfact> 0.19473452E+04</totfact>
</mgrwt>
</event>
<event>
 6    1  0.4202038E-002  0.1260279E+03  0.7546771E-02  0.1233471E+00
         21   -1    0    0  504  502  0.00000000000E+00  0.00000000000E+00  0.10956663783E+03  0.10956663783E+03  0.00000000000E+00 0.  1.
         21   -1    0    0  502  503 -0.00000000000E+00 -0.00000000000E+00 -0.46479036521E+02  0.46479036521E+02  0.00000000000E+00 0.  1.
         25    2    1    2    0    0  0.11100058207E+02  0.11594859021E+02  0.60461712345E+02  0.13978076301E+03  0.12500156399E+03 0.  0.
          5    1    3    3  501    0  0.54190407993E+02  0.19782792930E+02  0.74044242025E+02  0.93864364865E+02  0.10000000000E+00 0. -1.
         -5    1    3    3    0  501 -0.43090349786E+02 -0.81879339083E+01 -0.13582529680E+02  0.45916398148E+02  0.10000000000E+00 0. -1.
         21    1    1    2  504  503 -0.11100058207E+02 -0.11594859021E+02  0.26258889605E+01  0.16264911335E+02  0.00000000000E+00 0.  1.
<mgrwt>
<rscale>  1 0.12602795E+03</rscale>
<asrwt>0</asrwt>
<pdfrwt beam="1">  1       21 0.16856406E-01 0.12602795E+03</pdfrwt>
<pdfrwt beam="2">  1       21 0.71506210E-02 0.12602795E+03</pdfrwt>
<totfact> 0.45502124E+06</totfact>
</mgrwt>
</event>
<event>
 6    1  0.4202038E-002  0.1281991E+03  0.7546771E-02  0.1230153E+00
         21   -1    0    0  504  502  0.00000000000E+00  0.00000000000E+00  0.43178328486E+03  0.43178328486E+03  0.00000000000E+00 0. -1.
         21   -1    0    0  502  503 -0.00000000000E+00 -0.00000000000E+00 -0.14749873322E+02  0.14749873322E+02  0.00000000000E+00 0. -1.
         25    2    1    2    0    0  0.28288889237E+02 -0.29117279059E+01  0.36989270292E+03  0.39147876850E+03  0.12500510031E+03 0.  0.
          5    1    3    3  501    0 -0.24362217600E+02  0.28392870063E+02  0.28126923163E+03  0.28374647730E+03  0.10000000000E+00 0.  1.
         -5    1    3    3    0  501  0.52651106837E+02 -0.31304597969E+02  0.88623471283E+02  0.10773229120E+03  0.10000000000E+00 0.  1.
         21    1    1    2  504  503 -0.28288889237E+02  0.29117279059E+01  0.47140708622E+02  0.55054389681E+02  0.00000000000E+00 0. -1.
<mgrwt>
<rscale>  1 0.12819912E+03</rscale>
<asrwt>0</asrwt>
<pdfrwt beam="1">  1       21 0.66428188E-01 0.12819912E+03</pdfrwt>
<pdfrwt beam="2">  1       21 0.22692116E-02 0.12819912E+03</pdfrwt>
<totfact> 0.20743318E+06</totfact>
</mgrwt>
</event>
<event>
 6    1  0.4202038E-002  0.1305301E+03  0.7546771E-02  0.1226671E+00
         21   -1    0    0  503  502  0.00000000000E+00  0.00000000000E+00  0.53799329382E+02  0.53799329382E+02  0.00000000000E+00 0.  1.
         21   -1    0    0  504  503 -0.00000000000E+00 -0.00000000000E+00 -0.21016112917E+03  0.21016112917E+03  0.00000000000E+00 0.  1.
         25    2    1    2    0    0  0.29212027219E+02 -0.23631836900E+02 -0.32486491171E+02  0.13451201965E+03  0.12500522018E+03 0.  0.
          5    1    3    3  501    0  0.64095097372E+01  0.39623505553E+02  0.23937572575E+02  0.46734584497E+02  0.10000000000E+00 0. -1.
         -5    1    3    3    0  501  0.22802517482E+02 -0.63255342453E+02 -0.56424063746E+02  0.87777435152E+02  0.10000000000E+00 0. -1.
         21    1    1    2  504  502 -0.29212027219E+02  0.23631836900E+02 -0.12387530861E+03  0.12944843890E+03  0.00000000000E+00 0.  1.
<mgrwt>
<rscale>  1 0.13053012E+03</rscale>
<asrwt>0</asrwt>
<pdfrwt beam="1">  1       21 0.82768200E-02 0.13053012E+03</pdfrwt>
<pdfrwt beam="2">  1       21 0.32332481E-01 0.13053012E+03</pdfrwt>
<totfact> 0.10419526E+06</totfact>
</mgrwt>
</event>
<event>
 6    1  0.4202038E-002  0.1282478E+03  0.7546771E-02  0.1230079E+00
         21   -1    0    0  504  502  0.00000000000E+00  0.00000000000E+00  0.50812185924E+02  0.50812185924E+02  0.00000000000E+00 0. -1.
         21   -1    0    0  502  503 -0.00000000000E+00 -0.00000000000E+00 -0.16723644906E+03  0.16723644906E+03  0.00000000000E+00 0. -1.
         25    2    1    2    0    0 -0.25296520762E+02  0.13526773836E+02 -0.36812735498E+02  0.13342663485E+03  0.12499840727E+03 0.  0.
          5    1    3    3  501    0 -0.57290023056E+02  0.41449116015E+02  0.86233773966E+01  0.71235865952E+02  0.10000000000E+00 0. -1.
         -5    1    3    3    0  501  0.31993502295E+02 -0.27922342179E+02 -0.45436112894E+02  0.62190768903E+02  0.10000000000E+00 0. -1.
         21    1    1    2  504  503  0.25296520762E+02 -0.13526773836E+02 -0.79611527637E+02  0.84622000128E+02  0.00000000000E+00 0. -1.
<mgrwt>
<rscale>  1 0.12824777E+03</rscale>
<asrwt>0</asrwt>
<pdfrwt beam="1">  1       21 0.78172594E-02 0.12824777E+03</pdfrwt>
<pdfrwt beam="2">  1       21 0.25728684E-01 0.12824777E+03</pdfrwt>
<totfact> 0.17826019E+06</totfact>
</mgrwt>
</event>
<event>
 6    1  0.4202038E-002  0.1275986E+03  0.7546771E-02  0.1231063E+00
         21   -1    0    0  504  502  0.00000000000E+00  0.00000000000E+00  0.11955727489E+03  0.11955727489E+03  0.00000000000E+00 0. -1.
         21   -1    0    0  502  503 -0.00000000000E+00 -0.00000000000E+00 -0.52080474839E+02  0.52080474839E+02  0.00000000000E+00 0. -1.
         25    2    1    2    0    0  0.60951214146E+01 -0.24876838258E+02  0.70612452106E+02  0.14583387597E+03  0.12500157360E+03 0.  0.
          5    1    3    3  501    0  0.22062923501E+02 -0.69930134979E+01 -0.32540110415E+02  0.39931736965E+02  0.10000000000E+00 0.  1.
         -5    1    3    3    0  501 -0.15967802087E+02 -0.17883824761E+02  0.10315256252E+03  0.10590213901E+03  0.10000000000E+00 0.  1.
         21    1    1    2  504  503 -0.60951214146E+01  0.24876838258E+02 -0.31356520587E+01  0.25803873752E+02  0.00000000000E+00 0. -1.
<mgrwt>
<rscale>  1 0.12759859E+03</rscale>
<asrwt>0</asrwt>
<pdfrwt beam="1">  1       21 0.18393427E-01 0.12759859E+03</pdfrwt>
<pdfrwt beam="2">  1       21 0.80123808E-02 0.12759859E+03</pdfrwt>
<totfact> 0.31929091E+06</totfact>
</mgrwt>
</event>
<event>
 6    1  0.4202038E-002  0.1367077E+03  0.7546771E-02  0.1217829E+00
         21   -1    0    0  504  502  0.00000000000E+00  0.00000000000E+00  0.32646792293E+03  0.32646792293E+03  0.00000000000E+00 0.  1.
         21   -1    0    0  502  503 -0.00000000000E+00 -0.00000000000E+00 -0.20890112007E+03  0.20890112007E+03  0.00000000000E+00 0.  1.
         25    2    1    2    0    0  0.55221097123E+02 -0.40317300280E+01  0.30803936885E+03  0.33701223619E+03  0.12499348048E+03 0.  0.
          5    1    3    3  501    0  0.73331468032E+02  0.32423217559E+02  0.26868425109E+03  0.28039259267E+03  0.10000000000E+00 0.  1.
         -5    1    3    3    0  501 -0.18110370909E+02 -0.36454947587E+02  0.39355117763E+02  0.56619643518E+02  0.10000000000E+00 0.  1.
         21    1    1    2  504  503 -0.55221097123E+02  0.40317300280E+01 -0.19047256599E+03  0.19835680681E+03  0.00000000000E+00 0.  1.
<mgrwt>
<rscale>  1 0.13670770E+03</rscale>
<asrwt>0</asrwt>
<pdfrwt beam="1">  1       21 0.50225834E-01 0.13670770E+03</pdfrwt>
<pdfrwt beam="2">  1       21 0.32138634E-01 0.13670770E+03</pdfrwt>
<totfact> 0.36243268E+04</totfact>
</mgrwt>
</event>
<event>
 6    1  0.4202038E-002  0.1622243E+03  0.7546771E-02  0.1186208E+00
         21   -1    0    0  503  502  0.00000000000E+00  0.00000000000E+00  0.38155195065E+02  0.38155195065E+02  0.00000000000E+00 0. -1.
         21   -1    0    0  504  503 -0.00000000000E+00 -0.00000000000E+00 -0.50300138102E+03  0.50300138102E+03  0.00000000000E+00 0. -1.
         25    2    1    2    0    0  0.40079899932E+02 -0.95324293901E+02 -0.20453311000E+03  0.26105656377E+03  0.12499446794E+03 0.  0.
          5    1    3    3  501    0  0.57547441358E+02 -0.97718585658E+02 -0.21314378554E+03  0.24143511200E+03  0.10000000000E+00 0. -1.
         -5    1    3    3    0  501 -0.17467541426E+02  0.23942917571E+01  0.86106755395E+01  0.19621451774E+02  0.10000000000E+00 0. -1.
         21    1    1    2  504  502 -0.40079899932E+02  0.95324293901E+02 -0.26031307595E+03  0.28010001231E+03  0.00000000000E+00 0. -1.
<mgrwt>
<rscale>  1 0.16222434E+03</rscale>
<asrwt>0</asrwt>
<pdfrwt beam="1">  1       21 0.58700302E-02 0.16222434E+03</pdfrwt>
<pdfrwt beam="2">  1       21 0.77384825E-01 0.16222434E+03</pdfrwt>
<totfact> 0.30584505E+05</totfact>
</mgrwt>
</event>
<event>
 6    1  0.4202038E-002  0.1263347E+03  0.7546771E-02  0.1232998E+00
         21   -1    0    0  503  502  0.00000000000E+00  0.00000000000E+00  0.83433216292E+01  0.83433216292E+01  0.00000000000E+00 0. -1.
         21   -1    0    0  504  503 -0.00000000000E+00 -0.00000000000E+00 -0.67011571984E+03  0.67011571984E+03  0.00000000000E+00 0. -1.
         25    2    1    2    0    0  0.51386289440E+01  0.17595738077E+02 -0.50260389040E+03  0.51823847667E+03  0.12499773018E+03 0.  0.
          5    1    3    3  501    0  0.32628504406E+02  0.60489825430E+02 -0.36699615916E+03  0.37337625677E+03  0.10000000000E+00 0. -1.
         -5    1    3    3    0  501 -0.27489875462E+02 -0.42894087353E+02 -0.13560773124E+03  0.14486221990E+03  0.10000000000E+00 0. -1.
         21    1    1    2  504  502 -0.51386289440E+01 -0.17595738077E+02 -0.15916850781E+03  0.16022056480E+03  0.00000000000E+00 0. -1.
<mgrwt>
<rscale>  1 0.12633467E+03</rscale>
<asrwt>0</asrwt>
<pdfrwt beam="1">  1       21 0.12835878E-02 0.12633467E+03</pdfrwt>
<pdfrwt beam="2">  1       21 0.10309474E+00 0.12633467E+03</pdfrwt>
<totfact> 0.19228418E+06</totfact>
</mgrwt>
</event>
